<event>
 8    1  0.1044719E+005  0.1043930E+01  0.7957747E-01            NaN
         13   -1    0    0    0    0  0.00000000000E+00  0.00000000000E+00  0.74505805969E-08  0.10566000000E+00  0.10566000000E+00 0. -1.
     999900   -1    0    0    0    0 -0.00000000000E+00 -0.00000000000E+00 -0.74505805969E-08  0.93827000000E+00  0.93827000000E+00 0. -1.
     999902    2    1    2    0    0 -0.13266979572E-01 -0.86249259484E-02  0.18486489715E-01  0.10195958184E+01  0.10193053911E+01 0.  0.
     999903    2    3    3    0    0 -0.79365466892E-01  0.31911324062E-01  0.98526029652E-01  0.13256790135E+00  0.23444829070E-01 0.  0.
         14    1    1    2    0    0  0.13266979572E-01  0.86249259484E-02 -0.18486489715E-01  0.24334181650E-01  0.00000000000E+00 0.  1.
     999901    1    3    3    0    0  0.66098487319E-01 -0.40536250010E-01 -0.80039539937E-01  0.88702791700E+00  0.88000000000E+00 0.  1.
        -11    1    4    4    0    0 -0.72066127021E-01  0.30664688328E-01  0.77140081580E-01  0.10993044656E+00  0.51100000000E-03 0. -1.
         11    1    4    4    0    0 -0.72993398701E-02  0.12466357343E-02  0.21385948072E-01  0.22637454785E-01  0.51100000000E-03 0.  1.
</event>
<event>
 8    1  0.1078548E+005  0.1043930E+01  0.7957747E-01            NaN
         13   -1    0    0    0    0  0.00000000000E+00  0.00000000000E+00  0.74505805969E-08  0.10566000000E+00  0.10566000000E+00 0.  1.
     999900   -1    0    0    0    0 -0.00000000000E+00 -0.00000000000E+00 -0.74505805969E-08  0.93827000000E+00  0.93827000000E+00 0.  1.
     999902    2    1    2    0    0  0.23577869110E-01  0.65710397138E-02  0.66216015362E-03  0.10194446384E+01  0.10191505472E+01 0.  0.
     999903    2    3    3    0    0  0.61210635299E-01 -0.11032525829E+00  0.26656600478E-01  0.13053706141E+00  0.20271792263E-01 0.  0.
         14    1    1    2    0    0 -0.23577869110E-01 -0.65710397138E-02 -0.66216015362E-03  0.24485361561E-01  0.00000000000E+00 0.  1.
     999901    1    3    3    0    0 -0.37632766189E-01  0.11689629800E+00 -0.25994440324E-01  0.88890757703E+00  0.88000000000E+00 0. -1.
        -11    1    4    4    0    0  0.42576900789E-01 -0.55984630840E-01  0.14763872092E-01  0.71870052255E-01  0.51100000000E-03 0.  1.
         11    1    4    4    0    0  0.18633734511E-01 -0.54340627448E-01  0.11892728386E-01  0.58667009151E-01  0.51100000000E-03 0. -1.
</event>
<event>
 8    1  0.1044719E+005  0.1043930E+01  0.7957747E-01            NaN
         13   -1    0    0    0    0  0.00000000000E+00  0.00000000000E+00  0.74505805969E-08  0.10566000000E+00  0.10566000000E+00 0.  1.
     999900   -1    0    0    0    0 -0.00000000000E+00 -0.00000000000E+00 -0.74505805969E-08  0.93827000000E+00  0.93827000000E+00 0.  1.
     999902    2    1    2    0    0  0.21570173286E-01  0.87996093261E-02 -0.15786387702E-02  0.10205805332E+01  0.10203133965E+01 0.  0.
     999903    2    3    3    0    0 -0.11591920441E-01  0.19959314471E-02 -0.12863066060E+00  0.13081189431E+00  0.20677245552E-01 0.  0.
         14    1    1    2    0    0 -0.21570173286E-01 -0.87996093261E-02  0.15786387702E-02  0.23349466809E-01  0.00000000000E+00 0.  1.
     999901    1    3    3    0    0  0.33162093727E-01  0.68036778790E-02  0.12705202183E+00  0.88976863889E+00  0.88000000000E+00 0. -1.
        -11    1    4    4    0    0 -0.89852487631E-02  0.56464205036E-02 -0.26068144479E-01  0.28150062831E-01  0.51100000000E-03 0.  1.
         11    1    4    4    0    0 -0.26066716783E-02 -0.36504890565E-02 -0.10256251612E+00  0.10266183147E+00  0.51100000000E-03 0. -1.
</event>
<event>
 8    1  0.1044719E+005  0.1043930E+01  0.7957747E-01            NaN
         13   -1    0    0    0    0  0.00000000000E+00  0.00000000000E+00  0.74505805969E-08  0.10566000000E+00  0.10566000000E+00 0. -1.
     999900   -1    0    0    0    0 -0.00000000000E+00 -0.00000000000E+00 -0.74505805969E-08  0.93827000000E+00  0.93827000000E+00 0. -1.
     999902    2    1    2    0    0  0.24111043540E-01  0.24224957869E-02 -0.44116245425E-02  0.10192992603E+01  0.10190016235E+01 0.  0.
     999903    2    3    3    0    0 -0.56038154558E-01  0.32973397914E-01 -0.10946109749E+00  0.12891021987E+00  0.20213688080E-01 0.  0.
         14    1    1    2    0    0 -0.24111043540E-01 -0.24224957869E-02  0.44116245425E-02  0.24630739687E-01  0.00000000000E+00 0. -1.
     999901    1    3    3    0    0  0.80149198098E-01 -0.30550902127E-01  0.10504947295E+00  0.89038904044E+00  0.88000000000E+00 0.  1.
        -11    1    4    4    0    0 -0.29940758387E-01  0.67734404050E-02 -0.56691974994E-01  0.64471463900E-01  0.51100000000E-03 0. -1.
         11    1    4    4    0    0 -0.26097396172E-01  0.26199957509E-01 -0.52769122500E-01  0.64438755969E-01  0.51100000000E-03 0.  1.
</event>
<event>
 8    1  0.1044719E+005  0.1043930E+01  0.7957747E-01            NaN
         13   -1    0    0    0    0  0.00000000000E+00  0.00000000000E+00  0.74505805969E-08  0.10566000000E+00  0.10566000000E+00 0.  1.
     999900   -1    0    0    0    0 -0.00000000000E+00 -0.00000000000E+00 -0.74505805969E-08  0.93827000000E+00  0.93827000000E+00 0.  1.
     999902    2    1    2    0    0  0.17156804413E-01 -0.13082745919E-01  0.51726874799E-02  0.10217428219E+01  0.10215018958E+01 0.  0.
     999903    2    3    3    0    0 -0.11621749480E+00 -0.13078766962E-01 -0.52678219923E-01  0.12981489248E+00  0.19983773708E-01 0.  0.
         14    1    1    2    0    0 -0.17156804413E-01  0.13082745919E-01 -0.51726874799E-02  0.22187178149E-01  0.00000000000E+00 0. -1.
     999901    1    3    3    0    0  0.13337429922E+00 -0.39789565263E-05  0.57850907403E-01  0.89192792937E+00  0.88000000000E+00 0. -1.
        -11    1    4    4    0    0 -0.45746821201E-01 -0.12843299253E-01 -0.27953567915E-01  0.55130618225E-01  0.51100000000E-03 0. -1.
         11    1    4    4    0    0 -0.70470673602E-01 -0.23546770950E-03 -0.24724652008E-01  0.74684274254E-01  0.51100000000E-03 0.  1.
</event>
<event>
 8    1  0.1044719E+005  0.1043930E+01  0.7957747E-01            NaN
         13   -1    0    0    0    0  0.00000000000E+00  0.00000000000E+00  0.74505805969E-08  0.10566000000E+00  0.10566000000E+00 0. -1.
     999900   -1    0    0    0    0 -0.00000000000E+00 -0.00000000000E+00 -0.74505805969E-08  0.93827000000E+00  0.93827000000E+00 0.  1.
     999902    2    1    2    0    0 -0.28014931969E-02  0.14143960000E-01  0.18909107672E-01  0.10201507165E+01  0.10198735364E+01 0.  0.
     999903    2    3    3    0    0 -0.24052959144E-01  0.11474397559E+00 -0.55356914600E-01  0.13105711630E+00  0.19153458176E-01 0.  0.
         14    1    1    2    0    0  0.28014931969E-02 -0.14143960000E-01 -0.18909107672E-01  0.23779283454E-01  0.00000000000E+00 0.  1.
     999901    1    3    3    0    0  0.21251465947E-01 -0.10060001559E+00  0.74266022273E-01  0.88909360025E+00  0.88000000000E+00 0. -1.
        -11    1    4    4    0    0 -0.25698514106E-01  0.81527187362E-01 -0.41507903055E-01  0.95027696191E-01  0.51100000000E-03 0. -1.
         11    1    4    4    0    0  0.16455549623E-02  0.33216788228E-01 -0.13849011546E-01  0.36029420105E-01  0.51100000000E-03 0.  1.
</event>
<event>
 8    1  0.1044719E+005  0.1043930E+01  0.7957747E-01            NaN
         13   -1    0    0    0    0  0.00000000000E+00  0.00000000000E+00  0.74505805969E-08  0.10566000000E+00  0.10566000000E+00 0.  1.
     999900   -1    0    0    0    0 -0.00000000000E+00 -0.00000000000E+00 -0.74505805969E-08  0.93827000000E+00  0.93827000000E+00 0.  1.
     999902    2    1    2    0    0  0.12983943145E-01 -0.16989095660E-01  0.11629206107E-01  0.10195896922E+01  0.10192991169E+01 0.  0.
     999903    2    3    3    0    0 -0.52910056266E-01  0.61112365041E-01  0.98903084642E-01  0.12938826148E+00  0.20622968770E-01 0.  0.
         14    1    1    2    0    0 -0.12983943145E-01  0.16989095660E-01 -0.11629206107E-01  0.24340307838E-01  0.00000000000E+00 0. -1.
     999901    1    3    3    0    0  0.65893999411E-01 -0.78101460702E-01 -0.87273878535E-01  0.89020143069E+00  0.88000000000E+00 0.  1.
        -11    1    4    4    0    0 -0.31891949113E-01  0.50584244788E-01  0.73922645595E-01  0.95082495191E-01  0.51100000000E-03 0.  1.
         11    1    4    4    0    0 -0.21018107153E-01  0.10528120253E-01  0.24980439047E-01  0.34305766285E-01  0.51100000000E-03 0. -1.
</event>
<event>
 8    1  0.1044719E+005  0.1043930E+01  0.7957747E-01            NaN
         13   -1    0    0    0    0  0.00000000000E+00  0.00000000000E+00  0.74505805969E-08  0.10566000000E+00  0.10566000000E+00 0.  1.
     999900   -1    0    0    0    0 -0.00000000000E+00 -0.00000000000E+00 -0.74505805969E-08  0.93827000000E+00  0.93827000000E+00 0.  1.
     999902    2    1    2    0    0 -0.14643580174E-01 -0.10304586104E-01  0.16050669185E-01  0.10198833180E+01  0.10195997937E+01 0.  0.
     999903    2    3    3    0    0  0.10355052810E+00  0.43421965340E-01 -0.57108407365E-01  0.12735396829E+00  0.18694493965E-01 0.  0.
         14    1    1    2    0    0  0.14643580174E-01  0.10304586104E-01 -0.16050669185E-01  0.24046682024E-01  0.00000000000E+00 0. -1.
     999901    1    3    3    0    0 -0.11819410828E+00 -0.53726551444E-01  0.73159076550E-01  0.89252934968E+00  0.88000000000E+00 0.  1.
        -11    1    4    4    0    0  0.50350100149E-01  0.13640638676E-01 -0.19364567503E-01  0.55645729432E-01  0.51100000000E-03 0.  1.
         11    1    4    4    0    0  0.53200427953E-01  0.29781326664E-01 -0.37743839862E-01  0.71708238862E-01  0.51100000000E-03 0. -1.
</event>
<event>
 8    1  0.1044719E+005  0.1043930E+01  0.7957747E-01            NaN
         13   -1    0    0    0    0  0.00000000000E+00  0.00000000000E+00  0.74505805969E-08  0.10566000000E+00  0.10566000000E+00 0.  1.
     999900   -1    0    0    0    0 -0.00000000000E+00 -0.00000000000E+00 -0.74505805969E-08  0.93827000000E+00  0.93827000000E+00 0.  1.
     999902    2    1    2    0    0 -0.11301292356E-01 -0.18293985170E-02 -0.21436771833E-01  0.10196277142E+01  0.10193380570E+01 0.  0.
     999903    2    3    3    0    0  0.10649990069E-01 -0.36367571476E-01  0.11952114654E+00  0.12747084519E+00  0.22967136516E-01 0.  0.
         14    1    1    2    0    0  0.11301292356E-01  0.18293985170E-02  0.21436771833E-01  0.24302285787E-01  0.00000000000E+00 0.  1.
     999901    1    3    3    0    0 -0.21951282425E-01  0.34538172959E-01 -0.14095791837E+00  0.89215686902E+00  0.88000000000E+00 0.  1.
        -11    1    4    4    0    0  0.75980537235E-02 -0.97836716924E-02  0.70850386772E-01  0.71926970455E-01  0.51100000000E-03 0. -1.
         11    1    4    4    0    0  0.30519363451E-02 -0.26583899783E-01  0.48670759769E-01  0.55543874736E-01  0.51100000000E-03 0.  1.
</event>
<event>
 8    1  0.1044719E+005  0.1043930E+01  0.7957747E-01            NaN
         13   -1    0    0    0    0  0.00000000000E+00  0.00000000000E+00  0.74505805969E-08  0.10566000000E+00  0.10566000000E+00 0. -1.
     999900   -1    0    0    0    0 -0.00000000000E+00 -0.00000000000E+00 -0.74505805969E-08  0.93827000000E+00  0.93827000000E+00 0. -1.
     999902    2    1    2    0    0  0.76611212587E-02 -0.11440900080E-01  0.17449344871E-01  0.10217023908E+01  0.10214605762E+01 0.  0.
     999903    2    3    3    0    0  0.94804351437E-01  0.88807233658E-01  0.10749974574E-01  0.13170884452E+00  0.18896242231E-01 0.  0.
         14    1    1    2    0    0 -0.76611212587E-02  0.11440900080E-01 -0.17449344871E-01  0.22227609184E-01  0.00000000000E+00 0.  1.
     999901    1    3    3    0    0 -0.87143230179E-01 -0.10024813374E+00  0.66993702974E-02  0.88999354629E+00  0.88000000000E+00 0. -1.
        -11    1    4    4    0    0  0.50521748346E-01  0.44111808743E-01  0.14707045040E-01  0.68664816473E-01  0.51100000000E-03 0.  1.
         11    1    4    4    0    0  0.44282603091E-01  0.44695424915E-01 -0.39570704658E-02  0.63044028048E-01  0.51100000000E-03 0. -1.
</event>
<event>
 8    1  0.1044719E+005  0.1043930E+01  0.7957747E-01            NaN
         13   -1    0    0    0    0  0.00000000000E+00  0.00000000000E+00  0.74505805969E-08  0.10566000000E+00  0.10566000000E+00 0.  1.
     999900   -1    0    0    0    0 -0.00000000000E+00 -0.00000000000E+00 -0.74505805969E-08  0.93827000000E+00  0.93827000000E+00 0.  1.
     999902    2    1    2    0    0  0.29394606232E-02 -0.19008737509E-01  0.14639589782E-01  0.10197579062E+01  0.10194713812E+01 0.  0.
     999903    2    3    3    0    0  0.56796910679E-01  0.10942499366E+00  0.30800465469E-01  0.12865913381E+00  0.20119287758E-01 0.  0.
         14    1    1    2    0    0 -0.29394606232E-02  0.19008737509E-01 -0.14639589782E-01  0.24172093816E-01  0.00000000000E+00 0. -1.
     999901    1    3    3    0    0 -0.53857450055E-01 -0.12843373117E+00 -0.16160875687E-01  0.89109877238E+00  0.88000000000E+00 0. -1.
        -11    1    4    4    0    0  0.30423370506E-01  0.45133627091E-01  0.55218573184E-02  0.54711770184E-01  0.51100000000E-03 0.  1.
         11    1    4    4    0    0  0.26373540172E-01  0.64291366564E-01  0.25278608151E-01  0.73947363624E-01  0.51100000000E-03 0. -1.
</event>
<event>
 8    1  0.1044719E+005  0.1043930E+01  0.7957747E-01            NaN
         13   -1    0    0    0    0  0.00000000000E+00  0.00000000000E+00  0.74505805969E-08  0.10566000000E+00  0.10566000000E+00 0.  1.
     999900   -1    0    0    0    0 -0.00000000000E+00 -0.00000000000E+00 -0.74505805969E-08  0.93827000000E+00  0.93827000000E+00 0.  1.
     999902    2    1    2    0    0  0.55338507164E-02  0.22212150825E-02  0.22898981787E-01  0.10202673571E+01  0.10199929212E+01 0.  0.
     999903    2    3    3    0    0  0.11767409608E-01 -0.12338205201E+00  0.38074661817E-01  0.13119742782E+00  0.20037028380E-01 0.  0.
         14    1    1    2    0    0 -0.55338507164E-02 -0.22212150825E-02 -0.22898981787E-01  0.23662642859E-01  0.00000000000E+00 0. -1.
     999901    1    3    3    0    0 -0.62335588919E-02  0.12560326709E+00 -0.15175680030E-01  0.88906992932E+00  0.88000000000E+00 0. -1.
        -11    1    4    4    0    0  0.62157549348E-02 -0.88767631481E-01  0.36258513408E-01  0.96089900217E-01  0.51100000000E-03 0.  1.
         11    1    4    4    0    0  0.55516546735E-02 -0.34614420530E-01  0.18161484094E-02  0.35107527601E-01  0.51100000000E-03 0. -1.
</event>
<event>
 8    1  0.1044719E+005  0.1043930E+01  0.7957747E-01            NaN
         13   -1    0    0    0    0  0.00000000000E+00  0.00000000000E+00  0.74505805969E-08  0.10566000000E+00  0.10566000000E+00 0.  1.
     999900   -1    0    0    0    0 -0.00000000000E+00 -0.00000000000E+00 -0.74505805969E-08  0.93827000000E+00  0.93827000000E+00 0. -1.
     999902    2    1    2    0    0  0.64712434971E-02  0.16356222725E-01  0.14911248629E-01  0.10208703307E+01  0.10206098587E+01 0.  0.
     999903    2    3    3    0    0 -0.34438347751E-01  0.38322245235E-01  0.12089296864E+00  0.13329598123E+00  0.22318478186E-01 0.  0.
         14    1    1    2    0    0 -0.64712434971E-02 -0.16356222725E-01 -0.14911248629E-01  0.23059669336E-01  0.00000000000E+00 0.  1.
     999901    1    3    3    0    0  0.40909591248E-01 -0.21966022510E-01 -0.10598172001E+00  0.88757434944E+00  0.88000000000E+00 0. -1.
        -11    1    4    4    0    0 -0.29133223007E-01  0.20065257548E-01  0.61707283989E-01  0.71129524542E-01  0.51100000000E-03 0.  1.
         11    1    4    4    0    0 -0.53051247436E-02  0.18256987686E-01  0.59185684653E-01  0.62166456685E-01  0.51100000000E-03 0. -1.
</event>
<event>
 7    1  0.1044719E+005  0.1043930E+01  0.7957747E-01            NaN
         13   -1    0    0    0    0  0.00000000000E+00  0.00000000000E+00  0.74505805969E-08  0.10566000000E+00  0.10566000000E+00 0. -1.
     999900   -1    0    0    0    0 -0.00000000000E+00 -0.00000000000E+00 -0.74505805969E-08  0.93827000000E+00  0.93827000000E+00 0. -1.
     999903    2    1    2    0    0 -0.85579700925E-02  0.10078969524E+00  0.18577923262E-01  0.10471264115E+00  0.19692548449E-01 0.  0.
         14    1    1    2    0    0  0.46133644359E-01  0.10967522763E-01  0.17694604760E-01  0.50613226878E-01  0.00000000000E+00 0. -1.
     999901    1    1    2    0    0 -0.37575674267E-01 -0.11175721800E+00 -0.36272528022E-01  0.88860413197E+00  0.88000000000E+00 0. -1.
        -11    1    3    3    0    0 -0.73776249814E-02  0.13788735498E-01 -0.41983228028E-03  0.15652346698E-01  0.51100000000E-03 0.  1.
         11    1    3    3    0    0 -0.11803451111E-02  0.87000959743E-01  0.18997755543E-01  0.89060294450E-01  0.51100000000E-03 0. -1.
</event>
<event>
 8    1  0.1044719E+005  0.1043930E+01  0.7957747E-01            NaN
         13   -1    0    0    0    0  0.00000000000E+00  0.00000000000E+00  0.74505805969E-08  0.10566000000E+00  0.10566000000E+00 0. -1.
     999900   -1    0    0    0    0 -0.00000000000E+00 -0.00000000000E+00 -0.74505805969E-08  0.93827000000E+00  0.93827000000E+00 0. -1.
     999902    2    1    2    0    0  0.99009695762E-02  0.21350883443E-01 -0.53529672741E-02  0.10197940583E+01  0.10195084000E+01 0.  0.
     999903    2    3    3    0    0  0.67804790264E-01  0.11161549162E+00  0.15540164616E-01  0.13303756699E+00  0.20049687334E-01 0.  0.
         14    1    1    2    0    0 -0.99009695762E-02 -0.21350883443E-01  0.53529672741E-02  0.24135941684E-01  0.00000000000E+00 0. -1.
     999901    1    3    3    0    0 -0.57903820688E-01 -0.90264608181E-01 -0.20893131890E-01  0.88675649132E+00  0.88000000000E+00 0. -1.
        -11    1    4    4    0    0  0.38636414654E-01  0.80424276671E-01  0.13875531711E-01  0.90297443577E-01  0.51100000000E-03 0. -1.
         11    1    4    4    0    0  0.29168375610E-01  0.31191214954E-01  0.16646329058E-02  0.42740123417E-01  0.51100000000E-03 0.  1.
</event>
<event>
 8    1  0.1044719E+005  0.1043930E+01  0.7957747E-01            NaN
         13   -1    0    0    0    0  0.00000000000E+00  0.00000000000E+00  0.74505805969E-08  0.10566000000E+00  0.10566000000E+00 0. -1.
     999900   -1    0    0    0    0 -0.00000000000E+00 -0.00000000000E+00 -0.74505805969E-08  0.93827000000E+00  0.93827000000E+00 0. -1.
     999902    2    1    2    0    0  0.15951092751E-02  0.27776299241E-01 -0.45642812706E-02  0.10157360319E+01  0.10153446640E+01 0.  0.
     999903    2    3    3    0    0 -0.57600537000E-01  0.49809850726E-01  0.99863566888E-01  0.12731339746E+00  0.20907560587E-01 0.  0.
         14    1    1    2    0    0 -0.15951092751E-02 -0.27776299241E-01  0.45642812706E-02  0.28193968089E-01  0.00000000000E+00 0. -1.
     999901    1    3    3    0    0  0.59195646275E-01 -0.22033551485E-01 -0.10442784816E+00  0.88842263445E+00  0.88000000000E+00 0. -1.
        -11    1    4    4    0    0 -0.30740826629E-01  0.14000799632E-01  0.36536476102E-01  0.49761390848E-01  0.51100000000E-03 0.  1.
         11    1    4    4    0    0 -0.26859710371E-01  0.35809051094E-01  0.63327090786E-01  0.77552006614E-01  0.51100000000E-03 0. -1.
</event>
<event>
 8    1  0.1044719E+005  0.1043930E+01  0.7957747E-01            NaN
         13   -1    0    0    0    0  0.00000000000E+00  0.00000000000E+00  0.74505805969E-08  0.10566000000E+00  0.10566000000E+00 0. -1.
     999900   -1    0    0    0    0 -0.00000000000E+00 -0.00000000000E+00 -0.74505805969E-08  0.93827000000E+00  0.93827000000E+00 0. -1.
     999902    2    1    2    0    0  0.73802041266E-02  0.55560417943E-02  0.21867230093E-01  0.10201915762E+01  0.10199153589E+01 0.  0.
     999903    2    3    3    0    0  0.90568084526E-01 -0.29327006025E-01 -0.84899938246E-01  0.12916055612E+00  0.20292819596E-01 0.  0.
         14    1    1    2    0    0 -0.73802041266E-02 -0.55560417943E-02 -0.21867230093E-01  0.23738423817E-01  0.00000000000E+00 0.  1.
     999901    1    3    3    0    0 -0.83187880400E-01  0.34883047819E-01  0.10676716834E+00  0.89103102006E+00  0.88000000000E+00 0.  1.
        -11    1    4    4    0    0  0.80152729381E-01 -0.32415012490E-01 -0.75553430840E-01  0.11482062138E+00  0.51100000000E-03 0. -1.
         11    1    4    4    0    0  0.10415355146E-01  0.30880064646E-02 -0.93465074054E-02  0.14339934742E-01  0.51100000000E-03 0.  1.
</event>
<event>
 8    1  0.1044719E+005  0.1043930E+01  0.7957747E-01            NaN
         13   -1    0    0    0    0  0.00000000000E+00  0.00000000000E+00  0.74505805969E-08  0.10566000000E+00  0.10566000000E+00 0. -1.
     999900   -1    0    0    0    0 -0.00000000000E+00 -0.00000000000E+00 -0.74505805969E-08  0.93827000000E+00  0.93827000000E+00 0.  1.
     999902    2    1    2    0    0 -0.20552476940E-01  0.77746275333E-02  0.66237330650E-02  0.10209795538E+01  0.10207215714E+01 0.  0.
     999903    2    3    3    0    0  0.16398380931E-01 -0.61402844168E-01 -0.11122932721E+00  0.12966578619E+00  0.20050853047E-01 0.  0.
         14    1    1    2    0    0  0.20552476940E-01 -0.77746275333E-02 -0.66237330650E-02  0.22950446212E-01  0.00000000000E+00 0.  1.
     999901    1    3    3    0    0 -0.36950857870E-01  0.69177471701E-01  0.11785306028E+00  0.89131376760E+00  0.88000000000E+00 0. -1.
        -11    1    4    4    0    0  0.11846864227E-01 -0.14265798483E-01 -0.40485852708E-01  0.44533432260E-01  0.51100000000E-03 0. -1.
         11    1    4    4    0    0  0.45515167033E-02 -0.47137045685E-01 -0.70743474504E-01  0.85132353932E-01  0.51100000000E-03 0.  1.
</event>
<event>
 8    1  0.1044719E+005  0.1043930E+01  0.7957747E-01            NaN
         13   -1    0    0    0    0  0.00000000000E+00  0.00000000000E+00  0.74505805969E-08  0.10566000000E+00  0.10566000000E+00 0.  1.
     999900   -1    0    0    0    0 -0.00000000000E+00 -0.00000000000E+00 -0.74505805969E-08  0.93827000000E+00  0.93827000000E+00 0.  1.
     999902    2    1    2    0    0 -0.30480718353E-02 -0.12606838452E-01 -0.21863747343E-01  0.10185086199E+01  0.10181913191E+01 0.  0.
     999903    2    3    3    0    0  0.10132393091E+00 -0.56301668550E-01  0.51225158662E-01  0.12825880030E+00  0.19745534161E-01 0.  0.
         14    1    1    2    0    0  0.30480718353E-02  0.12606838452E-01  0.21863747343E-01  0.25421380087E-01  0.00000000000E+00 0.  1.
     999901    1    3    3    0    0 -0.10437200274E+00  0.43694830098E-01 -0.73088906005E-01  0.89024981961E+00  0.88000000000E+00 0.  1.
        -11    1    4    4    0    0  0.24571827684E-01 -0.18651594613E-01  0.56074425558E-02  0.31358591014E-01  0.51100000000E-03 0.  1.
         11    1    4    4    0    0  0.76752103223E-01 -0.37650073936E-01  0.45617716106E-01  0.96900209289E-01  0.51100000000E-03 0. -1.
</event>
<event>
 8    1  0.1044719E+005  0.1043930E+01  0.7957747E-01            NaN
         13   -1    0    0    0    0  0.00000000000E+00  0.00000000000E+00  0.74505805969E-08  0.10566000000E+00  0.10566000000E+00 0.  1.
     999900   -1    0    0    0    0 -0.00000000000E+00 -0.00000000000E+00 -0.74505805969E-08  0.93827000000E+00  0.93827000000E+00 0. -1.
     999902    2    1    2    0    0 -0.15698579181E-01  0.66089128934E-02  0.18013403162E-01  0.10191387553E+01  0.10188371788E+01 0.  0.
     999903    2    3    3    0    0  0.90323108281E-01 -0.14055752897E-01  0.89251622587E-01  0.12967683344E+00  0.22235127979E-01 0.  0.
         14    1    1    2    0    0  0.15698579181E-01 -0.66089128934E-02 -0.18013403162E-01  0.24791244653E-01  0.00000000000E+00 0. -1.
     999901    1    3    3    0    0 -0.10602168746E+00  0.20664665791E-01 -0.71238219425E-01  0.88946192191E+00  0.88000000000E+00 0. -1.
        -11    1    4    4    0    0  0.43188325684E-01 -0.96137935199E-03  0.28856162188E-01  0.51952814580E-01  0.51100000000E-03 0. -1.
         11    1    4    4    0    0  0.47134782598E-01 -0.13094373545E-01  0.60395460400E-01  0.77724018855E-01  0.51100000000E-03 0.  1.
</event>
<event>
 8    1  0.1188822E+005  0.1043930E+01  0.7957747E-01            NaN
         13   -1    0    0    0    0  0.00000000000E+00  0.00000000000E+00  0.74505805969E-08  0.10566000000E+00  0.10566000000E+00 0. -1.
     999900   -1    0    0    0    0 -0.00000000000E+00 -0.00000000000E+00 -0.74505805969E-08  0.93827000000E+00  0.93827000000E+00 0. -1.
     999902    2    1    2    0    0 -0.50848472070E-02  0.19103758134E-02 -0.23670512174E-01  0.10196442356E+01  0.10193549768E+01 0.  0.
     999903    2    3    3    0    0  0.96437795260E-01 -0.76521992678E-01 -0.37870070745E-01  0.13022863485E+00  0.19222158008E-01 0.  0.
         14    1    1    2    0    0  0.50848472070E-02 -0.19103758134E-02  0.23670512174E-01  0.24285764420E-01  0.00000000000E+00 0. -1.
     999901    1    3    3    0    0 -0.10152264247E+00  0.78432368491E-01  0.14199558571E-01  0.88941560073E+00  0.88000000000E+00 0. -1.
        -11    1    4    4    0    0  0.65463845524E-01 -0.42306473857E-01 -0.18118565117E-01  0.80024348319E-01  0.51100000000E-03 0. -1.
         11    1    4    4    0    0  0.30973949736E-01 -0.34215518820E-01 -0.19751505628E-01  0.50204286530E-01  0.51100000000E-03 0.  1.
</event>
<event>
 8    1  0.1044719E+005  0.1043930E+01  0.7957747E-01            NaN
         13   -1    0    0    0    0  0.00000000000E+00  0.00000000000E+00  0.74505805969E-08  0.10566000000E+00  0.10566000000E+00 0.  1.
     999900   -1    0    0    0    0 -0.00000000000E+00 -0.00000000000E+00 -0.74505805969E-08  0.93827000000E+00  0.93827000000E+00 0. -1.
     999902    2    1    2    0    0 -0.39275119933E-02  0.19310454830E-01 -0.12453023093E-01  0.10206191270E+01  0.10203528829E+01 0.  0.
     999903    2    3    3    0    0 -0.12533762075E+00  0.36255640509E-01  0.16521675981E-02  0.13200981451E+00  0.19996770377E-01 0.  0.
         14    1    1    2    0    0  0.39275119933E-02 -0.19310454830E-01  0.12453023093E-01  0.23310873007E-01  0.00000000000E+00 0.  1.
     999901    1    3    3    0    0  0.12141010876E+00 -0.16945185679E-01 -0.14105190691E-01  0.88860931248E+00  0.88000000000E+00 0.  1.
        -11    1    4    4    0    0 -0.34552237704E-01  0.19488885039E-01  0.99763276188E-03  0.39685389787E-01  0.51100000000E-03 0.  1.
         11    1    4    4    0    0 -0.90785383046E-01  0.16766755470E-01  0.65453483620E-03  0.92324424724E-01  0.51100000000E-03 0. -1.
</event>
<event>
 8    1  0.1044719E+005  0.1043930E+01  0.7957747E-01            NaN
         13   -1    0    0    0    0  0.00000000000E+00  0.00000000000E+00  0.74505805969E-08  0.10566000000E+00  0.10566000000E+00 0.  1.
     999900   -1    0    0    0    0 -0.00000000000E+00 -0.00000000000E+00 -0.74505805969E-08  0.93827000000E+00  0.93827000000E+00 0. -1.
     999902    2    1    2    0    0 -0.90768341240E-02 -0.20892806527E-01  0.62766370310E-02  0.10203017446E+01  0.10200281151E+01 0.  0.
     999903    2    3    3    0    0  0.55978273011E-01 -0.43359467576E-01  0.10917033210E+00  0.13163756148E+00  0.19916719173E-01 0.  0.
         14    1    1    2    0    0  0.90768341240E-02  0.20892806527E-01 -0.62766370310E-02  0.23628255431E-01  0.00000000000E+00 0.  1.
     999901    1    3    3    0    0 -0.65055107135E-01  0.22466661049E-01 -0.10289369507E+00  0.88866418309E+00  0.88000000000E+00 0. -1.
        -11    1    4    4    0    0  0.33938685274E-01 -0.13783444983E-01  0.56337104198E-01  0.67200804639E-01  0.51100000000E-03 0. -1.
         11    1    4    4    0    0  0.22039587737E-01 -0.29576022593E-01  0.52833227906E-01  0.64436756840E-01  0.51100000000E-03 0.  1.
</event>
<event>
 8    1  0.1044719E+005  0.1043930E+01  0.7957747E-01            NaN
         13   -1    0    0    0    0  0.00000000000E+00  0.00000000000E+00  0.74505805969E-08  0.10566000000E+00  0.10566000000E+00 0. -1.
     999900   -1    0    0    0    0 -0.00000000000E+00 -0.00000000000E+00 -0.74505805969E-08  0.93827000000E+00  0.93827000000E+00 0.  1.
     999902    2    1    2    0    0 -0.11568532953E-01  0.12319447011E-01 -0.17284916799E-01  0.10197562937E+01  0.10194697300E+01 0.  0.
     999903    2    3    3    0    0 -0.51923933124E-01 -0.41287453334E-01  0.10807443280E+00  0.12834324427E+00  0.19777681633E-01 0.  0.
         14    1    1    2    0    0  0.11568532953E-01 -0.12319447011E-01  0.17284916799E-01  0.24173706338E-01  0.00000000000E+00 0. -1.
     999901    1    3    3    0    0  0.40355400171E-01  0.53606900346E-01 -0.12535934960E+00  0.89141304939E+00  0.88000000000E+00 0. -1.
        -11    1    4    4    0    0 -0.15512138510E-01 -0.13601676285E-01  0.18283931015E-01  0.27571639293E-01  0.51100000000E-03 0.  1.
         11    1    4    4    0    0 -0.36411794614E-01 -0.27685777049E-01  0.89790501789E-01  0.10077160498E+00  0.51100000000E-03 0. -1.
</event>
<event>
 8    1  0.1044719E+005  0.1043930E+01  0.7957747E-01            NaN
         13   -1    0    0    0    0  0.00000000000E+00  0.00000000000E+00  0.74505805969E-08  0.10566000000E+00  0.10566000000E+00 0. -1.
     999900   -1    0    0    0    0 -0.00000000000E+00 -0.00000000000E+00 -0.74505805969E-08  0.93827000000E+00  0.93827000000E+00 0. -1.
     999902    2    1    2    0    0 -0.18821789041E-02  0.22396617836E-01 -0.75552845371E-02  0.10202185384E+01  0.10199429556E+01 0.  0.
     999903    2    3    3    0    0 -0.11043608408E+00  0.69417838698E-01  0.74334374483E-02  0.13217596770E+00  0.20006635114E-01 0.  0.
         14    1    1    2    0    0  0.18821789041E-02 -0.22396617836E-01  0.75552845371E-02  0.23711461624E-01  0.00000000000E+00 0. -1.
     999901    1    3    3    0    0  0.10855390518E+00 -0.47021220863E-01 -0.14988721985E-01  0.88804257067E+00  0.88000000000E+00 0. -1.
        -11    1    4    4    0    0 -0.18539647885E-01  0.20326064551E-01  0.49521485119E-02  0.27958046064E-01  0.51100000000E-03 0.  1.
         11    1    4    4    0    0 -0.91896436199E-01  0.49091774148E-01  0.24812889364E-02  0.10421792164E+00  0.51100000000E-03 0. -1.
</event>
<event>
 8    1  0.1044719E+005  0.1043930E+01  0.7957747E-01            NaN
         13   -1    0    0    0    0  0.00000000000E+00  0.00000000000E+00  0.74505805969E-08  0.10566000000E+00  0.10566000000E+00 0.  1.
     999900   -1    0    0    0    0 -0.00000000000E+00 -0.00000000000E+00 -0.74505805969E-08  0.93827000000E+00  0.93827000000E+00 0. -1.
     999902    2    1    2    0    0  0.17176565479E-01 -0.15824074344E-01  0.77894186048E-02  0.10193106829E+01  0.10190133255E+01 0.  0.
     999903    2    3    3    0    0 -0.83461041983E-01  0.76810610167E-01  0.54654801149E-01  0.12751167145E+00  0.20160945017E-01 0.  0.
         14    1    1    2    0    0 -0.17176565479E-01  0.15824074344E-01 -0.77894186048E-02  0.24619317064E-01  0.00000000000E+00 0.  1.
     999901    1    3    3    0    0  0.10063760746E+00 -0.92634684510E-01 -0.46865382544E-01  0.89179901149E+00  0.88000000000E+00 0.  1.
        -11    1    4    4    0    0 -0.66507523047E-01  0.70574475254E-01  0.43589517065E-01  0.10632174894E+00  0.51100000000E-03 0. -1.
         11    1    4    4    0    0 -0.16953518936E-01  0.62361349121E-02  0.11065284084E-01  0.21189922506E-01  0.51100000000E-03 0.  1.
</event>
<event>
 8    1  0.1044719E+005  0.1043930E+01  0.7957747E-01            NaN
         13   -1    0    0    0    0  0.00000000000E+00  0.00000000000E+00  0.74505805969E-08  0.10566000000E+00  0.10566000000E+00 0.  1.
     999900   -1    0    0    0    0 -0.00000000000E+00 -0.00000000000E+00 -0.74505805969E-08  0.93827000000E+00  0.93827000000E+00 0.  1.
     999902    2    1    2    0    0 -0.22462390368E-01  0.74894008615E-02 -0.97347088360E-02  0.10183289324E+01  0.10180070726E+01 0.  0.
     999903    2    3    3    0    0  0.14679285964E-01  0.12519583271E+00 -0.22283992514E-01  0.12962662412E+00  0.20420758876E-01 0.  0.
         14    1    1    2    0    0  0.22462390368E-01 -0.74894008615E-02  0.97347088360E-02  0.25601067603E-01  0.00000000000E+00 0.  1.
     999901    1    3    3    0    0 -0.37141676332E-01 -0.11770643185E+00  0.12549283678E-01  0.88870230828E+00  0.88000000000E+00 0.  1.
        -11    1    4    4    0    0  0.11392566039E-01  0.83949260624E-01 -0.52672568918E-02  0.84883885611E-01  0.51100000000E-03 0. -1.
         11    1    4    4    0    0  0.32867199247E-02  0.41246572087E-01 -0.17016735622E-01  0.44742738506E-01  0.51100000000E-03 0.  1.
</event>
<event>
 8    1  0.1044719E+005  0.1043930E+01  0.7957747E-01            NaN
         13   -1    0    0    0    0  0.00000000000E+00  0.00000000000E+00  0.74505805969E-08  0.10566000000E+00  0.10566000000E+00 0. -1.
     999900   -1    0    0    0    0 -0.00000000000E+00 -0.00000000000E+00 -0.74505805969E-08  0.93827000000E+00  0.93827000000E+00 0.  1.
     999902    2    1    2    0    0 -0.10411015430E-01 -0.66635191396E-02  0.16262447447E-01  0.10235030833E+01  0.10232992244E+01 0.  0.
     999903    2    3    3    0    0 -0.18664990095E-01  0.12886075523E+00 -0.15161794595E-01  0.13253594582E+00  0.19555582985E-01 0.  0.
         14    1    1    2    0    0  0.10411015430E-01  0.66635191396E-02 -0.16262447447E-01  0.20426916717E-01  0.00000000000E+00 0.  1.
     999901    1    3    3    0    0  0.82539746647E-02 -0.13552427437E+00  0.31424242042E-01  0.89096713746E+00  0.88000000000E+00 0.  1.
        -11    1    4    4    0    0 -0.22332536438E-01  0.99313670431E-01 -0.13805877432E-01  0.10272687424E+00  0.51100000000E-03 0.  1.
         11    1    4    4    0    0  0.36675463427E-02  0.29547084802E-01 -0.13559171632E-02  0.29809071586E-01  0.51100000000E-03 0. -1.
</event>
<event>
 8    1  0.1044719E+005  0.1043930E+01  0.7957747E-01            NaN
         13   -1    0    0    0    0  0.00000000000E+00  0.00000000000E+00  0.74505805969E-08  0.10566000000E+00  0.10566000000E+00 0.  1.
     999900   -1    0    0    0    0 -0.00000000000E+00 -0.00000000000E+00 -0.74505805969E-08  0.93827000000E+00  0.93827000000E+00 0. -1.
     999902    2    1    2    0    0  0.11761046474E-01 -0.19434325436E-01 -0.10371694844E-01  0.10189582705E+01  0.10186522320E+01 0.  0.
     999903    2    3    3    0    0 -0.40770823400E-01 -0.58592116266E-01 -0.10817046694E+00  0.13111958598E+00  0.19904767830E-01 0.  0.
         14    1    1    2    0    0 -0.11761046474E-01  0.19434325436E-01  0.10371694844E-01  0.24971729480E-01  0.00000000000E+00 0.  1.
     999901    1    3    3    0    0  0.52531869873E-01  0.39157790830E-01  0.97798772091E-01  0.88783868454E+00  0.88000000000E+00 0.  1.
        -11    1    4    4    0    0 -0.34156321019E-01 -0.46931808451E-01 -0.99347677146E-01  0.11506290013E+00  0.51100000000E-03 0.  1.
         11    1    4    4    0    0 -0.66145023801E-02 -0.11660307815E-01 -0.88227897892E-02  0.16056685858E-01  0.51100000000E-03 0. -1.
</event>
<event>
 8    1  0.1044719E+005  0.1043930E+01  0.7957747E-01            NaN
         13   -1    0    0    0    0  0.00000000000E+00  0.00000000000E+00  0.74505805969E-08  0.10566000000E+00  0.10566000000E+00 0. -1.
     999900   -1    0    0    0    0 -0.00000000000E+00 -0.00000000000E+00 -0.74505805969E-08  0.93827000000E+00  0.93827000000E+00 0. -1.
     999902    2    1    2    0    0 -0.13067672559E-01 -0.25463800603E-02  0.19797919748E-01  0.10200719669E+01  0.10197929260E+01 0.  0.
     999903    2    3    3    0    0  0.84828187460E-01  0.58559635540E-01  0.77852417083E-01  0.13064076145E+00  0.19518130133E-01 0.  0.
         14    1    1    2    0    0  0.13067672559E-01  0.25463800603E-02 -0.19797919748E-01  0.23858033110E-01  0.00000000000E+00 0.  1.
     999901    1    3    3    0    0 -0.97895860020E-01 -0.61106015601E-01 -0.58054497335E-01  0.88943120544E+00  0.88000000000E+00 0.  1.
        -11    1    4    4    0    0  0.50081476879E-01  0.23341234563E-01  0.37280696528E-01  0.66656425136E-01  0.51100000000E-03 0.  1.
         11    1    4    4    0    0  0.34746710582E-01  0.35218400977E-01  0.40571720555E-01  0.63984336313E-01  0.51100000000E-03 0. -1.
</event>
<event>
 8    1  0.1044719E+005  0.1043930E+01  0.7957747E-01            NaN
         13   -1    0    0    0    0  0.00000000000E+00  0.00000000000E+00  0.74505805969E-08  0.10566000000E+00  0.10566000000E+00 0. -1.
     999900   -1    0    0    0    0 -0.00000000000E+00 -0.00000000000E+00 -0.74505805969E-08  0.93827000000E+00  0.93827000000E+00 0.  1.
     999902    2    1    2    0    0  0.67062428111E-02  0.42243911997E-03  0.21982521455E-01  0.10209434083E+01  0.10206846034E+01 0.  0.
     999903    2    3    3    0    0  0.48149303165E-01 -0.10217472495E+00 -0.61283063681E-01  0.13011409639E+00  0.20396920618E-01 0.  0.
         14    1    1    2    0    0 -0.67062428111E-02 -0.42243911997E-03 -0.21982521455E-01  0.22986591678E-01  0.00000000000E+00 0.  1.
     999901    1    3    3    0    0 -0.41443060353E-01  0.10259716407E+00  0.83265585136E-01  0.89082931193E+00  0.88000000000E+00 0. -1.
        -11    1    4    4    0    0  0.30417277832E-01 -0.57328050842E-01 -0.24150548302E-01  0.69247572581E-01  0.51100000000E-03 0. -1.
         11    1    4    4    0    0  0.17732025333E-01 -0.44846674113E-01 -0.37132515379E-01  0.60866523810E-01  0.51100000000E-03 0.  1.
</event>
<event>
 8    1  0.1044719E+005  0.1043930E+01  0.7957747E-01            NaN
         13   -1    0    0    0    0  0.00000000000E+00  0.00000000000E+00  0.74505805969E-08  0.10566000000E+00  0.10566000000E+00 0.  1.
     999900   -1    0    0    0    0 -0.00000000000E+00 -0.00000000000E+00 -0.74505805969E-08  0.93827000000E+00  0.93827000000E+00 0. -1.
     999902    2    1    2    0    0 -0.12884026275E-01  0.15904779109E-01  0.11369386487E-01  0.10205158359E+01  0.10202471996E+01 0.  0.
     999903    2    3    3    0    0  0.88118377314E-02  0.33506641567E-02 -0.12751043604E+00  0.12927180567E+00  0.19063394389E-01 0.  0.
         14    1    1    2    0    0  0.12884026275E-01 -0.15904779109E-01 -0.11369386487E-01  0.23414164103E-01  0.00000000000E+00 0.  1.
     999901    1    3    3    0    0 -0.21695864007E-01  0.12554114952E-01  0.13887982253E+00  0.89124403023E+00  0.88000000000E+00 0.  1.
        -11    1    4    4    0    0  0.36682996192E-02 -0.14268116469E-02 -0.42671168623E-02  0.58276599840E-02  0.51100000000E-03 0.  1.
         11    1    4    4    0    0  0.51435381123E-02  0.47774758036E-02 -0.12324331918E+00  0.12344414568E+00  0.51100000000E-03 0. -1.
</event>
<event>
 8    1  0.1044719E+005  0.1043930E+01  0.7957747E-01            NaN
         13   -1    0    0    0    0  0.00000000000E+00  0.00000000000E+00  0.74505805969E-08  0.10566000000E+00  0.10566000000E+00 0.  1.
     999900   -1    0    0    0    0 -0.00000000000E+00 -0.00000000000E+00 -0.74505805969E-08  0.93827000000E+00  0.93827000000E+00 0.  1.
     999902    2    1    2    0    0  0.14732578641E-01  0.17303616779E-01 -0.47459686741E-02  0.10207138796E+01  0.10204498203E+01 0.  0.
     999903    2    3    3    0    0  0.55245293081E-01 -0.52674754276E-01  0.10372333060E+00  0.13037470754E+00  0.20306720775E-01 0.  0.
         14    1    1    2    0    0 -0.14732578641E-01 -0.17303616779E-01  0.47459686741E-02  0.23216120385E-01  0.00000000000E+00 0.  1.
     999901    1    3    3    0    0 -0.40512714440E-01  0.69978371055E-01 -0.10846929928E+00  0.89033917208E+00  0.88000000000E+00 0.  1.
        -11    1    4    4    0    0  0.21317190202E-01 -0.23537236808E-01  0.27561299606E-01  0.42051283829E-01  0.51100000000E-03 0. -1.
         11    1    4    4    0    0  0.33928102879E-01 -0.29137517468E-01  0.76162030998E-01  0.88323423710E-01  0.51100000000E-03 0.  1.
</event>
<event>
 8    1  0.1044719E+005  0.1043930E+01  0.7957747E-01            NaN
         13   -1    0    0    0    0  0.00000000000E+00  0.00000000000E+00  0.74505805969E-08  0.10566000000E+00  0.10566000000E+00 0.  1.
     999900   -1    0    0    0    0 -0.00000000000E+00 -0.00000000000E+00 -0.74505805969E-08  0.93827000000E+00  0.93827000000E+00 0.  1.
     999902    2    1    2    0    0  0.17227366015E-01  0.17660595404E-01 -0.11329356162E-02  0.10192325849E+01  0.10189333147E+01 0.  0.
     999903    2    3    3    0    0  0.93612564610E-01 -0.84786021007E-01  0.19473879714E-01  0.12976383973E+00  0.22526440020E-01 0.  0.
         14    1    1    2    0    0 -0.17227366015E-01 -0.17660595404E-01  0.11329356162E-02  0.24697415107E-01  0.00000000000E+00 0. -1.
     999901    1    3    3    0    0 -0.76385198595E-01  0.10244661641E+00 -0.20606815330E-01  0.88946874516E+00  0.88000000000E+00 0.  1.
        -11    1    4    4    0    0  0.16647088234E-01 -0.10911431182E-01  0.10991939294E-01  0.22743542547E-01  0.51100000000E-03 0.  1.
         11    1    4    4    0    0  0.76965476376E-01 -0.73874589825E-01  0.84819404201E-02  0.10702029719E+00  0.51100000000E-03 0. -1.
</event>
<event>
 8    1  0.1044719E+005  0.1043930E+01  0.7957747E-01            NaN
         13   -1    0    0    0    0  0.00000000000E+00  0.00000000000E+00  0.74505805969E-08  0.10566000000E+00  0.10566000000E+00 0.  1.
     999900   -1    0    0    0    0 -0.00000000000E+00 -0.00000000000E+00 -0.74505805969E-08  0.93827000000E+00  0.93827000000E+00 0. -1.
     999902    2    1    2    0    0  0.22313187042E-01  0.73882249265E-03 -0.99643198402E-02  0.10194818540E+01  0.10191886669E+01 0.  0.
     999903    2    3    3    0    0  0.48486534444E-01 -0.11877735088E+00  0.12669120272E-01  0.13072911421E+00  0.21693123095E-01 0.  0.
         14    1    1    2    0    0 -0.22313187042E-01 -0.73882249265E-03  0.99643198402E-02  0.24448146034E-01  0.00000000000E+00 0. -1.
     999901    1    3    3    0    0 -0.26173347403E-01  0.11951617337E+00 -0.22633440112E-01  0.88875273976E+00  0.88000000000E+00 0. -1.
        -11    1    4    4    0    0  0.45501171385E-01 -0.86941169808E-01  0.90911210683E-02  0.98549648443E-01  0.51100000000E-03 0.  1.
         11    1    4    4    0    0  0.29853630591E-02 -0.31836181070E-01  0.35779992040E-02  0.32179465767E-01  0.51100000000E-03 0. -1.
</event>
<event>
 8    1  0.1044719E+005  0.1043930E+01  0.7957747E-01            NaN
         13   -1    0    0    0    0  0.00000000000E+00  0.00000000000E+00  0.74505805969E-08  0.10566000000E+00  0.10566000000E+00 0.  1.
     999900   -1    0    0    0    0 -0.00000000000E+00 -0.00000000000E+00 -0.74505805969E-08  0.93827000000E+00  0.93827000000E+00 0.  1.
     999902    2    1    2    0    0 -0.12484820069E-01  0.19836308535E-01  0.38993447991E-02  0.10201696389E+01  0.10198929049E+01 0.  0.
     999903    2    3    3    0    0 -0.81020742747E-01 -0.20258861576E-01  0.99449903361E-01  0.13144318798E+00  0.20303845974E-01 0.  0.
         14    1    1    2    0    0  0.12484820069E-01 -0.19836308535E-01 -0.38993447991E-02  0.23760361073E-01  0.00000000000E+00 0. -1.
     999901    1    3    3    0    0  0.68535922678E-01  0.40095170111E-01 -0.95550558562E-01  0.88872645094E+00  0.88000000000E+00 0.  1.
        -11    1    4    4    0    0 -0.50344580699E-01 -0.48605287550E-02  0.49011350737E-01  0.70431350744E-01  0.51100000000E-03 0.  1.
         11    1    4    4    0    0 -0.30676162048E-01 -0.15398332821E-01  0.50438552624E-01  0.61011837240E-01  0.51100000000E-03 0. -1.
</event>
<event>
 8    1  0.1044719E+005  0.1043930E+01  0.7957747E-01            NaN
         13   -1    0    0    0    0  0.00000000000E+00  0.00000000000E+00  0.74505805969E-08  0.10566000000E+00  0.10566000000E+00 0.  1.
     999900   -1    0    0    0    0 -0.00000000000E+00 -0.00000000000E+00 -0.74505805969E-08  0.93827000000E+00  0.93827000000E+00 0.  1.
     999902    2    1    2    0    0 -0.11660898883E-03 -0.20451479849E-01 -0.12398533614E-01  0.10200134730E+01  0.10197330459E+01 0.  0.
     999903    2    3    3    0    0 -0.39453219964E-01 -0.12305287775E+00 -0.25042057383E-01  0.13308942077E+00  0.19675416020E-01 0.  0.
         14    1    1    2    0    0  0.11660898883E-03  0.20451479849E-01  0.12398533614E-01  0.23916526952E-01  0.00000000000E+00 0. -1.
     999901    1    3    3    0    0  0.39336610975E-01  0.10260139790E+00  0.12643523769E-01  0.88692405228E+00  0.88000000000E+00 0. -1.
        -11    1    4    4    0    0 -0.37492817626E-01 -0.10965305054E+00 -0.16463748199E-01  0.11705049761E+00  0.51100000000E-03 0.  1.
         11    1    4    4    0    0 -0.19604023379E-02 -0.13399827211E-01 -0.85783091847E-02  0.16038923158E-01  0.51100000000E-03 0. -1.
</event>
<event>
 8    1  0.1044719E+005  0.1043930E+01  0.7957747E-01            NaN
         13   -1    0    0    0    0  0.00000000000E+00  0.00000000000E+00  0.74505805969E-08  0.10566000000E+00  0.10566000000E+00 0.  1.
     999900   -1    0    0    0    0 -0.00000000000E+00 -0.00000000000E+00 -0.74505805969E-08  0.93827000000E+00  0.93827000000E+00 0. -1.
     999902    2    1    2    0    0  0.87500100662E-02 -0.20821637653E-01  0.70272877278E-02  0.10202765427E+01  0.10200023223E+01 0.  0.
     999903    2    3    3    0    0 -0.10764878448E+00  0.65716600017E-01 -0.12152964382E-01  0.12819727040E+00  0.19491364151E-01 0.  0.
         14    1    1    2    0    0 -0.87500100662E-02  0.20821637653E-01 -0.70272877278E-02  0.23653457327E-01  0.00000000000E+00 0. -1.
     999901    1    3    3    0    0  0.11639879455E+00 -0.86538237670E-01  0.19180252110E-01  0.89207927227E+00  0.88000000000E+00 0. -1.
        -11    1    4    4    0    0 -0.40689267258E-01  0.14495232333E-01 -0.67191505820E-02  0.43716545334E-01  0.51100000000E-03 0. -1.
         11    1    4    4    0    0 -0.66959517222E-01  0.51221367684E-01 -0.54338137999E-02  0.84480725064E-01  0.51100000000E-03 0.  1.
</event>
<event>
 8    1  0.1044719E+005  0.1043930E+01  0.7957747E-01            NaN
         13   -1    0    0    0    0  0.00000000000E+00  0.00000000000E+00  0.74505805969E-08  0.10566000000E+00  0.10566000000E+00 0. -1.
     999900   -1    0    0    0    0 -0.00000000000E+00 -0.00000000000E+00 -0.74505805969E-08  0.93827000000E+00  0.93827000000E+00 0.  1.
     999902    2    1    2    0    0  0.18960927332E-01 -0.11869787381E-01  0.56756256668E-02  0.10208514094E+01  0.10205905049E+01 0.  0.
     999903    2    3    3    0    0 -0.59861417041E-01 -0.96037572708E-01 -0.62033548763E-01  0.13074933077E+00  0.20990991008E-01 0.  0.
         14    1    1    2    0    0 -0.18960927332E-01  0.11869787381E-01 -0.56756256668E-02  0.23078590609E-01  0.00000000000E+00 0.  1.
     999901    1    3    3    0    0  0.78822344373E-01  0.84167785327E-01  0.67709174430E-01  0.89010207862E+00  0.88000000000E+00 0.  1.
        -11    1    4    4    0    0 -0.26694271469E-01 -0.30712123380E-01 -0.31117367623E-01  0.51228608614E-01  0.51100000000E-03 0.  1.
         11    1    4    4    0    0 -0.33167145572E-01 -0.65325449328E-01 -0.30916181141E-01  0.79520722159E-01  0.51100000000E-03 0. -1.
</event>
<event>
 8    1  0.1044719E+005  0.1043930E+01  0.7957747E-01            NaN
         13   -1    0    0    0    0  0.00000000000E+00  0.00000000000E+00  0.74505805969E-08  0.10566000000E+00  0.10566000000E+00 0. -1.
     999900   -1    0    0    0    0 -0.00000000000E+00 -0.00000000000E+00 -0.74505805969E-08  0.93827000000E+00  0.93827000000E+00 0.  1.
     999902    2    1    2    0    0 -0.97120990680E-02 -0.18297309124E-02 -0.31095901628E-01  0.10113013641E+01  0.10107748617E+01 0.  0.
     999903    2    3    3    0    0 -0.22286126143E-01  0.59435575855E-01 -0.10682445946E+00  0.12583744136E+00  0.19857930749E-01 0.  0.
         14    1    1    2    0    0  0.97120990680E-02  0.18297309124E-02  0.31095901628E-01  0.32628635913E-01  0.00000000000E+00 0. -1.
     999901    1    3    3    0    0  0.12574027075E-01 -0.61265306767E-01  0.75728557837E-01  0.88546392272E+00  0.88000000000E+00 0. -1.
        -11    1    4    4    0    0 -0.66605431964E-02  0.34705084061E-01 -0.43249834810E-01  0.55853514012E-01  0.51100000000E-03 0. -1.
         11    1    4    4    0    0 -0.15625582946E-01  0.24730491794E-01 -0.63574624655E-01  0.69983927353E-01  0.51100000000E-03 0.  1.
</event>
<event>
 8    1  0.1044719E+005  0.1043930E+01  0.7957747E-01            NaN
         13   -1    0    0    0    0  0.00000000000E+00  0.00000000000E+00  0.74505805969E-08  0.10566000000E+00  0.10566000000E+00 0. -1.
     999900   -1    0    0    0    0 -0.00000000000E+00 -0.00000000000E+00 -0.74505805969E-08  0.93827000000E+00  0.93827000000E+00 0.  1.
     999902    2    1    2    0    0 -0.12906064364E-01  0.62213062616E-02 -0.18403475164E-01  0.10206070704E+01  0.10203405476E+01 0.  0.
     999903    2    3    3    0    0 -0.69518113301E-01 -0.94002818380E-01  0.52870490111E-01  0.13025333314E+00  0.22390715267E-01 0.  0.
         14    1    1    2    0    0  0.12906064364E-01 -0.62213062616E-02  0.18403475164E-01  0.23322929642E-01  0.00000000000E+00 0.  1.
     999901    1    3    3    0    0  0.56612048937E-01  0.10022412464E+00 -0.71273965275E-01  0.89035373721E+00  0.88000000000E+00 0.  1.
        -11    1    4    4    0    0 -0.37636599214E-01 -0.33170256469E-01  0.18717987104E-01  0.53548143543E-01  0.51100000000E-03 0. -1.
         11    1    4    4    0    0 -0.31881514087E-01 -0.60832561910E-01  0.34152503007E-01  0.76705189601E-01  0.51100000000E-03 0.  1.
</event>
<event>
 8    1  0.1044719E+005  0.1043930E+01  0.7957747E-01            NaN
         13   -1    0    0    0    0  0.00000000000E+00  0.00000000000E+00  0.74505805969E-08  0.10566000000E+00  0.10566000000E+00 0. -1.
     999900   -1    0    0    0    0 -0.00000000000E+00 -0.00000000000E+00 -0.74505805969E-08  0.93827000000E+00  0.93827000000E+00 0.  1.
     999902    2    1    2    0    0  0.67839461535E-02  0.76325656816E-02  0.22840086149E-01  0.10189110568E+01  0.10186038455E+01 0.  0.
     999903    2    3    3    0    0 -0.12181224163E+00  0.36631511104E-01  0.25367315312E-02  0.12886041522E+00  0.20456827400E-01 0.  0.
         14    1    1    2    0    0 -0.67839461535E-02 -0.76325656816E-02 -0.22840086149E-01  0.25018943215E-01  0.00000000000E+00 0.  1.
     999901    1    3    3    0    0  0.12859618778E+00 -0.28998945423E-01  0.20303354618E-01  0.89005064157E+00  0.88000000000E+00 0.  1.
        -11    1    4    4    0    0 -0.30684674989E-01  0.89742233558E-03  0.40223483024E-02  0.30964415914E-01  0.51100000000E-03 0.  1.
         11    1    4    4    0    0 -0.91127566637E-01  0.35734088769E-01 -0.14856167713E-02  0.97895999303E-01  0.51100000000E-03 0. -1.
</event>
<event>
 8    1  0.1044719E+005  0.1043930E+01  0.7957747E-01            NaN
         13   -1    0    0    0    0  0.00000000000E+00  0.00000000000E+00  0.74505805969E-08  0.10566000000E+00  0.10566000000E+00 0.  1.
     999900   -1    0    0    0    0 -0.00000000000E+00 -0.00000000000E+00 -0.74505805969E-08  0.93827000000E+00  0.93827000000E+00 0.  1.
     999902    2    1    2    0    0  0.91045177409E-03 -0.10740950013E-01  0.17668001350E-01  0.10232332563E+01  0.10230239203E+01 0.  0.
     999903    2    3    3    0    0  0.60810035644E-01 -0.74898228376E-01 -0.88569467577E-01  0.13250854216E+00  0.20158326045E-01 0.  0.
         14    1    1    2    0    0 -0.91045177409E-03  0.10740950013E-01 -0.17668001350E-01  0.20696743737E-01  0.00000000000E+00 0.  1.
     999901    1    3    3    0    0 -0.59899583870E-01  0.64157278363E-01  0.10623746893E+00  0.89072471411E+00  0.88000000000E+00 0. -1.
        -11    1    4    4    0    0  0.20611193663E-01 -0.13708961911E-01 -0.16360616574E-01  0.29676385167E-01  0.51100000000E-03 0.  1.
         11    1    4    4    0    0  0.40198841981E-01 -0.61189266465E-01 -0.72208851003E-01  0.10283215699E+00  0.51100000000E-03 0. -1.
</event>
<event>
 8    1  0.1044719E+005  0.1043930E+01  0.7957747E-01            NaN
         13   -1    0    0    0    0  0.00000000000E+00  0.00000000000E+00  0.74505805969E-08  0.10566000000E+00  0.10566000000E+00 0.  1.
     999900   -1    0    0    0    0 -0.00000000000E+00 -0.00000000000E+00 -0.74505805969E-08  0.93827000000E+00  0.93827000000E+00 0.  1.
     999902    2    1    2    0    0 -0.11234706432E-01 -0.15972345823E-01 -0.13654161235E-01  0.10201020631E+01  0.10198237340E+01 0.  0.
     999903    2    3    3    0    0 -0.22324993695E-01  0.11892219528E+00 -0.40690675320E-01  0.12934367563E+00  0.20812532092E-01 0.  0.
         14    1    1    2    0    0  0.11234706432E-01  0.15972345823E-01  0.13654161235E-01  0.23827936938E-01  0.00000000000E+00 0.  1.
     999901    1    3    3    0    0  0.11090287263E-01 -0.13489454111E+00  0.27036514086E-01  0.89075838743E+00  0.88000000000E+00 0. -1.
        -11    1    4    4    0    0  0.21909247855E-02  0.36309755987E-01 -0.15663502303E-01  0.39608142555E-01  0.51100000000E-03 0. -1.
         11    1    4    4    0    0 -0.24515918480E-01  0.82612439296E-01 -0.25027173017E-01  0.89735533072E-01  0.51100000000E-03 0.  1.
</event>
<event>
 7    1  0.1044719E+005  0.1043930E+01  0.7957747E-01            NaN
         13   -1    0    0    0    0  0.00000000000E+00  0.00000000000E+00  0.74505805969E-08  0.10566000000E+00  0.10566000000E+00 0. -1.
     999900   -1    0    0    0    0 -0.00000000000E+00 -0.00000000000E+00 -0.74505805969E-08  0.93827000000E+00  0.93827000000E+00 0.  1.
     999903    2    1    2    0    0  0.28502843206E-01  0.20508475390E-03  0.10000144354E+00  0.10597546190E+00  0.20446410049E-01 0.  0.
         14    1    1    2    0    0  0.31924878560E-01  0.36299318902E-01  0.63028344316E-02  0.48750016879E-01  0.00000000000E+00 0.  1.
     999901    1    1    2    0    0 -0.60427721766E-01 -0.36504403656E-01 -0.10630427797E+00  0.88920452122E+00  0.88000000000E+00 0. -1.
        -11    1    3    3    0    0  0.25430626668E-01  0.57304767368E-02  0.92732861342E-01  0.96328603385E-01  0.51100000000E-03 0.  1.
         11    1    3    3    0    0  0.30722165385E-02 -0.55253919829E-02  0.72685822000E-02  0.96468585157E-02  0.51100000000E-03 0. -1.
</event>
<event>
 8    1  0.1044719E+005  0.1043930E+01  0.7957747E-01            NaN
         13   -1    0    0    0    0  0.00000000000E+00  0.00000000000E+00  0.74505805969E-08  0.10566000000E+00  0.10566000000E+00 0. -1.
     999900   -1    0    0    0    0 -0.00000000000E+00 -0.00000000000E+00 -0.74505805969E-08  0.93827000000E+00  0.93827000000E+00 0. -1.
     999902    2    1    2    0    0  0.54698499688E-02  0.14466998263E-01  0.17618405343E-01  0.10204859921E+01  0.10202166626E+01 0.  0.
     999903    2    3    3    0    0 -0.11803466458E+00  0.16207864358E-01  0.50867090438E-01  0.13123806789E+00  0.21002206169E-01 0.  0.
         14    1    1    2    0    0 -0.54698499688E-02 -0.14466998263E-01 -0.17618405343E-01  0.23444007853E-01  0.00000000000E+00 0.  1.
     999901    1    3    3    0    0  0.12350451455E+00 -0.17408660953E-02 -0.33248685096E-01  0.88924792425E+00  0.88000000000E+00 0. -1.
        -11    1    4    4    0    0 -0.19952394829E-01  0.90368541386E-02  0.15018206303E-01  0.26562575811E-01  0.51100000000E-03 0. -1.
         11    1    4    4    0    0 -0.98082269755E-01  0.71710102194E-02  0.35848884135E-01  0.10467549208E+00  0.51100000000E-03 0.  1.
</event>
<event>
 8    1  0.1044719E+005  0.1043930E+01  0.7957747E-01            NaN
         13   -1    0    0    0    0  0.00000000000E+00  0.00000000000E+00  0.74505805969E-08  0.10566000000E+00  0.10566000000E+00 0.  1.
     999900   -1    0    0    0    0 -0.00000000000E+00 -0.00000000000E+00 -0.74505805969E-08  0.93827000000E+00  0.93827000000E+00 0. -1.
     999902    2    1    2    0    0  0.22846918837E-01  0.65128587366E-02 -0.87612597403E-03  0.10201567666E+01  0.10198797291E+01 0.  0.
     999903    2    3    3    0    0 -0.29663347328E-01  0.89604652283E-01  0.87540125119E-01  0.13028092826E+00  0.20023458196E-01 0.  0.
         14    1    1    2    0    0 -0.22846918837E-01 -0.65128587366E-02  0.87612597403E-03  0.23773233394E-01  0.00000000000E+00 0. -1.
     999901    1    3    3    0    0  0.52510266165E-01 -0.83091793546E-01 -0.88416251093E-01  0.88987583834E+00  0.88000000000E+00 0. -1.
        -11    1    4    4    0    0 -0.52869719604E-02  0.46116736558E-01  0.46502431395E-01  0.65707250057E-01  0.51100000000E-03 0. -1.
         11    1    4    4    0    0 -0.24376375368E-01  0.43487915724E-01  0.41037693724E-01  0.64573678208E-01  0.51100000000E-03 0.  1.
</event>
<event>
 8    1  0.1044719E+005  0.1043930E+01  0.7957747E-01            NaN
         13   -1    0    0    0    0  0.00000000000E+00  0.00000000000E+00  0.74505805969E-08  0.10566000000E+00  0.10566000000E+00 0.  1.
     999900   -1    0    0    0    0 -0.00000000000E+00 -0.00000000000E+00 -0.74505805969E-08  0.93827000000E+00  0.93827000000E+00 0.  1.
     999902    2    1    2    0    0  0.19021494252E-01 -0.10147884698E-03 -0.19808382187E-01  0.10164673063E+01  0.10160962480E+01 0.  0.
     999903    2    3    3    0    0  0.45002392706E-01 -0.10074683090E+00  0.59261899606E-01  0.12682883845E+00  0.19961017805E-01 0.  0.
         14    1    1    2    0    0 -0.19021494252E-01  0.10147884698E-03  0.19808382187E-01  0.27462693721E-01  0.00000000000E+00 0. -1.
     999901    1    3    3    0    0 -0.25980898454E-01  0.10064535206E+00 -0.79070281793E-01  0.88963846783E+00  0.88000000000E+00 0. -1.
        -11    1    4    4    0    0  0.12927835570E-01 -0.52949042449E-01  0.30909332456E-01  0.62660816964E-01  0.51100000000E-03 0. -1.
         11    1    4    4    0    0  0.32074557137E-01 -0.47797788455E-01  0.28352567149E-01  0.64168021487E-01  0.51100000000E-03 0.  1.
</event>
<event>
 8    1  0.1044719E+005  0.1043930E+01  0.7957747E-01            NaN
         13   -1    0    0    0    0  0.00000000000E+00  0.00000000000E+00  0.74505805969E-08  0.10566000000E+00  0.10566000000E+00 0.  1.
     999900   -1    0    0    0    0 -0.00000000000E+00 -0.00000000000E+00 -0.74505805969E-08  0.93827000000E+00  0.93827000000E+00 0.  1.
     999902    2    1    2    0    0 -0.20365079717E-01 -0.10169077932E-01 -0.27072684071E-01  0.10085594354E+01  0.10079390150E+01 0.  0.
     999903    2    3    3    0    0  0.41634619536E-01  0.83200396862E-01 -0.73712610215E-01  0.12022554307E+00  0.19101955946E-01 0.  0.
         14    1    1    2    0    0  0.20365079717E-01  0.10169077932E-01  0.27072684071E-01  0.35370564608E-01  0.00000000000E+00 0.  1.
     999901    1    3    3    0    0 -0.61999699252E-01 -0.93369474794E-01  0.46639926143E-01  0.88833389232E+00  0.88000000000E+00 0. -1.
        -11    1    4    4    0    0  0.38543675588E-01  0.83169139294E-01 -0.69824040443E-01  0.11523184631E+00  0.51100000000E-03 0. -1.
         11    1    4    4    0    0  0.30909439473E-02  0.31257567525E-04 -0.38885697713E-02  0.49936967656E-02  0.51100000000E-03 0.  1.
</event>
<event>
 8    1  0.1044719E+005  0.1043930E+01  0.7957747E-01            NaN
         13   -1    0    0    0    0  0.00000000000E+00  0.00000000000E+00  0.74505805969E-08  0.10566000000E+00  0.10566000000E+00 0.  1.
     999900   -1    0    0    0    0 -0.00000000000E+00 -0.00000000000E+00 -0.74505805969E-08  0.93827000000E+00  0.93827000000E+00 0. -1.
     999902    2    1    2    0    0  0.36714067024E-02 -0.15876770962E-02 -0.26650108848E-01  0.10169813776E+01  0.10166242640E+01 0.  0.
     999903    2    3    3    0    0  0.71799180519E-01 -0.98992927266E-01  0.14904772701E-01  0.12801794503E+00  0.34809769159E-01 0.  0.
         14    1    1    2    0    0 -0.36714067024E-02  0.15876770962E-02  0.26650108848E-01  0.26948622365E-01  0.00000000000E+00 0.  1.
     999901    1    3    3    0    0 -0.68127773817E-01  0.97405250170E-01 -0.41554881549E-01  0.88896343260E+00  0.88000000000E+00 0. -1.
        -11    1    4    4    0    0  0.25170436431E-01 -0.56632283500E-01 -0.43865641430E-02  0.62131066871E-01  0.51100000000E-03 0. -1.
         11    1    4    4    0    0  0.46628744088E-01 -0.42360643766E-01  0.19291336844E-01  0.65886878161E-01  0.51100000000E-03 0.  1.
</event>
<event>
 8    1  0.1044719E+005  0.1043930E+01  0.7957747E-01            NaN
         13   -1    0    0    0    0  0.00000000000E+00  0.00000000000E+00  0.74505805969E-08  0.10566000000E+00  0.10566000000E+00 0. -1.
     999900   -1    0    0    0    0 -0.00000000000E+00 -0.00000000000E+00 -0.74505805969E-08  0.93827000000E+00  0.93827000000E+00 0. -1.
     999902    2    1    2    0    0  0.19191694962E-01  0.41436413909E-02  0.12375406067E-01  0.10207213466E+01  0.10204574590E+01 0.  0.
     999903    2    3    3    0    0 -0.37263763971E-01 -0.11136573779E+00 -0.50172440700E-01  0.12918230161E+00  0.19490448545E-01 0.  0.
         14    1    1    2    0    0 -0.19191694962E-01 -0.41436413909E-02 -0.12375406067E-01  0.23208653446E-01  0.00000000000E+00 0. -1.
     999901    1    3    3    0    0  0.56455458933E-01  0.11550937918E+00  0.62547846767E-01  0.89153904494E+00  0.88000000000E+00 0. -1.
        -11    1    4    4    0    0 -0.16138411449E-01 -0.69953787683E-01 -0.37487249569E-01  0.80990960832E-01  0.51100000000E-03 0. -1.
         11    1    4    4    0    0 -0.21125352523E-01 -0.41411950109E-01 -0.12685191131E-01  0.48191340778E-01  0.51100000000E-03 0.  1.
</event>
<event>
 8    1  0.1044719E+005  0.1043930E+01  0.7957747E-01            NaN
         13   -1    0    0    0    0  0.00000000000E+00  0.00000000000E+00  0.74505805969E-08  0.10566000000E+00  0.10566000000E+00 0. -1.
     999900   -1    0    0    0    0 -0.00000000000E+00 -0.00000000000E+00 -0.74505805969E-08  0.93827000000E+00  0.93827000000E+00 0. -1.
     999902    2    1    2    0    0 -0.15720197398E-01  0.63940855861E-02 -0.16888300515E-01  0.10199879109E+01  0.10197068769E+01 0.  0.
     999903    2    3    3    0    0 -0.46833252717E-02  0.12418519219E+00  0.34949874077E-01  0.13055901902E+00  0.19500468078E-01 0.  0.
         14    1    1    2    0    0  0.15720197398E-01 -0.63940855861E-02  0.16888300515E-01  0.23942089111E-01  0.00000000000E+00 0. -1.
     999901    1    3    3    0    0 -0.11036872126E-01 -0.11779110660E+00 -0.51838174592E-01  0.88942889187E+00  0.88000000000E+00 0. -1.
        -11    1    4    4    0    0 -0.11042912209E-03  0.55127018074E-01  0.25373484867E-01  0.60688344611E-01  0.51100000000E-03 0.  1.
         11    1    4    4    0    0 -0.45728961497E-02  0.69058174117E-01  0.95763892100E-02  0.69870674412E-01  0.51100000000E-03 0. -1.
</event>
<event>
 8    1  0.1044719E+005  0.1043930E+01  0.7957747E-01            NaN
         13   -1    0    0    0    0  0.00000000000E+00  0.00000000000E+00  0.74505805969E-08  0.10566000000E+00  0.10566000000E+00 0. -1.
     999900   -1    0    0    0    0 -0.00000000000E+00 -0.00000000000E+00 -0.74505805969E-08  0.93827000000E+00  0.93827000000E+00 0. -1.
     999902    2    1    2    0    0  0.11909861389E-01  0.18177644959E-01  0.61794830065E-02  0.10213366916E+01  0.10210867642E+01 0.  0.
     999903    2    3    3    0    0 -0.11566491815E+00  0.32242608718E-01 -0.46938254783E-01  0.13044127593E+00  0.19843578209E-01 0.  0.
         14    1    1    2    0    0 -0.11909861389E-01 -0.18177644959E-01 -0.61794830065E-02  0.22593308408E-01  0.00000000000E+00 0.  1.
     999901    1    3    3    0    0  0.12757477954E+00 -0.14064963759E-01  0.53117737789E-01  0.89089541566E+00  0.88000000000E+00 0. -1.
        -11    1    4    4    0    0 -0.43820065419E-01  0.22022818617E-01 -0.16502645671E-01  0.51747474415E-01  0.51100000000E-03 0. -1.
         11    1    4    4    0    0 -0.71844852733E-01  0.10219790102E-01 -0.30435609112E-01  0.78693801515E-01  0.51100000000E-03 0.  1.
</event>
<event>
 8    1  0.1044719E+005  0.1043930E+01  0.7957747E-01            NaN
         13   -1    0    0    0    0  0.00000000000E+00  0.00000000000E+00  0.74505805969E-08  0.10566000000E+00  0.10566000000E+00 0.  1.
     999900   -1    0    0    0    0 -0.00000000000E+00 -0.00000000000E+00 -0.74505805969E-08  0.93827000000E+00  0.93827000000E+00 0. -1.
     999902    2    1    2    0    0 -0.17073663597E-03  0.17998616674E-01  0.15130113493E-01  0.10204161809E+01  0.10201452262E+01 0.  0.
     999903    2    3    3    0    0  0.11636951820E+00  0.39790988055E-01  0.44190862386E-01  0.13199000753E+00  0.18529497345E-01 0.  0.
         14    1    1    2    0    0  0.17073663597E-03 -0.17998616674E-01 -0.15130113493E-01  0.23513819075E-01  0.00000000000E+00 0.  1.
     999901    1    3    3    0    0 -0.11654025484E+00 -0.21792371382E-01 -0.29060748893E-01  0.88842617340E+00  0.88000000000E+00 0. -1.
        -11    1    4    4    0    0  0.89557722956E-01  0.22207914084E-01  0.31439699152E-01  0.97480731393E-01  0.51100000000E-03 0.  1.
         11    1    4    4    0    0  0.26811795248E-01  0.17583073971E-01  0.12751163234E-01  0.34509276137E-01  0.51100000000E-03 0. -1.
</event>
<event>
 8    1  0.1044719E+005  0.1043930E+01  0.7957747E-01            NaN
         13   -1    0    0    0    0  0.00000000000E+00  0.00000000000E+00  0.74505805969E-08  0.10566000000E+00  0.10566000000E+00 0. -1.
     999900   -1    0    0    0    0 -0.00000000000E+00 -0.00000000000E+00 -0.74505805969E-08  0.93827000000E+00  0.93827000000E+00 0.  1.
     999902    2    1    2    0    0 -0.11206548179E-01 -0.12641673369E-01 -0.17377940482E-01  0.10196938402E+01  0.10194057761E+01 0.  0.
     999903    2    3    3    0    0 -0.86497148154E-01 -0.31532421370E-01 -0.93694263367E-01  0.13298660780E+00  0.20755062769E-01 0.  0.
         14    1    1    2    0    0  0.11206548179E-01  0.12641673369E-01  0.17377940482E-01  0.24236159824E-01  0.00000000000E+00 0. -1.
     999901    1    3    3    0    0  0.75290599975E-01  0.18890748001E-01  0.76316322885E-01  0.88670723237E+00  0.88000000000E+00 0. -1.
        -11    1    4    4    0    0 -0.44425242905E-01 -0.22262009447E-01 -0.62227373278E-01  0.79634831436E-01  0.51100000000E-03 0. -1.
         11    1    4    4    0    0 -0.42071905250E-01 -0.92704119230E-02 -0.31466890089E-01  0.53351776366E-01  0.51100000000E-03 0.  1.
</event>
<event>
 8    1  0.1044719E+005  0.1043930E+01  0.7957747E-01            NaN
         13   -1    0    0    0    0  0.00000000000E+00  0.00000000000E+00  0.74505805969E-08  0.10566000000E+00  0.10566000000E+00 0.  1.
     999900   -1    0    0    0    0 -0.00000000000E+00 -0.00000000000E+00 -0.74505805969E-08  0.93827000000E+00  0.93827000000E+00 0. -1.
     999902    2    1    2    0    0 -0.14432799937E-02  0.13285107688E-01  0.18149324955E-01  0.10213916962E+01  0.10211429978E+01 0.  0.
     999903    2    3    3    0    0 -0.10842492568E+00 -0.27599368792E-01 -0.63575976461E-01  0.13021514922E+00  0.19909561485E-01 0.  0.
         14    1    1    2    0    0  0.14432799937E-02 -0.13285107688E-01 -0.18149324955E-01  0.22538303835E-01  0.00000000000E+00 0. -1.
     999901    1    3    3    0    0  0.10698164568E+00  0.40884476480E-01  0.81725301416E-01  0.89117654694E+00  0.88000000000E+00 0.  1.
        -11    1    4    4    0    0 -0.26019955827E-01 -0.47470424297E-02 -0.60106714990E-02  0.27128615998E-01  0.51100000000E-03 0. -1.
         11    1    4    4    0    0 -0.82404969848E-01 -0.22852326362E-01 -0.57565304962E-01  0.10308653322E+00  0.51100000000E-03 0.  1.
</event>
<event>
 8    1  0.1044719E+005  0.1043930E+01  0.7957747E-01            NaN
         13   -1    0    0    0    0  0.00000000000E+00  0.00000000000E+00  0.74505805969E-08  0.10566000000E+00  0.10566000000E+00 0. -1.
     999900   -1    0    0    0    0 -0.00000000000E+00 -0.00000000000E+00 -0.74505805969E-08  0.93827000000E+00  0.93827000000E+00 0. -1.
     999902    2    1    2    0    0  0.30363756897E-02  0.54734487924E-02  0.22696536745E-01  0.10203861898E+01  0.10201145354E+01 0.  0.
     999903    2    3    3    0    0  0.10729775129E+00 -0.21458609645E-01  0.71727008454E-01  0.13246741120E+00  0.20726117046E-01 0.  0.
         14    1    1    2    0    0 -0.30363756897E-02 -0.54734487924E-02 -0.22696536745E-01  0.23543810210E-01  0.00000000000E+00 0.  1.
     999901    1    3    3    0    0 -0.10426137560E+00  0.26932058437E-01 -0.49030471709E-01  0.88791877859E+00  0.88000000000E+00 0. -1.
        -11    1    4    4    0    0  0.95146413935E-01 -0.20427638363E-01  0.55070405684E-01  0.11181743691E+00  0.51100000000E-03 0. -1.
         11    1    4    4    0    0  0.12151337359E-01 -0.10309712818E-02  0.16656602770E-01  0.20649974291E-01  0.51100000000E-03 0.  1.
</event>
<event>
 8    1  0.1044719E+005  0.1043930E+01  0.7957747E-01            NaN
         13   -1    0    0    0    0  0.00000000000E+00  0.00000000000E+00  0.74505805969E-08  0.10566000000E+00  0.10566000000E+00 0.  1.
     999900   -1    0    0    0    0 -0.00000000000E+00 -0.00000000000E+00 -0.74505805969E-08  0.93827000000E+00  0.93827000000E+00 0.  1.
     999902    2    1    2    0    0 -0.22024215950E-02  0.22070496040E-01 -0.59037458625E-02  0.10209776217E+01  0.10207195953E+01 0.  0.
     999903    2    3    3    0    0  0.12477166099E+00  0.26883124820E-01 -0.24989604394E-01  0.13164649714E+00  0.20387498472E-01 0.  0.
         14    1    1    2    0    0  0.22024215950E-02 -0.22070496040E-01  0.59037458625E-02  0.22952378342E-01  0.00000000000E+00 0.  1.
     999901    1    3    3    0    0 -0.12697408259E+00 -0.48126287800E-02  0.19085858531E-01  0.88933112452E+00  0.88000000000E+00 0.  1.
        -11    1    4    4    0    0  0.86021474546E-01  0.11832671055E-01 -0.23886047008E-01  0.90058373015E-01  0.51100000000E-03 0.  1.
         11    1    4    4    0    0  0.38750186446E-01  0.15050453765E-01 -0.11035573858E-02  0.41588124123E-01  0.51100000000E-03 0. -1.
</event>
<event>
 8    1  0.1044719E+005  0.1043930E+01  0.7957747E-01            NaN
         13   -1    0    0    0    0  0.00000000000E+00  0.00000000000E+00  0.74505805969E-08  0.10566000000E+00  0.10566000000E+00 0. -1.
     999900   -1    0    0    0    0 -0.00000000000E+00 -0.00000000000E+00 -0.74505805969E-08  0.93827000000E+00  0.93827000000E+00 0.  1.
     999902    2    1    2    0    0 -0.21197345062E-01 -0.89673423872E-03 -0.94774201007E-02  0.10206931099E+01  0.10204285725E+01 0.  0.
     999903    2    3    3    0    0 -0.13596601198E-02 -0.61901827960E-02 -0.13055810934E+00  0.13216506439E+00  0.19545262648E-01 0.  0.
         14    1    1    2    0    0  0.21197345062E-01  0.89673423872E-03  0.94774201007E-02  0.23236890105E-01  0.00000000000E+00 0. -1.
     999901    1    3    3    0    0 -0.19837684943E-01  0.52934485573E-02  0.12108068924E+00  0.88852804550E+00  0.88000000000E+00 0. -1.
        -11    1    4    4    0    0  0.41046571982E-03  0.66426339633E-02 -0.64673207379E-01  0.65016751240E-01  0.51100000000E-03 0. -1.
         11    1    4    4    0    0 -0.17701258396E-02 -0.12832816759E-01 -0.65884901961E-01  0.67148313150E-01  0.51100000000E-03 0.  1.
</event>
<event>
 8    1  0.1044719E+005  0.1043930E+01  0.7957747E-01            NaN
         13   -1    0    0    0    0  0.00000000000E+00  0.00000000000E+00  0.74505805969E-08  0.10566000000E+00  0.10566000000E+00 0.  1.
     999900   -1    0    0    0    0 -0.00000000000E+00 -0.00000000000E+00 -0.74505805969E-08  0.93827000000E+00  0.93827000000E+00 0. -1.
     999902    2    1    2    0    0  0.68593822380E-02  0.22110151007E-01  0.62090247716E-02  0.10199620654E+01  0.10196804170E+01 0.  0.
     999903    2    3    3    0    0 -0.50702077527E-01 -0.86683745209E-01  0.77557536745E-01  0.12853621670E+00  0.20533269299E-01 0.  0.
         14    1    1    2    0    0 -0.68593822380E-02 -0.22110151007E-01 -0.62090247716E-02  0.23967934639E-01  0.00000000000E+00 0.  1.
     999901    1    3    3    0    0  0.57561459765E-01  0.10879389622E+00 -0.71348511973E-01  0.89142584866E+00  0.88000000000E+00 0. -1.
        -11    1    4    4    0    0 -0.25791047637E-01 -0.60349584655E-01  0.56564798136E-01  0.86643453391E-01  0.51100000000E-03 0.  1.
         11    1    4    4    0    0 -0.24911029889E-01 -0.26334160554E-01  0.20992738609E-01  0.41892763307E-01  0.51100000000E-03 0. -1.
</event>
<event>
 8    1  0.1044719E+005  0.1043930E+01  0.7957747E-01            NaN
         13   -1    0    0    0    0  0.00000000000E+00  0.00000000000E+00  0.74505805969E-08  0.10566000000E+00  0.10566000000E+00 0. -1.
     999900   -1    0    0    0    0 -0.00000000000E+00 -0.00000000000E+00 -0.74505805969E-08  0.93827000000E+00  0.93827000000E+00 0.  1.
     999902    2    1    2    0    0 -0.94999449364E-02  0.95072492824E-03  0.29065588917E-01  0.10133365155E+01  0.10128745887E+01 0.  0.
     999903    2    3    3    0    0  0.11275161714E+00  0.44516289955E-01 -0.58933741412E-02  0.12313118419E+00  0.20782911761E-01 0.  0.
         14    1    1    2    0    0  0.94999449364E-02 -0.95072492824E-03 -0.29065588917E-01  0.30593484450E-01  0.00000000000E+00 0.  1.
     999901    1    3    3    0    0 -0.12225156208E+00 -0.43565565027E-01  0.34958963059E-01  0.89020533136E+00  0.88000000000E+00 0. -1.
        -11    1    4    4    0    0  0.52139400850E-01  0.11669765539E-01 -0.86831406804E-02  0.54132786755E-01  0.51100000000E-03 0. -1.
         11    1    4    4    0    0  0.60612216292E-01  0.32846524416E-01  0.27897665392E-02  0.68998397433E-01  0.51100000000E-03 0.  1.
</event>
<event>
 8    1  0.1044719E+005  0.1043930E+01  0.7957747E-01            NaN
         13   -1    0    0    0    0  0.00000000000E+00  0.00000000000E+00  0.74505805969E-08  0.10566000000E+00  0.10566000000E+00 0. -1.
     999900   -1    0    0    0    0 -0.00000000000E+00 -0.00000000000E+00 -0.74505805969E-08  0.93827000000E+00  0.93827000000E+00 0.  1.
     999902    2    1    2    0    0 -0.23580132607E-02  0.11105836650E-01  0.20968419700E-01  0.10200852006E+01  0.10198064728E+01 0.  0.
     999903    2    3    3    0    0  0.12835039262E+00 -0.94499601171E-02  0.35208956193E-02  0.13002248131E+00  0.18174815217E-01 0.  0.
         14    1    1    2    0    0  0.23580132607E-02 -0.11105836650E-01 -0.20968419700E-01  0.23844799411E-01  0.00000000000E+00 0.  1.
     999901    1    3    3    0    0 -0.13070840588E+00  0.20555796767E-01  0.17447524081E-01  0.89006271928E+00  0.88000000000E+00 0. -1.
        -11    1    4    4    0    0  0.46672938234E-01  0.48043500102E-02 -0.16141138793E-02  0.46950095070E-01  0.51100000000E-03 0.  1.
         11    1    4    4    0    0  0.81677454388E-01 -0.14254310127E-01  0.51350094986E-02  0.83072386243E-01  0.51100000000E-03 0. -1.
</event>
<event>
 8    1  0.1044719E+005  0.1043930E+01  0.7957747E-01            NaN
         13   -1    0    0    0    0  0.00000000000E+00  0.00000000000E+00  0.74505805969E-08  0.10566000000E+00  0.10566000000E+00 0. -1.
     999900   -1    0    0    0    0 -0.00000000000E+00 -0.00000000000E+00 -0.74505805969E-08  0.93827000000E+00  0.93827000000E+00 0. -1.
     999902    2    1    2    0    0  0.82079840524E-02 -0.19672160896E-01  0.82598795207E-02  0.10210697610E+01  0.10208138255E+01 0.  0.
     999903    2    3    3    0    0 -0.48375055001E-02 -0.98921162740E-01 -0.85269217180E-01  0.13247633261E+00  0.21687355874E-01 0.  0.
         14    1    1    2    0    0 -0.82079840524E-02  0.19672160896E-01 -0.82598795207E-02  0.22860238980E-01  0.00000000000E+00 0.  1.
     999901    1    3    3    0    0  0.13045489553E-01  0.79249001845E-01  0.93529096701E-01  0.88859342841E+00  0.88000000000E+00 0.  1.
        -11    1    4    4    0    0 -0.88555936825E-02 -0.61399351994E-01 -0.64102877889E-01  0.89206177137E-01  0.51100000000E-03 0. -1.
         11    1    4    4    0    0  0.40180881824E-02 -0.37521810746E-01 -0.21166339292E-01  0.43270155469E-01  0.51100000000E-03 0.  1.
</event>
<event>
 8    1  0.1044719E+005  0.1043930E+01  0.7957747E-01            NaN
         13   -1    0    0    0    0  0.00000000000E+00  0.00000000000E+00  0.74505805969E-08  0.10566000000E+00  0.10566000000E+00 0. -1.
     999900   -1    0    0    0    0 -0.00000000000E+00 -0.00000000000E+00 -0.74505805969E-08  0.93827000000E+00  0.93827000000E+00 0.  1.
     999902    2    1    2    0    0 -0.21682166531E-01  0.14335957618E-01 -0.70379170665E-02  0.10170010508E+01  0.10166444654E+01 0.  0.
     999903    2    3    3    0    0 -0.87401173486E-01  0.21589783662E-01 -0.92145916987E-01  0.13042619358E+00  0.20372483151E-01 0.  0.
         14    1    1    2    0    0  0.21682166531E-01 -0.14335957618E-01  0.70379170665E-02  0.26928949162E-01  0.00000000000E+00 0.  1.
     999901    1    3    3    0    0  0.65719006955E-01 -0.72538260438E-02  0.85107999921E-01  0.88657485726E+00  0.88000000000E+00 0. -1.
        -11    1    4    4    0    0 -0.42077545272E-01  0.19085128162E-01 -0.38444257268E-01  0.60108102374E-01  0.51100000000E-03 0. -1.
         11    1    4    4    0    0 -0.45323628214E-01  0.25046554998E-02 -0.53701659719E-01  0.70318091209E-01  0.51100000000E-03 0.  1.
</event>
<event>
 8    1  0.1044719E+005  0.1043930E+01  0.7957747E-01            NaN
         13   -1    0    0    0    0  0.00000000000E+00  0.00000000000E+00  0.74505805969E-08  0.10566000000E+00  0.10566000000E+00 0.  1.
     999900   -1    0    0    0    0 -0.00000000000E+00 -0.00000000000E+00 -0.74505805969E-08  0.93827000000E+00  0.93827000000E+00 0.  1.
     999902    2    1    2    0    0  0.37793255295E-02 -0.15008995644E-01  0.16920894417E-01  0.10209981462E+01  0.10207405863E+01 0.  0.
     999903    2    3    3    0    0 -0.12822519275E+00 -0.73432961059E-02  0.19337215277E-01  0.13111624705E+00  0.17942081628E-01 0.  0.
         14    1    1    2    0    0 -0.37793255295E-02  0.15008995644E-01 -0.16920894417E-01  0.22931853819E-01  0.00000000000E+00 0. -1.
     999901    1    3    3    0    0  0.13200451828E+00 -0.76656995381E-02 -0.24163208607E-02  0.88988189913E+00  0.88000000000E+00 0. -1.
        -11    1    4    4    0    0 -0.45978895701E-01 -0.93037389269E-02  0.15219544072E-02  0.46938213367E-01  0.51100000000E-03 0. -1.
         11    1    4    4    0    0 -0.82246297046E-01  0.19604428210E-02  0.17815260870E-01  0.84178033683E-01  0.51100000000E-03 0.  1.
</event>
<event>
 8    1  0.1312955E+005  0.1043930E+01  0.7957747E-01            NaN
         13   -1    0    0    0    0  0.00000000000E+00  0.00000000000E+00  0.74505805969E-08  0.10566000000E+00  0.10566000000E+00 0.  1.
     999900   -1    0    0    0    0 -0.00000000000E+00 -0.00000000000E+00 -0.74505805969E-08  0.93827000000E+00  0.93827000000E+00 0. -1.
     999902    2    1    2    0    0  0.20613613510E-02 -0.46544307643E-02 -0.23519949197E-01  0.10198654837E+01  0.10195815337E+01 0.  0.
     999903    2    3    3    0    0 -0.34787362196E-01 -0.10211300884E+00 -0.73831111209E-01  0.13229170313E+00  0.20318331413E-01 0.  0.
         14    1    1    2    0    0 -0.20613613510E-02  0.46544307643E-02  0.23519949197E-01  0.24064516338E-01  0.00000000000E+00 0.  1.
     999901    1    3    3    0    0  0.36848723547E-01  0.97458578075E-01  0.50311162013E-01  0.88757378053E+00  0.88000000000E+00 0.  1.
        -11    1    4    4    0    0 -0.14737047407E-01 -0.67540140564E-01 -0.39616156379E-01  0.79677801933E-01  0.51100000000E-03 0.  1.
         11    1    4    4    0    0 -0.20050314789E-01 -0.34572868276E-01 -0.34214954831E-01  0.52613901195E-01  0.51100000000E-03 0. -1.
</event>
<event>
 8    1  0.1044719E+005  0.1043930E+01  0.7957747E-01            NaN
         13   -1    0    0    0    0  0.00000000000E+00  0.00000000000E+00  0.74505805969E-08  0.10566000000E+00  0.10566000000E+00 0.  1.
     999900   -1    0    0    0    0 -0.00000000000E+00 -0.00000000000E+00 -0.74505805969E-08  0.93827000000E+00  0.93827000000E+00 0.  1.
     999902    2    1    2    0    0 -0.12471418839E-01  0.21224388528E-01 -0.38451294261E-02  0.10190142223E+01  0.10187095707E+01 0.  0.
     999903    2    3    3    0    0 -0.11190266734E+00  0.42994887631E-01 -0.51139656077E-01  0.13188553942E+00  0.20193161276E-01 0.  0.
         14    1    1    2    0    0  0.12471418839E-01 -0.21224388528E-01  0.38451294261E-02  0.24915777663E-01  0.00000000000E+00 0. -1.
     999901    1    3    3    0    0  0.99431248505E-01 -0.21770499103E-01  0.47294526651E-01  0.88712868292E+00  0.88000000000E+00 0.  1.
        -11    1    4    4    0    0 -0.69690127548E-01  0.18101257383E-01 -0.24210336975E-01  0.75965590460E-01  0.51100000000E-03 0. -1.
         11    1    4    4    0    0 -0.42212539796E-01  0.24893630248E-01 -0.26929319102E-01  0.55919948956E-01  0.51100000000E-03 0.  1.
</event>
<event>
 8    1  0.1044719E+005  0.1043930E+01  0.7957747E-01            NaN
         13   -1    0    0    0    0  0.00000000000E+00  0.00000000000E+00  0.74505805969E-08  0.10566000000E+00  0.10566000000E+00 0. -1.
     999900   -1    0    0    0    0 -0.00000000000E+00 -0.00000000000E+00 -0.74505805969E-08  0.93827000000E+00  0.93827000000E+00 0.  1.
     999902    2    1    2    0    0  0.16704094905E-01  0.71339744094E-02  0.14869259038E-01  0.10204562862E+01  0.10201862657E+01 0.  0.
     999903    2    3    3    0    0  0.51187929523E-01 -0.23882590305E-01  0.11899139105E+00  0.13310484478E+00  0.19166802334E-01 0.  0.
         14    1    1    2    0    0 -0.16704094905E-01 -0.71339744094E-02 -0.14869259038E-01  0.23473713848E-01  0.00000000000E+00 0.  1.
     999901    1    3    3    0    0 -0.34483834618E-01  0.31016564714E-01 -0.10412213201E+00  0.88735144138E+00  0.88000000000E+00 0.  1.
        -11    1    4    4    0    0  0.43264302664E-01 -0.11700978186E-01  0.83944705694E-01  0.95161376149E-01  0.51100000000E-03 0.  1.
         11    1    4    4    0    0  0.79236268587E-02 -0.12181612119E-01  0.35046685351E-01  0.37943468628E-01  0.51100000000E-03 0. -1.
</event>
<event>
 8    1  0.1044719E+005  0.1043930E+01  0.7957747E-01            NaN
         13   -1    0    0    0    0  0.00000000000E+00  0.00000000000E+00  0.74505805969E-08  0.10566000000E+00  0.10566000000E+00 0.  1.
     999900   -1    0    0    0    0 -0.00000000000E+00 -0.00000000000E+00 -0.74505805969E-08  0.93827000000E+00  0.93827000000E+00 0. -1.
     999902    2    1    2    0    0 -0.20463461500E-01 -0.94431502229E-03 -0.11226392487E-01  0.10205702724E+01  0.10203028981E+01 0.  0.
     999903    2    3    3    0    0  0.30072114845E-01 -0.11674294779E+00  0.44004843720E-01  0.12983256838E+00  0.19667780571E-01 0.  0.
         14    1    1    2    0    0  0.20463461500E-01  0.94431502229E-03  0.11226392487E-01  0.23359727646E-01  0.00000000000E+00 0.  1.
     999901    1    3    3    0    0 -0.50535576345E-01  0.11579863276E+00 -0.55231236207E-01  0.89073770397E+00  0.88000000000E+00 0.  1.
        -11    1    4    4    0    0 -0.88858091082E-03 -0.28886906635E-01  0.12551029869E-01  0.31512416961E-01  0.51100000000E-03 0.  1.
         11    1    4    4    0    0  0.30960695756E-01 -0.87856041151E-01  0.31453813851E-01  0.98320151420E-01  0.51100000000E-03 0. -1.
</event>
<event>
 8    1  0.1044719E+005  0.1043930E+01  0.7957747E-01            NaN
         13   -1    0    0    0    0  0.00000000000E+00  0.00000000000E+00  0.74505805969E-08  0.10566000000E+00  0.10566000000E+00 0.  1.
     999900   -1    0    0    0    0 -0.00000000000E+00 -0.00000000000E+00 -0.74505805969E-08  0.93827000000E+00  0.93827000000E+00 0. -1.
     999902    2    1    2    0    0  0.73503931655E-02 -0.18300540343E-01 -0.12890871151E-01  0.10203691720E+01  0.10200971202E+01 0.  0.
     999903    2    3    3    0    0 -0.47243549107E-01 -0.76061300320E-01 -0.96026566806E-01  0.13288489169E+00  0.20494354539E-01 0.  0.
         14    1    1    2    0    0 -0.73503931655E-02  0.18300540343E-01  0.12890871151E-01  0.23560827990E-01  0.00000000000E+00 0. -1.
     999901    1    3    3    0    0  0.54593942272E-01  0.57760759977E-01  0.83135695655E-01  0.88748428032E+00  0.88000000000E+00 0.  1.
        -11    1    4    4    0    0 -0.48750789635E-02 -0.50151216768E-02 -0.17389671580E-01  0.18750457034E-01  0.51100000000E-03 0.  1.
         11    1    4    4    0    0 -0.42368470143E-01 -0.71046178643E-01 -0.78636895226E-01  0.11413443465E+00  0.51100000000E-03 0. -1.
</event>
<event>
 8    1  0.1044719E+005  0.1043930E+01  0.7957747E-01            NaN
         13   -1    0    0    0    0  0.00000000000E+00  0.00000000000E+00  0.74505805969E-08  0.10566000000E+00  0.10566000000E+00 0. -1.
     999900   -1    0    0    0    0 -0.00000000000E+00 -0.00000000000E+00 -0.74505805969E-08  0.93827000000E+00  0.93827000000E+00 0.  1.
     999902    2    1    2    0    0 -0.36043049108E-02 -0.83313488764E-02  0.22284272567E-01  0.10198677642E+01  0.10195838687E+01 0.  0.
     999903    2    3    3    0    0  0.69021326589E-01  0.10723380588E+00  0.64134064896E-02  0.12920415108E+00  0.19736976101E-01 0.  0.
         14    1    1    2    0    0  0.36043049108E-02  0.83313488764E-02 -0.22284272567E-01  0.24062235802E-01  0.00000000000E+00 0.  1.
     999901    1    3    3    0    0 -0.72625631500E-01 -0.11556515476E+00  0.15870866077E-01  0.89066361312E+00  0.88000000000E+00 0.  1.
        -11    1    4    4    0    0  0.22340613966E-01  0.52680482592E-01  0.17269178923E-02  0.57250149737E-01  0.51100000000E-03 0. -1.
         11    1    4    4    0    0  0.46680712623E-01  0.54553323288E-01  0.46864885974E-02  0.71954001341E-01  0.51100000000E-03 0.  1.
</event>
<event>
 8    1  0.1044719E+005  0.1043930E+01  0.7957747E-01            NaN
         13   -1    0    0    0    0  0.00000000000E+00  0.00000000000E+00  0.74505805969E-08  0.10566000000E+00  0.10566000000E+00 0. -1.
     999900   -1    0    0    0    0 -0.00000000000E+00 -0.00000000000E+00 -0.74505805969E-08  0.93827000000E+00  0.93827000000E+00 0.  1.
     999902    2    1    2    0    0 -0.19795019904E-01 -0.12109092264E-01 -0.73385591745E-02  0.10195922232E+01  0.10193017091E+01 0.  0.
     999903    2    3    3    0    0  0.30100992291E-01  0.79724480382E-01 -0.95004012550E-01  0.12908211725E+00  0.19348593845E-01 0.  0.
         14    1    1    2    0    0  0.19795019904E-01  0.12109092264E-01  0.73385591745E-02  0.24337776793E-01  0.00000000000E+00 0. -1.
     999901    1    3    3    0    0 -0.49896012195E-01 -0.91833572646E-01  0.87665453375E-01  0.89051010596E+00  0.88000000000E+00 0. -1.
        -11    1    4    4    0    0  0.18934892226E-01  0.47714907869E-01 -0.42820598871E-01  0.66851382822E-01  0.51100000000E-03 0.  1.
         11    1    4    4    0    0  0.11166100065E-01  0.32009572513E-01 -0.52183413678E-01  0.62230734426E-01  0.51100000000E-03 0. -1.
</event>
<event>
 8    1  0.1044719E+005  0.1043930E+01  0.7957747E-01            NaN
         13   -1    0    0    0    0  0.00000000000E+00  0.00000000000E+00  0.74505805969E-08  0.10566000000E+00  0.10566000000E+00 0. -1.
     999900   -1    0    0    0    0 -0.00000000000E+00 -0.00000000000E+00 -0.74505805969E-08  0.93827000000E+00  0.93827000000E+00 0. -1.
     999902    2    1    2    0    0 -0.45427774871E-02  0.23222510902E-01 -0.99337441162E-03  0.10202464903E+01  0.10199715645E+01 0.  0.
     999903    2    3    3    0    0 -0.25533832913E-01 -0.44799047872E-01  0.11695276263E+00  0.12952832604E+00  0.20993028519E-01 0.  0.
         14    1    1    2    0    0  0.45427774871E-02 -0.23222510902E-01  0.99337441162E-03  0.23683509719E-01  0.00000000000E+00 0. -1.
     999901    1    3    3    0    0  0.20991055426E-01  0.68021558774E-01 -0.11794613704E+00  0.89071816424E+00  0.88000000000E+00 0. -1.
        -11    1    4    4    0    0 -0.92805296270E-02 -0.15509129186E-02  0.17878173146E-01  0.20209496705E-01  0.51100000000E-03 0.  1.
         11    1    4    4    0    0 -0.16253303286E-01 -0.43248134953E-01  0.99074589485E-01  0.10931882934E+00  0.51100000000E-03 0. -1.
</event>
<event>
 8    1  0.1044719E+005  0.1043930E+01  0.7957747E-01            NaN
         13   -1    0    0    0    0  0.00000000000E+00  0.00000000000E+00  0.74505805969E-08  0.10566000000E+00  0.10566000000E+00 0. -1.
     999900   -1    0    0    0    0 -0.00000000000E+00 -0.00000000000E+00 -0.74505805969E-08  0.93827000000E+00  0.93827000000E+00 0. -1.
     999902    2    1    2    0    0 -0.43221485626E-02 -0.12709711584E-01  0.19316210653E-01  0.10204069532E+01  0.10201357833E+01 0.  0.
     999903    2    3    3    0    0 -0.68260404239E-01 -0.12637927102E-02  0.11263896849E+00  0.13309176302E+00  0.19099743497E-01 0.  0.
         14    1    1    2    0    0  0.43221485626E-02  0.12709711584E-01 -0.19316210653E-01  0.23523046800E-01  0.00000000000E+00 0.  1.
     999901    1    3    3    0    0  0.63938255676E-01 -0.11445918874E-01 -0.93322757838E-01  0.88731519018E+00  0.88000000000E+00 0. -1.
        -11    1    4    4    0    0 -0.50929330444E-01 -0.90984086830E-02  0.85815678553E-01  0.10020563630E+00  0.51100000000E-03 0. -1.
         11    1    4    4    0    0 -0.17331073795E-01  0.78346159728E-02  0.26823289938E-01  0.32886126717E-01  0.51100000000E-03 0.  1.
</event>
<event>
 8    1  0.1044719E+005  0.1043930E+01  0.7957747E-01            NaN
         13   -1    0    0    0    0  0.00000000000E+00  0.00000000000E+00  0.74505805969E-08  0.10566000000E+00  0.10566000000E+00 0.  1.
     999900   -1    0    0    0    0 -0.00000000000E+00 -0.00000000000E+00 -0.74505805969E-08  0.93827000000E+00  0.93827000000E+00 0. -1.
     999902    2    1    2    0    0  0.28184135962E-02  0.11139704847E-01  0.19599357286E-01  0.10212105967E+01  0.10209578403E+01 0.  0.
     999903    2    3    3    0    0 -0.37668067276E-01 -0.97402434031E-01  0.77855598605E-01  0.13170829729E+00  0.19479832982E-01 0.  0.
         14    1    1    2    0    0 -0.28184135962E-02 -0.11139704847E-01 -0.19599357286E-01  0.22719403277E-01  0.00000000000E+00 0. -1.
     999901    1    3    3    0    0  0.40486480872E-01  0.10854213888E+00 -0.58256241320E-01  0.88950229943E+00  0.88000000000E+00 0.  1.
        -11    1    4    4    0    0 -0.26924516698E-01 -0.68396777688E-01  0.43233012437E-01  0.85278386963E-01  0.51100000000E-03 0.  1.
         11    1    4    4    0    0 -0.10743550578E-01 -0.29005656343E-01  0.34622586169E-01  0.46429910326E-01  0.51100000000E-03 0. -1.
</event>
<event>
 8    1  0.1044719E+005  0.1043930E+01  0.7957747E-01            NaN
         13   -1    0    0    0    0  0.00000000000E+00  0.00000000000E+00  0.74505805969E-08  0.10566000000E+00  0.10566000000E+00 0. -1.
     999900   -1    0    0    0    0 -0.00000000000E+00 -0.00000000000E+00 -0.74505805969E-08  0.93827000000E+00  0.93827000000E+00 0.  1.
     999902    2    1    2    0    0  0.17893107687E-01 -0.25194131000E-01 -0.10849640699E-01  0.10111790879E+01  0.10106485668E+01 0.  0.
     999903    2    3    3    0    0 -0.84034486025E-01  0.48702827674E-01  0.65516617157E-01  0.11894492571E+00  0.20535529275E-01 0.  0.
         14    1    1    2    0    0 -0.17893107687E-01  0.25194131000E-01  0.10849640699E-01  0.32750912092E-01  0.00000000000E+00 0.  1.
     999901    1    3    3    0    0  0.10192759371E+00 -0.73896958674E-01 -0.76366257856E-01  0.89223416220E+00  0.88000000000E+00 0. -1.
        -11    1    4    4    0    0 -0.45758659906E-01  0.22639130753E-01  0.45888831802E-01  0.68647149998E-01  0.51100000000E-03 0.  1.
         11    1    4    4    0    0 -0.38275826118E-01  0.26063696921E-01  0.19627785355E-01  0.50297775708E-01  0.51100000000E-03 0. -1.
</event>
<event>
 8    1  0.1044719E+005  0.1043930E+01  0.7957747E-01            NaN
         13   -1    0    0    0    0  0.00000000000E+00  0.00000000000E+00  0.74505805969E-08  0.10566000000E+00  0.10566000000E+00 0.  1.
     999900   -1    0    0    0    0 -0.00000000000E+00 -0.00000000000E+00 -0.74505805969E-08  0.93827000000E+00  0.93827000000E+00 0.  1.
     999902    2    1    2    0    0 -0.10641694502E-01  0.18033687693E-01 -0.11843196417E-01  0.10198733823E+01  0.10195896209E+01 0.  0.
     999903    2    3    3    0    0  0.91735888594E-01  0.81392061854E-01 -0.41561327841E-01  0.13117848503E+00  0.20983564392E-01 0.  0.
         14    1    1    2    0    0  0.10641694502E-01 -0.18033687693E-01  0.11843196417E-01  0.24056617698E-01  0.00000000000E+00 0.  1.
     999901    1    3    3    0    0 -0.10237758310E+00 -0.63358374161E-01  0.29718131423E-01  0.88869489727E+00  0.88000000000E+00 0. -1.
        -11    1    4    4    0    0  0.56546029477E-01  0.63121447853E-01 -0.27213277142E-01  0.89008955743E-01  0.51100000000E-03 0. -1.
         11    1    4    4    0    0  0.35189859117E-01  0.18270614001E-01 -0.14348050698E-01  0.42169529289E-01  0.51100000000E-03 0.  1.
</event>
<event>
 8    1  0.1044719E+005  0.1043930E+01  0.7957747E-01            NaN
         13   -1    0    0    0    0  0.00000000000E+00  0.00000000000E+00  0.74505805969E-08  0.10566000000E+00  0.10566000000E+00 0.  1.
     999900   -1    0    0    0    0 -0.00000000000E+00 -0.00000000000E+00 -0.74505805969E-08  0.93827000000E+00  0.93827000000E+00 0.  1.
     999902    2    1    2    0    0 -0.13103200317E-01 -0.10925504994E-01 -0.16515710631E-01  0.10201849118E+01  0.10199085375E+01 0.  0.
     999903    2    3    3    0    0  0.81110866686E-01 -0.95252804225E-01 -0.33641366728E-01  0.13098264460E+00  0.19303943252E-01 0.  0.
         14    1    1    2    0    0  0.13103200317E-01  0.10925504994E-01  0.16515710631E-01  0.23745088241E-01  0.00000000000E+00 0.  1.
     999901    1    3    3    0    0 -0.94214067002E-01  0.84327299231E-01  0.17125656097E-01  0.88920226715E+00  0.88000000000E+00 0. -1.
        -11    1    4    4    0    0  0.36912129243E-01 -0.54714969175E-01 -0.11208051380E-01  0.66948597250E-01  0.51100000000E-03 0. -1.
         11    1    4    4    0    0  0.44198737443E-01 -0.40537835050E-01 -0.22433315348E-01  0.64034047354E-01  0.51100000000E-03 0.  1.
</event>
<event>
 8    1  0.1044719E+005  0.1043930E+01  0.7957747E-01            NaN
         13   -1    0    0    0    0  0.00000000000E+00  0.00000000000E+00  0.74505805969E-08  0.10566000000E+00  0.10566000000E+00 0. -1.
     999900   -1    0    0    0    0 -0.00000000000E+00 -0.00000000000E+00 -0.74505805969E-08  0.93827000000E+00  0.93827000000E+00 0. -1.
     999902    2    1    2    0    0  0.11529214123E-01 -0.15170925601E-01  0.14119643859E-01  0.10202140960E+01  0.10199384087E+01 0.  0.
     999903    2    3    3    0    0 -0.71202774524E-01  0.58466305783E-01 -0.86035671798E-01  0.12763462552E+00  0.20007918385E-01 0.  0.
         14    1    1    2    0    0 -0.11529214123E-01  0.15170925601E-01 -0.14119643859E-01  0.23715904043E-01  0.00000000000E+00 0.  1.
     999901    1    3    3    0    0  0.82731988647E-01 -0.73637231384E-01  0.10015531566E+00  0.89257947044E+00  0.88000000000E+00 0.  1.
        -11    1    4    4    0    0 -0.33897892010E-01  0.36663730947E-01 -0.55880068102E-01  0.74940905931E-01  0.51100000000E-03 0. -1.
         11    1    4    4    0    0 -0.37304882514E-01  0.21802574836E-01 -0.30155603696E-01  0.52693719589E-01  0.51100000000E-03 0.  1.
</event>
<event>
 8    1  0.1044719E+005  0.1043930E+01  0.7957747E-01            NaN
         13   -1    0    0    0    0  0.00000000000E+00  0.00000000000E+00  0.74505805969E-08  0.10566000000E+00  0.10566000000E+00 0. -1.
     999900   -1    0    0    0    0 -0.00000000000E+00 -0.00000000000E+00 -0.74505805969E-08  0.93827000000E+00  0.93827000000E+00 0.  1.
     999902    2    1    2    0    0  0.19924597051E-01  0.85573692725E-02 -0.10916745523E-01  0.10196525728E+01  0.10193635151E+01 0.  0.
     999903    2    3    3    0    0 -0.10425397770E+00 -0.44867622294E-01  0.55495101128E-01  0.12685635784E+00  0.11438263756E-01 0.  0.
         14    1    1    2    0    0 -0.19924597051E-01 -0.85573692725E-02  0.10916745523E-01  0.24277427156E-01  0.00000000000E+00 0. -1.
     999901    1    3    3    0    0  0.12417857475E+00  0.53424991566E-01 -0.66411846651E-01  0.89279621501E+00  0.88000000000E+00 0.  1.
        -11    1    4    4    0    0 -0.33123667528E-01 -0.14196827256E-01  0.11824210498E-01  0.37931521582E-01  0.51100000000E-03 0.  1.
         11    1    4    4    0    0 -0.71130310174E-01 -0.30670795038E-01  0.43670890630E-01  0.88924836256E-01  0.51100000000E-03 0. -1.
</event>
<event>
 8    1  0.1044719E+005  0.1043930E+01  0.7957747E-01            NaN
         13   -1    0    0    0    0  0.00000000000E+00  0.00000000000E+00  0.74505805969E-08  0.10566000000E+00  0.10566000000E+00 0.  1.
     999900   -1    0    0    0    0 -0.00000000000E+00 -0.00000000000E+00 -0.74505805969E-08  0.93827000000E+00  0.93827000000E+00 0.  1.
     999902    2    1    2    0    0  0.14443295580E-01  0.17877582984E-02  0.17435774396E-01  0.10212185250E+01  0.10209659469E+01 0.  0.
     999903    2    3    3    0    0  0.39331652022E-01 -0.32140595450E-01  0.12237107485E+00  0.13398575919E+00  0.19937577080E-01 0.  0.
         14    1    1    2    0    0 -0.14443295580E-01 -0.17877582984E-02 -0.17435774396E-01  0.22711474979E-01  0.00000000000E+00 0. -1.
     999901    1    3    3    0    0 -0.24888356441E-01  0.33928353749E-01 -0.10493530046E+00  0.88723276583E+00  0.88000000000E+00 0.  1.
        -11    1    4    4    0    0  0.62237463975E-02 -0.17087268671E-01  0.40442701577E-01  0.44346172346E-01  0.51100000000E-03 0. -1.
         11    1    4    4    0    0  0.33107905624E-01 -0.15053326779E-01  0.81928373275E-01  0.89639586848E-01  0.51100000000E-03 0.  1.
</event>
<event>
 8    1  0.1044719E+005  0.1043930E+01  0.7957747E-01            NaN
         13   -1    0    0    0    0  0.00000000000E+00  0.00000000000E+00  0.74505805969E-08  0.10566000000E+00  0.10566000000E+00 0. -1.
     999900   -1    0    0    0    0 -0.00000000000E+00 -0.00000000000E+00 -0.74505805969E-08  0.93827000000E+00  0.93827000000E+00 0.  1.
     999902    2    1    2    0    0 -0.22193852203E-01  0.19132984058E-01  0.74700527231E-02  0.10136902936E+01  0.10132391482E+01 0.  0.
     999903    2    3    3    0    0 -0.40353139154E-01 -0.10433147891E+00  0.49247892508E-01  0.12390457716E+00  0.20336076118E-01 0.  0.
         14    1    1    2    0    0  0.22193852203E-01 -0.19132984058E-01 -0.74700527231E-02  0.30239706385E-01  0.00000000000E+00 0.  1.
     999901    1    3    3    0    0  0.18159286951E-01  0.12346446297E+00 -0.41777839785E-01  0.88978571646E+00  0.88000000000E+00 0. -1.
        -11    1    4    4    0    0 -0.20982881003E-01 -0.52242956259E-01  0.13740077210E-01  0.57953935299E-01  0.51100000000E-03 0. -1.
         11    1    4    4    0    0 -0.19370258151E-01 -0.52088522653E-01  0.35507815298E-01  0.65950641856E-01  0.51100000000E-03 0.  1.
</event>
<event>
 8    1  0.1044719E+005  0.1043930E+01  0.7957747E-01            NaN
         13   -1    0    0    0    0  0.00000000000E+00  0.00000000000E+00  0.74505805969E-08  0.10566000000E+00  0.10566000000E+00 0.  1.
     999900   -1    0    0    0    0 -0.00000000000E+00 -0.00000000000E+00 -0.74505805969E-08  0.93827000000E+00  0.93827000000E+00 0.  1.
     999902    2    1    2    0    0  0.11647640702E-01  0.13154083868E-01 -0.16826326419E-01  0.10196025933E+01  0.10193123297E+01 0.  0.
     999903    2    3    3    0    0 -0.10848576867E+00 -0.46279812504E-01 -0.48203547780E-01  0.12890121005E+00  0.19518116859E-01 0.  0.
         14    1    1    2    0    0 -0.11647640702E-01 -0.13154083868E-01  0.16826326419E-01  0.24327406706E-01  0.00000000000E+00 0.  1.
     999901    1    3    3    0    0  0.12013340937E+00  0.59433896372E-01  0.31377221361E-01  0.89070138324E+00  0.88000000000E+00 0. -1.
        -11    1    4    4    0    0 -0.53800894370E-01 -0.33524443897E-01 -0.25342333555E-01  0.68270927667E-01  0.51100000000E-03 0. -1.
         11    1    4    4    0    0 -0.54684874299E-01 -0.12755368607E-01 -0.22861214226E-01  0.60630282387E-01  0.51100000000E-03 0.  1.
</event>
<event>
 8    1  0.1044719E+005  0.1043930E+01  0.7957747E-01            NaN
         13   -1    0    0    0    0  0.00000000000E+00  0.00000000000E+00  0.74505805969E-08  0.10566000000E+00  0.10566000000E+00 0. -1.
     999900   -1    0    0    0    0 -0.00000000000E+00 -0.00000000000E+00 -0.74505805969E-08  0.93827000000E+00  0.93827000000E+00 0. -1.
     999902    2    1    2    0    0  0.20413543172E-01  0.82193099891E-02 -0.65985950817E-02  0.10209558567E+01  0.10206973352E+01 0.  0.
     999903    2    3    3    0    0  0.10698404391E+00  0.24811310289E-01  0.74397618520E-01  0.13285105848E+00  0.72946095079E-02 0.  0.
         14    1    1    2    0    0 -0.20413543172E-01 -0.82193099891E-02  0.65985950817E-02  0.22974143261E-01  0.00000000000E+00 0. -1.
     999901    1    3    3    0    0 -0.86570500740E-01 -0.16592000300E-01 -0.80996213602E-01  0.88810479826E+00  0.88000000000E+00 0.  1.
        -11    1    4    4    0    0  0.28586404393E-01  0.60982304080E-02  0.16081219556E-01  0.33365216523E-01  0.51100000000E-03 0.  1.
         11    1    4    4    0    0  0.78397639519E-01  0.18713079881E-01  0.58316398964E-01  0.99485841957E-01  0.51100000000E-03 0. -1.
</event>
<event>
 8    1  0.1044719E+005  0.1043930E+01  0.7957747E-01            NaN
         13   -1    0    0    0    0  0.00000000000E+00  0.00000000000E+00  0.74505805969E-08  0.10566000000E+00  0.10566000000E+00 0.  1.
     999900   -1    0    0    0    0 -0.00000000000E+00 -0.00000000000E+00 -0.74505805969E-08  0.93827000000E+00  0.93827000000E+00 0.  1.
     999902    2    1    2    0    0  0.13201166866E-01  0.16558775886E-01  0.74056136957E-02  0.10214954958E+01  0.10212491082E+01 0.  0.
     999903    2    3    3    0    0  0.31337144169E-01 -0.10194556632E-01  0.12710369675E+00  0.13280416266E+00  0.19890960347E-01 0.  0.
         14    1    1    2    0    0 -0.13201166866E-01 -0.16558775886E-01 -0.74056136957E-02  0.22434504222E-01  0.00000000000E+00 0. -1.
     999901    1    3    3    0    0 -0.18135977303E-01  0.26753332518E-01 -0.11969808305E+00  0.88869133312E+00  0.88000000000E+00 0.  1.
        -11    1    4    4    0    0  0.19988314012E-01 -0.64412047732E-03  0.99220059972E-01  0.10121674274E+00  0.51100000000E-03 0.  1.
         11    1    4    4    0    0  0.11348830157E-01 -0.95504361543E-02  0.27883636775E-01  0.31587419924E-01  0.51100000000E-03 0. -1.
</event>
<event>
 8    1  0.1044719E+005  0.1043930E+01  0.7957747E-01            NaN
         13   -1    0    0    0    0  0.00000000000E+00  0.00000000000E+00  0.74505805969E-08  0.10566000000E+00  0.10566000000E+00 0.  1.
     999900   -1    0    0    0    0 -0.00000000000E+00 -0.00000000000E+00 -0.74505805969E-08  0.93827000000E+00  0.93827000000E+00 0. -1.
     999902    2    1    2    0    0 -0.56855763221E-02  0.23696367582E-01  0.17585513496E-02  0.10194977239E+01  0.10192049219E+01 0.  0.
     999903    2    3    3    0    0  0.13641333400E-01 -0.91539219764E-01 -0.85395376555E-01  0.12750636898E+00  0.19999726521E-01 0.  0.
         14    1    1    2    0    0  0.56855763221E-02 -0.23696367582E-01 -0.17585513496E-02  0.24432276143E-01  0.00000000000E+00 0.  1.
     999901    1    3    3    0    0 -0.19326909722E-01  0.11523558735E+00  0.87153927905E-01  0.89199135488E+00  0.88000000000E+00 0.  1.
        -11    1    4    4    0    0 -0.50994547235E-02 -0.24506291550E-01 -0.20882430712E-01  0.32602144063E-01  0.51100000000E-03 0. -1.
         11    1    4    4    0    0  0.18740788123E-01 -0.67032928214E-01 -0.64512945843E-01  0.94904224915E-01  0.51100000000E-03 0.  1.
</event>
<event>
 8    1  0.1044719E+005  0.1043930E+01  0.7957747E-01            NaN
         13   -1    0    0    0    0  0.00000000000E+00  0.00000000000E+00  0.74505805969E-08  0.10566000000E+00  0.10566000000E+00 0. -1.
     999900   -1    0    0    0    0 -0.00000000000E+00 -0.00000000000E+00 -0.74505805969E-08  0.93827000000E+00  0.93827000000E+00 0. -1.
     999902    2    1    2    0    0 -0.20259305077E-01  0.33659229155E-02 -0.10973663288E-01  0.10206450228E+01  0.10203793767E+01 0.  0.
     999903    2    3    3    0    0  0.35174284906E-01  0.57337669534E-01  0.10854450281E+00  0.12920213375E+00  0.19658169046E-01 0.  0.
         14    1    1    2    0    0  0.20259305077E-01 -0.33659229155E-02  0.10973663288E-01  0.23284977244E-01  0.00000000000E+00 0. -1.
     999901    1    3    3    0    0 -0.55433589983E-01 -0.53971746618E-01 -0.11951816609E+00  0.89144288901E+00  0.88000000000E+00 0. -1.
        -11    1    4    4    0    0  0.21768351642E-01  0.18075573009E-01  0.38328710197E-01  0.47643872840E-01  0.51100000000E-03 0.  1.
         11    1    4    4    0    0  0.13405933264E-01  0.39262096524E-01  0.70215792609E-01  0.81558260911E-01  0.51100000000E-03 0. -1.
</event>
<event>
 8    1  0.1262333E+005  0.1043930E+01  0.7957747E-01            NaN
         13   -1    0    0    0    0  0.00000000000E+00  0.00000000000E+00  0.74505805969E-08  0.10566000000E+00  0.10566000000E+00 0.  1.
     999900   -1    0    0    0    0 -0.00000000000E+00 -0.00000000000E+00 -0.74505805969E-08  0.93827000000E+00  0.93827000000E+00 0. -1.
     999902    2    1    2    0    0 -0.15073674635E-01  0.17552047346E-01 -0.91184682676E-03  0.10207757024E+01  0.10205130637E+01 0.  0.
     999903    2    3    3    0    0 -0.37269639030E-01 -0.46627449582E-01 -0.11464911712E+00  0.13086119228E+00  0.20422696652E-01 0.  0.
         14    1    1    2    0    0  0.15073674635E-01 -0.17552047346E-01  0.91184682676E-03  0.23154297607E-01  0.00000000000E+00 0.  1.
     999901    1    3    3    0    0  0.22195964395E-01  0.64179496928E-01  0.11373727030E+00  0.88991451012E+00  0.88000000000E+00 0.  1.
        -11    1    4    4    0    0 -0.28421552920E-01 -0.36048074368E-01 -0.66745242116E-01  0.81008868664E-01  0.51100000000E-03 0. -1.
         11    1    4    4    0    0 -0.88480861099E-02 -0.10579375213E-01 -0.47903875009E-01  0.49852323613E-01  0.51100000000E-03 0.  1.
</event>
<event>
 8    1  0.1044719E+005  0.1043930E+01  0.7957747E-01            NaN
         13   -1    0    0    0    0  0.00000000000E+00  0.00000000000E+00  0.74505805969E-08  0.10566000000E+00  0.10566000000E+00 0. -1.
     999900   -1    0    0    0    0 -0.00000000000E+00 -0.00000000000E+00 -0.74505805969E-08  0.93827000000E+00  0.93827000000E+00 0.  1.
     999902    2    1    2    0    0  0.22618977172E-01 -0.62614814717E-02  0.11291917919E-02  0.10204332055E+01  0.10201626476E+01 0.  0.
     999903    2    3    3    0    0  0.11817483532E+00  0.12611427445E-01 -0.56200601410E-01  0.13320504210E+00  0.21464757988E-01 0.  0.
         14    1    1    2    0    0 -0.22618977172E-01  0.62614814717E-02 -0.11291917919E-02  0.23496794518E-01  0.00000000000E+00 0.  1.
     999901    1    3    3    0    0 -0.95555858149E-01 -0.18872908917E-01  0.57329793202E-01  0.88722816339E+00  0.88000000000E+00 0. -1.
        -11    1    4    4    0    0  0.88177072397E-02  0.14435403582E-02  0.14683506142E-02  0.90693408943E-02  0.51100000000E-03 0. -1.
         11    1    4    4    0    0  0.10935712808E+00  0.11167887087E-01 -0.57668952024E-01  0.12413570120E+00  0.51100000000E-03 0.  1.
</event>
<event>
 8    1  0.1044719E+005  0.1043930E+01  0.7957747E-01            NaN
         13   -1    0    0    0    0  0.00000000000E+00  0.00000000000E+00  0.74505805969E-08  0.10566000000E+00  0.10566000000E+00 0.  1.
     999900   -1    0    0    0    0 -0.00000000000E+00 -0.00000000000E+00 -0.74505805969E-08  0.93827000000E+00  0.93827000000E+00 0.  1.
     999902    2    1    2    0    0  0.81446040333E-02 -0.88407076604E-02 -0.20441137945E-01  0.10202164425E+01  0.10199408105E+01 0.  0.
     999903    2    3    3    0    0  0.45156938565E-03 -0.10914883934E+00  0.67982252894E-01  0.13008184592E+00  0.19647566902E-01 0.  0.
         14    1    1    2    0    0 -0.81446040333E-02  0.88407076604E-02  0.20441137945E-01  0.23713557457E-01  0.00000000000E+00 0.  1.
     999901    1    3    3    0    0  0.76930346477E-02  0.10030813168E+00 -0.88423390838E-01  0.89013459663E+00  0.88000000000E+00 0.  1.
        -11    1    4    4    0    0  0.77359707809E-02 -0.56195905111E-01  0.27582984490E-01  0.63078579166E-01  0.51100000000E-03 0. -1.
         11    1    4    4    0    0 -0.72844013953E-02 -0.52952934226E-01  0.40399268403E-01  0.67003266751E-01  0.51100000000E-03 0.  1.
</event>
<event>
 8    1  0.1044719E+005  0.1043930E+01  0.7957747E-01            NaN
         13   -1    0    0    0    0  0.00000000000E+00  0.00000000000E+00  0.74505805969E-08  0.10566000000E+00  0.10566000000E+00 0. -1.
     999900   -1    0    0    0    0 -0.00000000000E+00 -0.00000000000E+00 -0.74505805969E-08  0.93827000000E+00  0.93827000000E+00 0. -1.
     999902    2    1    2    0    0  0.63137402911E-02 -0.20103164115E-01  0.82476333728E-02  0.10213020531E+01  0.10210513502E+01 0.  0.
     999903    2    3    3    0    0 -0.11612331315E+00 -0.46395924290E-01  0.37307698977E-01  0.13196149478E+00  0.19615454427E-01 0.  0.
         14    1    1    2    0    0 -0.63137402911E-02  0.20103164115E-01 -0.82476333728E-02  0.22627946883E-01  0.00000000000E+00 0.  1.
     999901    1    3    3    0    0  0.12243705345E+00  0.26292760175E-01 -0.29060065605E-01  0.88934055834E+00  0.88000000000E+00 0. -1.
        -11    1    4    4    0    0 -0.84397587712E-01 -0.26439372142E-01  0.20010039705E-01  0.90678862040E-01  0.51100000000E-03 0.  1.
         11    1    4    4    0    0 -0.31725725442E-01 -0.19956552148E-01  0.17297659272E-01  0.41282632738E-01  0.51100000000E-03 0. -1.
</event>
<event>
 8    1  0.1044719E+005  0.1043930E+01  0.7957747E-01            NaN
         13   -1    0    0    0    0  0.00000000000E+00  0.00000000000E+00  0.74505805969E-08  0.10566000000E+00  0.10566000000E+00 0.  1.
     999900   -1    0    0    0    0 -0.00000000000E+00 -0.00000000000E+00 -0.74505805969E-08  0.93827000000E+00  0.93827000000E+00 0. -1.
     999902    2    1    2    0    0 -0.93754397220E-02  0.93131080767E-02 -0.19148494000E-01  0.10206641952E+01  0.10203989914E+01 0.  0.
     999903    2    3    3    0    0  0.11102651989E+00  0.11219116825E-01  0.61100860990E-01  0.12884570258E+00  0.20375062179E-01 0.  0.
         14    1    1    2    0    0  0.93754397220E-02 -0.93131080767E-02  0.19148494000E-01  0.23265804832E-01  0.00000000000E+00 0.  1.
     999901    1    3    3    0    0 -0.12040195961E+00 -0.19060087486E-02 -0.80249354990E-01  0.89181849259E+00  0.88000000000E+00 0. -1.
        -11    1    4    4    0    0  0.86410649621E-02 -0.28101207858E-02  0.65863861682E-03  0.91246757935E-02  0.51100000000E-03 0. -1.
         11    1    4    4    0    0  0.10238545492E+00  0.14029237611E-01  0.60442222374E-01  0.11972102679E+00  0.51100000000E-03 0.  1.
</event>
<event>
 8    1  0.1044719E+005  0.1043930E+01  0.7957747E-01            NaN
         13   -1    0    0    0    0  0.00000000000E+00  0.00000000000E+00  0.74505805969E-08  0.10566000000E+00  0.10566000000E+00 0. -1.
     999900   -1    0    0    0    0 -0.00000000000E+00 -0.00000000000E+00 -0.74505805969E-08  0.93827000000E+00  0.93827000000E+00 0. -1.
     999902    2    1    2    0    0 -0.50331883982E-02  0.22970983546E-01 -0.59628964664E-03  0.10204065089E+01  0.10201353287E+01 0.  0.
     999903    2    3    3    0    0  0.75516756816E-01 -0.78623090410E-01  0.65567375611E-01  0.12844951438E+00  0.17771496677E-01 0.  0.
         14    1    1    2    0    0  0.50331883982E-02 -0.22970983546E-01  0.59628964664E-03  0.23523491065E-01  0.00000000000E+00 0.  1.
     999901    1    3    3    0    0 -0.80549945214E-01  0.10159407396E+00 -0.66163665258E-01  0.89195699456E+00  0.88000000000E+00 0. -1.
        -11    1    4    4    0    0  0.34344551875E-01 -0.23977875213E-01  0.28092890902E-01  0.50437668299E-01  0.51100000000E-03 0. -1.
         11    1    4    4    0    0  0.41172204941E-01 -0.54645215198E-01  0.37474484709E-01  0.78011846080E-01  0.51100000000E-03 0.  1.
</event>
<event>
 7    1  0.1044719E+005  0.1043930E+01  0.7957747E-01            NaN
         13   -1    0    0    0    0  0.00000000000E+00  0.00000000000E+00  0.74505805969E-08  0.10566000000E+00  0.10566000000E+00 0.  1.
     999900   -1    0    0    0    0 -0.00000000000E+00 -0.00000000000E+00 -0.74505805969E-08  0.93827000000E+00  0.93827000000E+00 0.  1.
     999903    2    1    2    0    0  0.57920572426E-01  0.51649657397E-01  0.44774543158E-01  0.91675406277E-01  0.19420107666E-01 0.  0.
         14    1    1    2    0    0  0.18032681905E-01  0.47992762575E-01 -0.37208861161E-01  0.63348103564E-01  0.00000000000E+00 0. -1.
     999901    1    1    2    0    0 -0.75953254331E-01 -0.99642419972E-01 -0.75656819971E-02  0.88890649016E+00  0.88000000000E+00 0. -1.
        -11    1    3    3    0    0  0.54964770984E-01  0.40939237270E-01  0.35458444880E-01  0.77166765074E-01  0.51100000000E-03 0. -1.
         11    1    3    3    0    0  0.29558014415E-02  0.10710420126E-01  0.93160982783E-02  0.14508641204E-01  0.51100000000E-03 0.  1.
</event>
<event>
 8    1  0.1044719E+005  0.1043930E+01  0.7957747E-01            NaN
         13   -1    0    0    0    0  0.00000000000E+00  0.00000000000E+00  0.74505805969E-08  0.10566000000E+00  0.10566000000E+00 0. -1.
     999900   -1    0    0    0    0 -0.00000000000E+00 -0.00000000000E+00 -0.74505805969E-08  0.93827000000E+00  0.93827000000E+00 0. -1.
     999902    2    1    2    0    0 -0.21781078238E-01 -0.96560541686E-02 -0.63160256240E-02  0.10192815329E+01  0.10189834623E+01 0.  0.
     999903    2    3    3    0    0 -0.25047910841E-01  0.55511206986E-01 -0.11337003955E+00  0.13039571006E+00  0.21009126503E-01 0.  0.
         14    1    1    2    0    0  0.21781078238E-01  0.96560541686E-02  0.63160256240E-02  0.24648467113E-01  0.00000000000E+00 0. -1.
     999901    1    3    3    0    0  0.32668326030E-02 -0.65167261154E-01  0.10705401393E+00  0.88888582283E+00  0.88000000000E+00 0.  1.
        -11    1    4    4    0    0 -0.13249605105E-01  0.20276411282E-01 -0.65211869355E-01  0.69566758698E-01  0.51100000000E-03 0. -1.
         11    1    4    4    0    0 -0.11798305737E-01  0.35234795704E-01 -0.48158170195E-01  0.60828951364E-01  0.51100000000E-03 0.  1.
</event>
<event>
 8    1  0.1044719E+005  0.1043930E+01  0.7957747E-01            NaN
         13   -1    0    0    0    0  0.00000000000E+00  0.00000000000E+00  0.74505805969E-08  0.10566000000E+00  0.10566000000E+00 0. -1.
     999900   -1    0    0    0    0 -0.00000000000E+00 -0.00000000000E+00 -0.74505805969E-08  0.93827000000E+00  0.93827000000E+00 0. -1.
     999902    2    1    2    0    0  0.14169755932E-01 -0.10466405087E-01  0.11668255063E-01  0.10228000262E+01  0.10225817413E+01 0.  0.
     999903    2    3    3    0    0 -0.34516381563E-01  0.10641786076E+00 -0.64297095895E-01  0.13049794382E+00  0.19479607681E-01 0.  0.
         14    1    1    2    0    0 -0.14169755932E-01  0.10466405087E-01 -0.11668255063E-01  0.21129973848E-01  0.00000000000E+00 0. -1.
     999901    1    3    3    0    0  0.48686137495E-01 -0.11688426585E+00  0.75965350958E-01  0.89230208233E+00  0.88000000000E+00 0.  1.
        -11    1    4    4    0    0 -0.32762674672E-01  0.84585306804E-01 -0.44800403142E-01  0.10117017456E+00  0.51100000000E-03 0.  1.
         11    1    4    4    0    0 -0.17537068912E-02  0.21832553958E-01 -0.19496692753E-01  0.29327769255E-01  0.51100000000E-03 0. -1.
</event>
<event>
 8    1  0.1044719E+005  0.1043930E+01  0.7957747E-01            NaN
         13   -1    0    0    0    0  0.00000000000E+00  0.00000000000E+00  0.74505805969E-08  0.10566000000E+00  0.10566000000E+00 0.  1.
     999900   -1    0    0    0    0 -0.00000000000E+00 -0.00000000000E+00 -0.74505805969E-08  0.93827000000E+00  0.93827000000E+00 0. -1.
     999902    2    1    2    0    0 -0.24515816640E-02  0.14042978092E-01 -0.18528632226E-01  0.10205521109E+01  0.10202843160E+01 0.  0.
     999903    2    3    3    0    0 -0.86086312772E-02  0.12485510367E+00 -0.41278954163E-01  0.13328957164E+00  0.19981301425E-01 0.  0.
         14    1    1    2    0    0  0.24515816640E-02 -0.14042978092E-01  0.18528632226E-01  0.23377889095E-01  0.00000000000E+00 0. -1.
     999901    1    3    3    0    0  0.61570496132E-02 -0.11081212558E+00  0.22750321937E-01  0.88726253927E+00  0.88000000000E+00 0. -1.
        -11    1    4    4    0    0 -0.53398611546E-02  0.16557197727E-01 -0.11715707328E-01  0.20980320134E-01  0.51100000000E-03 0. -1.
         11    1    4    4    0    0 -0.32687701225E-02  0.10829790594E+00 -0.29563246835E-01  0.11230925151E+00  0.51100000000E-03 0.  1.
</event>
<event>
 6    1  0.1044719E+005  0.1043930E+01  0.7957747E-01            NaN
         13   -1    0    0    0    0  0.00000000000E+00  0.00000000000E+00  0.74505805969E-08  0.10566000000E+00  0.10566000000E+00 0.  1.
     999900   -1    0    0    0    0 -0.00000000000E+00 -0.00000000000E+00 -0.74505805969E-08  0.93827000000E+00  0.93827000000E+00 0. -1.
         14    1    1    2    0    0 -0.76892704124E-01 -0.37281235575E-01 -0.67685620894E-02  0.85721595332E-01  0.00000000000E+00 0. -1.
     999901    1    1    2    0    0  0.49647320317E-01  0.29327990697E-01 -0.48632742957E-01  0.88322711187E+00  0.88000000000E+00 0. -1.
        -11    1    1    2    0    0 -0.59298259612E-03  0.20054568363E-01  0.24345426488E-01  0.31551517436E-01  0.51100000000E-03 0. -1.
         11    1    1    2    0    0  0.27838366403E-01 -0.12101323486E-01  0.31055878559E-01  0.43429775364E-01  0.51100000000E-03 0.  1.
</event>
<event>
 8    1  0.1044719E+005  0.1043930E+01  0.7957747E-01            NaN
         13   -1    0    0    0    0  0.00000000000E+00  0.00000000000E+00  0.74505805969E-08  0.10566000000E+00  0.10566000000E+00 0.  1.
     999900   -1    0    0    0    0 -0.00000000000E+00 -0.00000000000E+00 -0.74505805969E-08  0.93827000000E+00  0.93827000000E+00 0. -1.
     999902    2    1    2    0    0  0.37217542545E-02  0.50440788737E-03 -0.22500397580E-01  0.10211182974E+01  0.10208634598E+01 0.  0.
     999903    2    3    3    0    0 -0.83612675595E-01 -0.74419335689E-01  0.62165657202E-01  0.12959756812E+00  0.20041049949E-01 0.  0.
         14    1    1    2    0    0 -0.37217542545E-02 -0.50440788737E-03  0.22500397580E-01  0.22811702551E-01  0.00000000000E+00 0.  1.
     999901    1    3    3    0    0  0.87334429849E-01  0.74923743577E-01 -0.84666054781E-01  0.89152072933E+00  0.88000000000E+00 0. -1.
        -11    1    4    4    0    0 -0.80626078647E-02 -0.53265226592E-02  0.12494147740E-01  0.15803238211E-01  0.51100000000E-03 0.  1.
         11    1    4    4    0    0 -0.75550067730E-01 -0.69092813030E-01  0.49671509462E-01  0.11379432991E+00  0.51100000000E-03 0. -1.
</event>
<event>
 8    1  0.1044719E+005  0.1043930E+01  0.7957747E-01            NaN
         13   -1    0    0    0    0  0.00000000000E+00  0.00000000000E+00  0.74505805969E-08  0.10566000000E+00  0.10566000000E+00 0.  1.
     999900   -1    0    0    0    0 -0.00000000000E+00 -0.00000000000E+00 -0.74505805969E-08  0.93827000000E+00  0.93827000000E+00 0.  1.
     999902    2    1    2    0    0  0.17932725540E-01 -0.11764453956E-01 -0.11979813749E-01  0.10193637435E+01  0.10190676820E+01 0.  0.
     999903    2    3    3    0    0 -0.69787351252E-01 -0.13614294969E-01  0.10389068791E+00  0.12744210626E+00  0.19813934269E-01 0.  0.
         14    1    1    2    0    0 -0.17932725540E-01  0.11764453956E-01  0.11979813749E-01  0.24566256525E-01  0.00000000000E+00 0.  1.
     999901    1    3    3    0    0  0.87720076793E-01  0.18498410129E-02 -0.11587050166E+00  0.89192163722E+00  0.88000000000E+00 0.  1.
        -11    1    4    4    0    0 -0.61054689654E-01 -0.18492287305E-01  0.89632343399E-01  0.11001753461E+00  0.51100000000E-03 0. -1.
         11    1    4    4    0    0 -0.87326615986E-02  0.48779923359E-02  0.14258344507E-01  0.17424571642E-01  0.51100000000E-03 0.  1.
</event>
<event>
 8    1  0.1044719E+005  0.1043930E+01  0.7957747E-01            NaN
         13   -1    0    0    0    0  0.00000000000E+00  0.00000000000E+00  0.74505805969E-08  0.10566000000E+00  0.10566000000E+00 0. -1.
     999900   -1    0    0    0    0 -0.00000000000E+00 -0.00000000000E+00 -0.74505805969E-08  0.93827000000E+00  0.93827000000E+00 0. -1.
     999902    2    1    2    0    0 -0.19693052101E-01 -0.63925190127E-02  0.90328761772E-02  0.10213407669E+01  0.10210909307E+01 0.  0.
     999903    2    3    3    0    0 -0.92011908295E-01  0.91409959336E-01 -0.18417992823E-01  0.13255007615E+00  0.20207134758E-01 0.  0.
         14    1    1    2    0    0  0.19693052101E-01  0.63925190127E-02 -0.90328761772E-02  0.22589233108E-01  0.00000000000E+00 0. -1.
     999901    1    3    3    0    0  0.72318856195E-01 -0.97802478348E-01  0.27450869000E-01  0.88879069074E+00  0.88000000000E+00 0.  1.
        -11    1    4    4    0    0 -0.39918583592E-01  0.29318969794E-01 -0.46014108586E-03  0.49533505393E-01  0.51100000000E-03 0.  1.
         11    1    4    4    0    0 -0.52093324704E-01  0.62090989542E-01 -0.17957851737E-01  0.83016570762E-01  0.51100000000E-03 0. -1.
</event>
<event>
 8    1  0.1044719E+005  0.1043930E+01  0.7957747E-01            NaN
         13   -1    0    0    0    0  0.00000000000E+00  0.00000000000E+00  0.74505805969E-08  0.10566000000E+00  0.10566000000E+00 0.  1.
     999900   -1    0    0    0    0 -0.00000000000E+00 -0.00000000000E+00 -0.74505805969E-08  0.93827000000E+00  0.93827000000E+00 0.  1.
     999902    2    1    2    0    0  0.13298641805E-01 -0.19255571956E-01  0.42304048057E-02  0.10201491832E+01  0.10198719668E+01 0.  0.
     999903    2    3    3    0    0  0.72166458940E-01  0.39626186165E-01  0.10043121396E+00  0.13099954613E+00  0.17211040705E-01 0.  0.
         14    1    1    2    0    0 -0.13298641805E-01  0.19255571956E-01 -0.42304048057E-02  0.23780816849E-01  0.00000000000E+00 0. -1.
     999901    1    3    3    0    0 -0.58867817136E-01 -0.58881758121E-01 -0.96200809157E-01  0.88914963702E+00  0.88000000000E+00 0.  1.
        -11    1    4    4    0    0  0.25128371911E-01  0.48966587635E-02  0.28949330307E-01  0.38648896338E-01  0.51100000000E-03 0.  1.
         11    1    4    4    0    0  0.47038087030E-01  0.34729527401E-01  0.71481883656E-01  0.92350649791E-01  0.51100000000E-03 0. -1.
</event>
<event>
 8    1  0.1044719E+005  0.1043930E+01  0.7957747E-01            NaN
         13   -1    0    0    0    0  0.00000000000E+00  0.00000000000E+00  0.74505805969E-08  0.10566000000E+00  0.10566000000E+00 0.  1.
     999900   -1    0    0    0    0 -0.00000000000E+00 -0.00000000000E+00 -0.74505805969E-08  0.93827000000E+00  0.93827000000E+00 0. -1.
     999902    2    1    2    0    0  0.67022320095E-02  0.23257774668E-01 -0.87668551944E-03  0.10197099138E+01  0.10194222363E+01 0.  0.
     999903    2    3    3    0    0 -0.81469084103E-02 -0.12276113540E+00  0.24913469793E-01  0.12718139822E+00  0.20439143683E-01 0.  0.
         14    1    1    2    0    0 -0.67022320095E-02 -0.23257774668E-01  0.87668551944E-03  0.24220086166E-01  0.00000000000E+00 0. -1.
     999901    1    3    3    0    0  0.14849140420E-01  0.14601891007E+00 -0.25790155312E-01  0.89252851561E+00  0.88000000000E+00 0.  1.
        -11    1    4    4    0    0 -0.41701102132E-02 -0.45818261043E-01 -0.61624978135E-03  0.46014603649E-01  0.51100000000E-03 0.  1.
         11    1    4    4    0    0 -0.39767981971E-02 -0.76942874360E-01  0.25529719574E-01  0.81166794572E-01  0.51100000000E-03 0. -1.
</event>
<event>
 8    1  0.1044719E+005  0.1043930E+01  0.7957747E-01            NaN
         13   -1    0    0    0    0  0.00000000000E+00  0.00000000000E+00  0.74505805969E-08  0.10566000000E+00  0.10566000000E+00 0. -1.
     999900   -1    0    0    0    0 -0.00000000000E+00 -0.00000000000E+00 -0.74505805969E-08  0.93827000000E+00  0.93827000000E+00 0. -1.
     999902    2    1    2    0    0 -0.18435553771E-01 -0.11509213821E-01 -0.84870177814E-02  0.10205984523E+01  0.10203317303E+01 0.  0.
     999903    2    3    3    0    0  0.81958828730E-01 -0.85058221385E-01  0.50289106050E-01  0.12990034339E+00  0.19823077279E-01 0.  0.
         14    1    1    2    0    0  0.18435553771E-01  0.11509213821E-01  0.84870177814E-02  0.23331547665E-01  0.00000000000E+00 0. -1.
     999901    1    3    3    0    0 -0.10039438250E+00  0.73549007564E-01 -0.58776123831E-01  0.89069810895E+00  0.88000000000E+00 0.  1.
        -11    1    4    4    0    0  0.88068341311E-02 -0.24798225688E-02  0.63634904394E-02  0.11156387361E-01  0.51100000000E-03 0.  1.
         11    1    4    4    0    0  0.73151994599E-01 -0.82578398816E-01  0.43925615610E-01  0.11874395603E+00  0.51100000000E-03 0. -1.
</event>
<event>
 8    1  0.1044719E+005  0.1043930E+01  0.7957747E-01            NaN
         13   -1    0    0    0    0  0.00000000000E+00  0.00000000000E+00  0.74505805969E-08  0.10566000000E+00  0.10566000000E+00 0.  1.
     999900   -1    0    0    0    0 -0.00000000000E+00 -0.00000000000E+00 -0.74505805969E-08  0.93827000000E+00  0.93827000000E+00 0. -1.
     999902    2    1    2    0    0  0.95494205885E-02  0.17289284840E-01 -0.12942613541E-01  0.10203159777E+01  0.10200426816E+01 0.  0.
     999903    2    3    3    0    0  0.76216574871E-01 -0.10181587545E+00  0.13113989533E-01  0.12941222576E+00  0.20002716676E-01 0.  0.
         14    1    1    2    0    0 -0.95494205885E-02 -0.17289284840E-01  0.12942613541E-01  0.23614022299E-01  0.00000000000E+00 0.  1.
     999901    1    3    3    0    0 -0.66667154282E-01  0.11910516029E+00 -0.26056603073E-01  0.89090375195E+00  0.88000000000E+00 0.  1.
        -11    1    4    4    0    0  0.34242175414E-01 -0.62269044626E-01  0.64732357082E-02  0.71359122734E-01  0.51100000000E-03 0.  1.
         11    1    4    4    0    0  0.41974399457E-01 -0.39546830825E-01  0.66407538245E-02  0.58053103022E-01  0.51100000000E-03 0. -1.
</event>
<event>
 8    1  0.1044719E+005  0.1043930E+01  0.7957747E-01            NaN
         13   -1    0    0    0    0  0.00000000000E+00  0.00000000000E+00  0.74505805969E-08  0.10566000000E+00  0.10566000000E+00 0.  1.
     999900   -1    0    0    0    0 -0.00000000000E+00 -0.00000000000E+00 -0.74505805969E-08  0.93827000000E+00  0.93827000000E+00 0. -1.
     999902    2    1    2    0    0  0.22382602955E-01  0.77353479283E-02  0.17343598567E-02  0.10201850105E+01  0.10199086386E+01 0.  0.
     999903    2    3    3    0    0 -0.12212793504E-01 -0.10564516402E+00 -0.71545213279E-01  0.12921818856E+00  0.16388096455E-01 0.  0.
         14    1    1    2    0    0 -0.22382602955E-01 -0.77353479283E-02 -0.17343598567E-02  0.23744989508E-01  0.00000000000E+00 0.  1.
     999901    1    3    3    0    0  0.34595396460E-01  0.11338051195E+00  0.73279573136E-01  0.89096682193E+00  0.88000000000E+00 0.  1.
        -11    1    4    4    0    0 -0.58676055121E-02 -0.33949244073E-01 -0.14530117995E-01  0.37394724461E-01  0.51100000000E-03 0.  1.
         11    1    4    4    0    0 -0.63451879921E-02 -0.71695919946E-01 -0.57015095285E-01  0.91823464098E-01  0.51100000000E-03 0. -1.
</event>
<event>
 8    1  0.1044719E+005  0.1043930E+01  0.7957747E-01            NaN
         13   -1    0    0    0    0  0.00000000000E+00  0.00000000000E+00  0.74505805969E-08  0.10566000000E+00  0.10566000000E+00 0. -1.
     999900   -1    0    0    0    0 -0.00000000000E+00 -0.00000000000E+00 -0.74505805969E-08  0.93827000000E+00  0.93827000000E+00 0.  1.
     999902    2    1    2    0    0 -0.11116109238E-01  0.16708857382E-01  0.13389194455E-01  0.10198048196E+01  0.10195194190E+01 0.  0.
     999903    2    3    3    0    0 -0.41655531222E-01 -0.99360664462E-01 -0.66218230193E-01  0.12809739438E+00  0.20404987443E-01 0.  0.
         14    1    1    2    0    0  0.11116109238E-01 -0.16708857382E-01 -0.13389194455E-01  0.24125180368E-01  0.00000000000E+00 0.  1.
     999901    1    3    3    0    0  0.30539421983E-01  0.11606952184E+00  0.79607424648E-01  0.89170742526E+00  0.88000000000E+00 0.  1.
        -11    1    4    4    0    0 -0.22812155903E-01 -0.66861083653E-01 -0.52816718984E-01  0.88208082903E-01  0.51100000000E-03 0. -1.
         11    1    4    4    0    0 -0.18843375319E-01 -0.32499580809E-01 -0.13401511209E-01  0.39889311474E-01  0.51100000000E-03 0.  1.
</event>
<event>
 8    1  0.1044719E+005  0.1043930E+01  0.7957747E-01            NaN
         13   -1    0    0    0    0  0.00000000000E+00  0.00000000000E+00  0.74505805969E-08  0.10566000000E+00  0.10566000000E+00 0. -1.
     999900   -1    0    0    0    0 -0.00000000000E+00 -0.00000000000E+00 -0.74505805969E-08  0.93827000000E+00  0.93827000000E+00 0.  1.
     999902    2    1    2    0    0  0.15436914006E-01  0.23679258437E-01  0.33729392572E-02  0.10154627853E+01  0.10150636857E+01 0.  0.
     999903    2    3    3    0    0  0.57302177199E-02 -0.10248895273E+00 -0.66461286815E-01  0.12367275586E+00  0.18466918280E-01 0.  0.
         14    1    1    2    0    0 -0.15436914006E-01 -0.23679258437E-01 -0.33729392572E-02  0.28467214710E-01  0.00000000000E+00 0. -1.
     999901    1    3    3    0    0  0.97066962861E-02  0.12616821116E+00  0.69834226073E-01  0.89179002943E+00  0.88000000000E+00 0. -1.
        -11    1    4    4    0    0 -0.47439109602E-03 -0.16078524479E-01 -0.18963805887E-01  0.24872294849E-01  0.51100000000E-03 0. -1.
         11    1    4    4    0    0  0.62046088160E-02 -0.86410428246E-01 -0.47497480928E-01  0.98800461010E-01  0.51100000000E-03 0.  1.
</event>
<event>
 8    1  0.1044719E+005  0.1043930E+01  0.7957747E-01            NaN
         13   -1    0    0    0    0  0.00000000000E+00  0.00000000000E+00  0.74505805969E-08  0.10566000000E+00  0.10566000000E+00 0.  1.
     999900   -1    0    0    0    0 -0.00000000000E+00 -0.00000000000E+00 -0.74505805969E-08  0.93827000000E+00  0.93827000000E+00 0. -1.
     999902    2    1    2    0    0  0.11832008886E-01  0.58150516531E-02 -0.19618530722E-01  0.10202932065E+01  0.10200193769E+01 0.  0.
     999903    2    3    3    0    0 -0.12154769054E+00  0.16452217745E-01  0.33065655861E-01  0.12862122810E+00  0.20138673660E-01 0.  0.
         14    1    1    2    0    0 -0.11832008886E-01 -0.58150516531E-02  0.19618530722E-01  0.23636793515E-01  0.00000000000E+00 0.  1.
     999901    1    3    3    0    0  0.13337969942E+00 -0.10637166092E-01 -0.52684186583E-01  0.89167197838E+00  0.88000000000E+00 0.  1.
        -11    1    4    4    0    0 -0.69893934126E-01  0.15811682154E-01  0.27111555672E-01  0.76618985194E-01  0.51100000000E-03 0. -1.
         11    1    4    4    0    0 -0.51653756411E-01  0.64053559027E-03  0.59541001893E-02  0.52002242907E-01  0.51100000000E-03 0.  1.
</event>
<event>
 8    1  0.1044719E+005  0.1043930E+01  0.7957747E-01            NaN
         13   -1    0    0    0    0  0.00000000000E+00  0.00000000000E+00  0.74505805969E-08  0.10566000000E+00  0.10566000000E+00 0. -1.
     999900   -1    0    0    0    0 -0.00000000000E+00 -0.00000000000E+00 -0.74505805969E-08  0.93827000000E+00  0.93827000000E+00 0.  1.
     999902    2    1    2    0    0  0.21523872933E-01 -0.80326929523E-02 -0.24558855189E-02  0.10208251815E+01  0.10205636769E+01 0.  0.
     999903    2    3    3    0    0  0.12662056949E+00 -0.37347452903E-01 -0.12459761600E-01  0.13403053321E+00  0.19527860038E-01 0.  0.
         14    1    1    2    0    0 -0.21523872933E-01  0.80326929523E-02  0.24558855189E-02  0.23104818454E-01  0.00000000000E+00 0. -1.
     999901    1    3    3    0    0 -0.10509669656E+00  0.29314759950E-01  0.10003876081E-01  0.88679464833E+00  0.88000000000E+00 0. -1.
        -11    1    4    4    0    0  0.99347437383E-01 -0.31248252266E-01 -0.17561175421E-01  0.10561734037E+00  0.51100000000E-03 0.  1.
         11    1    4    4    0    0  0.27273132107E-01 -0.60992006370E-02  0.51014138216E-02  0.28413192839E-01  0.51100000000E-03 0. -1.
</event>
<event>
 8    1  0.1044719E+005  0.1043930E+01  0.7957747E-01            NaN
         13   -1    0    0    0    0  0.00000000000E+00  0.00000000000E+00  0.74505805969E-08  0.10566000000E+00  0.10566000000E+00 0.  1.
     999900   -1    0    0    0    0 -0.00000000000E+00 -0.00000000000E+00 -0.74505805969E-08  0.93827000000E+00  0.93827000000E+00 0. -1.
     999902    2    1    2    0    0  0.94515539845E-02 -0.84560570730E-02  0.20149633224E-01  0.10201215038E+01  0.10198436341E+01 0.  0.
     999903    2    3    3    0    0  0.36723770203E-01  0.26233857635E-01  0.12356196765E+00  0.13296803628E+00  0.19392994554E-01 0.  0.
         14    1    1    2    0    0 -0.94515539845E-02  0.84560570730E-02 -0.20149633224E-01  0.23808496235E-01  0.00000000000E+00 0. -1.
     999901    1    3    3    0    0 -0.27272216219E-01 -0.34689914708E-01 -0.10341233443E+00  0.88715346749E+00  0.88000000000E+00 0. -1.
        -11    1    4    4    0    0  0.89886941163E-02  0.57923777980E-02  0.11427971434E-01  0.15659116021E-01  0.51100000000E-03 0. -1.
         11    1    4    4    0    0  0.27735076087E-01  0.20441479837E-01  0.11213399622E+00  0.11730892026E+00  0.51100000000E-03 0.  1.
</event>
<event>
 8    1  0.1044719E+005  0.1043930E+01  0.7957747E-01            NaN
         13   -1    0    0    0    0  0.00000000000E+00  0.00000000000E+00  0.74505805969E-08  0.10566000000E+00  0.10566000000E+00 0.  1.
     999900   -1    0    0    0    0 -0.00000000000E+00 -0.00000000000E+00 -0.74505805969E-08  0.93827000000E+00  0.93827000000E+00 0. -1.
     999902    2    1    2    0    0  0.70082295393E-02 -0.50521122921E-02 -0.21769454063E-01  0.10205088931E+01  0.10202400956E+01 0.  0.
     999903    2    3    3    0    0  0.85721437822E-01 -0.72587105663E-02  0.94477605443E-01  0.12937814111E+00  0.20293636577E-01 0.  0.
         14    1    1    2    0    0 -0.70082295393E-02  0.50521122921E-02  0.21769454063E-01  0.23421106936E-01  0.00000000000E+00 0.  1.
     999901    1    3    3    0    0 -0.78713208283E-01  0.22065982741E-02 -0.11624705951E+00  0.89113075195E+00  0.88000000000E+00 0. -1.
        -11    1    4    4    0    0  0.39254754611E-01 -0.12650382643E-01  0.50131458303E-01  0.64918350050E-01  0.51100000000E-03 0. -1.
         11    1    4    4    0    0  0.46466683211E-01  0.53916720765E-02  0.44346147139E-01  0.64459791060E-01  0.51100000000E-03 0.  1.
</event>
<event>
 8    1  0.1044719E+005  0.1043930E+01  0.7957747E-01            NaN
         13   -1    0    0    0    0  0.00000000000E+00  0.00000000000E+00  0.74505805969E-08  0.10566000000E+00  0.10566000000E+00 0. -1.
     999900   -1    0    0    0    0 -0.00000000000E+00 -0.00000000000E+00 -0.74505805969E-08  0.93827000000E+00  0.93827000000E+00 0.  1.
     999902    2    1    2    0    0  0.14109372063E-01 -0.17663124320E-01  0.55270101618E-02  0.10206575231E+01  0.10203921654E+01 0.  0.
     999903    2    3    3    0    0  0.13061501885E+00 -0.12240310194E-02 -0.12037026507E-01  0.13265284690E+00  0.19751110976E-01 0.  0.
         14    1    1    2    0    0 -0.14109372063E-01  0.17663124320E-01 -0.55270101618E-02  0.23272476922E-01  0.00000000000E+00 0. -1.
     999901    1    3    3    0    0 -0.11650564678E+00 -0.16439093301E-01  0.17564036669E-01  0.88800467617E+00  0.88000000000E+00 0. -1.
        -11    1    4    4    0    0  0.21781676401E-01  0.70501086265E-02 -0.35673052178E-02  0.23176113695E-01  0.51100000000E-03 0.  1.
         11    1    4    4    0    0  0.10883334244E+00 -0.82741396460E-02 -0.84697212889E-02  0.10947673321E+00  0.51100000000E-03 0. -1.
</event>
<event>
 8    1  0.1044719E+005  0.1043930E+01  0.7957747E-01            NaN
         13   -1    0    0    0    0  0.00000000000E+00  0.00000000000E+00  0.74505805969E-08  0.10566000000E+00  0.10566000000E+00 0.  1.
     999900   -1    0    0    0    0 -0.00000000000E+00 -0.00000000000E+00 -0.74505805969E-08  0.93827000000E+00  0.93827000000E+00 0. -1.
     999902    2    1    2    0    0 -0.15108535847E-01  0.18054376497E-02  0.18015158721E-01  0.10203487913E+01  0.10200762631E+01 0.  0.
     999903    2    3    3    0    0 -0.37204417829E-01 -0.31187048558E-01  0.12268809690E+00  0.13325626165E+00  0.18656404943E-01 0.  0.
         14    1    1    2    0    0  0.15108535847E-01 -0.18054376497E-02 -0.18015158721E-01  0.23581208711E-01  0.00000000000E+00 0. -1.
     999901    1    3    3    0    0  0.22095881982E-01  0.32992486207E-01 -0.10467293818E+00  0.88709252963E+00  0.88000000000E+00 0. -1.
        -11    1    4    4    0    0 -0.27109385437E-01 -0.19761669582E-01  0.10314227695E+00  0.10846212602E+00  0.51100000000E-03 0. -1.
         11    1    4    4    0    0 -0.10095032392E-01 -0.11425378976E-01  0.19545819946E-01  0.24794135639E-01  0.51100000000E-03 0.  1.
</event>
<event>
 7    1  0.1044719E+005  0.1043930E+01  0.7957747E-01            NaN
         13   -1    0    0    0    0  0.00000000000E+00  0.00000000000E+00  0.74505805969E-08  0.10566000000E+00  0.10566000000E+00 0.  1.
     999900   -1    0    0    0    0 -0.00000000000E+00 -0.00000000000E+00 -0.74505805969E-08  0.93827000000E+00  0.93827000000E+00 0.  1.
     999903    2    1    2    0    0  0.90897195778E-01 -0.12728023266E-01  0.57563702116E-01  0.11024011331E+00  0.20371548887E-01 0.  0.
         14    1    1    2    0    0  0.32239370276E-01 -0.14738412948E-01 -0.26305619959E-01  0.44142762186E-01  0.00000000000E+00 0. -1.
     999901    1    1    2    0    0 -0.12313656605E+00  0.27466436214E-01 -0.31258082157E-01  0.88954712451E+00  0.88000000000E+00 0. -1.
        -11    1    3    3    0    0  0.72033080168E-01 -0.10619767321E-01  0.54624606203E-01  0.91025561357E-01  0.51100000000E-03 0. -1.
         11    1    3    3    0    0  0.18864115610E-01 -0.21082559447E-02  0.29390959133E-02  0.19214551950E-01  0.51100000000E-03 0.  1.
</event>
<event>
 8    1  0.1044719E+005  0.1043930E+01  0.7957747E-01            NaN
         13   -1    0    0    0    0  0.00000000000E+00  0.00000000000E+00  0.74505805969E-08  0.10566000000E+00  0.10566000000E+00 0. -1.
     999900   -1    0    0    0    0 -0.00000000000E+00 -0.00000000000E+00 -0.74505805969E-08  0.93827000000E+00  0.93827000000E+00 0. -1.
     999902    2    1    2    0    0 -0.16333472721E-01 -0.17259362400E-01  0.49695234667E-02  0.10196531780E+01  0.10193641348E+01 0.  0.
     999903    2    3    3    0    0 -0.78892598502E-02  0.11573229113E+00 -0.50781885468E-01  0.12787612952E+00  0.17812944176E-01 0.  0.
         14    1    1    2    0    0  0.16333472721E-01  0.17259362400E-01 -0.49695234667E-02  0.24276821972E-01  0.00000000000E+00 0. -1.
     999901    1    3    3    0    0 -0.84442128707E-02 -0.13299165353E+00  0.55751408934E-01  0.89177704850E+00  0.88000000000E+00 0.  1.
        -11    1    4    4    0    0 -0.36251941166E-02  0.47239905047E-01 -0.30365183940E-01  0.56276604179E-01  0.51100000000E-03 0. -1.
         11    1    4    4    0    0 -0.42640657336E-02  0.68492386079E-01 -0.20416701528E-01  0.71599525345E-01  0.51100000000E-03 0.  1.
</event>
<event>
 8    1  0.1044719E+005  0.1043930E+01  0.7957747E-01            NaN
         13   -1    0    0    0    0  0.00000000000E+00  0.00000000000E+00  0.74505805969E-08  0.10566000000E+00  0.10566000000E+00 0.  1.
     999900   -1    0    0    0    0 -0.00000000000E+00 -0.00000000000E+00 -0.74505805969E-08  0.93827000000E+00  0.93827000000E+00 0. -1.
     999902    2    1    2    0    0  0.21984555567E-01  0.60459698752E-02 -0.38564297569E-02  0.10208054138E+01  0.10205434564E+01 0.  0.
     999903    2    3    3    0    0  0.88510529056E-01 -0.64339576421E-01  0.72233387724E-01  0.13222818556E+00  0.17115370449E-01 0.  0.
         14    1    1    2    0    0 -0.21984555567E-01 -0.60459698752E-02  0.38564297569E-02  0.23124586173E-01  0.00000000000E+00 0. -1.
     999901    1    3    3    0    0 -0.66525973489E-01  0.70385546296E-01 -0.76089817481E-01  0.88857722827E+00  0.88000000000E+00 0. -1.
        -11    1    4    4    0    0  0.50318546818E-01 -0.37242452682E-01  0.31124948852E-01  0.69914090123E-01  0.51100000000E-03 0.  1.
         11    1    4    4    0    0  0.38191982238E-01 -0.27097123739E-01  0.41108438872E-01  0.62314095434E-01  0.51100000000E-03 0. -1.
</event>
<event>
 8    1  0.1044719E+005  0.1043930E+01  0.7957747E-01            NaN
         13   -1    0    0    0    0  0.00000000000E+00  0.00000000000E+00  0.74505805969E-08  0.10566000000E+00  0.10566000000E+00 0. -1.
     999900   -1    0    0    0    0 -0.00000000000E+00 -0.00000000000E+00 -0.74505805969E-08  0.93827000000E+00  0.93827000000E+00 0. -1.
     999902    2    1    2    0    0  0.22556002909E-01 -0.68794016175E-02 -0.66155063604E-02  0.10194378715E+01  0.10191436157E+01 0.  0.
     999903    2    3    3    0    0  0.80417821836E-01  0.56750557926E-01  0.83418469452E-01  0.13067306648E+00  0.20716113659E-01 0.  0.
         14    1    1    2    0    0 -0.22556002909E-01  0.68794016175E-02  0.66155063604E-02  0.24492128495E-01  0.00000000000E+00 0. -1.
     999901    1    3    3    0    0 -0.57861818928E-01 -0.63629959544E-01 -0.90033975812E-01  0.88876480502E+00  0.88000000000E+00 0. -1.
        -11    1    4    4    0    0  0.29668532036E-01  0.15543075743E-01  0.40095641918E-01  0.52246824004E-01  0.51100000000E-03 0. -1.
         11    1    4    4    0    0  0.50749289800E-01  0.41207482184E-01  0.43322827534E-01  0.78426242481E-01  0.51100000000E-03 0.  1.
</event>
<event>
 8    1  0.1044719E+005  0.1043930E+01  0.7957747E-01            NaN
         13   -1    0    0    0    0  0.00000000000E+00  0.00000000000E+00  0.74505805969E-08  0.10566000000E+00  0.10566000000E+00 0. -1.
     999900   -1    0    0    0    0 -0.00000000000E+00 -0.00000000000E+00 -0.74505805969E-08  0.93827000000E+00  0.93827000000E+00 0.  1.
     999902    2    1    2    0    0  0.23326322999E-01 -0.14476445795E-02  0.48219034916E-02  0.10200665599E+01  0.10197873910E+01 0.  0.
     999903    2    3    3    0    0  0.14392293235E-01 -0.82949627562E-01  0.98853074473E-01  0.13126722866E+00  0.19271122710E-01 0.  0.
         14    1    1    2    0    0 -0.23326322999E-01  0.14476445795E-02 -0.48219034916E-02  0.23863440087E-01  0.00000000000E+00 0.  1.
     999901    1    3    3    0    0  0.89340297646E-02  0.81501982982E-01 -0.94031170981E-01  0.88879933125E+00  0.88000000000E+00 0.  1.
        -11    1    4    4    0    0  0.33880489500E-02 -0.32686311439E-01  0.52903081603E-01  0.62280582811E-01  0.51100000000E-03 0.  1.
         11    1    4    4    0    0  0.11004244285E-01 -0.50263316123E-01  0.45949992869E-01  0.68986645850E-01  0.51100000000E-03 0. -1.
</event>
<event>
 8    1  0.1044719E+005  0.1043930E+01  0.7957747E-01            NaN
         13   -1    0    0    0    0  0.00000000000E+00  0.00000000000E+00  0.74505805969E-08  0.10566000000E+00  0.10566000000E+00 0.  1.
     999900   -1    0    0    0    0 -0.00000000000E+00 -0.00000000000E+00 -0.74505805969E-08  0.93827000000E+00  0.93827000000E+00 0. -1.
     999902    2    1    2    0    0  0.79106564213E-02 -0.21125414392E-01 -0.12811429658E-02  0.10213356878E+01  0.10210857379E+01 0.  0.
     999903    2    3    3    0    0 -0.10289519292E+00 -0.61405554226E-01 -0.53415202498E-01  0.13194354361E+00  0.14065988264E-01 0.  0.
         14    1    1    2    0    0 -0.79106564213E-02  0.21125414392E-01  0.12811429658E-02  0.22594312239E-01  0.00000000000E+00 0. -1.
     999901    1    3    3    0    0  0.11080584935E+00  0.40280139834E-01  0.52134059532E-01  0.88939214415E+00  0.88000000000E+00 0. -1.
        -11    1    4    4    0    0 -0.14588414085E-01 -0.49714551043E-02 -0.32684420789E-02  0.15763280940E-01  0.51100000000E-03 0.  1.
         11    1    4    4    0    0 -0.88306778839E-01 -0.56434099122E-01 -0.50146760419E-01  0.11618026267E+00  0.51100000000E-03 0. -1.
</event>
<event>
 8    1  0.1044719E+005  0.1043930E+01  0.7957747E-01            NaN
         13   -1    0    0    0    0  0.00000000000E+00  0.00000000000E+00  0.74505805969E-08  0.10566000000E+00  0.10566000000E+00 0.  1.
     999900   -1    0    0    0    0 -0.00000000000E+00 -0.00000000000E+00 -0.74505805969E-08  0.93827000000E+00  0.93827000000E+00 0.  1.
     999902    2    1    2    0    0 -0.12533699377E-01 -0.13183965060E-01 -0.15329935400E-01  0.10201409800E+01  0.10198635701E+01 0.  0.
     999903    2    3    3    0    0  0.57916386336E-01 -0.59395587436E-02  0.11177343517E+00  0.12819313238E+00  0.23464701487E-01 0.  0.
         14    1    1    2    0    0  0.12533699377E-01  0.13183965060E-01  0.15329935400E-01  0.23789020033E-01  0.00000000000E+00 0.  1.
     999901    1    3    3    0    0 -0.70450085713E-01 -0.72444063163E-02 -0.12710337057E+00  0.89194784758E+00  0.88000000000E+00 0.  1.
        -11    1    4    4    0    0  0.79535764063E-02  0.66808190800E-02  0.27628954980E-01  0.29521398942E-01  0.51100000000E-03 0. -1.
         11    1    4    4    0    0  0.49962809930E-01 -0.12620377824E-01  0.84144480191E-01  0.98671733440E-01  0.51100000000E-03 0.  1.
</event>
<event>
 8    1  0.1044719E+005  0.1043930E+01  0.7957747E-01            NaN
         13   -1    0    0    0    0  0.00000000000E+00  0.00000000000E+00  0.74505805969E-08  0.10566000000E+00  0.10566000000E+00 0. -1.
     999900   -1    0    0    0    0 -0.00000000000E+00 -0.00000000000E+00 -0.74505805969E-08  0.93827000000E+00  0.93827000000E+00 0.  1.
     999902    2    1    2    0    0 -0.78267483058E-03  0.14201528371E-01  0.18538414556E-01  0.10205640247E+01  0.10202965058E+01 0.  0.
     999903    2    3    3    0    0 -0.11521774101E+00 -0.34242281590E-01 -0.44283530545E-01  0.12961577486E+00  0.19787782147E-01 0.  0.
         14    1    1    2    0    0  0.78267483058E-03 -0.14201528371E-01 -0.18538414556E-01  0.23365975310E-01  0.00000000000E+00 0. -1.
     999901    1    3    3    0    0  0.11443506618E+00  0.48443809961E-01  0.62821945101E-01  0.89094824983E+00  0.88000000000E+00 0.  1.
        -11    1    4    4    0    0 -0.90671888977E-01 -0.18609989549E-01 -0.36383177915E-01  0.99457126028E-01  0.51100000000E-03 0. -1.
         11    1    4    4    0    0 -0.24545852033E-01 -0.15632292041E-01 -0.79003526306E-02  0.30158648828E-01  0.51100000000E-03 0.  1.
</event>
<event>
 8    1  0.1044719E+005  0.1043930E+01  0.7957747E-01            NaN
         13   -1    0    0    0    0  0.00000000000E+00  0.00000000000E+00  0.74505805969E-08  0.10566000000E+00  0.10566000000E+00 0.  1.
     999900   -1    0    0    0    0 -0.00000000000E+00 -0.00000000000E+00 -0.74505805969E-08  0.93827000000E+00  0.93827000000E+00 0.  1.
     999902    2    1    2    0    0  0.37520938447E-02 -0.16656840916E-01 -0.17142015806E-01  0.10197354291E+01  0.10194483646E+01 0.  0.
     999903    2    3    3    0    0  0.12525024811E+00 -0.30503497852E-01  0.45307040771E-02  0.13101542917E+00  0.22944005052E-01 0.  0.
         14    1    1    2    0    0 -0.37520938447E-02  0.16656840916E-01  0.17142015806E-01  0.24194570949E-01  0.00000000000E+00 0.  1.
     999901    1    3    3    0    0 -0.12149815427E+00  0.13846656937E-01 -0.21672719883E-01  0.88871999988E+00  0.88000000000E+00 0.  1.
        -11    1    4    4    0    0  0.93871701302E-01 -0.32769852086E-01  0.19867058339E-02  0.99448316386E-01  0.51100000000E-03 0.  1.
         11    1    4    4    0    0  0.31378546812E-01  0.22663542334E-02  0.25439982432E-02  0.31567112785E-01  0.51100000000E-03 0. -1.
</event>
<event>
 8    1  0.1044719E+005  0.1043930E+01  0.7957747E-01            NaN
         13   -1    0    0    0    0  0.00000000000E+00  0.00000000000E+00  0.74505805969E-08  0.10566000000E+00  0.10566000000E+00 0.  1.
     999900   -1    0    0    0    0 -0.00000000000E+00 -0.00000000000E+00 -0.74505805969E-08  0.93827000000E+00  0.93827000000E+00 0. -1.
     999902    2    1    2    0    0 -0.84767113859E-02  0.66270953367E-02  0.21184414001E-01  0.10201696880E+01  0.10198929551E+01 0.  0.
     999903    2    3    3    0    0  0.10131639988E+00 -0.73450954742E-01  0.27940619331E-01  0.12971325018E+00  0.19616152209E-01 0.  0.
         14    1    1    2    0    0  0.84767113859E-02 -0.66270953367E-02 -0.21184414001E-01  0.23760311974E-01  0.00000000000E+00 0. -1.
     999901    1    3    3    0    0 -0.10979311126E+00  0.80078050079E-01 -0.67562053300E-02  0.89045643784E+00  0.88000000000E+00 0.  1.
        -11    1    4    4    0    0  0.81236668900E-01 -0.63938438872E-01  0.16412436675E-01  0.10467640392E+00  0.51100000000E-03 0.  1.
         11    1    4    4    0    0  0.20079730979E-01 -0.95125158707E-02  0.11528182657E-01  0.25036846262E-01  0.51100000000E-03 0. -1.
</event>
<event>
 8    1  0.1044719E+005  0.1043930E+01  0.7957747E-01            NaN
         13   -1    0    0    0    0  0.00000000000E+00  0.00000000000E+00  0.74505805969E-08  0.10566000000E+00  0.10566000000E+00 0. -1.
     999900   -1    0    0    0    0 -0.00000000000E+00 -0.00000000000E+00 -0.74505805969E-08  0.93827000000E+00  0.93827000000E+00 0. -1.
     999902    2    1    2    0    0 -0.25741924541E-02  0.23425489054E-01  0.24404267115E-02  0.10202374761E+01  0.10199623385E+01 0.  0.
     999903    2    3    3    0    0 -0.26441819499E-02  0.30650620744E-01  0.12650145487E+00  0.13150616346E+00  0.18568809716E-01 0.  0.
         14    1    1    2    0    0  0.25741924541E-02 -0.23425489054E-01 -0.24404267115E-02  0.23692523858E-01  0.00000000000E+00 0.  1.
     999901    1    3    3    0    0  0.69989495844E-04 -0.72251316895E-02 -0.12406102816E+00  0.88873131268E+00  0.88000000000E+00 0. -1.
        -11    1    4    4    0    0 -0.80966985903E-02  0.46893288966E-02  0.35460594131E-01  0.36677802425E-01  0.51100000000E-03 0. -1.
         11    1    4    4    0    0  0.54525166404E-02  0.25961291847E-01  0.91040860740E-01  0.94828361039E-01  0.51100000000E-03 0.  1.
</event>
<event>
 8    1  0.1044719E+005  0.1043930E+01  0.7957747E-01            NaN
         13   -1    0    0    0    0  0.00000000000E+00  0.00000000000E+00  0.74505805969E-08  0.10566000000E+00  0.10566000000E+00 0. -1.
     999900   -1    0    0    0    0 -0.00000000000E+00 -0.00000000000E+00 -0.74505805969E-08  0.93827000000E+00  0.93827000000E+00 0.  1.
     999902    2    1    2    0    0 -0.10599084974E-01  0.21189394534E-01  0.23600541437E-01  0.10104887590E+01  0.10099352531E+01 0.  0.
     999903    2    3    3    0    0  0.93934963940E-01 -0.62291434112E-01 -0.31344697443E-01  0.11868418658E+00  0.19986141984E-01 0.  0.
         14    1    1    2    0    0  0.10599084974E-01 -0.21189394534E-01 -0.23600541437E-01  0.33441240992E-01  0.00000000000E+00 0.  1.
     999901    1    3    3    0    0 -0.10453404891E+00  0.83480828646E-01  0.54945238880E-01  0.89180457243E+00  0.88000000000E+00 0. -1.
        -11    1    4    4    0    0  0.49216558389E-01 -0.42199976270E-01 -0.23882998539E-01  0.69092447902E-01  0.51100000000E-03 0. -1.
         11    1    4    4    0    0  0.44718405551E-01 -0.20091457842E-01 -0.74616989038E-02  0.49591738675E-01  0.51100000000E-03 0.  1.
</event>
<event>
 8    1  0.1044719E+005  0.1043930E+01  0.7957747E-01            NaN
         13   -1    0    0    0    0  0.00000000000E+00  0.00000000000E+00  0.74505805969E-08  0.10566000000E+00  0.10566000000E+00 0. -1.
     999900   -1    0    0    0    0 -0.00000000000E+00 -0.00000000000E+00 -0.74505805969E-08  0.93827000000E+00  0.93827000000E+00 0.  1.
     999902    2    1    2    0    0 -0.88032360654E-02 -0.22365665348E-01 -0.21840894210E-03  0.10198932021E+01  0.10196099136E+01 0.  0.
     999903    2    3    3    0    0 -0.51543538785E-01  0.28272034280E-01  0.11363405883E+00  0.13008800176E+00  0.23540275314E-01 0.  0.
         14    1    1    2    0    0  0.88032360654E-02  0.22365665348E-01  0.21840894210E-03  0.24036797918E-01  0.00000000000E+00 0.  1.
     999901    1    3    3    0    0  0.42740302719E-01 -0.50637699629E-01 -0.11385246778E+00  0.88980520032E+00  0.88000000000E+00 0.  1.
        -11    1    4    4    0    0 -0.46681658358E-01  0.14790278878E-01  0.86736606894E-01  0.99606373656E-01  0.51100000000E-03 0. -1.
         11    1    4    4    0    0 -0.48618804273E-02  0.13481755402E-01  0.26897451941E-01  0.30481628105E-01  0.51100000000E-03 0.  1.
</event>
<event>
 8    1  0.1044719E+005  0.1043930E+01  0.7957747E-01            NaN
         13   -1    0    0    0    0  0.00000000000E+00  0.00000000000E+00  0.74505805969E-08  0.10566000000E+00  0.10566000000E+00 0.  1.
     999900   -1    0    0    0    0 -0.00000000000E+00 -0.00000000000E+00 -0.74505805969E-08  0.93827000000E+00  0.93827000000E+00 0. -1.
     999902    2    1    2    0    0  0.89225570635E-02  0.67588580263E-03  0.21784824977E-01  0.10203790458E+01  0.10201072246E+01 0.  0.
     999903    2    3    3    0    0 -0.74777572880E-01  0.10213875255E+00  0.24806531000E-01  0.13059842348E+00  0.20410145953E-01 0.  0.
         14    1    1    2    0    0 -0.89225570635E-02 -0.67588580263E-03 -0.21784824977E-01  0.23550954237E-01  0.00000000000E+00 0. -1.
     999901    1    3    3    0    0  0.83700129944E-01 -0.10146286674E+00 -0.30217060227E-02  0.88978062228E+00  0.88000000000E+00 0.  1.
        -11    1    4    4    0    0 -0.44422534215E-01  0.45242150466E-01  0.76598497043E-02  0.63868209176E-01  0.51100000000E-03 0. -1.
         11    1    4    4    0    0 -0.30355038665E-01  0.56896602082E-01  0.17146681296E-01  0.66730214305E-01  0.51100000000E-03 0.  1.
</event>
<event>
 8    1  0.1044719E+005  0.1043930E+01  0.7957747E-01            NaN
         13   -1    0    0    0    0  0.00000000000E+00  0.00000000000E+00  0.74505805969E-08  0.10566000000E+00  0.10566000000E+00 0. -1.
     999900   -1    0    0    0    0 -0.00000000000E+00 -0.00000000000E+00 -0.74505805969E-08  0.93827000000E+00  0.93827000000E+00 0. -1.
     999902    2    1    2    0    0 -0.58104108263E-02  0.96280898067E-02 -0.20541698200E-01  0.10205115809E+01  0.10202428458E+01 0.  0.
     999903    2    3    3    0    0 -0.84481209597E-01  0.52884582439E-01 -0.86874649874E-01  0.13346012852E+00  0.18180959217E-01 0.  0.
         14    1    1    2    0    0  0.58104108263E-02 -0.96280898067E-02  0.20541698200E-01  0.23418419081E-01  0.00000000000E+00 0. -1.
     999901    1    3    3    0    0  0.78670798770E-01 -0.43256492632E-01  0.66332951674E-01  0.88705145240E+00  0.88000000000E+00 0.  1.
        -11    1    4    4    0    0 -0.67025665562E-01  0.42313453649E-01 -0.58547768732E-01  0.98544256800E-01  0.51100000000E-03 0. -1.
         11    1    4    4    0    0 -0.17455544035E-01  0.10571128789E-01 -0.28326881142E-01  0.34915871716E-01  0.51100000000E-03 0.  1.
</event>
<event>
 8    1  0.1044719E+005  0.1043930E+01  0.7957747E-01            NaN
         13   -1    0    0    0    0  0.00000000000E+00  0.00000000000E+00  0.74505805969E-08  0.10566000000E+00  0.10566000000E+00 0. -1.
     999900   -1    0    0    0    0 -0.00000000000E+00 -0.00000000000E+00 -0.74505805969E-08  0.93827000000E+00  0.93827000000E+00 0. -1.
     999902    2    1    2    0    0  0.44923815609E-02 -0.36109969169E-02  0.21899458943E-01  0.10212847556E+01  0.10210336650E+01 0.  0.
     999903    2    3    3    0    0 -0.41159927844E-01 -0.67020308093E-01 -0.10079245835E+00  0.12934407337E+00  0.19619079964E-01 0.  0.
         14    1    1    2    0    0 -0.44923815609E-02  0.36109969169E-02 -0.21899458943E-01  0.22645244375E-01  0.00000000000E+00 0.  1.
     999901    1    3    3    0    0  0.45652309405E-01  0.63409311177E-01  0.12269191729E+00  0.89194068226E+00  0.88000000000E+00 0.  1.
        -11    1    4    4    0    0 -0.24040645686E-01 -0.40878248172E-01 -0.75403496080E-01  0.89078236179E-01  0.51100000000E-03 0.  1.
         11    1    4    4    0    0 -0.17119282158E-01 -0.26142059921E-01 -0.25388962266E-01  0.40265837188E-01  0.51100000000E-03 0. -1.
</event>
<event>
 8    1  0.1044719E+005  0.1043930E+01  0.7957747E-01            NaN
         13   -1    0    0    0    0  0.00000000000E+00  0.00000000000E+00  0.74505805969E-08  0.10566000000E+00  0.10566000000E+00 0. -1.
     999900   -1    0    0    0    0 -0.00000000000E+00 -0.00000000000E+00 -0.74505805969E-08  0.93827000000E+00  0.93827000000E+00 0.  1.
     999902    2    1    2    0    0  0.21160825555E-01  0.54374882422E-02 -0.79597336660E-02  0.10206769534E+01  0.10204120437E+01 0.  0.
     999903    2    3    3    0    0 -0.53707955897E-01 -0.20980051977E-02  0.11545592026E+00  0.12888463355E+00  0.19804875398E-01 0.  0.
         14    1    1    2    0    0 -0.21160825555E-01 -0.54374882422E-02  0.79597336660E-02  0.23253046609E-01  0.00000000000E+00 0. -1.
     999901    1    3    3    0    0  0.74868781453E-01  0.75354934399E-02 -0.12341565392E+00  0.89179231984E+00  0.88000000000E+00 0.  1.
        -11    1    4    4    0    0 -0.52922972130E-01 -0.22843242078E-02  0.11617907939E+00  0.12768672102E+00  0.51100000000E-03 0. -1.
         11    1    4    4    0    0 -0.78498376765E-03  0.18631901014E-03 -0.72315913259E-03  0.11979125260E-02  0.51100000000E-03 0.  1.
</event>
<event>
 8    1  0.1044719E+005  0.1043930E+01  0.7957747E-01            NaN
         13   -1    0    0    0    0  0.00000000000E+00  0.00000000000E+00  0.74505805969E-08  0.10566000000E+00  0.10566000000E+00 0. -1.
     999900   -1    0    0    0    0 -0.00000000000E+00 -0.00000000000E+00 -0.74505805969E-08  0.93827000000E+00  0.93827000000E+00 0.  1.
     999902    2    1    2    0    0  0.20598810093E-01 -0.66175302526E-02 -0.10328982748E-01  0.10199552097E+01  0.10196733983E+01 0.  0.
     999903    2    3    3    0    0 -0.84792336934E-01  0.91524868821E-01  0.19401935023E-01  0.12775391415E+00  0.19444420327E-01 0.  0.
         14    1    1    2    0    0 -0.20598810093E-01  0.66175302526E-02  0.10328982748E-01  0.23974790270E-01  0.00000000000E+00 0.  1.
     999901    1    3    3    0    0  0.10539114703E+00 -0.98142399074E-01 -0.29730917771E-01  0.89220129558E+00  0.88000000000E+00 0.  1.
        -11    1    4    4    0    0 -0.56954742150E-01  0.51602973202E-01  0.51072588059E-02  0.77026324787E-01  0.51100000000E-03 0. -1.
         11    1    4    4    0    0 -0.27837594784E-01  0.39921895619E-01  0.14294676217E-01  0.50727589360E-01  0.51100000000E-03 0.  1.
</event>
<event>
 8    1  0.1044719E+005  0.1043930E+01  0.7957747E-01            NaN
         13   -1    0    0    0    0  0.00000000000E+00  0.00000000000E+00  0.74505805969E-08  0.10566000000E+00  0.10566000000E+00 0.  1.
     999900   -1    0    0    0    0 -0.00000000000E+00 -0.00000000000E+00 -0.74505805969E-08  0.93827000000E+00  0.93827000000E+00 0.  1.
     999902    2    1    2    0    0 -0.59035127625E-02 -0.18941552356E-01 -0.14514391890E-01  0.10193474566E+01  0.10190509977E+01 0.  0.
     999903    2    3    3    0    0  0.85228568769E-02  0.99972763859E-01  0.74666485920E-01  0.12676582799E+00  0.20671197932E-01 0.  0.
         14    1    1    2    0    0  0.59035127625E-02  0.18941552356E-01  0.14514391890E-01  0.24582543411E-01  0.00000000000E+00 0.  1.
     999901    1    3    3    0    0 -0.14426369639E-01 -0.11891431622E+00 -0.89180877810E-01  0.89258162860E+00  0.88000000000E+00 0. -1.
        -11    1    4    4    0    0  0.62545163040E-02  0.31203872365E-01  0.13044799362E-01  0.34398089136E-01  0.51100000000E-03 0. -1.
         11    1    4    4    0    0  0.22683405728E-02  0.68768891494E-01  0.61621686558E-01  0.92367738857E-01  0.51100000000E-03 0.  1.
</event>
<event>
 8    1  0.1044719E+005  0.1043930E+01  0.7957747E-01            NaN
         13   -1    0    0    0    0  0.00000000000E+00  0.00000000000E+00  0.74505805969E-08  0.10566000000E+00  0.10566000000E+00 0. -1.
     999900   -1    0    0    0    0 -0.00000000000E+00 -0.00000000000E+00 -0.74505805969E-08  0.93827000000E+00  0.93827000000E+00 0. -1.
     999902    2    1    2    0    0  0.14188972783E-01 -0.18925779460E-01  0.70786081863E-02  0.10192395409E+01  0.10189404413E+01 0.  0.
     999903    2    3    3    0    0 -0.12511670817E-01  0.20401097761E-01  0.12576693672E+00  0.13000028908E+00  0.22583314473E-01 0.  0.
         14    1    1    2    0    0 -0.14188972783E-01  0.18925779460E-01 -0.70786081863E-02  0.24690459102E-01  0.00000000000E+00 0.  1.
     999901    1    3    3    0    0  0.26700643599E-01 -0.39326877222E-01 -0.11868832853E+00  0.88923925182E+00  0.88000000000E+00 0. -1.
        -11    1    4    4    0    0 -0.18721321912E-01  0.11302731155E-01  0.84474739647E-01  0.87261001513E-01  0.51100000000E-03 0.  1.
         11    1    4    4    0    0  0.62096510953E-02  0.90983666068E-02  0.41292197074E-01  0.42739287568E-01  0.51100000000E-03 0. -1.
</event>
<event>
 8    1  0.1044719E+005  0.1043930E+01  0.7957747E-01            NaN
         13   -1    0    0    0    0  0.00000000000E+00  0.00000000000E+00  0.74505805969E-08  0.10566000000E+00  0.10566000000E+00 0. -1.
     999900   -1    0    0    0    0 -0.00000000000E+00 -0.00000000000E+00 -0.74505805969E-08  0.93827000000E+00  0.93827000000E+00 0.  1.
     999902    2    1    2    0    0  0.81830688186E-02 -0.13148760759E-01 -0.18962629952E-01  0.10194466616E+01  0.10191526196E+01 0.  0.
     999903    2    3    3    0    0  0.10182394018E+00  0.14540720090E-01  0.76106870099E-01  0.12895604964E+00  0.16058011330E-01 0.  0.
         14    1    1    2    0    0 -0.81830688186E-02  0.13148760759E-01  0.18962629952E-01  0.24483338406E-01  0.00000000000E+00 0. -1.
     999901    1    3    3    0    0 -0.93640871361E-01 -0.27689480849E-01 -0.95069500051E-01  0.89049061195E+00  0.88000000000E+00 0.  1.
        -11    1    4    4    0    0  0.59218877096E-01  0.34904724073E-02  0.51306345779E-01  0.78432525398E-01  0.51100000000E-03 0. -1.
         11    1    4    4    0    0  0.42605063084E-01  0.11050247683E-01  0.24800524320E-01  0.50523524242E-01  0.51100000000E-03 0.  1.
</event>
<event>
 8    1  0.1044719E+005  0.1043930E+01  0.7957747E-01            NaN
         13   -1    0    0    0    0  0.00000000000E+00  0.00000000000E+00  0.74505805969E-08  0.10566000000E+00  0.10566000000E+00 0.  1.
     999900   -1    0    0    0    0 -0.00000000000E+00 -0.00000000000E+00 -0.74505805969E-08  0.93827000000E+00  0.93827000000E+00 0. -1.
     999902    2    1    2    0    0 -0.47502828562E-02 -0.21657104774E-01  0.15340861181E-01  0.10169682234E+01  0.10166107564E+01 0.  0.
     999903    2    3    3    0    0  0.11010476997E+00 -0.39830369966E-01  0.49312349647E-01  0.12866871720E+00  0.20357117067E-01 0.  0.
         14    1    1    2    0    0  0.47502828562E-02  0.21657104774E-01 -0.15340861181E-01  0.26961776577E-01  0.00000000000E+00 0. -1.
     999901    1    3    3    0    0 -0.11485505283E+00  0.18173265192E-01 -0.33971488466E-01  0.88829950622E+00  0.88000000000E+00 0. -1.
        -11    1    4    4    0    0  0.32474659302E-02 -0.13776816516E-02  0.62831869218E-02  0.72238217445E-02  0.51100000000E-03 0.  1.
         11    1    4    4    0    0  0.10685730404E+00 -0.38452688315E-01  0.43029162725E-01  0.12144489546E+00  0.51100000000E-03 0. -1.
</event>
<event>
 8    1  0.1044719E+005  0.1043930E+01  0.7957747E-01            NaN
         13   -1    0    0    0    0  0.00000000000E+00  0.00000000000E+00  0.74505805969E-08  0.10566000000E+00  0.10566000000E+00 0. -1.
     999900   -1    0    0    0    0 -0.00000000000E+00 -0.00000000000E+00 -0.74505805969E-08  0.93827000000E+00  0.93827000000E+00 0.  1.
     999902    2    1    2    0    0 -0.24236447985E-01 -0.13917890651E-01 -0.65623356685E-02  0.10152215110E+01  0.10148155197E+01 0.  0.
     999903    2    3    3    0    0 -0.69826196392E-01 -0.10683080096E+00 -0.70170014747E-03  0.12913710130E+00  0.19681992105E-01 0.  0.
         14    1    1    2    0    0  0.24236447985E-01  0.13917890651E-01  0.65623356685E-02  0.28708488998E-01  0.00000000000E+00 0.  1.
     999901    1    3    3    0    0  0.45589748407E-01  0.92912910311E-01 -0.58606355210E-02  0.88608440970E+00  0.88000000000E+00 0. -1.
        -11    1    4    4    0    0 -0.45709631069E-01 -0.55621251787E-01 -0.62124772531E-02  0.72263061224E-01  0.51100000000E-03 0. -1.
         11    1    4    4    0    0 -0.24116565323E-01 -0.51209549175E-01  0.55107771056E-02  0.56874040080E-01  0.51100000000E-03 0.  1.
</event>
<event>
 8    1  0.1044719E+005  0.1043930E+01  0.7957747E-01            NaN
         13   -1    0    0    0    0  0.00000000000E+00  0.00000000000E+00  0.74505805969E-08  0.10566000000E+00  0.10566000000E+00 0. -1.
     999900   -1    0    0    0    0 -0.00000000000E+00 -0.00000000000E+00 -0.74505805969E-08  0.93827000000E+00  0.93827000000E+00 0. -1.
     999902    2    1    2    0    0  0.92800705154E-02 -0.21999284430E-01  0.66310949899E-02  0.10191497731E+01  0.10188484678E+01 0.  0.
     999903    2    3    3    0    0  0.10452426740E+00  0.52311524661E-01  0.52127501314E-01  0.12973228037E+00  0.21245472214E-01 0.  0.
         14    1    1    2    0    0 -0.92800705154E-02  0.21999284430E-01 -0.66310949899E-02  0.24780226895E-01  0.00000000000E+00 0. -1.
     999901    1    3    3    0    0 -0.95244196886E-01 -0.74310809091E-01 -0.45496406324E-01  0.88941749273E+00  0.88000000000E+00 0.  1.
        -11    1    4    4    0    0  0.53053060665E-01  0.31992102849E-01  0.37773402534E-01  0.72561787123E-01  0.51100000000E-03 0.  1.
         11    1    4    4    0    0  0.51471206736E-01  0.20319421813E-01  0.14354098781E-01  0.57170493250E-01  0.51100000000E-03 0. -1.
</event>
<event>
 8    1  0.1044719E+005  0.1043930E+01  0.7957747E-01            NaN
         13   -1    0    0    0    0  0.00000000000E+00  0.00000000000E+00  0.74505805969E-08  0.10566000000E+00  0.10566000000E+00 0. -1.
     999900   -1    0    0    0    0 -0.00000000000E+00 -0.00000000000E+00 -0.74505805969E-08  0.93827000000E+00  0.93827000000E+00 0.  1.
     999902    2    1    2    0    0  0.10869161448E-01  0.13331319274E-01 -0.16315498393E-01  0.10202222327E+01  0.10199467367E+01 0.  0.
     999903    2    3    3    0    0 -0.67481296758E-01  0.38011109225E-01 -0.10537110780E+00  0.13192116439E+00  0.17365293472E-01 0.  0.
         14    1    1    2    0    0 -0.10869161448E-01 -0.13331319274E-01  0.16315498393E-01  0.23707767334E-01  0.00000000000E+00 0. -1.
     999901    1    3    3    0    0  0.78350458206E-01 -0.24679789951E-01  0.89055609412E-01  0.88830106828E+00  0.88000000000E+00 0. -1.
        -11    1    4    4    0    0 -0.20437893165E-01  0.55787978802E-02 -0.19648734674E-01  0.28899210337E-01  0.51100000000E-03 0.  1.
         11    1    4    4    0    0 -0.47043403593E-01  0.32432311344E-01 -0.85722373130E-01  0.10302195405E+00  0.51100000000E-03 0. -1.
</event>
<event>
 8    1  0.1044719E+005  0.1043930E+01  0.7957747E-01            NaN
         13   -1    0    0    0    0  0.00000000000E+00  0.00000000000E+00  0.74505805969E-08  0.10566000000E+00  0.10566000000E+00 0. -1.
     999900   -1    0    0    0    0 -0.00000000000E+00 -0.00000000000E+00 -0.74505805969E-08  0.93827000000E+00  0.93827000000E+00 0. -1.
     999902    2    1    2    0    0  0.26400736950E-02  0.20623700048E-01  0.11116947358E-01  0.10203526059E+01  0.10200801669E+01 0.  0.
     999903    2    3    3    0    0  0.51865900771E-01 -0.49182659030E-01  0.10790003134E+00  0.13093533874E+00  0.19815159791E-01 0.  0.
         14    1    1    2    0    0 -0.26400736950E-02 -0.20623700048E-01 -0.11116947358E-01  0.23577394074E-01  0.00000000000E+00 0.  1.
     999901    1    3    3    0    0 -0.49225827076E-01  0.69806359078E-01 -0.96783083977E-01  0.88941726718E+00  0.88000000000E+00 0. -1.
        -11    1    4    4    0    0  0.20870375749E-01 -0.25485214196E-01  0.33858022687E-01  0.47240825012E-01  0.51100000000E-03 0. -1.
         11    1    4    4    0    0  0.30995525022E-01 -0.23697444834E-01  0.74042008648E-01  0.83694513731E-01  0.51100000000E-03 0.  1.
</event>
<event>
 8    1  0.1044719E+005  0.1043930E+01  0.7957747E-01            NaN
         13   -1    0    0    0    0  0.00000000000E+00  0.00000000000E+00  0.74505805969E-08  0.10566000000E+00  0.10566000000E+00 0.  1.
     999900   -1    0    0    0    0 -0.00000000000E+00 -0.00000000000E+00 -0.74505805969E-08  0.93827000000E+00  0.93827000000E+00 0.  1.
     999902    2    1    2    0    0  0.76598306774E-02 -0.13252170037E-01  0.17709807643E-01  0.10205220889E+01  0.10202535977E+01 0.  0.
     999903    2    3    3    0    0 -0.11431626003E+00 -0.57613409228E-01 -0.14486349985E-01  0.13041946624E+00  0.20294595568E-01 0.  0.
         14    1    1    2    0    0 -0.76598306774E-02  0.13252170037E-01 -0.17709807643E-01  0.23407911129E-01  0.00000000000E+00 0. -1.
     999901    1    3    3    0    0  0.12197609070E+00  0.44361239191E-01  0.32196157628E-01  0.89010262263E+00  0.88000000000E+00 0.  1.
        -11    1    4    4    0    0 -0.58379932092E-01 -0.21226660074E-01 -0.14031251668E-01  0.63686142239E-01  0.51100000000E-03 0. -1.
         11    1    4    4    0    0 -0.55936327936E-01 -0.36386749154E-01 -0.45509831759E-03  0.66733324002E-01  0.51100000000E-03 0.  1.
</event>
<event>
 8    1  0.1044719E+005  0.1043930E+01  0.7957747E-01            NaN
         13   -1    0    0    0    0  0.00000000000E+00  0.00000000000E+00  0.74505805969E-08  0.10566000000E+00  0.10566000000E+00 0.  1.
     999900   -1    0    0    0    0 -0.00000000000E+00 -0.00000000000E+00 -0.74505805969E-08  0.93827000000E+00  0.93827000000E+00 0.  1.
     999902    2    1    2    0    0 -0.22880454912E-02 -0.15541573769E-01 -0.16594786485E-01  0.10210791224E+01  0.10208233989E+01 0.  0.
     999903    2    3    3    0    0  0.47375568479E-01  0.11772494207E+00  0.12409588721E-01  0.12918916701E+00  0.20790298383E-01 0.  0.
         14    1    1    2    0    0  0.22880454912E-02  0.15541573769E-01  0.16594786485E-01  0.22850877573E-01  0.00000000000E+00 0.  1.
     999901    1    3    3    0    0 -0.49663613970E-01 -0.13326651583E+00 -0.29004375206E-01  0.89188995542E+00  0.88000000000E+00 0.  1.
        -11    1    4    4    0    0  0.58917272998E-02  0.39318296681E-01  0.64796374377E-02  0.40285080698E-01  0.51100000000E-03 0. -1.
         11    1    4    4    0    0  0.41483841180E-01  0.78406645385E-01  0.59299512836E-02  0.88904086311E-01  0.51100000000E-03 0.  1.
</event>
<event>
 8    1  0.1044719E+005  0.1043930E+01  0.7957747E-01            NaN
         13   -1    0    0    0    0  0.00000000000E+00  0.00000000000E+00  0.74505805969E-08  0.10566000000E+00  0.10566000000E+00 0.  1.
     999900   -1    0    0    0    0 -0.00000000000E+00 -0.00000000000E+00 -0.74505805969E-08  0.93827000000E+00  0.93827000000E+00 0. -1.
     999902    2    1    2    0    0  0.21165625298E-01 -0.10453533889E-02 -0.86092392863E-02  0.10210565337E+01  0.10208002986E+01 0.  0.
     999903    2    3    3    0    0  0.11976219205E+00 -0.49678558002E-02 -0.56267831997E-01  0.13426004611E+00  0.22181722860E-01 0.  0.
         14    1    1    2    0    0 -0.21165625298E-01  0.10453533889E-02  0.86092392863E-02  0.22873466267E-01  0.00000000000E+00 0.  1.
     999901    1    3    3    0    0 -0.98596566749E-01  0.39225024113E-02  0.47658592710E-01  0.88679648762E+00  0.88000000000E+00 0.  1.
        -11    1    4    4    0    0  0.87248938645E-01 -0.62246774634E-03 -0.50910020959E-01  0.10101908788E+00  0.51100000000E-03 0.  1.
         11    1    4    4    0    0  0.32513253402E-01 -0.43453880539E-02 -0.53578110380E-02  0.33240958233E-01  0.51100000000E-03 0. -1.
</event>
<event>
 8    1  0.1044719E+005  0.1043930E+01  0.7957747E-01            NaN
         13   -1    0    0    0    0  0.00000000000E+00  0.00000000000E+00  0.74505805969E-08  0.10566000000E+00  0.10566000000E+00 0. -1.
     999900   -1    0    0    0    0 -0.00000000000E+00 -0.00000000000E+00 -0.74505805969E-08  0.93827000000E+00  0.93827000000E+00 0.  1.
     999902    2    1    2    0    0  0.13886607634E-01 -0.85548946189E-02 -0.17914172234E-01  0.10197031211E+01  0.10194152802E+01 0.  0.
     999903    2    3    3    0    0  0.98909527112E-02  0.48842099221E-01  0.11575963624E+00  0.12775073044E+00  0.20894356741E-01 0.  0.
         14    1    1    2    0    0 -0.13886607634E-01  0.85548946189E-02  0.17914172234E-01  0.24226878882E-01  0.00000000000E+00 0. -1.
     999901    1    3    3    0    0  0.39956549226E-02 -0.57396993840E-01 -0.13367380848E+00  0.89195239068E+00  0.88000000000E+00 0.  1.
        -11    1    4    4    0    0  0.16394713334E-01  0.31881053152E-01  0.75594974291E-01  0.83666298080E-01  0.51100000000E-03 0. -1.
         11    1    4    4    0    0 -0.65037606225E-02  0.16961046070E-01  0.40164661952E-01  0.44084432362E-01  0.51100000000E-03 0.  1.
</event>
<event>
 8    1  0.1044719E+005  0.1043930E+01  0.7957747E-01            NaN
         13   -1    0    0    0    0  0.00000000000E+00  0.00000000000E+00  0.74505805969E-08  0.10566000000E+00  0.10566000000E+00 0. -1.
     999900   -1    0    0    0    0 -0.00000000000E+00 -0.00000000000E+00 -0.74505805969E-08  0.93827000000E+00  0.93827000000E+00 0. -1.
     999902    2    1    2    0    0  0.11630320868E-01  0.22955578723E-02  0.30348788665E-01  0.10113480583E+01  0.10108230865E+01 0.  0.
     999903    2    3    3    0    0  0.88350045656E-01 -0.82332615287E-01  0.18287639027E-01  0.12388351527E+00  0.20695349884E-01 0.  0.
         14    1    1    2    0    0 -0.11630320868E-01 -0.22955578723E-02 -0.30348788665E-01  0.32581941668E-01  0.00000000000E+00 0.  1.
     999901    1    3    3    0    0 -0.76719724788E-01  0.84628173159E-01  0.12061149638E-01  0.88746454306E+00  0.88000000000E+00 0.  1.
        -11    1    4    4    0    0  0.28663657213E-01 -0.21012829205E-01 -0.30948875922E-02  0.35678896931E-01  0.51100000000E-03 0. -1.
         11    1    4    4    0    0  0.59686388443E-01 -0.61319786081E-01  0.21382526619E-01  0.88204618338E-01  0.51100000000E-03 0.  1.
</event>
<event>
 8    1  0.1044719E+005  0.1043930E+01  0.7957747E-01            NaN
         13   -1    0    0    0    0  0.00000000000E+00  0.00000000000E+00  0.74505805969E-08  0.10566000000E+00  0.10566000000E+00 0. -1.
     999900   -1    0    0    0    0 -0.00000000000E+00 -0.00000000000E+00 -0.74505805969E-08  0.93827000000E+00  0.93827000000E+00 0.  1.
     999902    2    1    2    0    0  0.10701088233E-01 -0.60097819843E-02 -0.20154584518E-01  0.10203325839E+01  0.10200596766E+01 0.  0.
     999903    2    3    3    0    0  0.76784531728E-01 -0.48673487773E-01 -0.95802453069E-01  0.13359146424E+00  0.20089713291E-01 0.  0.
         14    1    1    2    0    0 -0.10701088233E-01  0.60097819843E-02  0.20154584518E-01  0.23597416086E-01  0.00000000000E+00 0. -1.
     999901    1    3    3    0    0 -0.66083443496E-01  0.42663705788E-01  0.75647868552E-01  0.88674111967E+00  0.88000000000E+00 0. -1.
        -11    1    4    4    0    0  0.52263482010E-01 -0.43176863130E-01 -0.66149917690E-01  0.94719511152E-01  0.51100000000E-03 0.  1.
         11    1    4    4    0    0  0.24521049719E-01 -0.54966246428E-02 -0.29652535379E-01  0.38871953092E-01  0.51100000000E-03 0. -1.
</event>
<event>
 8    1  0.1044719E+005  0.1043930E+01  0.7957747E-01            NaN
         13   -1    0    0    0    0  0.00000000000E+00  0.00000000000E+00  0.74505805969E-08  0.10566000000E+00  0.10566000000E+00 0. -1.
     999900   -1    0    0    0    0 -0.00000000000E+00 -0.00000000000E+00 -0.74505805969E-08  0.93827000000E+00  0.93827000000E+00 0. -1.
     999902    2    1    2    0    0 -0.18336786060E-01 -0.70434049372E-02  0.17032497865E-01  0.10179308989E+01  0.10175988215E+01 0.  0.
     999903    2    3    3    0    0  0.40602914047E-01 -0.10589157560E+00 -0.53958155785E-01  0.12760257628E+00  0.22567952643E-01 0.  0.
         14    1    1    2    0    0  0.18336786060E-01  0.70434049372E-02 -0.17032497865E-01  0.25999101131E-01  0.00000000000E+00 0.  1.
     999901    1    3    3    0    0 -0.58939700107E-01  0.98848170662E-01  0.70990653649E-01  0.89032832259E+00  0.88000000000E+00 0.  1.
        -11    1    4    4    0    0  0.19441189662E-01 -0.48242922995E-01 -0.12468575958E-01  0.53488933266E-01  0.51100000000E-03 0.  1.
         11    1    4    4    0    0  0.21161724385E-01 -0.57648652605E-01 -0.41489579827E-01  0.74113643017E-01  0.51100000000E-03 0. -1.
</event>
<event>
 8    1  0.1044719E+005  0.1043930E+01  0.7957747E-01            NaN
         13   -1    0    0    0    0  0.00000000000E+00  0.00000000000E+00  0.74505805969E-08  0.10566000000E+00  0.10566000000E+00 0. -1.
     999900   -1    0    0    0    0 -0.00000000000E+00 -0.00000000000E+00 -0.74505805969E-08  0.93827000000E+00  0.93827000000E+00 0.  1.
     999902    2    1    2    0    0  0.21935943776E-01 -0.87329777530E-03 -0.91283888552E-02  0.10201544714E+01  0.10198773797E+01 0.  0.
     999903    2    3    3    0    0  0.75150692364E-01  0.10455233572E+00 -0.21795785323E-01  0.13217539696E+00  0.20407396595E-01 0.  0.
         14    1    1    2    0    0 -0.21935943776E-01  0.87329777530E-03  0.91283888552E-02  0.23775528626E-01  0.00000000000E+00 0.  1.
     999901    1    3    3    0    0 -0.53214748588E-01 -0.10542563350E+00  0.12667396468E-01  0.88797907441E+00  0.88000000000E+00 0.  1.
        -11    1    4    4    0    0  0.67188959594E-01  0.10092205803E+00 -0.17801374911E-01  0.12254292374E+00  0.51100000000E-03 0. -1.
         11    1    4    4    0    0  0.79617327703E-02  0.36302776907E-02 -0.39944104124E-02  0.96324732213E-02  0.51100000000E-03 0.  1.
</event>
<event>
 8    1  0.1044719E+005  0.1043930E+01  0.7957747E-01            NaN
         13   -1    0    0    0    0  0.00000000000E+00  0.00000000000E+00  0.74505805969E-08  0.10566000000E+00  0.10566000000E+00 0. -1.
     999900   -1    0    0    0    0 -0.00000000000E+00 -0.00000000000E+00 -0.74505805969E-08  0.93827000000E+00  0.93827000000E+00 0. -1.
     999902    2    1    2    0    0  0.17683257261E-02 -0.80113931954E-03 -0.23917024855E-01  0.10199343154E+01  0.10196520068E+01 0.  0.
     999903    2    3    3    0    0  0.16957783128E-01 -0.12765328756E+00 -0.92496513696E-02  0.13058774689E+00  0.19613142388E-01 0.  0.
         14    1    1    2    0    0 -0.17683257261E-02  0.80113931954E-03  0.23917024855E-01  0.23995684571E-01  0.00000000000E+00 0. -1.
     999901    1    3    3    0    0 -0.15189457402E-01  0.12685214824E+00 -0.14667373486E-01  0.88934656854E+00  0.88000000000E+00 0. -1.
        -11    1    4    4    0    0  0.33023132054E-02 -0.92252632252E-01 -0.66240702185E-02  0.92550488152E-01  0.51100000000E-03 0. -1.
         11    1    4    4    0    0  0.13655469923E-01 -0.35400655306E-01 -0.26255811512E-02  0.38037258737E-01  0.51100000000E-03 0.  1.
</event>
<event>
 8    1  0.1044719E+005  0.1043930E+01  0.7957747E-01            NaN
         13   -1    0    0    0    0  0.00000000000E+00  0.00000000000E+00  0.74505805969E-08  0.10566000000E+00  0.10566000000E+00 0. -1.
     999900   -1    0    0    0    0 -0.00000000000E+00 -0.00000000000E+00 -0.74505805969E-08  0.93827000000E+00  0.93827000000E+00 0.  1.
     999902    2    1    2    0    0  0.17315680749E-01  0.77100944912E-02 -0.12576821579E-01  0.10211823672E+01  0.10209289751E+01 0.  0.
     999903    2    3    3    0    0 -0.24735487386E-01 -0.69110404343E-01 -0.10796572820E+00  0.13170570461E+00  0.17369566438E-01 0.  0.
         14    1    1    2    0    0 -0.17315680749E-01 -0.77100944912E-02  0.12576821579E-01  0.22747632798E-01  0.00000000000E+00 0. -1.
     999901    1    3    3    0    0  0.42051168135E-01  0.76820498834E-01  0.95388906617E-01  0.88947666259E+00  0.88000000000E+00 0. -1.
        -11    1    4    4    0    0 -0.11935272316E-01 -0.32843133962E-01 -0.66653054949E-01  0.75259637447E-01  0.51100000000E-03 0.  1.
         11    1    4    4    0    0 -0.12800215070E-01 -0.36267270381E-01 -0.41312673248E-01  0.56446067167E-01  0.51100000000E-03 0. -1.
</event>
<event>
 8    1  0.1044719E+005  0.1043930E+01  0.7957747E-01            NaN
         13   -1    0    0    0    0  0.00000000000E+00  0.00000000000E+00  0.74505805969E-08  0.10566000000E+00  0.10566000000E+00 0.  1.
     999900   -1    0    0    0    0 -0.00000000000E+00 -0.00000000000E+00 -0.74505805969E-08  0.93827000000E+00  0.93827000000E+00 0.  1.
     999902    2    1    2    0    0  0.20787883126E-01  0.88613172440E-02  0.74497473478E-02  0.10201359301E+01  0.10198584010E+01 0.  0.
     999903    2    3    3    0    0  0.57256932471E-01  0.77140962148E-01  0.90342784490E-01  0.13285730581E+00  0.16129495975E-01 0.  0.
         14    1    1    2    0    0 -0.20787883126E-01 -0.88613172440E-02 -0.74497473478E-02  0.23794069927E-01  0.00000000000E+00 0. -1.
     999901    1    3    3    0    0 -0.36469049345E-01 -0.68279644904E-01 -0.82893037142E-01  0.88727862426E+00  0.88000000000E+00 0.  1.
        -11    1    4    4    0    0  0.30317536045E-01  0.27653845863E-01  0.36515316638E-01  0.54931936549E-01  0.51100000000E-03 0.  1.
         11    1    4    4    0    0  0.26939396426E-01  0.49487116284E-01  0.53827467852E-01  0.77925369260E-01  0.51100000000E-03 0. -1.
</event>
<event>
 8    1  0.1044719E+005  0.1043930E+01  0.7957747E-01            NaN
         13   -1    0    0    0    0  0.00000000000E+00  0.00000000000E+00  0.74505805969E-08  0.10566000000E+00  0.10566000000E+00 0. -1.
     999900   -1    0    0    0    0 -0.00000000000E+00 -0.00000000000E+00 -0.74505805969E-08  0.93827000000E+00  0.93827000000E+00 0.  1.
     999902    2    1    2    0    0 -0.11389394832E-01 -0.20607528451E-01  0.30624841067E-02  0.10201862144E+01  0.10199098709E+01 0.  0.
     999903    2    3    3    0    0  0.10881460930E+00 -0.46237123263E-01  0.50840409468E-01  0.13036117047E+00  0.20755644234E-01 0.  0.
         14    1    1    2    0    0  0.11389394832E-01  0.20607528451E-01 -0.30624841067E-02  0.23743785553E-01  0.00000000000E+00 0.  1.
     999901    1    3    3    0    0 -0.12020400413E+00  0.25629594812E-01 -0.47777925361E-01  0.88982504398E+00  0.88000000000E+00 0.  1.
        -11    1    4    4    0    0  0.46274600872E-01 -0.27775971204E-01  0.30792070682E-01  0.62139005465E-01  0.51100000000E-03 0. -1.
         11    1    4    4    0    0  0.62540008423E-01 -0.18461152058E-01  0.20048338786E-01  0.68222165004E-01  0.51100000000E-03 0.  1.
</event>
<event>
 8    1  0.1044719E+005  0.1043930E+01  0.7957747E-01            NaN
         13   -1    0    0    0    0  0.00000000000E+00  0.00000000000E+00  0.74505805969E-08  0.10566000000E+00  0.10566000000E+00 0. -1.
     999900   -1    0    0    0    0 -0.00000000000E+00 -0.00000000000E+00 -0.74505805969E-08  0.93827000000E+00  0.93827000000E+00 0. -1.
     999902    2    1    2    0    0 -0.22951016139E-01  0.28156562702E-02 -0.58872019603E-02  0.10200692329E+01  0.10197901272E+01 0.  0.
     999903    2    3    3    0    0  0.42562679001E-01 -0.11381942623E+00 -0.38243393335E-01  0.12937135487E+00  0.22537677234E-01 0.  0.
         14    1    1    2    0    0  0.22951016139E-01 -0.28156562702E-02  0.58872019603E-02  0.23860767149E-01  0.00000000000E+00 0.  1.
     999901    1    3    3    0    0 -0.65513695140E-01  0.11663508250E+00  0.32356191375E-01  0.89069787798E+00  0.88000000000E+00 0. -1.
        -11    1    4    4    0    0  0.57776578380E-02 -0.42699977865E-01 -0.82972140346E-02  0.43883645262E-01  0.51100000000E-03 0.  1.
         11    1    4    4    0    0  0.36785021163E-01 -0.71119448368E-01 -0.29946179300E-01  0.85487709607E-01  0.51100000000E-03 0. -1.
</event>
<event>
 8    1  0.1044719E+005  0.1043930E+01  0.7957747E-01            NaN
         13   -1    0    0    0    0  0.00000000000E+00  0.00000000000E+00  0.74505805969E-08  0.10566000000E+00  0.10566000000E+00 0. -1.
     999900   -1    0    0    0    0 -0.00000000000E+00 -0.00000000000E+00 -0.74505805969E-08  0.93827000000E+00  0.93827000000E+00 0. -1.
     999902    2    1    2    0    0 -0.46484697838E-02  0.32431238641E-01 -0.82623335863E-02  0.10101415454E+01  0.10095762883E+01 0.  0.
     999903    2    3    3    0    0  0.62710119484E-01 -0.97938920632E-01 -0.27716589495E-02  0.11797356482E+00  0.19633864702E-01 0.  0.
         14    1    1    2    0    0  0.46484697838E-02 -0.32431238641E-01  0.82623335863E-02  0.33788454647E-01  0.00000000000E+00 0.  1.
     999901    1    3    3    0    0 -0.67358589268E-01  0.13037015927E+00 -0.54906746368E-02  0.89216798053E+00  0.88000000000E+00 0. -1.
        -11    1    4    4    0    0  0.34071712263E-01 -0.70037223813E-01 -0.37224242355E-02  0.77975713264E-01  0.51100000000E-03 0. -1.
         11    1    4    4    0    0  0.28638407222E-01 -0.27901696819E-01  0.95076528596E-03  0.39997851558E-01  0.51100000000E-03 0.  1.
</event>
<event>
 8    1  0.1044719E+005  0.1043930E+01  0.7957747E-01            NaN
         13   -1    0    0    0    0  0.00000000000E+00  0.00000000000E+00  0.74505805969E-08  0.10566000000E+00  0.10566000000E+00 0.  1.
     999900   -1    0    0    0    0 -0.00000000000E+00 -0.00000000000E+00 -0.74505805969E-08  0.93827000000E+00  0.93827000000E+00 0. -1.
     999902    2    1    2    0    0  0.12585515831E-01  0.19658803698E-01 -0.44953368665E-02  0.10201587605E+01  0.10198817701E+01 0.  0.
     999903    2    3    3    0    0  0.83877402762E-01 -0.15456643050E-01  0.96945299514E-01  0.13077367497E+00  0.20713195263E-01 0.  0.
         14    1    1    2    0    0 -0.12585515831E-01 -0.19658803698E-01  0.44953368665E-02  0.23771239453E-01  0.00000000000E+00 0. -1.
     999901    1    3    3    0    0 -0.71291886931E-01  0.35115446749E-01 -0.10144063638E+00  0.88938508558E+00  0.88000000000E+00 0. -1.
        -11    1    4    4    0    0  0.31042961514E-01  0.42328797639E-02  0.32570217708E-01  0.45195828715E-01  0.51100000000E-03 0. -1.
         11    1    4    4    0    0  0.52834441248E-01 -0.19689522814E-01  0.64375081806E-01  0.85577846252E-01  0.51100000000E-03 0.  1.
</event>
<event>
 8    1  0.1044719E+005  0.1043930E+01  0.7957747E-01            NaN
         13   -1    0    0    0    0  0.00000000000E+00  0.00000000000E+00  0.74505805969E-08  0.10566000000E+00  0.10566000000E+00 0.  1.
     999900   -1    0    0    0    0 -0.00000000000E+00 -0.00000000000E+00 -0.74505805969E-08  0.93827000000E+00  0.93827000000E+00 0.  1.
     999902    2    1    2    0    0  0.36891814361E-02 -0.52210493870E-02 -0.22838308195E-01  0.10202138085E+01  0.10199381145E+01 0.  0.
     999903    2    3    3    0    0  0.11645106343E+00 -0.55537679317E-01  0.11776975297E-01  0.13091901875E+00  0.18862882216E-01 0.  0.
         14    1    1    2    0    0 -0.36891814361E-02  0.52210493870E-02  0.22838308195E-01  0.23716191465E-01  0.00000000000E+00 0.  1.
     999901    1    3    3    0    0 -0.11276188200E+00  0.50316629930E-01 -0.34615283492E-01  0.88929478978E+00  0.88000000000E+00 0.  1.
        -11    1    4    4    0    0  0.71491923553E-01 -0.41466792012E-01  0.13654246744E-01  0.83769263744E-01  0.51100000000E-03 0. -1.
         11    1    4    4    0    0  0.44959139882E-01 -0.14070887305E-01 -0.18772714469E-02  0.47149755010E-01  0.51100000000E-03 0.  1.
</event>
<event>
 8    1  0.1044719E+005  0.1043930E+01  0.7957747E-01            NaN
         13   -1    0    0    0    0  0.00000000000E+00  0.00000000000E+00  0.74505805969E-08  0.10566000000E+00  0.10566000000E+00 0.  1.
     999900   -1    0    0    0    0 -0.00000000000E+00 -0.00000000000E+00 -0.74505805969E-08  0.93827000000E+00  0.93827000000E+00 0. -1.
     999902    2    1    2    0    0  0.17346626642E-01 -0.18282159005E-02 -0.14984229292E-01  0.10209348928E+01  0.10206758939E+01 0.  0.
     999903    2    3    3    0    0 -0.30554468498E-01  0.72351866529E-01  0.10028476185E+00  0.12903571693E+00  0.20611032197E-01 0.  0.
         14    1    1    2    0    0 -0.17346626642E-01  0.18282159005E-02  0.14984229292E-01  0.22995107234E-01  0.00000000000E+00 0. -1.
     999901    1    3    3    0    0  0.47901095140E-01 -0.74180082429E-01 -0.11526899114E+00  0.89189917584E+00  0.88000000000E+00 0.  1.
        -11    1    4    4    0    0 -0.26113027765E-01  0.50097387060E-01  0.57551180580E-01  0.80647615690E-01  0.51100000000E-03 0. -1.
         11    1    4    4    0    0 -0.44414407323E-02  0.22254479469E-01  0.42733581268E-01  0.48388101236E-01  0.51100000000E-03 0.  1.
</event>
<event>
 8    1  0.1044719E+005  0.1043930E+01  0.7957747E-01            NaN
         13   -1    0    0    0    0  0.00000000000E+00  0.00000000000E+00  0.74505805969E-08  0.10566000000E+00  0.10566000000E+00 0. -1.
     999900   -1    0    0    0    0 -0.00000000000E+00 -0.00000000000E+00 -0.74505805969E-08  0.93827000000E+00  0.93827000000E+00 0.  1.
     999902    2    1    2    0    0  0.74963734392E-02  0.17714745320E-01 -0.14406360732E-01  0.10198977083E+01  0.10196145273E+01 0.  0.
     999903    2    3    3    0    0  0.44000569682E-01  0.24719549323E-01 -0.12084133354E+00  0.13270549287E+00  0.21471229483E-01 0.  0.
         14    1    1    2    0    0 -0.74963734392E-02 -0.17714745320E-01  0.14406360732E-01  0.24032291735E-01  0.00000000000E+00 0.  1.
     999901    1    3    3    0    0 -0.36504196243E-01 -0.70048040028E-02  0.10643497281E+00  0.88719221540E+00  0.88000000000E+00 0. -1.
        -11    1    4    4    0    0  0.13844474038E-02  0.31594184340E-02 -0.28792832125E-01  0.29003222618E-01  0.51100000000E-03 0.  1.
         11    1    4    4    0    0  0.42616122279E-01  0.21560130889E-01 -0.92048501412E-01  0.10370227025E+00  0.51100000000E-03 0. -1.
</event>
<event>
 8    1  0.1044719E+005  0.1043930E+01  0.7957747E-01            NaN
         13   -1    0    0    0    0  0.00000000000E+00  0.00000000000E+00  0.74505805969E-08  0.10566000000E+00  0.10566000000E+00 0. -1.
     999900   -1    0    0    0    0 -0.00000000000E+00 -0.00000000000E+00 -0.74505805969E-08  0.93827000000E+00  0.93827000000E+00 0.  1.
     999902    2    1    2    0    0 -0.21253508342E-01  0.91674731259E-02  0.56887766315E-02  0.10200948084E+01  0.10198163078E+01 0.  0.
     999903    2    3    3    0    0  0.69695196765E-01 -0.10123529505E+00  0.30301409240E-01  0.12820567857E+00  0.20310470168E-01 0.  0.
         14    1    1    2    0    0  0.21253508342E-01 -0.91674731259E-02 -0.56887766315E-02  0.23835191627E-01  0.00000000000E+00 0. -1.
     999901    1    3    3    0    0 -0.90948705107E-01  0.11040276818E+00 -0.24612632609E-01  0.89188912981E+00  0.88000000000E+00 0. -1.
        -11    1    4    4    0    0  0.34842770125E-01 -0.41825261591E-01  0.22422548694E-01  0.58876166215E-01  0.51100000000E-03 0.  1.
         11    1    4    4    0    0  0.34852426640E-01 -0.59410033461E-01  0.78788605456E-02  0.69329512352E-01  0.51100000000E-03 0. -1.
</event>
<event>
 8    1  0.1044719E+005  0.1043930E+01  0.7957747E-01            NaN
         13   -1    0    0    0    0  0.00000000000E+00  0.00000000000E+00  0.74505805969E-08  0.10566000000E+00  0.10566000000E+00 0. -1.
     999900   -1    0    0    0    0 -0.00000000000E+00 -0.00000000000E+00 -0.74505805969E-08  0.93827000000E+00  0.93827000000E+00 0.  1.
     999902    2    1    2    0    0  0.12302491758E-01 -0.17953990329E-01 -0.81674060017E-02  0.10206834176E+01  0.10204186569E+01 0.  0.
     999903    2    3    3    0    0 -0.45899188354E-01 -0.91043181480E-01 -0.84354413882E-01  0.13246389204E+00  0.59514004291E-02 0.  0.
         14    1    1    2    0    0 -0.12302491758E-01  0.17953990329E-01  0.81674060017E-02  0.23246582393E-01  0.00000000000E+00 0. -1.
     999901    1    3    3    0    0  0.58201680112E-01  0.73089191152E-01  0.76187007880E-01  0.88821952557E+00  0.88000000000E+00 0. -1.
        -11    1    4    4    0    0 -0.15355187870E-01 -0.25371820287E-01 -0.22785267953E-01  0.37402414573E-01  0.51100000000E-03 0. -1.
         11    1    4    4    0    0 -0.30544000484E-01 -0.65671361193E-01 -0.61569145929E-01  0.95061477465E-01  0.51100000000E-03 0.  1.
</event>
<event>
 8    1  0.1044719E+005  0.1043930E+01  0.7957747E-01            NaN
         13   -1    0    0    0    0  0.00000000000E+00  0.00000000000E+00  0.74505805969E-08  0.10566000000E+00  0.10566000000E+00 0. -1.
     999900   -1    0    0    0    0 -0.00000000000E+00 -0.00000000000E+00 -0.74505805969E-08  0.93827000000E+00  0.93827000000E+00 0. -1.
     999902    2    1    2    0    0  0.27292488164E-01 -0.32109083976E-02  0.48756185115E-02  0.10160201183E+01  0.10156367063E+01 0.  0.
     999903    2    3    3    0    0 -0.46701883016E-01  0.62448067570E-01  0.96492462024E-01  0.12575054442E+00  0.20532344570E-01 0.  0.
         14    1    1    2    0    0 -0.27292488164E-01  0.32109083976E-02 -0.48756185115E-02  0.27909881741E-01  0.00000000000E+00 0.  1.
     999901    1    3    3    0    0  0.73994371181E-01 -0.65658975968E-01 -0.91616843512E-01  0.89026957384E+00  0.88000000000E+00 0. -1.
        -11    1    4    4    0    0 -0.70210759072E-04  0.12127828112E-02  0.95146423655E-02  0.96054834361E-02  0.51100000000E-03 0.  1.
         11    1    4    4    0    0 -0.46631672257E-01  0.61235284759E-01  0.86977819658E-01  0.11614506098E+00  0.51100000000E-03 0. -1.
</event>
<event>
 8    1  0.1044719E+005  0.1043930E+01  0.7957747E-01            NaN
         13   -1    0    0    0    0  0.00000000000E+00  0.00000000000E+00  0.74505805969E-08  0.10566000000E+00  0.10566000000E+00 0.  1.
     999900   -1    0    0    0    0 -0.00000000000E+00 -0.00000000000E+00 -0.74505805969E-08  0.93827000000E+00  0.93827000000E+00 0. -1.
     999902    2    1    2    0    0  0.62679590311E-02  0.22544727883E-01 -0.44360965006E-03  0.10205259650E+01  0.10202575637E+01 0.  0.
     999903    2    3    3    0    0  0.53704026646E-01 -0.70081183668E-01  0.92595590981E-01  0.12952314071E+00  0.20169425578E-01 0.  0.
         14    1    1    2    0    0 -0.62679590311E-02 -0.22544727883E-01  0.44360965006E-03  0.23404035020E-01  0.00000000000E+00 0.  1.
     999901    1    3    3    0    0 -0.47436067614E-01  0.92625911550E-01 -0.93039200631E-01  0.89100282427E+00  0.88000000000E+00 0. -1.
        -11    1    4    4    0    0  0.21273959919E-01 -0.44206908170E-01  0.51305605337E-01  0.70988438217E-01  0.51100000000E-03 0.  1.
         11    1    4    4    0    0  0.32430066727E-01 -0.25874275498E-01  0.41289985644E-01  0.58534702493E-01  0.51100000000E-03 0. -1.
</event>
<event>
 8    1  0.1044719E+005  0.1043930E+01  0.7957747E-01            NaN
         13   -1    0    0    0    0  0.00000000000E+00  0.00000000000E+00  0.74505805969E-08  0.10566000000E+00  0.10566000000E+00 0.  1.
     999900   -1    0    0    0    0 -0.00000000000E+00 -0.00000000000E+00 -0.74505805969E-08  0.93827000000E+00  0.93827000000E+00 0.  1.
     999902    2    1    2    0    0  0.20180978950E-01  0.52986350614E-02  0.12218765160E-01  0.10197505528E+01  0.10194638514E+01 0.  0.
     999903    2    3    3    0    0  0.51613594261E-01  0.10038591493E+00 -0.63192670547E-01  0.13086558570E+00  0.19778596532E-01 0.  0.
         14    1    1    2    0    0 -0.20180978950E-01 -0.52986350614E-02 -0.12218765160E-01  0.24179447201E-01  0.00000000000E+00 0. -1.
     999901    1    3    3    0    0 -0.31432615311E-01 -0.95087279869E-01  0.75411435707E-01  0.88888496710E+00  0.88000000000E+00 0. -1.
        -11    1    4    4    0    0  0.22106143544E-01  0.35503752664E-01 -0.13411297537E-01  0.43924048746E-01  0.51100000000E-03 0. -1.
         11    1    4    4    0    0  0.29507450717E-01  0.64882162267E-01 -0.49781373010E-01  0.86941536954E-01  0.51100000000E-03 0.  1.
</event>
<event>
 8    1  0.1044719E+005  0.1043930E+01  0.7957747E-01            NaN
         13   -1    0    0    0    0  0.00000000000E+00  0.00000000000E+00  0.74505805969E-08  0.10566000000E+00  0.10566000000E+00 0.  1.
     999900   -1    0    0    0    0 -0.00000000000E+00 -0.00000000000E+00 -0.74505805969E-08  0.93827000000E+00  0.93827000000E+00 0.  1.
     999902    2    1    2    0    0  0.17729923655E-01  0.14719174367E-01 -0.37221361244E-02  0.10205877939E+01  0.10203208253E+01 0.  0.
     999903    2    3    3    0    0  0.12581315889E+00  0.12623018669E-02 -0.38786273497E-01  0.13318001456E+00  0.20049860653E-01 0.  0.
         14    1    1    2    0    0 -0.17729923655E-01 -0.14719174367E-01  0.37221361244E-02  0.23342206069E-01  0.00000000000E+00 0. -1.
     999901    1    3    3    0    0 -0.10808323523E+00  0.13456872500E-01  0.35064137372E-01  0.88740777937E+00  0.88000000000E+00 0.  1.
        -11    1    4    4    0    0  0.54557898901E-01 -0.81226462897E-02 -0.21904169066E-01  0.59351457090E-01  0.51100000000E-03 0.  1.
         11    1    4    4    0    0  0.71255259985E-01  0.93849481566E-02 -0.16882104430E-01  0.73828557472E-01  0.51100000000E-03 0. -1.
</event>
<event>
 8    1  0.1044719E+005  0.1043930E+01  0.7957747E-01            NaN
         13   -1    0    0    0    0  0.00000000000E+00  0.00000000000E+00  0.74505805969E-08  0.10566000000E+00  0.10566000000E+00 0. -1.
     999900   -1    0    0    0    0 -0.00000000000E+00 -0.00000000000E+00 -0.74505805969E-08  0.93827000000E+00  0.93827000000E+00 0. -1.
     999902    2    1    2    0    0  0.19936409342E-01 -0.12860188233E-01  0.58093100891E-03  0.10201985369E+01  0.10199224835E+01 0.  0.
     999903    2    3    3    0    0 -0.47720099171E-01  0.45112409907E-01 -0.10914945566E+00  0.12891912897E+00  0.19854489456E-01 0.  0.
         14    1    1    2    0    0 -0.19936409342E-01  0.12860188233E-01 -0.58093100891E-03  0.23731463075E-01  0.00000000000E+00 0. -1.
     999901    1    3    3    0    0  0.67656508513E-01 -0.57972598140E-01  0.10973038667E+00  0.89127940795E+00  0.88000000000E+00 0.  1.
        -11    1    4    4    0    0 -0.29096348167E-01  0.26388982610E-01 -0.46144924382E-01  0.60601906299E-01  0.51100000000E-03 0.  1.
         11    1    4    4    0    0 -0.18623751004E-01  0.18723427297E-01 -0.63004531280E-01  0.68317222675E-01  0.51100000000E-03 0. -1.
</event>
<event>
 8    1  0.1044719E+005  0.1043930E+01  0.7957747E-01            NaN
         13   -1    0    0    0    0  0.00000000000E+00  0.00000000000E+00  0.74505805969E-08  0.10566000000E+00  0.10566000000E+00 0. -1.
     999900   -1    0    0    0    0 -0.00000000000E+00 -0.00000000000E+00 -0.74505805969E-08  0.93827000000E+00  0.93827000000E+00 0.  1.
     999902    2    1    2    0    0  0.64801118957E-02 -0.16875913097E-01  0.13733207101E-01  0.10212278135E+01  0.10209754443E+01 0.  0.
     999903    2    3    3    0    0  0.55061640830E-01  0.11557966798E+00 -0.71541301899E-02  0.12974538142E+00  0.19805011470E-01 0.  0.
         14    1    1    2    0    0 -0.64801118957E-02  0.16875913097E-01 -0.13733207101E-01  0.22702186465E-01  0.00000000000E+00 0.  1.
     999901    1    3    3    0    0 -0.48581528934E-01 -0.13245558108E+00  0.20887337291E-01  0.89148243212E+00  0.88000000000E+00 0.  1.
        -11    1    4    4    0    0  0.46269718564E-01  0.88934413793E-01 -0.12965608583E-01  0.10108701667E+00  0.51100000000E-03 0.  1.
         11    1    4    4    0    0  0.87919222662E-02  0.26645254188E-01  0.58114783930E-02  0.28658364747E-01  0.51100000000E-03 0. -1.
</event>
<event>
 7    1  0.1044719E+005  0.1043930E+01  0.7957747E-01            NaN
         13   -1    0    0    0    0  0.00000000000E+00  0.00000000000E+00  0.74505805969E-08  0.10566000000E+00  0.10566000000E+00 0.  1.
     999900   -1    0    0    0    0 -0.00000000000E+00 -0.00000000000E+00 -0.74505805969E-08  0.93827000000E+00  0.93827000000E+00 0. -1.
     999903    2    1    2    0    0  0.53795252836E-01 -0.22383802013E-01  0.88265345605E-01  0.10777841408E+00  0.20747324817E-01 0.  0.
         14    1    1    2    0    0  0.14226524227E-01  0.32153060384E-01  0.29182835099E-01  0.45693009838E-01  0.00000000000E+00 0.  1.
     999901    1    1    2    0    0 -0.68021777063E-01 -0.97692583706E-02 -0.11744818070E+00  0.89045857608E+00  0.88000000000E+00 0. -1.
        -11    1    3    3    0    0  0.40958168938E-01 -0.24766137307E-01  0.60951892067E-01  0.77500499530E-01  0.51100000000E-03 0. -1.
         11    1    3    3    0    0  0.12837083898E-01  0.23823352940E-02  0.27313453538E-01  0.30277914552E-01  0.51100000000E-03 0.  1.
</event>
<event>
 8    1  0.1044719E+005  0.1043930E+01  0.7957747E-01            NaN
         13   -1    0    0    0    0  0.00000000000E+00  0.00000000000E+00  0.74505805969E-08  0.10566000000E+00  0.10566000000E+00 0.  1.
     999900   -1    0    0    0    0 -0.00000000000E+00 -0.00000000000E+00 -0.74505805969E-08  0.93827000000E+00  0.93827000000E+00 0. -1.
     999902    2    1    2    0    0 -0.20064724157E-01 -0.13113880550E-01  0.44686000249E-02  0.10195469033E+01  0.10192552932E+01 0.  0.
     999903    2    3    3    0    0 -0.58181059379E-02 -0.12982411920E+00  0.42172159678E-02  0.13172692767E+00  0.21119807748E-01 0.  0.
         14    1    1    2    0    0  0.20064724157E-01  0.13113880550E-01 -0.44686000249E-02  0.24383096702E-01  0.00000000000E+00 0. -1.
     999901    1    3    3    0    0 -0.14246618219E-01  0.11671023865E+00  0.25138405706E-03  0.88781997563E+00  0.88000000000E+00 0. -1.
        -11    1    4    4    0    0  0.51578470781E-02 -0.76498393125E-01  0.83347680619E-02  0.77125462830E-01  0.51100000000E-03 0. -1.
         11    1    4    4    0    0 -0.10975953016E-01 -0.53325726075E-01 -0.41175520941E-02  0.54601464837E-01  0.51100000000E-03 0.  1.
</event>
<event>
 8    1  0.1044719E+005  0.1043930E+01  0.7957747E-01            NaN
         13   -1    0    0    0    0  0.00000000000E+00  0.00000000000E+00  0.74505805969E-08  0.10566000000E+00  0.10566000000E+00 0. -1.
     999900   -1    0    0    0    0 -0.00000000000E+00 -0.00000000000E+00 -0.74505805969E-08  0.93827000000E+00  0.93827000000E+00 0. -1.
     999902    2    1    2    0    0  0.23677804508E-01 -0.31790627100E-02 -0.74213249851E-02  0.10189135868E+01  0.10186064384E+01 0.  0.
     999903    2    3    3    0    0  0.10690121503E-01  0.11297192996E+00  0.57612737150E-01  0.12880732220E+00  0.19878710015E-01 0.  0.
         14    1    1    2    0    0 -0.23677804508E-01  0.31790627100E-02  0.74213249851E-02  0.25016413224E-01  0.00000000000E+00 0. -1.
     999901    1    3    3    0    0  0.12987683006E-01 -0.11615099267E+00 -0.65034062135E-01  0.89010626458E+00  0.88000000000E+00 0.  1.
        -11    1    4    4    0    0 -0.16205608338E-03  0.65886537514E-01  0.24820212576E-01  0.70408565964E-01  0.51100000000E-03 0.  1.
         11    1    4    4    0    0  0.10852177586E-01  0.47085392449E-01  0.32792524574E-01  0.58398756231E-01  0.51100000000E-03 0. -1.
</event>
<event>
 8    1  0.1044719E+005  0.1043930E+01  0.7957747E-01            NaN
         13   -1    0    0    0    0  0.00000000000E+00  0.00000000000E+00  0.74505805969E-08  0.10566000000E+00  0.10566000000E+00 0. -1.
     999900   -1    0    0    0    0 -0.00000000000E+00 -0.00000000000E+00 -0.74505805969E-08  0.93827000000E+00  0.93827000000E+00 0. -1.
     999902    2    1    2    0    0  0.16290767888E-01  0.12369802060E-01  0.11599476572E-01  0.10204151328E+01  0.10201441537E+01 0.  0.
     999903    2    3    3    0    0  0.20796287822E-02 -0.17202670645E-01  0.12942438503E+00  0.13195624426E+00  0.19013737855E-01 0.  0.
         14    1    1    2    0    0 -0.16290767888E-01 -0.12369802060E-01 -0.11599476572E-01  0.23514867172E-01  0.00000000000E+00 0.  1.
     999901    1    3    3    0    0  0.14211139106E-01  0.29572472705E-01 -0.11782490846E+00  0.88845888856E+00  0.88000000000E+00 0. -1.
        -11    1    4    4    0    0 -0.12181298537E-02  0.35246072506E-02  0.36303515874E-01  0.36498124369E-01  0.51100000000E-03 0. -1.
         11    1    4    4    0    0  0.32977586358E-02 -0.20727277895E-01  0.93120869153E-01  0.95458119894E-01  0.51100000000E-03 0.  1.
</event>
<event>
 8    1  0.1044719E+005  0.1043930E+01  0.7957747E-01            NaN
         13   -1    0    0    0    0  0.00000000000E+00  0.00000000000E+00  0.74505805969E-08  0.10566000000E+00  0.10566000000E+00 0. -1.
     999900   -1    0    0    0    0 -0.00000000000E+00 -0.00000000000E+00 -0.74505805969E-08  0.93827000000E+00  0.93827000000E+00 0. -1.
     999902    2    1    2    0    0 -0.19667655202E-01 -0.50495661528E-02  0.11658368069E-01  0.10205156385E+01  0.10202469976E+01 0.  0.
     999903    2    3    3    0    0  0.11195163196E-01  0.10763156569E+00 -0.68205495341E-01  0.12920885195E+00  0.18249718201E-01 0.  0.
         14    1    1    2    0    0  0.19667655202E-01  0.50495661528E-02 -0.11658368069E-01  0.23414361522E-01  0.00000000000E+00 0.  1.
     999901    1    3    3    0    0 -0.30862818397E-01 -0.11268113185E+00  0.79863863410E-01  0.89130678653E+00  0.88000000000E+00 0.  1.
        -11    1    4    4    0    0  0.21184233040E-02  0.56817485110E-01 -0.25960709458E-01  0.62505470865E-01  0.51100000000E-03 0. -1.
         11    1    4    4    0    0  0.90767398915E-02  0.50814080584E-01 -0.42244785883E-01  0.66703381083E-01  0.51100000000E-03 0.  1.
</event>
<event>
 8    1  0.1044719E+005  0.1043930E+01  0.7957747E-01            NaN
         13   -1    0    0    0    0  0.00000000000E+00  0.00000000000E+00  0.74505805969E-08  0.10566000000E+00  0.10566000000E+00 0.  1.
     999900   -1    0    0    0    0 -0.00000000000E+00 -0.00000000000E+00 -0.74505805969E-08  0.93827000000E+00  0.93827000000E+00 0. -1.
     999902    2    1    2    0    0 -0.67817437768E-02 -0.19154275642E-02  0.22708723403E-01  0.10201529726E+01  0.10198758457E+01 0.  0.
     999903    2    3    3    0    0 -0.12512398024E+00 -0.23835392201E-01 -0.21577463617E-01  0.13085738841E+00  0.20831054033E-01 0.  0.
         14    1    1    2    0    0  0.67817437768E-02  0.19154275642E-02 -0.22708723403E-01  0.23777027358E-01  0.00000000000E+00 0. -1.
     999901    1    3    3    0    0  0.11834223646E+00  0.21919964637E-01  0.44286187019E-01  0.88929558424E+00  0.88000000000E+00 0. -1.
        -11    1    4    4    0    0 -0.20918753540E-01 -0.26270617694E-02  0.40396092811E-02  0.21472663257E-01  0.51100000000E-03 0.  1.
         11    1    4    4    0    0 -0.10420522670E+00 -0.21208330431E-01 -0.25617072898E-01  0.10938472515E+00  0.51100000000E-03 0. -1.
</event>
<event>
 8    1  0.1044719E+005  0.1043930E+01  0.7957747E-01            NaN
         13   -1    0    0    0    0  0.00000000000E+00  0.00000000000E+00  0.74505805969E-08  0.10566000000E+00  0.10566000000E+00 0. -1.
     999900   -1    0    0    0    0 -0.00000000000E+00 -0.00000000000E+00 -0.74505805969E-08  0.93827000000E+00  0.93827000000E+00 0.  1.
     999902    2    1    2    0    0  0.45782598912E-02 -0.23546557789E-01 -0.16524903715E-02  0.10198856333E+01  0.10196021643E+01 0.  0.
     999903    2    3    3    0    0  0.37205321522E-01 -0.53407183243E-01 -0.11312420076E+00  0.13175156437E+00  0.18022950558E-01 0.  0.
         14    1    1    2    0    0 -0.45782598912E-02  0.23546557789E-01  0.16524903715E-02  0.24044366737E-01  0.00000000000E+00 0. -1.
     999901    1    3    3    0    0 -0.32627061631E-01  0.29860625453E-01  0.11147171039E+00  0.88813406889E+00  0.88000000000E+00 0. -1.
        -11    1    4    4    0    0  0.64991274414E-02 -0.18985101926E-01 -0.23149037740E-01  0.30640036258E-01  0.51100000000E-03 0.  1.
         11    1    4    4    0    0  0.30706194080E-01 -0.34422081317E-01 -0.89975163017E-01  0.10111152812E+00  0.51100000000E-03 0. -1.
</event>
<event>
 8    1  0.1044719E+005  0.1043930E+01  0.7957747E-01            NaN
         13   -1    0    0    0    0  0.00000000000E+00  0.00000000000E+00  0.74505805969E-08  0.10566000000E+00  0.10566000000E+00 0. -1.
     999900   -1    0    0    0    0 -0.00000000000E+00 -0.00000000000E+00 -0.74505805969E-08  0.93827000000E+00  0.93827000000E+00 0. -1.
     999902    2    1    2    0    0  0.21341298991E-01  0.91186403100E-02  0.31528165357E-02  0.10205090501E+01  0.10202402562E+01 0.  0.
     999903    2    3    3    0    0  0.35721446792E-01  0.11592566758E+00  0.49802002892E-01  0.13270801587E+00  0.20405779068E-01 0.  0.
         14    1    1    2    0    0 -0.21341298991E-01 -0.91186403100E-02 -0.31528165357E-02  0.23420949935E-01  0.00000000000E+00 0.  1.
     999901    1    3    3    0    0 -0.14380147800E-01 -0.10680702727E+00 -0.46649186356E-01  0.88780103419E+00  0.88000000000E+00 0. -1.
        -11    1    4    4    0    0  0.28745197513E-01  0.96857209500E-01  0.32813737944E-01  0.10622903525E+00  0.51100000000E-03 0. -1.
         11    1    4    4    0    0  0.69762492790E-02  0.19068458083E-01  0.16988264948E-01  0.26478980619E-01  0.51100000000E-03 0.  1.
</event>
<event>
 8    1  0.1044719E+005  0.1043930E+01  0.7957747E-01            NaN
         13   -1    0    0    0    0  0.00000000000E+00  0.00000000000E+00  0.74505805969E-08  0.10566000000E+00  0.10566000000E+00 0. -1.
     999900   -1    0    0    0    0 -0.00000000000E+00 -0.00000000000E+00 -0.74505805969E-08  0.93827000000E+00  0.93827000000E+00 0.  1.
     999902    2    1    2    0    0  0.17122753216E-02  0.18610834712E-02  0.25497643519E-01  0.10183072495E+01  0.10179848373E+01 0.  0.
     999903    2    3    3    0    0  0.26948762072E-01  0.26190789459E-01  0.12501336098E+00  0.13200470923E+00  0.19614015516E-01 0.  0.
         14    1    1    2    0    0 -0.17122753216E-02 -0.18610834712E-02 -0.25497643519E-01  0.25622750506E-01  0.00000000000E+00 0.  1.
     999901    1    3    3    0    0 -0.25236486750E-01 -0.24329705988E-01 -0.99515717464E-01  0.88630254026E+00  0.88000000000E+00 0.  1.
        -11    1    4    4    0    0  0.14301364663E-01  0.20555638748E-01  0.10293918683E+00  0.10594244014E+00  0.51100000000E-03 0. -1.
         11    1    4    4    0    0  0.12647397409E-01  0.56351507111E-02  0.22074174149E-01  0.26062269090E-01  0.51100000000E-03 0.  1.
</event>
<event>
 8    1  0.1044719E+005  0.1043930E+01  0.7957747E-01            NaN
         13   -1    0    0    0    0  0.00000000000E+00  0.00000000000E+00  0.74505805969E-08  0.10566000000E+00  0.10566000000E+00 0. -1.
     999900   -1    0    0    0    0 -0.00000000000E+00 -0.00000000000E+00 -0.74505805969E-08  0.93827000000E+00  0.93827000000E+00 0. -1.
     999902    2    1    2    0    0 -0.33739005509E-03 -0.14769215111E-01  0.18291065508E-01  0.10204181599E+01  0.10201472514E+01 0.  0.
     999903    2    3    3    0    0 -0.95073672899E-02  0.12601832087E+00  0.17491255269E-01  0.12917977515E+00  0.20259888188E-01 0.  0.
         14    1    1    2    0    0  0.33739005509E-03  0.14769215111E-01 -0.18291065508E-01  0.23511840091E-01  0.00000000000E+00 0.  1.
     999901    1    3    3    0    0  0.91699772348E-02 -0.14078753598E+00  0.79981023942E-03  0.89123838476E+00  0.88000000000E+00 0.  1.
        -11    1    4    4    0    0  0.55568489991E-02  0.53766737051E-01  0.45494802725E-02  0.54246654051E-01  0.51100000000E-03 0.  1.
         11    1    4    4    0    0 -0.15064216289E-01  0.72251583819E-01  0.12941774997E-01  0.74933121100E-01  0.51100000000E-03 0. -1.
</event>
<event>
 8    1  0.1044719E+005  0.1043930E+01  0.7957747E-01            NaN
         13   -1    0    0    0    0  0.00000000000E+00  0.00000000000E+00  0.74505805969E-08  0.10566000000E+00  0.10566000000E+00 0. -1.
     999900   -1    0    0    0    0 -0.00000000000E+00 -0.00000000000E+00 -0.74505805969E-08  0.93827000000E+00  0.93827000000E+00 0.  1.
     999902    2    1    2    0    0  0.52462476638E-02  0.73088069622E-02 -0.20085143580E-01  0.10219219386E+01  0.10216849288E+01 0.  0.
     999903    2    3    3    0    0  0.22807215061E-01 -0.11669741250E+00 -0.54530208173E-01  0.13238700814E+00  0.20354880958E-01 0.  0.
         14    1    1    2    0    0 -0.52462476638E-02 -0.73088069622E-02  0.20085143580E-01  0.22008061395E-01  0.00000000000E+00 0. -1.
     999901    1    3    3    0    0 -0.17560967397E-01  0.12400621946E+00  0.34445064594E-01  0.88953493046E+00  0.88000000000E+00 0.  1.
        -11    1    4    4    0    0  0.21578758819E-01 -0.57583285002E-01 -0.26950103963E-01  0.67141989607E-01  0.51100000000E-03 0. -1.
         11    1    4    4    0    0  0.12284562417E-02 -0.59114127495E-01 -0.27580104211E-01  0.65245018534E-01  0.51100000000E-03 0.  1.
</event>
<event>
 8    1  0.1217294E+005  0.1043930E+01  0.7957747E-01            NaN
         13   -1    0    0    0    0  0.00000000000E+00  0.00000000000E+00  0.74505805969E-08  0.10566000000E+00  0.10566000000E+00 0. -1.
     999900   -1    0    0    0    0 -0.00000000000E+00 -0.00000000000E+00 -0.74505805969E-08  0.93827000000E+00  0.93827000000E+00 0.  1.
     999902    2    1    2    0    0  0.21761110039E-01 -0.51528849574E-02 -0.94736166943E-02  0.10196432228E+01  0.10193539396E+01 0.  0.
     999903    2    3    3    0    0  0.75460432550E-01  0.40062609626E-02  0.10457797130E+00  0.13061269919E+00  0.20317433407E-01 0.  0.
         14    1    1    2    0    0 -0.21761110039E-01  0.51528849574E-02  0.94736166943E-02  0.24286777201E-01  0.00000000000E+00 0. -1.
     999901    1    3    3    0    0 -0.53699322511E-01 -0.91591459200E-02 -0.11405158799E+00  0.88903052361E+00  0.88000000000E+00 0.  1.
        -11    1    4    4    0    0  0.63569997561E-01  0.88062559856E-02  0.77324067264E-01  0.10048864231E+00  0.51100000000E-03 0. -1.
         11    1    4    4    0    0  0.11890434989E-01 -0.47999950230E-02  0.27253904034E-01  0.30124056874E-01  0.51100000000E-03 0.  1.
</event>
<event>
 8    1  0.1044719E+005  0.1043930E+01  0.7957747E-01            NaN
         13   -1    0    0    0    0  0.00000000000E+00  0.00000000000E+00  0.74505805969E-08  0.10566000000E+00  0.10566000000E+00 0. -1.
     999900   -1    0    0    0    0 -0.00000000000E+00 -0.00000000000E+00 -0.74505805969E-08  0.93827000000E+00  0.93827000000E+00 0.  1.
     999902    2    1    2    0    0  0.17468391903E-01 -0.45695469412E-02 -0.16297717820E-01  0.10196063267E+01  0.10193161533E+01 0.  0.
     999903    2    3    3    0    0  0.87970397123E-01  0.64627843957E-01 -0.72086852117E-01  0.13232326077E+00  0.19934445259E-01 0.  0.
         14    1    1    2    0    0 -0.17468391903E-01  0.45695469412E-02  0.16297717820E-01  0.24323673264E-01  0.00000000000E+00 0. -1.
     999901    1    3    3    0    0 -0.70502005219E-01 -0.69197390898E-01  0.55789134297E-01  0.88728306597E+00  0.88000000000E+00 0. -1.
        -11    1    4    4    0    0  0.65318966529E-01  0.36619642722E-01 -0.46742665209E-01  0.88276290664E-01  0.51100000000E-03 0. -1.
         11    1    4    4    0    0  0.22651430593E-01  0.28008201235E-01 -0.25344186908E-01  0.44046970104E-01  0.51100000000E-03 0.  1.
</event>
<event>
 8    1  0.1044719E+005  0.1043930E+01  0.7957747E-01            NaN
         13   -1    0    0    0    0  0.00000000000E+00  0.00000000000E+00  0.74505805969E-08  0.10566000000E+00  0.10566000000E+00 0.  1.
     999900   -1    0    0    0    0 -0.00000000000E+00 -0.00000000000E+00 -0.74505805969E-08  0.93827000000E+00  0.93827000000E+00 0. -1.
     999902    2    1    2    0    0 -0.12072829147E-01 -0.98686760270E-05 -0.20111624842E-01  0.10204730020E+01  0.10202033704E+01 0.  0.
     999903    2    3    3    0    0  0.37896750690E-01 -0.70163158056E-01  0.98571620921E-01  0.12833839572E+00  0.19883332287E-01 0.  0.
         14    1    1    2    0    0  0.12072829147E-01  0.98686760270E-05  0.20111624842E-01  0.23456997991E-01  0.00000000000E+00 0.  1.
     999901    1    3    3    0    0 -0.49969579836E-01  0.70153289380E-01 -0.11868324576E+00  0.89213460629E+00  0.88000000000E+00 0. -1.
        -11    1    4    4    0    0  0.35980583426E-01 -0.65725958596E-01  0.82050780167E-01  0.11111748586E+00  0.51100000000E-03 0.  1.
         11    1    4    4    0    0  0.19161672635E-02 -0.44371994601E-02  0.16520840754E-01  0.17220909855E-01  0.51100000000E-03 0. -1.
</event>
<event>
 8    1  0.1044719E+005  0.1043930E+01  0.7957747E-01            NaN
         13   -1    0    0    0    0  0.00000000000E+00  0.00000000000E+00  0.74505805969E-08  0.10566000000E+00  0.10566000000E+00 0.  1.
     999900   -1    0    0    0    0 -0.00000000000E+00 -0.00000000000E+00 -0.74505805969E-08  0.93827000000E+00  0.93827000000E+00 0.  1.
     999902    2    1    2    0    0 -0.59209071296E-02 -0.21436947146E-01 -0.90785528405E-02  0.10199087601E+01  0.10196258426E+01 0.  0.
     999903    2    3    3    0    0  0.11390327347E+00 -0.54013568455E-01  0.27193182331E-01  0.13045122358E+00  0.19662941912E-01 0.  0.
         14    1    1    2    0    0  0.59209071296E-02  0.21436947146E-01  0.90785528405E-02  0.24021239890E-01  0.00000000000E+00 0. -1.
     999901    1    3    3    0    0 -0.11982418060E+00  0.32576621309E-01 -0.36271735171E-01  0.88945753653E+00  0.88000000000E+00 0.  1.
        -11    1    4    4    0    0  0.65910272214E-01 -0.24726108823E-01  0.71496352412E-02  0.70759613099E-01  0.51100000000E-03 0.  1.
         11    1    4    4    0    0  0.47993001256E-01 -0.29287459632E-01  0.20043547090E-01  0.59691610484E-01  0.51100000000E-03 0. -1.
</event>
<event>
 8    1  0.1044719E+005  0.1043930E+01  0.7957747E-01            NaN
         13   -1    0    0    0    0  0.00000000000E+00  0.00000000000E+00  0.74505805969E-08  0.10566000000E+00  0.10566000000E+00 0.  1.
     999900   -1    0    0    0    0 -0.00000000000E+00 -0.00000000000E+00 -0.74505805969E-08  0.93827000000E+00  0.93827000000E+00 0. -1.
     999902    2    1    2    0    0  0.33174700325E-02 -0.16304140943E-01 -0.17789406825E-01  0.10195723808E+01  0.10192813871E+01 0.  0.
     999903    2    3    3    0    0 -0.36838266699E-01  0.11027124294E+00 -0.50826463440E-01  0.12899657933E+00  0.23237538196E-01 0.  0.
         14    1    1    2    0    0 -0.33174700325E-02  0.16304140943E-01  0.17789406825E-01  0.24357619229E-01  0.00000000000E+00 0.  1.
     999901    1    3    3    0    0  0.40155736732E-01 -0.12657538388E+00  0.33037056615E-01  0.89057580144E+00  0.88000000000E+00 0.  1.
        -11    1    4    4    0    0 -0.52234018455E-02  0.41099617266E-01 -0.97817073576E-02  0.42572354716E-01  0.51100000000E-03 0.  1.
         11    1    4    4    0    0 -0.31614864854E-01  0.69171625671E-01 -0.41044756083E-01  0.86424224617E-01  0.51100000000E-03 0. -1.
</event>
<event>
 8    1  0.1044719E+005  0.1043930E+01  0.7957747E-01            NaN
         13   -1    0    0    0    0  0.00000000000E+00  0.00000000000E+00  0.74505805969E-08  0.10566000000E+00  0.10566000000E+00 0.  1.
     999900   -1    0    0    0    0 -0.00000000000E+00 -0.00000000000E+00 -0.74505805969E-08  0.93827000000E+00  0.93827000000E+00 0.  1.
     999902    2    1    2    0    0  0.11873243708E-01  0.79176817565E-02  0.22653123050E-01  0.10171563640E+01  0.10168039345E+01 0.  0.
     999903    2    3    3    0    0  0.66701570334E-01 -0.99457818816E-01 -0.36985984912E-01  0.12693590439E+00  0.20094863368E-01 0.  0.
         14    1    1    2    0    0 -0.11873243708E-01 -0.79176817565E-02 -0.22653123050E-01  0.26773635996E-01  0.00000000000E+00 0. -1.
     999901    1    3    3    0    0 -0.54828326626E-01  0.10737550057E+00  0.59639107961E-01  0.89022045962E+00  0.88000000000E+00 0.  1.
        -11    1    4    4    0    0  0.16317812169E-01 -0.38926877942E-01 -0.76934237048E-02  0.42907140543E-01  0.51100000000E-03 0.  1.
         11    1    4    4    0    0  0.50383758165E-01 -0.60530940874E-01 -0.29292561207E-01  0.84028763843E-01  0.51100000000E-03 0. -1.
</event>
<event>
 8    1  0.1044719E+005  0.1043930E+01  0.7957747E-01            NaN
         13   -1    0    0    0    0  0.00000000000E+00  0.00000000000E+00  0.74505805969E-08  0.10566000000E+00  0.10566000000E+00 0.  1.
     999900   -1    0    0    0    0 -0.00000000000E+00 -0.00000000000E+00 -0.74505805969E-08  0.93827000000E+00  0.93827000000E+00 0. -1.
     999902    2    1    2    0    0  0.36427338275E-02 -0.15324018408E-02 -0.23752114354E-01  0.10198513642E+01  0.10195670769E+01 0.  0.
     999903    2    3    3    0    0 -0.42736194293E-01 -0.43731966371E-01  0.10809441477E+00  0.12782260040E+00  0.30254710092E-01 0.  0.
         14    1    1    2    0    0 -0.36427338275E-02  0.15324018408E-02  0.23752114354E-01  0.24078635789E-01  0.00000000000E+00 0.  1.
     999901    1    3    3    0    0  0.46378928121E-01  0.42199564530E-01 -0.13184652913E+00  0.89202876381E+00  0.88000000000E+00 0. -1.
        -11    1    4    4    0    0 -0.28472993754E-01 -0.14373958398E-01  0.74192240093E-01  0.80759344130E-01  0.51100000000E-03 0. -1.
         11    1    4    4    0    0 -0.14263200540E-01 -0.29358007973E-01  0.33902174681E-01  0.47063256272E-01  0.51100000000E-03 0.  1.
</event>
<event>
 8    1  0.1044719E+005  0.1043930E+01  0.7957747E-01            NaN
         13   -1    0    0    0    0  0.00000000000E+00  0.00000000000E+00  0.74505805969E-08  0.10566000000E+00  0.10566000000E+00 0. -1.
     999900   -1    0    0    0    0 -0.00000000000E+00 -0.00000000000E+00 -0.74505805969E-08  0.93827000000E+00  0.93827000000E+00 0.  1.
     999902    2    1    2    0    0 -0.15568148624E-01 -0.17188810886E-01  0.47132729095E-02  0.10202648904E+01  0.10199903966E+01 0.  0.
     999903    2    3    3    0    0  0.10392130937E-01 -0.11296774153E+00 -0.64816574392E-01  0.13196204826E+00  0.18522603837E-01 0.  0.
         14    1    1    2    0    0  0.15568148624E-01  0.17188810886E-01 -0.47132729095E-02  0.23665109608E-01  0.00000000000E+00 0. -1.
     999901    1    3    3    0    0 -0.25960279561E-01  0.95778930648E-01  0.69529847301E-01  0.88830284213E+00  0.88000000000E+00 0. -1.
        -11    1    4    4    0    0 -0.72589732065E-03 -0.80848102589E-01 -0.43087465095E-01  0.91617320351E-01  0.51100000000E-03 0. -1.
         11    1    4    4    0    0  0.11118028258E-01 -0.32119638945E-01 -0.21729109297E-01  0.40344727910E-01  0.51100000000E-03 0.  1.
</event>
<event>
 8    1  0.1044719E+005  0.1043930E+01  0.7957747E-01            NaN
         13   -1    0    0    0    0  0.00000000000E+00  0.00000000000E+00  0.74505805969E-08  0.10566000000E+00  0.10566000000E+00 0. -1.
     999900   -1    0    0    0    0 -0.00000000000E+00 -0.00000000000E+00 -0.74505805969E-08  0.93827000000E+00  0.93827000000E+00 0.  1.
     999902    2    1    2    0    0  0.17289996357E-01  0.69651125190E-02  0.15836742748E-01  0.10194706626E+01  0.10191772038E+01 0.  0.
     999903    2    3    3    0    0 -0.10849446353E+00 -0.54448911164E-01 -0.32081799715E-01  0.12712005919E+00  0.19862905902E-01 0.  0.
         14    1    1    2    0    0 -0.17289996357E-01 -0.69651125190E-02 -0.15836742748E-01  0.24459337426E-01  0.00000000000E+00 0.  1.
     999901    1    3    3    0    0  0.12578445989E+00  0.61414023683E-01  0.47918542463E-01  0.89235060339E+00  0.88000000000E+00 0.  1.
        -11    1    4    4    0    0 -0.43719692636E-01 -0.28060873031E-01 -0.22132266818E-01  0.56470545198E-01  0.51100000000E-03 0.  1.
         11    1    4    4    0    0 -0.64774770895E-01 -0.26388038134E-01 -0.99495328970E-02  0.70649513989E-01  0.51100000000E-03 0. -1.
</event>
<event>
 8    1  0.1044719E+005  0.1043930E+01  0.7957747E-01            NaN
         13   -1    0    0    0    0  0.00000000000E+00  0.00000000000E+00  0.74505805969E-08  0.10566000000E+00  0.10566000000E+00 0.  1.
     999900   -1    0    0    0    0 -0.00000000000E+00 -0.00000000000E+00 -0.74505805969E-08  0.93827000000E+00  0.93827000000E+00 0.  1.
     999902    2    1    2    0    0 -0.20530676797E-01 -0.56520789093E-02 -0.11439698327E-01  0.10197572595E+01  0.10194707190E+01 0.  0.
     999903    2    3    3    0    0 -0.31842260656E-01  0.38223870389E-01  0.11759938996E+00  0.12919331616E+00  0.19654581913E-01 0.  0.
         14    1    1    2    0    0  0.20530676797E-01  0.56520789093E-02  0.11439698327E-01  0.24172740506E-01  0.00000000000E+00 0. -1.
     999901    1    3    3    0    0  0.11311583859E-01 -0.43875949298E-01 -0.12903908829E+00  0.89056394333E+00  0.88000000000E+00 0.  1.
        -11    1    4    4    0    0 -0.11761276252E-01  0.44495959917E-02  0.16695687757E-01  0.20907741012E-01  0.51100000000E-03 0. -1.
         11    1    4    4    0    0 -0.20080984405E-01  0.33774274397E-01  0.10090370221E+00  0.10828557515E+00  0.51100000000E-03 0.  1.
</event>
<event>
 8    1  0.1044719E+005  0.1043930E+01  0.7957747E-01            NaN
         13   -1    0    0    0    0  0.00000000000E+00  0.00000000000E+00  0.74505805969E-08  0.10566000000E+00  0.10566000000E+00 0.  1.
     999900   -1    0    0    0    0 -0.00000000000E+00 -0.00000000000E+00 -0.74505805969E-08  0.93827000000E+00  0.93827000000E+00 0.  1.
     999902    2    1    2    0    0 -0.13704162939E-01  0.14828740022E-01 -0.11160961502E-01  0.10208591813E+01  0.10205984545E+01 0.  0.
     999903    2    3    3    0    0  0.77430345497E-01 -0.41420671854E-01 -0.94482325918E-01  0.13045930221E+00  0.19534307305E-01 0.  0.
         14    1    1    2    0    0  0.13704162939E-01 -0.14828740022E-01  0.11160961502E-01  0.23070818671E-01  0.00000000000E+00 0.  1.
     999901    1    3    3    0    0 -0.91134508436E-01  0.56249411877E-01  0.83321364416E-01  0.89039987912E+00  0.88000000000E+00 0. -1.
        -11    1    4    4    0    0  0.86978709484E-02 -0.10186759365E-01 -0.78032665961E-02  0.15510484066E-01  0.51100000000E-03 0.  1.
         11    1    4    4    0    0  0.68732474548E-01 -0.31233912489E-01 -0.86679059322E-01  0.11494881814E+00  0.51100000000E-03 0. -1.
</event>
<event>
 8    1  0.1044719E+005  0.1043930E+01  0.7957747E-01            NaN
         13   -1    0    0    0    0  0.00000000000E+00  0.00000000000E+00  0.74505805969E-08  0.10566000000E+00  0.10566000000E+00 0. -1.
     999900   -1    0    0    0    0 -0.00000000000E+00 -0.00000000000E+00 -0.74505805969E-08  0.93827000000E+00  0.93827000000E+00 0. -1.
     999902    2    1    2    0    0 -0.34405588393E-02 -0.12837936385E-01  0.20922044278E-01  0.10191432698E+01  0.10188418044E+01 0.  0.
     999903    2    3    3    0    0  0.10329995170E+00  0.15587999304E-01  0.75557049888E-01  0.13055643994E+00  0.20548734259E-01 0.  0.
         14    1    1    2    0    0  0.34405588393E-02  0.12837936385E-01 -0.20922044278E-01  0.24786730170E-01  0.00000000000E+00 0.  1.
     999901    1    3    3    0    0 -0.10674051054E+00 -0.28425935688E-01 -0.54635005610E-01  0.88858682989E+00  0.88000000000E+00 0. -1.
        -11    1    4    4    0    0  0.21114773457E-01  0.90902101980E-02  0.24418088515E-01  0.33540568679E-01  0.51100000000E-03 0. -1.
         11    1    4    4    0    0  0.82185178242E-01  0.64977891057E-02  0.51138961373E-01  0.97015871265E-01  0.51100000000E-03 0.  1.
</event>
<event>
 8    1  0.1044719E+005  0.1043930E+01  0.7957747E-01            NaN
         13   -1    0    0    0    0  0.00000000000E+00  0.00000000000E+00  0.74505805969E-08  0.10566000000E+00  0.10566000000E+00 0. -1.
     999900   -1    0    0    0    0 -0.00000000000E+00 -0.00000000000E+00 -0.74505805969E-08  0.93827000000E+00  0.93827000000E+00 0.  1.
     999902    2    1    2    0    0  0.82961536224E-02  0.17179545218E-01  0.15680238679E-01  0.10192352065E+01  0.10189360007E+01 0.  0.
     999903    2    3    3    0    0  0.99987305198E-01 -0.71289040458E-01  0.36802288608E-01  0.12980836924E+00  0.20401367284E-01 0.  0.
         14    1    1    2    0    0 -0.82961536224E-02 -0.17179545218E-01 -0.15680238679E-01  0.24694793456E-01  0.00000000000E+00 0.  1.
     999901    1    3    3    0    0 -0.91691151575E-01  0.88468585676E-01 -0.21122049929E-01  0.88942683731E+00  0.88000000000E+00 0. -1.
        -11    1    4    4    0    0  0.62009882330E-01 -0.35272332987E-01  0.13940538086E-01  0.72690870844E-01  0.51100000000E-03 0.  1.
         11    1    4    4    0    0  0.37977422867E-01 -0.36016707472E-01  0.22861750522E-01  0.57117498393E-01  0.51100000000E-03 0. -1.
</event>
<event>
 8    1  0.1044719E+005  0.1043930E+01  0.7957747E-01            NaN
         13   -1    0    0    0    0  0.00000000000E+00  0.00000000000E+00  0.74505805969E-08  0.10566000000E+00  0.10566000000E+00 0. -1.
     999900   -1    0    0    0    0 -0.00000000000E+00 -0.00000000000E+00 -0.74505805969E-08  0.93827000000E+00  0.93827000000E+00 0.  1.
     999902    2    1    2    0    0 -0.15238278018E-01 -0.48971078292E-02 -0.24071446429E-01  0.10150228847E+01  0.10146111744E+01 0.  0.
     999903    2    3    3    0    0  0.90915473380E-01  0.51102586880E-01 -0.66417579769E-01  0.12586722917E+00  0.23540747454E-01 0.  0.
         14    1    1    2    0    0  0.15238278018E-01  0.48971078292E-02  0.24071446429E-01  0.28907115305E-01  0.00000000000E+00 0. -1.
     999901    1    3    3    0    0 -0.10615375140E+00 -0.55999694709E-01  0.42346133340E-01  0.88915565553E+00  0.88000000000E+00 0.  1.
        -11    1    4    4    0    0  0.49365215983E-01  0.22552549565E-01 -0.21616633150E-01  0.58421588396E-01  0.51100000000E-03 0.  1.
         11    1    4    4    0    0  0.41550257398E-01  0.28550037315E-01 -0.44800946619E-01  0.67445640774E-01  0.51100000000E-03 0. -1.
</event>
<event>
 8    1  0.1044719E+005  0.1043930E+01  0.7957747E-01            NaN
         13   -1    0    0    0    0  0.00000000000E+00  0.00000000000E+00  0.74505805969E-08  0.10566000000E+00  0.10566000000E+00 0.  1.
     999900   -1    0    0    0    0 -0.00000000000E+00 -0.00000000000E+00 -0.74505805969E-08  0.93827000000E+00  0.93827000000E+00 0. -1.
     999902    2    1    2    0    0  0.99605377422E-02  0.18639464202E-01 -0.10900184998E-01  0.10201506819E+01  0.10198735009E+01 0.  0.
     999903    2    3    3    0    0  0.58631864576E-01 -0.97969740816E-01  0.55928138495E-01  0.12861681848E+00  0.19456712484E-01 0.  0.
         14    1    1    2    0    0 -0.99605377422E-02 -0.18639464202E-01  0.10900184998E-01  0.23779318132E-01  0.00000000000E+00 0.  1.
     999901    1    3    3    0    0 -0.48671326834E-01  0.11660920502E+00 -0.66828323493E-01  0.89153386339E+00  0.88000000000E+00 0.  1.
        -11    1    4    4    0    0  0.28880567106E-01 -0.30129168421E-01  0.20543605233E-01  0.46520477030E-01  0.51100000000E-03 0.  1.
         11    1    4    4    0    0  0.29751297470E-01 -0.67840572395E-01  0.35384533262E-01  0.82096341448E-01  0.51100000000E-03 0. -1.
</event>
<event>
 8    1  0.1044719E+005  0.1043930E+01  0.7957747E-01            NaN
         13   -1    0    0    0    0  0.00000000000E+00  0.00000000000E+00  0.74505805969E-08  0.10566000000E+00  0.10566000000E+00 0. -1.
     999900   -1    0    0    0    0 -0.00000000000E+00 -0.00000000000E+00 -0.74505805969E-08  0.93827000000E+00  0.93827000000E+00 0. -1.
     999902    2    1    2    0    0  0.35223510586E-02 -0.10992043643E-01  0.18618127796E-01  0.10220241409E+01  0.10217893510E+01 0.  0.
     999903    2    3    3    0    0  0.12308203610E+00  0.43576754205E-01  0.67664625925E-03  0.13208359864E+00  0.19937353497E-01 0.  0.
         14    1    1    2    0    0 -0.35223510586E-02  0.10992043643E-01 -0.18618127796E-01  0.21905859103E-01  0.00000000000E+00 0.  1.
     999901    1    3    3    0    0 -0.11955968504E+00 -0.54568797848E-01  0.17941481536E-01  0.88994054225E+00  0.88000000000E+00 0.  1.
        -11    1    4    4    0    0  0.52111297158E-01  0.23291096816E-01  0.90528538406E-02  0.57795136179E-01  0.51100000000E-03 0.  1.
         11    1    4    4    0    0  0.70970738938E-01  0.20285657389E-01 -0.83762075813E-02  0.74288462466E-01  0.51100000000E-03 0. -1.
</event>
<event>
 8    1  0.1044719E+005  0.1043930E+01  0.7957747E-01            NaN
         13   -1    0    0    0    0  0.00000000000E+00  0.00000000000E+00  0.74505805969E-08  0.10566000000E+00  0.10566000000E+00 0.  1.
     999900   -1    0    0    0    0 -0.00000000000E+00 -0.00000000000E+00 -0.74505805969E-08  0.93827000000E+00  0.93827000000E+00 0.  1.
     999902    2    1    2    0    0  0.33066191050E-02 -0.68461995443E-02  0.22838293142E-01  0.10198594410E+01  0.10195753467E+01 0.  0.
     999903    2    3    3    0    0  0.92847184805E-01  0.80239830377E-01 -0.35157284468E-01  0.12914906350E+00  0.19606525640E-01 0.  0.
         14    1    1    2    0    0 -0.33066191050E-02  0.68461995443E-02 -0.22838293142E-01  0.24070559024E-01  0.00000000000E+00 0. -1.
     999901    1    3    3    0    0 -0.89540565700E-01 -0.87086029921E-01  0.57995577610E-01  0.89071037747E+00  0.88000000000E+00 0.  1.
        -11    1    4    4    0    0  0.69953270635E-01  0.67947411009E-01 -0.21807375124E-01  0.99930643279E-01  0.51100000000E-03 0. -1.
         11    1    4    4    0    0  0.22893914170E-01  0.12292419367E-01 -0.13349909345E-01  0.29218420225E-01  0.51100000000E-03 0.  1.
</event>
<event>
 8    1  0.1044719E+005  0.1043930E+01  0.7957747E-01            NaN
         13   -1    0    0    0    0  0.00000000000E+00  0.00000000000E+00  0.74505805969E-08  0.10566000000E+00  0.10566000000E+00 0.  1.
     999900   -1    0    0    0    0 -0.00000000000E+00 -0.00000000000E+00 -0.74505805969E-08  0.93827000000E+00  0.93827000000E+00 0. -1.
     999902    2    1    2    0    0 -0.14388610916E-01  0.17220643872E-01  0.12530830909E-02  0.10214543929E+01  0.10212070915E+01 0.  0.
     999903    2    3    3    0    0 -0.17960531075E-02 -0.11407209680E+00  0.58397448946E-01  0.12979199328E+00  0.20494643247E-01 0.  0.
         14    1    1    2    0    0  0.14388610916E-01 -0.17220643872E-01 -0.12530830909E-02  0.22475607148E-01  0.00000000000E+00 0.  1.
     999901    1    3    3    0    0 -0.12592557808E-01  0.13129274067E+00 -0.57144365855E-01  0.89166239957E+00  0.88000000000E+00 0. -1.
        -11    1    4    4    0    0  0.53697739077E-02 -0.99466039765E-01  0.51086951229E-01  0.11194849372E+00  0.51100000000E-03 0.  1.
         11    1    4    4    0    0 -0.71658270152E-02 -0.14606057030E-01  0.73104977165E-02  0.17843499563E-01  0.51100000000E-03 0. -1.
</event>
<event>
 8    1  0.1044719E+005  0.1043930E+01  0.7957747E-01            NaN
         13   -1    0    0    0    0  0.00000000000E+00  0.00000000000E+00  0.74505805969E-08  0.10566000000E+00  0.10566000000E+00 0. -1.
     999900   -1    0    0    0    0 -0.00000000000E+00 -0.00000000000E+00 -0.74505805969E-08  0.93827000000E+00  0.93827000000E+00 0. -1.
     999902    2    1    2    0    0  0.12962115329E-01 -0.10589228520E-01 -0.15978692196E-01  0.10207898445E+01  0.10205275301E+01 0.  0.
     999903    2    3    3    0    0  0.12887430241E+00  0.18028476760E-01  0.12821053775E-01  0.13226070394E+00  0.19872156198E-01 0.  0.
         14    1    1    2    0    0 -0.12962115329E-01  0.10589228520E-01  0.15978692196E-01  0.23140155547E-01  0.00000000000E+00 0. -1.
     999901    1    3    3    0    0 -0.11591218708E+00 -0.28617705280E-01 -0.28799745971E-01  0.88852914051E+00  0.88000000000E+00 0.  1.
        -11    1    4    4    0    0  0.49899177884E-01  0.16735220064E-01  0.40792792146E-02  0.52791071063E-01  0.51100000000E-03 0. -1.
         11    1    4    4    0    0  0.78975124523E-01  0.12932566958E-02  0.87417745608E-02  0.79469632878E-01  0.51100000000E-03 0.  1.
</event>
<event>
 8    1  0.1044719E+005  0.1043930E+01  0.7957747E-01            NaN
         13   -1    0    0    0    0  0.00000000000E+00  0.00000000000E+00  0.74505805969E-08  0.10566000000E+00  0.10566000000E+00 0.  1.
     999900   -1    0    0    0    0 -0.00000000000E+00 -0.00000000000E+00 -0.74505805969E-08  0.93827000000E+00  0.93827000000E+00 0.  1.
     999902    2    1    2    0    0 -0.14661693922E-01 -0.18108941176E-01 -0.50349738711E-02  0.10200920055E+01  0.10198134387E+01 0.  0.
     999903    2    3    3    0    0  0.79668723057E-02 -0.36181104989E-01  0.12323069507E+00  0.13032195829E+00  0.20626807575E-01 0.  0.
         14    1    1    2    0    0  0.14661693922E-01  0.18108941176E-01  0.50349738711E-02  0.23837994485E-01  0.00000000000E+00 0. -1.
     999901    1    3    3    0    0 -0.22628566227E-01  0.18072163813E-01 -0.12826566895E+00  0.88977004723E+00  0.88000000000E+00 0.  1.
        -11    1    4    4    0    0 -0.65406869086E-02 -0.15645286968E-01  0.42350607979E-01  0.45622261088E-01  0.51100000000E-03 0.  1.
         11    1    4    4    0    0  0.14507559214E-01 -0.20535818021E-01  0.80880087095E-01  0.84699697199E-01  0.51100000000E-03 0. -1.
</event>
<event>
 8    1  0.1044719E+005  0.1043930E+01  0.7957747E-01            NaN
         13   -1    0    0    0    0  0.00000000000E+00  0.00000000000E+00  0.74505805969E-08  0.10566000000E+00  0.10566000000E+00 0. -1.
     999900   -1    0    0    0    0 -0.00000000000E+00 -0.00000000000E+00 -0.74505805969E-08  0.93827000000E+00  0.93827000000E+00 0. -1.
     999902    2    1    2    0    0 -0.21078792036E-01 -0.85027483179E-02 -0.37268465069E-02  0.10208973799E+01  0.10206375256E+01 0.  0.
     999903    2    3    3    0    0 -0.88342476230E-01  0.93945370481E-01 -0.21543614837E-01  0.13222564217E+00  0.19732393793E-01 0.  0.
         14    1    1    2    0    0  0.21078792036E-01  0.85027483179E-02  0.37268465069E-02  0.23032620076E-01  0.00000000000E+00 0. -1.
     999901    1    3    3    0    0  0.67263684193E-01 -0.10244811880E+00  0.17816768330E-01  0.88867173776E+00  0.88000000000E+00 0. -1.
        -11    1    4    4    0    0 -0.28478232858E-01  0.21736702610E-01  0.65912318491E-03  0.35835590569E-01  0.51100000000E-03 0. -1.
         11    1    4    4    0    0 -0.59864243371E-01  0.72208667871E-01 -0.22202738022E-01  0.96390051597E-01  0.51100000000E-03 0.  1.
</event>
<event>
 8    1  0.1044719E+005  0.1043930E+01  0.7957747E-01            NaN
         13   -1    0    0    0    0  0.00000000000E+00  0.00000000000E+00  0.74505805969E-08  0.10566000000E+00  0.10566000000E+00 0. -1.
     999900   -1    0    0    0    0 -0.00000000000E+00 -0.00000000000E+00 -0.74505805969E-08  0.93827000000E+00  0.93827000000E+00 0.  1.
     999902    2    1    2    0    0 -0.11260202225E-01  0.10416141280E-02  0.21306773310E-01  0.10198083147E+01  0.10195229978E+01 0.  0.
     999903    2    3    3    0    0 -0.38711514785E-01 -0.11865988018E+00  0.34999978259E-01  0.13117479845E+00  0.20076870457E-01 0.  0.
         14    1    1    2    0    0  0.11260202225E-01 -0.10416141280E-02 -0.21306773310E-01  0.24121685327E-01  0.00000000000E+00 0.  1.
     999901    1    3    3    0    0  0.27451312560E-01  0.11970149431E+00 -0.13693204949E-01  0.88863351623E+00  0.88000000000E+00 0. -1.
        -11    1    4    4    0    0 -0.21759839483E-01 -0.92879477719E-01  0.23541890700E-01  0.98257670105E-01  0.51100000000E-03 0.  1.
         11    1    4    4    0    0 -0.16951675302E-01 -0.25780402462E-01  0.11458087559E-01  0.32917128340E-01  0.51100000000E-03 0. -1.
</event>
<event>
 8    1  0.1044719E+005  0.1043930E+01  0.7957747E-01            NaN
         13   -1    0    0    0    0  0.00000000000E+00  0.00000000000E+00  0.74505805969E-08  0.10566000000E+00  0.10566000000E+00 0. -1.
     999900   -1    0    0    0    0 -0.00000000000E+00 -0.00000000000E+00 -0.74505805969E-08  0.93827000000E+00  0.93827000000E+00 0.  1.
     999902    2    1    2    0    0 -0.21093684268E-01 -0.48836162645E-02  0.11825635525E-01  0.10192593924E+01  0.10189607795E+01 0.  0.
     999903    2    3    3    0    0 -0.26059001907E-01 -0.99651391934E-01 -0.76413862231E-01  0.12976976646E+00  0.19789958365E-01 0.  0.
         14    1    1    2    0    0  0.21093684268E-01  0.48836162645E-02 -0.11825635525E-01  0.24670607601E-01  0.00000000000E+00 0.  1.
     999901    1    3    3    0    0  0.49653176388E-02  0.94767775669E-01  0.88239497755E-01  0.88948962594E+00  0.88000000000E+00 0.  1.
        -11    1    4    4    0    0 -0.83447045909E-03 -0.12310990098E-01 -0.24946992827E-02  0.12599264409E-01  0.51100000000E-03 0.  1.
         11    1    4    4    0    0 -0.25224531448E-01 -0.87340401836E-01 -0.73919162948E-01  0.11717050205E+00  0.51100000000E-03 0. -1.
</event>
<event>
 8    1  0.1044719E+005  0.1043930E+01  0.7957747E-01            NaN
         13   -1    0    0    0    0  0.00000000000E+00  0.00000000000E+00  0.74505805969E-08  0.10566000000E+00  0.10566000000E+00 0.  1.
     999900   -1    0    0    0    0 -0.00000000000E+00 -0.00000000000E+00 -0.74505805969E-08  0.93827000000E+00  0.93827000000E+00 0. -1.
     999902    2    1    2    0    0 -0.75141405386E-02  0.22836383189E-01 -0.37010321924E-02  0.10196059308E+01  0.10193157478E+01 0.  0.
     999903    2    3    3    0    0 -0.20952709973E-01 -0.40243293556E-01 -0.11982689439E+00  0.12963691071E+00  0.19715609770E-01 0.  0.
         14    1    1    2    0    0  0.75141405386E-02 -0.22836383189E-01  0.37010321924E-02  0.24324069242E-01  0.00000000000E+00 0. -1.
     999901    1    3    3    0    0  0.13438569434E-01  0.63079676745E-01  0.11612586220E+00  0.88996902004E+00  0.88000000000E+00 0.  1.
        -11    1    4    4    0    0 -0.17409258089E-01 -0.38198426619E-01 -0.87520989911E-01  0.97068979903E-01  0.51100000000E-03 0. -1.
         11    1    4    4    0    0 -0.35434518838E-02 -0.20448669368E-02 -0.32305904480E-01  0.32567930811E-01  0.51100000000E-03 0.  1.
</event>
<event>
 8    1  0.1044719E+005  0.1043930E+01  0.7957747E-01            NaN
         13   -1    0    0    0    0  0.00000000000E+00  0.00000000000E+00  0.74505805969E-08  0.10566000000E+00  0.10566000000E+00 0. -1.
     999900   -1    0    0    0    0 -0.00000000000E+00 -0.00000000000E+00 -0.74505805969E-08  0.93827000000E+00  0.93827000000E+00 0. -1.
     999902    2    1    2    0    0  0.17926021284E-01  0.55252018364E-02 -0.15875714797E-01  0.10193554519E+01  0.10190591881E+01 0.  0.
     999903    2    3    3    0    0 -0.22012608914E-01  0.25539651362E-01 -0.12555435247E+00  0.13142241617E+00  0.19264664627E-01 0.  0.
         14    1    1    2    0    0 -0.17926021284E-01 -0.55252018364E-02  0.15875714797E-01  0.24574548108E-01  0.00000000000E+00 0. -1.
     999901    1    3    3    0    0  0.39938630198E-01 -0.20014449526E-01  0.10967863768E+00  0.88793303573E+00  0.88000000000E+00 0.  1.
        -11    1    4    4    0    0 -0.24816494412E-01  0.17687426959E-01 -0.98609964124E-01  0.10321283647E+00  0.51100000000E-03 0.  1.
         11    1    4    4    0    0  0.28038854976E-02  0.78522244036E-02 -0.26944388348E-01  0.28209579693E-01  0.51100000000E-03 0. -1.
</event>
<event>
 8    1  0.1048147E+005  0.1043930E+01  0.7957747E-01            NaN
         13   -1    0    0    0    0  0.00000000000E+00  0.00000000000E+00  0.74505805969E-08  0.10566000000E+00  0.10566000000E+00 0.  1.
     999900   -1    0    0    0    0 -0.00000000000E+00 -0.00000000000E+00 -0.74505805969E-08  0.93827000000E+00  0.93827000000E+00 0.  1.
     999902    2    1    2    0    0 -0.20992162967E-01  0.23017453730E-02 -0.10922659090E-01  0.10201545206E+01  0.10198774302E+01 0.  0.
     999903    2    3    3    0    0  0.65118147396E-01 -0.36147591897E-03 -0.11109831503E+00  0.13029091291E+00  0.19808649598E-01 0.  0.
         14    1    1    2    0    0  0.20992162967E-01 -0.23017453730E-02  0.10922659090E-01  0.23775479373E-01  0.00000000000E+00 0.  1.
     999901    1    3    3    0    0 -0.86110310364E-01  0.26632212920E-02  0.10017565594E+00  0.88986360772E+00  0.88000000000E+00 0. -1.
        -11    1    4    4    0    0  0.35816193449E-01  0.85871891240E-02 -0.52047870405E-01  0.63763480652E-01  0.51100000000E-03 0.  1.
         11    1    4    4    0    0  0.29301953948E-01 -0.89486650429E-02 -0.59050444625E-01  0.66527432257E-01  0.51100000000E-03 0. -1.
</event>
<event>
 7    1  0.1044719E+005  0.1043930E+01  0.7957747E-01            NaN
         13   -1    0    0    0    0  0.00000000000E+00  0.00000000000E+00  0.74505805969E-08  0.10566000000E+00  0.10566000000E+00 0. -1.
     999900   -1    0    0    0    0 -0.00000000000E+00 -0.00000000000E+00 -0.74505805969E-08  0.93827000000E+00  0.93827000000E+00 0. -1.
     999903    2    1    2    0    0 -0.54517313303E-01  0.81601799607E-01  0.33429242946E-01  0.10580977461E+00  0.21147174056E-01 0.  0.
         14    1    1    2    0    0  0.11859486254E-01  0.97831572750E-03 -0.51684737490E-01  0.53036936236E-01  0.00000000000E+00 0.  1.
     999901    1    1    2    0    0  0.42657827049E-01 -0.82580115334E-01  0.18255494544E-01  0.88508328915E+00  0.88000000000E+00 0.  1.
        -11    1    3    3    0    0 -0.20108456806E-01  0.17117984395E-01  0.28032520666E-02  0.26561151481E-01  0.51100000000E-03 0.  1.
         11    1    3    3    0    0 -0.34408856498E-01  0.64483815212E-01  0.30625990879E-01  0.79248623130E-01  0.51100000000E-03 0. -1.
</event>
<event>
 8    1  0.1044719E+005  0.1043930E+01  0.7957747E-01            NaN
         13   -1    0    0    0    0  0.00000000000E+00  0.00000000000E+00  0.74505805969E-08  0.10566000000E+00  0.10566000000E+00 0. -1.
     999900   -1    0    0    0    0 -0.00000000000E+00 -0.00000000000E+00 -0.74505805969E-08  0.93827000000E+00  0.93827000000E+00 0. -1.
     999902    2    1    2    0    0  0.85291589821E-03  0.21545983205E-01  0.84666055345E-02  0.10207645027E+01  0.10205016069E+01 0.  0.
     999903    2    3    3    0    0  0.93137587903E-01  0.78390548983E-01 -0.47782646636E-01  0.13233231970E+00  0.20223082544E-01 0.  0.
         14    1    1    2    0    0 -0.85291589821E-03 -0.21545983205E-01 -0.84666055345E-02  0.23165497341E-01  0.00000000000E+00 0.  1.
     999901    1    3    3    0    0 -0.92284672005E-01 -0.56844565779E-01  0.56249252170E-01  0.88843218296E+00  0.88000000000E+00 0.  1.
        -11    1    4    4    0    0  0.53365052938E-01  0.32944029138E-01 -0.19783100886E-01  0.65762984517E-01  0.51100000000E-03 0.  1.
         11    1    4    4    0    0  0.39772534965E-01  0.45446519846E-01 -0.27999545750E-01  0.66569335184E-01  0.51100000000E-03 0. -1.
</event>
<event>
 8    1  0.1044719E+005  0.1043930E+01  0.7957747E-01            NaN
         13   -1    0    0    0    0  0.00000000000E+00  0.00000000000E+00  0.74505805969E-08  0.10566000000E+00  0.10566000000E+00 0.  1.
     999900   -1    0    0    0    0 -0.00000000000E+00 -0.00000000000E+00 -0.74505805969E-08  0.93827000000E+00  0.93827000000E+00 0.  1.
     999902    2    1    2    0    0  0.13759673475E-01 -0.12407207912E-01 -0.18457865125E-01  0.10177773671E+01  0.10174413048E+01 0.  0.
     999903    2    3    3    0    0 -0.76141149197E-01  0.98294801583E-01 -0.84924537199E-02  0.12624138788E+00  0.20135134104E-01 0.  0.
         14    1    1    2    0    0 -0.13759673475E-01  0.12407207912E-01  0.18457865125E-01  0.26152632894E-01  0.00000000000E+00 0.  1.
     999901    1    3    3    0    0  0.89900822672E-01 -0.11070200950E+00 -0.99654114052E-02  0.89153597922E+00  0.88000000000E+00 0. -1.
        -11    1    4    4    0    0 -0.93233526940E-02  0.61060402717E-02 -0.52677905837E-02  0.12337721503E-01  0.51100000000E-03 0.  1.
         11    1    4    4    0    0 -0.66817796503E-01  0.92188761311E-01 -0.32246631361E-02  0.11390366638E+00  0.51100000000E-03 0. -1.
</event>
<event>
 8    1  0.1053595E+005  0.1043930E+01  0.7957747E-01            NaN
         13   -1    0    0    0    0  0.00000000000E+00  0.00000000000E+00  0.74505805969E-08  0.10566000000E+00  0.10566000000E+00 0. -1.
     999900   -1    0    0    0    0 -0.00000000000E+00 -0.00000000000E+00 -0.74505805969E-08  0.93827000000E+00  0.93827000000E+00 0.  1.
     999902    2    1    2    0    0 -0.20494670735E-01 -0.95745636578E-02 -0.73469992177E-02  0.10201459256E+01  0.10198686324E+01 0.  0.
     999903    2    3    3    0    0  0.16114380145E-02 -0.34912544390E-01  0.12314553330E+00  0.12988810094E+00  0.22013948027E-01 0.  0.
         14    1    1    2    0    0  0.20494670735E-01  0.95745636578E-02  0.73469992177E-02  0.23784074404E-01  0.00000000000E+00 0. -1.
     999901    1    3    3    0    0 -0.22106108749E-01  0.25337980732E-01 -0.13049253251E+00  0.89025782465E+00  0.88000000000E+00 0.  1.
        -11    1    4    4    0    0 -0.62923776319E-02 -0.25611141430E-01  0.59561247225E-01  0.65140831079E-01  0.51100000000E-03 0. -1.
         11    1    4    4    0    0  0.79038156463E-02 -0.93014029595E-02  0.63584286072E-01  0.64747269865E-01  0.51100000000E-03 0.  1.
</event>
<event>
 8    1  0.1044719E+005  0.1043930E+01  0.7957747E-01            NaN
         13   -1    0    0    0    0  0.00000000000E+00  0.00000000000E+00  0.74505805969E-08  0.10566000000E+00  0.10566000000E+00 0.  1.
     999900   -1    0    0    0    0 -0.00000000000E+00 -0.00000000000E+00 -0.74505805969E-08  0.93827000000E+00  0.93827000000E+00 0.  1.
     999902    2    1    2    0    0  0.18143180617E-01 -0.84550412026E-02  0.15123480481E-01  0.10188425054E+01  0.10185335873E+01 0.  0.
     999903    2    3    3    0    0  0.22849024222E-01 -0.78031777960E-01  0.10166173742E+00  0.13185212371E+00  0.20948446034E-01 0.  0.
         14    1    1    2    0    0 -0.18143180617E-01  0.84550412026E-02 -0.15123480481E-01  0.25087494624E-01  0.00000000000E+00 0. -1.
     999901    1    3    3    0    0 -0.47058436048E-02  0.69576736758E-01 -0.86538256938E-01  0.88699038167E+00  0.88000000000E+00 0.  1.
        -11    1    4    4    0    0  0.11086025278E-02 -0.13245279804E-01  0.30064514464E-01  0.32875562164E-01  0.51100000000E-03 0.  1.
         11    1    4    4    0    0  0.21740421694E-01 -0.64786498156E-01  0.71597222955E-01  0.98976561542E-01  0.51100000000E-03 0. -1.
</event>
<event>
 8    1  0.1044719E+005  0.1043930E+01  0.7957747E-01            NaN
         13   -1    0    0    0    0  0.00000000000E+00  0.00000000000E+00  0.74505805969E-08  0.10566000000E+00  0.10566000000E+00 0.  1.
     999900   -1    0    0    0    0 -0.00000000000E+00 -0.00000000000E+00 -0.74505805969E-08  0.93827000000E+00  0.93827000000E+00 0.  1.
     999902    2    1    2    0    0 -0.29784761560E-02  0.23182988526E-01 -0.28684978784E-02  0.10203811028E+01  0.10201093297E+01 0.  0.
     999903    2    3    3    0    0  0.41457401482E-01 -0.31832459638E-03  0.12180409923E+00  0.13017319712E+00  0.19748549090E-01 0.  0.
         14    1    1    2    0    0  0.29784761560E-02 -0.23182988526E-01  0.28684978784E-02  0.23548897157E-01  0.00000000000E+00 0.  1.
     999901    1    3    3    0    0 -0.44435877638E-01  0.23501313123E-01 -0.12467259711E+00  0.89020790572E+00  0.88000000000E+00 0.  1.
        -11    1    4    4    0    0  0.18151578869E-01 -0.59590074294E-02  0.77191601810E-01  0.79522286787E-01  0.51100000000E-03 0.  1.
         11    1    4    4    0    0  0.23305822613E-01  0.56406828330E-02  0.44612497421E-01  0.50650910334E-01  0.51100000000E-03 0. -1.
</event>
<event>
 8    1  0.1044719E+005  0.1043930E+01  0.7957747E-01            NaN
         13   -1    0    0    0    0  0.00000000000E+00  0.00000000000E+00  0.74505805969E-08  0.10566000000E+00  0.10566000000E+00 0.  1.
     999900   -1    0    0    0    0 -0.00000000000E+00 -0.00000000000E+00 -0.74505805969E-08  0.93827000000E+00  0.93827000000E+00 0. -1.
     999902    2    1    2    0    0 -0.97680701925E-03  0.18458927389E-01 -0.13645066842E-01  0.10209544913E+01  0.10206959387E+01 0.  0.
     999903    2    3    3    0    0 -0.10138728314E+00  0.87656537186E-02  0.78832616248E-01  0.13037695667E+00  0.20672483575E-01 0.  0.
         14    1    1    2    0    0  0.97680701925E-03 -0.18458927389E-01  0.13645066842E-01  0.22975508730E-01  0.00000000000E+00 0.  1.
     999901    1    3    3    0    0  0.10041047612E+00  0.96932736700E-02 -0.92477683090E-01  0.89057753460E+00  0.88000000000E+00 0. -1.
        -11    1    4    4    0    0 -0.85505840394E-01  0.53300859171E-02  0.74544509618E-01  0.11356409465E+00  0.51100000000E-03 0.  1.
         11    1    4    4    0    0 -0.15881442749E-01  0.34355678015E-02  0.42881066294E-02  0.16812862022E-01  0.51100000000E-03 0. -1.
</event>
<event>
 7    1  0.1044719E+005  0.1043930E+01  0.7957747E-01            NaN
         13   -1    0    0    0    0  0.00000000000E+00  0.00000000000E+00  0.74505805969E-08  0.10566000000E+00  0.10566000000E+00 0.  1.
     999900   -1    0    0    0    0 -0.00000000000E+00 -0.00000000000E+00 -0.74505805969E-08  0.93827000000E+00  0.93827000000E+00 0.  1.
     999903    2    1    2    0    0 -0.60316030984E-01  0.40814459881E-01  0.61003985300E-01  0.96918085976E-01  0.19177732860E-01 0.  0.
         14    1    1    2    0    0  0.55720633164E-01  0.26816334912E-01  0.43368234478E-02  0.61989618614E-01  0.00000000000E+00 0. -1.
     999901    1    1    2    0    0  0.45953978200E-02 -0.67630794793E-01 -0.65340808748E-01  0.88502229541E+00  0.88000000000E+00 0.  1.
        -11    1    3    3    0    0 -0.12765470599E-01  0.18843796286E-01  0.21438455941E-01  0.31271623114E-01  0.51100000000E-03 0.  1.
         11    1    3    3    0    0 -0.47550560385E-01  0.21970663595E-01  0.39565529359E-01  0.65646462861E-01  0.51100000000E-03 0. -1.
</event>
<event>
 8    1  0.1044719E+005  0.1043930E+01  0.7957747E-01            NaN
         13   -1    0    0    0    0  0.00000000000E+00  0.00000000000E+00  0.74505805969E-08  0.10566000000E+00  0.10566000000E+00 0.  1.
     999900   -1    0    0    0    0 -0.00000000000E+00 -0.00000000000E+00 -0.74505805969E-08  0.93827000000E+00  0.93827000000E+00 0.  1.
     999902    2    1    2    0    0 -0.15589766524E-01  0.14894840408E-01 -0.11196621460E-01  0.10196347037E+01  0.10193452151E+01 0.  0.
     999903    2    3    3    0    0 -0.15656854975E-01  0.11824420851E+00 -0.54409420492E-01  0.13253355816E+00  0.19440397238E-01 0.  0.
         14    1    1    2    0    0  0.15589766524E-01 -0.14894840408E-01  0.11196621460E-01  0.24295296318E-01  0.00000000000E+00 0.  1.
     999901    1    3    3    0    0  0.67088450790E-04 -0.10334936811E+00  0.43212799033E-01  0.88710114552E+00  0.88000000000E+00 0. -1.
        -11    1    4    4    0    0  0.31615963456E-02  0.53483242495E-02 -0.13509881763E-02  0.63786012403E-02  0.51100000000E-03 0.  1.
         11    1    4    4    0    0 -0.18818451321E-01  0.11289588427E+00 -0.53058432316E-01  0.12615495692E+00  0.51100000000E-03 0. -1.
</event>
<event>
 8    1  0.1044719E+005  0.1043930E+01  0.7957747E-01            NaN
         13   -1    0    0    0    0  0.00000000000E+00  0.00000000000E+00  0.74505805969E-08  0.10566000000E+00  0.10566000000E+00 0. -1.
     999900   -1    0    0    0    0 -0.00000000000E+00 -0.00000000000E+00 -0.74505805969E-08  0.93827000000E+00  0.93827000000E+00 0. -1.
     999902    2    1    2    0    0  0.16860554571E-01 -0.11318542482E-01  0.12485429104E-01  0.10200915092E+01  0.10198129306E+01 0.  0.
     999903    2    3    3    0    0  0.18264201913E-01 -0.12687150422E+00 -0.23793667286E-01  0.13179503276E+00  0.19334745998E-01 0.  0.
         14    1    1    2    0    0 -0.16860554571E-01  0.11318542482E-01 -0.12485429104E-01  0.23838490814E-01  0.00000000000E+00 0.  1.
     999901    1    3    3    0    0 -0.14036473423E-02  0.11555296174E+00  0.36279096390E-01  0.88829647642E+00  0.88000000000E+00 0. -1.
        -11    1    4    4    0    0  0.15910613293E-01 -0.60579510296E-01 -0.18185400424E-01  0.65222653983E-01  0.51100000000E-03 0.  1.
         11    1    4    4    0    0  0.23535886207E-02 -0.66291993926E-01 -0.56082668617E-02  0.66572378779E-01  0.51100000000E-03 0. -1.
</event>
<event>
 8    1  0.1044719E+005  0.1043930E+01  0.7957747E-01            NaN
         13   -1    0    0    0    0  0.00000000000E+00  0.00000000000E+00  0.74505805969E-08  0.10566000000E+00  0.10566000000E+00 0. -1.
     999900   -1    0    0    0    0 -0.00000000000E+00 -0.00000000000E+00 -0.74505805969E-08  0.93827000000E+00  0.93827000000E+00 0.  1.
     999902    2    1    2    0    0  0.21797662948E-01  0.48567611217E-02  0.85957490977E-02  0.10200006636E+01  0.10197199324E+01 0.  0.
     999903    2    3    3    0    0 -0.84260276023E-01 -0.91456571134E-01 -0.23001635320E-01  0.12785553016E+00  0.18811242568E-01 0.  0.
         14    1    1    2    0    0 -0.21797662948E-01 -0.48567611217E-02 -0.85957490977E-02  0.23929336413E-01  0.00000000000E+00 0. -1.
     999901    1    3    3    0    0  0.10605793897E+00  0.96313332256E-01  0.31597384417E-01  0.89214513342E+00  0.88000000000E+00 0. -1.
        -11    1    4    4    0    0 -0.63305008685E-01 -0.58163822363E-01 -0.20809442068E-01  0.88452520352E-01  0.51100000000E-03 0.  1.
         11    1    4    4    0    0 -0.20955267339E-01 -0.33292748772E-01 -0.21921932514E-02  0.39403009812E-01  0.51100000000E-03 0. -1.
</event>
<event>
 8    1  0.1044719E+005  0.1043930E+01  0.7957747E-01            NaN
         13   -1    0    0    0    0  0.00000000000E+00  0.00000000000E+00  0.74505805969E-08  0.10566000000E+00  0.10566000000E+00 0.  1.
     999900   -1    0    0    0    0 -0.00000000000E+00 -0.00000000000E+00 -0.74505805969E-08  0.93827000000E+00  0.93827000000E+00 0.  1.
     999902    2    1    2    0    0  0.23085476827E-01 -0.16994242969E-02  0.66843478645E-02  0.10198362707E+01  0.10195516227E+01 0.  0.
     999903    2    3    3    0    0  0.49357296211E-01 -0.11844077120E+00 -0.19797277499E-01  0.13134314918E+00  0.19867855195E-01 0.  0.
         14    1    1    2    0    0 -0.23085476827E-01  0.16994242969E-02 -0.66843478645E-02  0.24093729260E-01  0.00000000000E+00 0.  1.
     999901    1    3    3    0    0 -0.26271819384E-01  0.11674134690E+00  0.26481625364E-01  0.88849312156E+00  0.88000000000E+00 0. -1.
        -11    1    4    4    0    0  0.11643267374E-01 -0.48070445638E-01 -0.13401140111E-01  0.51246317880E-01  0.51100000000E-03 0. -1.
         11    1    4    4    0    0  0.37714028837E-01 -0.70370325560E-01 -0.63961373887E-02  0.80096831305E-01  0.51100000000E-03 0.  1.
</event>
<event>
 8    1  0.1044719E+005  0.1043930E+01  0.7957747E-01            NaN
         13   -1    0    0    0    0  0.00000000000E+00  0.00000000000E+00  0.74505805969E-08  0.10566000000E+00  0.10566000000E+00 0. -1.
     999900   -1    0    0    0    0 -0.00000000000E+00 -0.00000000000E+00 -0.74505805969E-08  0.93827000000E+00  0.93827000000E+00 0. -1.
     999902    2    1    2    0    0  0.54194027076E-03  0.23585747116E-01  0.44193335515E-02  0.10199276735E+01  0.10196452067E+01 0.  0.
     999903    2    3    3    0    0 -0.99675868136E-02 -0.10669514518E+00 -0.66390988313E-01  0.12746049614E+00  0.18846961438E-01 0.  0.
         14    1    1    2    0    0 -0.54194027076E-03 -0.23585747116E-01 -0.44193335515E-02  0.24002326457E-01  0.00000000000E+00 0.  1.
     999901    1    3    3    0    0  0.10509527084E-01  0.13028089230E+00  0.70810321865E-01  0.89246717740E+00  0.88000000000E+00 0.  1.
        -11    1    4    4    0    0 -0.13345991196E-01 -0.59525346609E-01 -0.31270364437E-01  0.68552747450E-01  0.51100000000E-03 0. -1.
         11    1    4    4    0    0  0.33784043821E-02 -0.47169798572E-01 -0.35120623876E-01  0.58907748692E-01  0.51100000000E-03 0.  1.
</event>
<event>
 8    1  0.1044719E+005  0.1043930E+01  0.7957747E-01            NaN
         13   -1    0    0    0    0  0.00000000000E+00  0.00000000000E+00  0.74505805969E-08  0.10566000000E+00  0.10566000000E+00 0. -1.
     999900   -1    0    0    0    0 -0.00000000000E+00 -0.00000000000E+00 -0.74505805969E-08  0.93827000000E+00  0.93827000000E+00 0.  1.
     999902    2    1    2    0    0  0.35890876573E-02  0.12837974760E-01 -0.20038623814E-01  0.10198625616E+01  0.10195785418E+01 0.  0.
     999903    2    3    3    0    0 -0.64804999534E-01  0.88264550380E-02  0.10866302095E+00  0.12786594905E+00  0.16262058083E-01 0.  0.
         14    1    1    2    0    0 -0.35890876573E-02 -0.12837974760E-01  0.20038623814E-01  0.24067438387E-01  0.00000000000E+00 0. -1.
     999901    1    3    3    0    0  0.68394087191E-01  0.40115197218E-02 -0.12870164476E+00  0.89199661256E+00  0.88000000000E+00 0.  1.
        -11    1    4    4    0    0 -0.10435209639E-01 -0.39924890958E-02  0.23351751112E-01  0.25892063850E-01  0.51100000000E-03 0.  1.
         11    1    4    4    0    0 -0.54369789894E-01  0.12818944134E-01  0.85311269834E-01  0.10197388520E+00  0.51100000000E-03 0. -1.
</event>
<event>
 8    1  0.1044719E+005  0.1043930E+01  0.7957747E-01            NaN
         13   -1    0    0    0    0  0.00000000000E+00  0.00000000000E+00  0.74505805969E-08  0.10566000000E+00  0.10566000000E+00 0.  1.
     999900   -1    0    0    0    0 -0.00000000000E+00 -0.00000000000E+00 -0.74505805969E-08  0.93827000000E+00  0.93827000000E+00 0.  1.
     999902    2    1    2    0    0 -0.57299669363E-02  0.14938005896E-01  0.17680774271E-01  0.10200849519E+01  0.10198062182E+01 0.  0.
     999903    2    3    3    0    0 -0.14059275707E-01 -0.47972989795E-01 -0.11592888148E+00  0.12774044953E+00  0.19469101200E-01 0.  0.
         14    1    1    2    0    0  0.57299669363E-02 -0.14938005896E-01 -0.17680774271E-01  0.23845048125E-01  0.00000000000E+00 0. -1.
     999901    1    3    3    0    0  0.83293087703E-02  0.62910995691E-01  0.13360965575E+00  0.89234450235E+00  0.88000000000E+00 0. -1.
        -11    1    4    4    0    0 -0.14293883581E-01 -0.15408101929E-01 -0.42681324829E-01  0.47578160148E-01  0.51100000000E-03 0. -1.
         11    1    4    4    0    0  0.23460787488E-03 -0.32564887866E-01 -0.73247556647E-01  0.80162289378E-01  0.51100000000E-03 0.  1.
</event>
<event>
 8    1  0.1044719E+005  0.1043930E+01  0.7957747E-01            NaN
         13   -1    0    0    0    0  0.00000000000E+00  0.00000000000E+00  0.74505805969E-08  0.10566000000E+00  0.10566000000E+00 0.  1.
     999900   -1    0    0    0    0 -0.00000000000E+00 -0.00000000000E+00 -0.74505805969E-08  0.93827000000E+00  0.93827000000E+00 0. -1.
     999902    2    1    2    0    0 -0.20399270623E-01  0.10710347159E-01  0.49090787893E-02  0.10203728178E+01  0.10201008511E+01 0.  0.
     999903    2    3    3    0    0 -0.55052267587E-01  0.11828635678E+00  0.19010116951E-01  0.13303282247E+00  0.17718152918E-01 0.  0.
         14    1    1    2    0    0  0.20399270623E-01 -0.10710347159E-01 -0.49090787893E-02  0.23557182191E-01  0.00000000000E+00 0.  1.
     999901    1    3    3    0    0  0.34652996964E-01 -0.10757600962E+00 -0.14101038162E-01  0.88733999533E+00  0.88000000000E+00 0.  1.
        -11    1    4    4    0    0 -0.16347411037E-01  0.50169298232E-01  0.16947921182E-02  0.52795168094E-01  0.51100000000E-03 0. -1.
         11    1    4    4    0    0 -0.38704856550E-01  0.68117058545E-01  0.17315324833E-01  0.80237654380E-01  0.51100000000E-03 0.  1.
</event>
<event>
 8    1  0.1101953E+005  0.1043930E+01  0.7957747E-01            NaN
         13   -1    0    0    0    0  0.00000000000E+00  0.00000000000E+00  0.74505805969E-08  0.10566000000E+00  0.10566000000E+00 0.  1.
     999900   -1    0    0    0    0 -0.00000000000E+00 -0.00000000000E+00 -0.74505805969E-08  0.93827000000E+00  0.93827000000E+00 0. -1.
     999902    2    1    2    0    0 -0.87949665635E-03  0.21299891279E-01 -0.99488471925E-02  0.10204047276E+01  0.10201335058E+01 0.  0.
     999903    2    3    3    0    0  0.12622133888E+00  0.11113069808E-01 -0.27423487292E-01  0.13104329554E+00  0.19104212627E-01 0.  0.
         14    1    1    2    0    0  0.87949665635E-03 -0.21299891279E-01  0.99488471925E-02  0.23525272439E-01  0.00000000000E+00 0. -1.
     999901    1    3    3    0    0 -0.12710083554E+00  0.10186821471E-01  0.17474640099E-01  0.88936143202E+00  0.88000000000E+00 0.  1.
        -11    1    4    4    0    0  0.94051015956E-01  0.13242786057E-01 -0.13554768990E-01  0.95942471660E-01  0.51100000000E-03 0.  1.
         11    1    4    4    0    0  0.32170322926E-01 -0.21297162488E-02 -0.13868718302E-01  0.35100823877E-01  0.51100000000E-03 0. -1.
</event>
<event>
 8    1  0.1044719E+005  0.1043930E+01  0.7957747E-01            NaN
         13   -1    0    0    0    0  0.00000000000E+00  0.00000000000E+00  0.74505805969E-08  0.10566000000E+00  0.10566000000E+00 0. -1.
     999900   -1    0    0    0    0 -0.00000000000E+00 -0.00000000000E+00 -0.74505805969E-08  0.93827000000E+00  0.93827000000E+00 0. -1.
     999902    2    1    2    0    0  0.30122331379E-02  0.13034712782E-01 -0.20008684108E-01  0.10198608345E+01  0.10195767735E+01 0.  0.
     999903    2    3    3    0    0  0.30130945359E-01  0.95117117483E-01 -0.86494456566E-01  0.13312902410E+00  0.16938303809E-01 0.  0.
         14    1    1    2    0    0 -0.30122331379E-02 -0.13034712782E-01  0.20008684108E-01  0.24069165451E-01  0.00000000000E+00 0. -1.
     999901    1    3    3    0    0 -0.27118712221E-01 -0.82082404701E-01  0.66485772458E-01  0.88673181044E+00  0.88000000000E+00 0.  1.
        -11    1    4    4    0    0  0.15178938029E-01  0.23080184178E-01 -0.23655560276E-01  0.36372265730E-01  0.51100000000E-03 0.  1.
         11    1    4    4    0    0  0.14952007330E-01  0.72036933305E-01 -0.62838896290E-01  0.96756758374E-01  0.51100000000E-03 0. -1.
</event>
<event>
 8    1  0.1044719E+005  0.1043930E+01  0.7957747E-01            NaN
         13   -1    0    0    0    0  0.00000000000E+00  0.00000000000E+00  0.74505805969E-08  0.10566000000E+00  0.10566000000E+00 0. -1.
     999900   -1    0    0    0    0 -0.00000000000E+00 -0.00000000000E+00 -0.74505805969E-08  0.93827000000E+00  0.93827000000E+00 0. -1.
     999902    2    1    2    0    0 -0.18128784942E-01  0.91482224139E-02 -0.12485801790E-01  0.10200922555E+01  0.10198136946E+01 0.  0.
     999903    2    3    3    0    0  0.80584894501E-01 -0.20372425040E-01  0.95426951664E-01  0.12753356191E+00  0.15797005585E-01 0.  0.
         14    1    1    2    0    0  0.18128784942E-01 -0.91482224139E-02  0.12485801790E-01  0.23837744507E-01  0.00000000000E+00 0.  1.
     999901    1    3    3    0    0 -0.98713679444E-01  0.29520647454E-01 -0.10791275345E+00  0.89255869358E+00  0.88000000000E+00 0. -1.
        -11    1    4    4    0    0  0.59087333584E-01 -0.76040241498E-02  0.68541373273E-01  0.90814729777E-01  0.51100000000E-03 0. -1.
         11    1    4    4    0    0  0.21497560917E-01 -0.12768400891E-01  0.26885578391E-01  0.36718832131E-01  0.51100000000E-03 0.  1.
</event>
<event>
 8    1  0.1044719E+005  0.1043930E+01  0.7957747E-01            NaN
         13   -1    0    0    0    0  0.00000000000E+00  0.00000000000E+00  0.74505805969E-08  0.10566000000E+00  0.10566000000E+00 0.  1.
     999900   -1    0    0    0    0 -0.00000000000E+00 -0.00000000000E+00 -0.74505805969E-08  0.93827000000E+00  0.93827000000E+00 0.  1.
     999902    2    1    2    0    0  0.49967626150E-02  0.31642992053E-02 -0.22654617794E-01  0.10205160697E+01  0.10202474388E+01 0.  0.
     999903    2    3    3    0    0 -0.99008076685E-01  0.45229861497E-01 -0.72047311337E-01  0.13201949888E+00  0.19748250405E-01 0.  0.
         14    1    1    2    0    0 -0.49967626150E-02 -0.31642992053E-02  0.22654617794E-01  0.23413930330E-01  0.00000000000E+00 0.  1.
     999901    1    3    3    0    0  0.10400483930E+00 -0.42065562291E-01  0.49392693543E-01  0.88849657079E+00  0.88000000000E+00 0. -1.
        -11    1    4    4    0    0 -0.76099795445E-01  0.25268716613E-01 -0.54020442861E-01  0.96685863878E-01  0.51100000000E-03 0.  1.
         11    1    4    4    0    0 -0.22908281240E-01  0.19961144884E-01 -0.18026868476E-01  0.35333635003E-01  0.51100000000E-03 0. -1.
</event>
<event>
 8    1  0.1044719E+005  0.1043930E+01  0.7957747E-01            NaN
         13   -1    0    0    0    0  0.00000000000E+00  0.00000000000E+00  0.74505805969E-08  0.10566000000E+00  0.10566000000E+00 0.  1.
     999900   -1    0    0    0    0 -0.00000000000E+00 -0.00000000000E+00 -0.74505805969E-08  0.93827000000E+00  0.93827000000E+00 0.  1.
     999902    2    1    2    0    0 -0.14248881066E-01 -0.14966900541E-01 -0.10020394579E-01  0.10209637850E+01  0.10207054439E+01 0.  0.
     999903    2    3    3    0    0 -0.10996645752E-01 -0.12969463819E+00  0.21008397619E-01  0.13296839270E+00  0.17251530173E-01 0.  0.
         14    1    1    2    0    0  0.14248881066E-01  0.14966900541E-01  0.10020394579E-01  0.22966214990E-01  0.00000000000E+00 0. -1.
     999901    1    3    3    0    0 -0.32522353136E-02  0.11472773765E+00 -0.31028792199E-01  0.88799539231E+00  0.88000000000E+00 0.  1.
        -11    1    4    4    0    0  0.14316457502E-02 -0.23321486161E-01 -0.18989494609E-02  0.23447994720E-01  0.51100000000E-03 0.  1.
         11    1    4    4    0    0 -0.12428291502E-01 -0.10637315203E+00  0.22907347080E-01  0.10952039798E+00  0.51100000000E-03 0. -1.
</event>
<event>
 8    1  0.1044719E+005  0.1043930E+01  0.7957747E-01            NaN
         13   -1    0    0    0    0  0.00000000000E+00  0.00000000000E+00  0.74505805969E-08  0.10566000000E+00  0.10566000000E+00 0. -1.
     999900   -1    0    0    0    0 -0.00000000000E+00 -0.00000000000E+00 -0.74505805969E-08  0.93827000000E+00  0.93827000000E+00 0. -1.
     999902    2    1    2    0    0  0.21171669157E-01  0.32683485645E-02 -0.13586307598E-01  0.10185625123E+01  0.10182465723E+01 0.  0.
     999903    2    3    3    0    0  0.87070393654E-01  0.95908612302E-01 -0.28166920778E-02  0.13118387556E+00  0.20531928489E-01 0.  0.
         14    1    1    2    0    0 -0.21171669157E-01 -0.32683485645E-02  0.13586307598E-01  0.25367487684E-01  0.00000000000E+00 0. -1.
     999901    1    3    3    0    0 -0.65898724496E-01 -0.92640263738E-01 -0.10769615520E-01  0.88737863676E+00  0.88000000000E+00 0.  1.
        -11    1    4    4    0    0  0.18545622418E-01  0.95649627455E-02  0.85347738619E-03  0.20890623922E-01  0.51100000000E-03 0.  1.
         11    1    4    4    0    0  0.68524771236E-01  0.86343649557E-01 -0.36701694640E-02  0.11029325164E+00  0.51100000000E-03 0. -1.
</event>
<event>
 8    1  0.1044719E+005  0.1043930E+01  0.7957747E-01            NaN
         13   -1    0    0    0    0  0.00000000000E+00  0.00000000000E+00  0.74505805969E-08  0.10566000000E+00  0.10566000000E+00 0. -1.
     999900   -1    0    0    0    0 -0.00000000000E+00 -0.00000000000E+00 -0.74505805969E-08  0.93827000000E+00  0.93827000000E+00 0. -1.
     999902    2    1    2    0    0 -0.12626052352E-01 -0.15880216007E-01  0.14527014184E-01  0.10189773929E+01  0.10186718288E+01 0.  0.
     999903    2    3    3    0    0  0.54711152093E-01 -0.11183388307E+00  0.33820632727E-01  0.13099448260E+00  0.22706644567E-01 0.  0.
         14    1    1    2    0    0  0.12626052352E-01  0.15880216007E-01 -0.14527014184E-01  0.24952607068E-01  0.00000000000E+00 0.  1.
     999901    1    3    3    0    0 -0.67337204445E-01  0.95953667063E-01 -0.19293618543E-01  0.88798291033E+00  0.88000000000E+00 0.  1.
        -11    1    4    4    0    0  0.23470293599E-01 -0.70215202300E-01  0.14251931477E-01  0.75395013015E-01  0.51100000000E-03 0. -1.
         11    1    4    4    0    0  0.31240858494E-01 -0.41618680770E-01  0.19568701249E-01  0.55599469584E-01  0.51100000000E-03 0.  1.
</event>
<event>
 8    1  0.1044719E+005  0.1043930E+01  0.7957747E-01            NaN
         13   -1    0    0    0    0  0.00000000000E+00  0.00000000000E+00  0.74505805969E-08  0.10566000000E+00  0.10566000000E+00 0. -1.
     999900   -1    0    0    0    0 -0.00000000000E+00 -0.00000000000E+00 -0.74505805969E-08  0.93827000000E+00  0.93827000000E+00 0.  1.
     999902    2    1    2    0    0  0.23367602325E-01  0.33104184795E-02 -0.47144676959E-02  0.10198628042E+01  0.10195787902E+01 0.  0.
     999903    2    3    3    0    0  0.10067414039E+00  0.71529964302E-01 -0.44340861216E-01  0.13295781585E+00  0.21444124738E-01 0.  0.
         14    1    1    2    0    0 -0.23367602325E-01 -0.33104184795E-02  0.47144676959E-02  0.24067195819E-01  0.00000000000E+00 0.  1.
     999901    1    3    3    0    0 -0.77306538067E-01 -0.68219545823E-01  0.39626393520E-01  0.88690498833E+00  0.88000000000E+00 0. -1.
        -11    1    4    4    0    0  0.39859680370E-01  0.23665319354E-01 -0.65095354438E-02  0.46813210016E-01  0.51100000000E-03 0. -1.
         11    1    4    4    0    0  0.60814460023E-01  0.47864644948E-01 -0.37831325772E-01  0.86144605835E-01  0.51100000000E-03 0.  1.
</event>
<event>
 8    1  0.1044719E+005  0.1043930E+01  0.7957747E-01            NaN
         13   -1    0    0    0    0  0.00000000000E+00  0.00000000000E+00  0.74505805969E-08  0.10566000000E+00  0.10566000000E+00 0. -1.
     999900   -1    0    0    0    0 -0.00000000000E+00 -0.00000000000E+00 -0.74505805969E-08  0.93827000000E+00  0.93827000000E+00 0. -1.
     999902    2    1    2    0    0  0.14542227586E-01  0.15758333782E-02  0.18222974749E-01  0.10205625773E+01  0.10202950249E+01 0.  0.
     999903    2    3    3    0    0  0.18738575214E-01  0.54717954456E-01 -0.11347258168E+00  0.12916737094E+00  0.21517299634E-01 0.  0.
         14    1    1    2    0    0 -0.14542227586E-01 -0.15758333782E-02 -0.18222974749E-01  0.23367422680E-01  0.00000000000E+00 0.  1.
     999901    1    3    3    0    0 -0.41963476279E-02 -0.53142121078E-01  0.13169555643E+00  0.89139520638E+00  0.88000000000E+00 0.  1.
        -11    1    4    4    0    0  0.20493755759E-01  0.30581229899E-01 -0.58787584805E-01  0.69364593962E-01  0.51100000000E-03 0.  1.
         11    1    4    4    0    0 -0.17551805447E-02  0.24136724557E-01 -0.54684996871E-01  0.59802776983E-01  0.51100000000E-03 0. -1.
</event>
<event>
 8    1  0.1044719E+005  0.1043930E+01  0.7957747E-01            NaN
         13   -1    0    0    0    0  0.00000000000E+00  0.00000000000E+00  0.74505805969E-08  0.10566000000E+00  0.10566000000E+00 0. -1.
     999900   -1    0    0    0    0 -0.00000000000E+00 -0.00000000000E+00 -0.74505805969E-08  0.93827000000E+00  0.93827000000E+00 0. -1.
     999902    2    1    2    0    0  0.70281405001E-03 -0.21185154444E-01  0.96896730322E-02  0.10206234670E+01  0.10203573232E+01 0.  0.
     999903    2    3    3    0    0 -0.57845127900E-01  0.52206605502E-01 -0.10070048276E+00  0.12877135011E+00  0.19232391983E-01 0.  0.
         14    1    1    2    0    0 -0.70281405001E-03  0.21185154444E-01 -0.96896730322E-02  0.23306532987E-01  0.00000000000E+00 0.  1.
     999901    1    3    3    0    0  0.58547941950E-01 -0.73391759946E-01  0.11039015579E+00  0.89185211691E+00  0.88000000000E+00 0. -1.
        -11    1    4    4    0    0 -0.39696459274E-01  0.23264098920E-01 -0.60599867409E-01  0.76089632858E-01  0.51100000000E-03 0.  1.
         11    1    4    4    0    0 -0.18148668626E-01  0.28942506582E-01 -0.40100615346E-01  0.52681717249E-01  0.51100000000E-03 0. -1.
</event>
<event>
 8    1  0.1044719E+005  0.1043930E+01  0.7957747E-01            NaN
         13   -1    0    0    0    0  0.00000000000E+00  0.00000000000E+00  0.74505805969E-08  0.10566000000E+00  0.10566000000E+00 0. -1.
     999900   -1    0    0    0    0 -0.00000000000E+00 -0.00000000000E+00 -0.74505805969E-08  0.93827000000E+00  0.93827000000E+00 0. -1.
     999902    2    1    2    0    0 -0.20681877827E-01 -0.10571594838E-01 -0.26961292173E-02  0.10205469335E+01  0.10202790185E+01 0.  0.
     999903    2    3    3    0    0 -0.30328309257E-01  0.10589446331E+00 -0.67086183147E-01  0.13048880312E+00  0.19832500308E-01 0.  0.
         14    1    1    2    0    0  0.20681877827E-01  0.10571594838E-01  0.26961292173E-02  0.23383066536E-01  0.00000000000E+00 0. -1.
     999901    1    3    3    0    0  0.96464314293E-02 -0.11646605815E+00  0.64390053930E-01  0.89005813034E+00  0.88000000000E+00 0.  1.
        -11    1    4    4    0    0 -0.20794369083E-01  0.39281306301E-01 -0.23082091540E-01  0.50084637177E-01  0.51100000000E-03 0.  1.
         11    1    4    4    0    0 -0.95339401742E-02  0.66613157012E-01 -0.44004091607E-01  0.80404165946E-01  0.51100000000E-03 0. -1.
</event>
<event>
 8    1  0.1044719E+005  0.1043930E+01  0.7957747E-01            NaN
         13   -1    0    0    0    0  0.00000000000E+00  0.00000000000E+00  0.74505805969E-08  0.10566000000E+00  0.10566000000E+00 0.  1.
     999900   -1    0    0    0    0 -0.00000000000E+00 -0.00000000000E+00 -0.74505805969E-08  0.93827000000E+00  0.93827000000E+00 0. -1.
     999902    2    1    2    0    0 -0.18195416586E-01  0.92902759217E-02  0.12079936008E-01  0.10201959050E+01  0.10199197896E+01 0.  0.
     999903    2    3    3    0    0  0.53507964575E-04  0.12117169062E+00 -0.45594903095E-01  0.13105201267E+00  0.20326174386E-01 0.  0.
         14    1    1    2    0    0  0.18195416586E-01 -0.92902759217E-02 -0.12079936008E-01  0.23734094999E-01  0.00000000000E+00 0.  1.
     999901    1    3    3    0    0 -0.18248924551E-01 -0.11188141470E+00  0.57674839104E-01  0.88914389233E+00  0.88000000000E+00 0.  1.
        -11    1    4    4    0    0  0.11256768841E-02  0.10187754297E+00 -0.29985425996E-01  0.10620587462E+00  0.51100000000E-03 0. -1.
         11    1    4    4    0    0 -0.10721689195E-02  0.19294147654E-01 -0.15609477100E-01  0.24846138055E-01  0.51100000000E-03 0.  1.
</event>
<event>
 8    1  0.1044719E+005  0.1043930E+01  0.7957747E-01            NaN
         13   -1    0    0    0    0  0.00000000000E+00  0.00000000000E+00  0.74505805969E-08  0.10566000000E+00  0.10566000000E+00 0. -1.
     999900   -1    0    0    0    0 -0.00000000000E+00 -0.00000000000E+00 -0.74505805969E-08  0.93827000000E+00  0.93827000000E+00 0. -1.
     999902    2    1    2    0    0 -0.14301511841E-01 -0.15623734500E-01  0.96104833118E-02  0.10206706855E+01  0.10204056314E+01 0.  0.
     999903    2    3    3    0    0 -0.10315450211E+00  0.23323129055E-02 -0.79071164135E-01  0.13158030310E+00  0.20367527494E-01 0.  0.
         14    1    1    2    0    0  0.14301511841E-01  0.15623734500E-01 -0.96104833118E-02  0.23259314482E-01  0.00000000000E+00 0.  1.
     999901    1    3    3    0    0  0.88852990272E-01 -0.17956047406E-01  0.88681647447E-01  0.88909038242E+00  0.88000000000E+00 0.  1.
        -11    1    4    4    0    0 -0.54857575472E-01  0.13653817435E-02 -0.29258867189E-01  0.62189712044E-01  0.51100000000E-03 0. -1.
         11    1    4    4    0    0 -0.48296926641E-01  0.96693116206E-03 -0.49812296946E-01  0.69390591054E-01  0.51100000000E-03 0.  1.
</event>
<event>
 8    1  0.1044719E+005  0.1043930E+01  0.7957747E-01            NaN
         13   -1    0    0    0    0  0.00000000000E+00  0.00000000000E+00  0.74505805969E-08  0.10566000000E+00  0.10566000000E+00 0. -1.
     999900   -1    0    0    0    0 -0.00000000000E+00 -0.00000000000E+00 -0.74505805969E-08  0.93827000000E+00  0.93827000000E+00 0.  1.
     999902    2    1    2    0    0 -0.97860605543E-02 -0.25556929195E-01 -0.38764616320E-03  0.10165607859E+01  0.10161922837E+01 0.  0.
     999903    2    3    3    0    0  0.13235657661E-01 -0.12798252388E+00 -0.34135244752E-02  0.13031580967E+00  0.20392377188E-01 0.  0.
         14    1    1    2    0    0  0.97860605543E-02  0.25556929195E-01  0.38764616320E-03  0.27369214102E-01  0.00000000000E+00 0. -1.
     999901    1    3    3    0    0 -0.23021718215E-01  0.10242559468E+00  0.30258783120E-02  0.88624497623E+00  0.88000000000E+00 0. -1.
        -11    1    4    4    0    0 -0.52715961566E-02 -0.40930855519E-01 -0.95618761235E-03  0.41283169395E-01  0.51100000000E-03 0.  1.
         11    1    4    4    0    0  0.18507253817E-01 -0.87051668360E-01 -0.24573368629E-02  0.89032640271E-01  0.51100000000E-03 0. -1.
</event>
<event>
 8    1  0.1044719E+005  0.1043930E+01  0.7957747E-01            NaN
         13   -1    0    0    0    0  0.00000000000E+00  0.00000000000E+00  0.74505805969E-08  0.10566000000E+00  0.10566000000E+00 0. -1.
     999900   -1    0    0    0    0 -0.00000000000E+00 -0.00000000000E+00 -0.74505805969E-08  0.93827000000E+00  0.93827000000E+00 0. -1.
     999902    2    1    2    0    0  0.11171513533E-01  0.20901122050E-01 -0.11856617451E-01  0.10174302076E+01  0.10170850448E+01 0.  0.
     999903    2    3    3    0    0  0.10343716090E+00 -0.21461110190E-02 -0.75739259695E-01  0.13000408868E+00  0.21465683500E-01 0.  0.
         14    1    1    2    0    0 -0.11171513533E-01 -0.20901122050E-01  0.11856617451E-01  0.26499792356E-01  0.00000000000E+00 0. -1.
     999901    1    3    3    0    0 -0.92265647364E-01  0.23047233069E-01  0.63882642244E-01  0.88742611896E+00  0.88000000000E+00 0.  1.
        -11    1    4    4    0    0  0.13628530209E-01 -0.14979649078E-02 -0.20158369459E-01  0.24384456418E-01  0.51100000000E-03 0.  1.
         11    1    4    4    0    0  0.89808630687E-01 -0.64814611124E-03 -0.55580890236E-01  0.10561963226E+00  0.51100000000E-03 0. -1.
</event>
<event>
 8    1  0.1044719E+005  0.1043930E+01  0.7957747E-01            NaN
         13   -1    0    0    0    0  0.00000000000E+00  0.00000000000E+00  0.74505805969E-08  0.10566000000E+00  0.10566000000E+00 0.  1.
     999900   -1    0    0    0    0 -0.00000000000E+00 -0.00000000000E+00 -0.74505805969E-08  0.93827000000E+00  0.93827000000E+00 0. -1.
     999902    2    1    2    0    0  0.41688326385E-02  0.19983189020E-01  0.87492525709E-02  0.10217206229E+01  0.10214792092E+01 0.  0.
     999903    2    3    3    0    0 -0.30083903052E-01 -0.92941757038E-01  0.84210603856E-01  0.13064278746E+00  0.20806265612E-01 0.  0.
         14    1    1    2    0    0 -0.41688326385E-02 -0.19983189020E-01 -0.87492525709E-02  0.22209377063E-01  0.00000000000E+00 0.  1.
     999901    1    3    3    0    0  0.34252735691E-01  0.11292494606E+00 -0.75461351285E-01  0.89107783548E+00  0.88000000000E+00 0. -1.
        -11    1    4    4    0    0 -0.66986124943E-02 -0.25434437342E-01  0.35449249924E-01  0.44143996800E-01  0.51100000000E-03 0.  1.
         11    1    4    4    0    0 -0.23385290558E-01 -0.67507319696E-01  0.48761353931E-01  0.86498790658E-01  0.51100000000E-03 0. -1.
</event>
<event>
 8    1  0.1044719E+005  0.1043930E+01  0.7957747E-01            NaN
         13   -1    0    0    0    0  0.00000000000E+00  0.00000000000E+00  0.74505805969E-08  0.10566000000E+00  0.10566000000E+00 0.  1.
     999900   -1    0    0    0    0 -0.00000000000E+00 -0.00000000000E+00 -0.74505805969E-08  0.93827000000E+00  0.93827000000E+00 0.  1.
     999902    2    1    2    0    0  0.29742681654E-02  0.22245182496E-01  0.58993112723E-02  0.10207244772E+01  0.10204606617E+01 0.  0.
     999903    2    3    3    0    0 -0.11898839886E+00 -0.34527505843E-01  0.36626919912E-01  0.12997074230E+00  0.14158914852E-01 0.  0.
         14    1    1    2    0    0 -0.29742681654E-02 -0.22245182496E-01 -0.58993112723E-02  0.23205522810E-01  0.00000000000E+00 0. -1.
     999901    1    3    3    0    0  0.12196266702E+00  0.56772688339E-01 -0.30727608640E-01  0.89075373489E+00  0.88000000000E+00 0. -1.
        -11    1    4    4    0    0 -0.95098269369E-01 -0.26596419589E-01  0.23202435263E-01  0.10143798349E+00  0.51100000000E-03 0. -1.
         11    1    4    4    0    0 -0.23890129487E-01 -0.79310862540E-02  0.13424484649E-01  0.28532758808E-01  0.51100000000E-03 0.  1.
</event>
<event>
 7    1  0.1044719E+005  0.1043930E+01  0.7957747E-01            NaN
         13   -1    0    0    0    0  0.00000000000E+00  0.00000000000E+00  0.74505805969E-08  0.10566000000E+00  0.10566000000E+00 0.  1.
     999900   -1    0    0    0    0 -0.00000000000E+00 -0.00000000000E+00 -0.74505805969E-08  0.93827000000E+00  0.93827000000E+00 0.  1.
     999903    2    1    2    0    0  0.87295937181E-01 -0.72907976532E-01  0.25029022649E-01  0.11810265962E+00  0.19637528974E-01 0.  0.
         14    1    1    2    0    0 -0.65945267755E-02  0.23500939441E-01  0.30440585430E-01  0.39018087848E-01  0.00000000000E+00 0.  1.
     999901    1    1    2    0    0 -0.80701410406E-01  0.49407037090E-01 -0.55469608079E-01  0.88680925253E+00  0.88000000000E+00 0.  1.
        -11    1    3    3    0    0  0.30155043395E-01 -0.15409016393E-01  0.12367209522E-01  0.36055144165E-01  0.51100000000E-03 0.  1.
         11    1    3    3    0    0  0.57140893786E-01 -0.57498960139E-01  0.12661813127E-01  0.82047515455E-01  0.51100000000E-03 0. -1.
</event>
<event>
 8    1  0.1044719E+005  0.1043930E+01  0.7957747E-01            NaN
         13   -1    0    0    0    0  0.00000000000E+00  0.00000000000E+00  0.74505805969E-08  0.10566000000E+00  0.10566000000E+00 0. -1.
     999900   -1    0    0    0    0 -0.00000000000E+00 -0.00000000000E+00 -0.74505805969E-08  0.93827000000E+00  0.93827000000E+00 0.  1.
     999902    2    1    2    0    0 -0.54029722246E-02 -0.23871661876E-01 -0.24880154790E-02  0.10193284031E+01  0.10190314788E+01 0.  0.
     999903    2    3    3    0    0 -0.76443264373E-02  0.75768493113E-01  0.10064029346E+00  0.12771826841E+00  0.19600692385E-01 0.  0.
         14    1    1    2    0    0  0.54029722246E-02  0.23871661876E-01  0.24880154790E-02  0.24601596911E-01  0.00000000000E+00 0. -1.
     999901    1    3    3    0    0  0.22413542127E-02 -0.99640154989E-01 -0.10312830894E+00  0.89161013468E+00  0.88000000000E+00 0.  1.
        -11    1    4    4    0    0  0.52905373620E-02  0.97064556118E-02  0.17995726123E-01  0.21126105789E-01  0.51100000000E-03 0.  1.
         11    1    4    4    0    0 -0.12934863799E-01  0.66062037502E-01  0.82644567341E-01  0.10659216262E+00  0.51100000000E-03 0. -1.
</event>
<event>
 8    1  0.1044719E+005  0.1043930E+01  0.7957747E-01            NaN
         13   -1    0    0    0    0  0.00000000000E+00  0.00000000000E+00  0.74505805969E-08  0.10566000000E+00  0.10566000000E+00 0.  1.
     999900   -1    0    0    0    0 -0.00000000000E+00 -0.00000000000E+00 -0.74505805969E-08  0.93827000000E+00  0.93827000000E+00 0.  1.
     999902    2    1    2    0    0 -0.18169693862E-01 -0.10637046867E-01  0.11115423142E-01  0.10201216575E+01  0.10198437914E+01 0.  0.
     999903    2    3    3    0    0  0.10905943090E-01  0.26496306394E-01 -0.12370650871E+00  0.12860540308E+00  0.20372912288E-01 0.  0.
         14    1    1    2    0    0  0.18169693862E-01  0.10637046867E-01 -0.11115423142E-01  0.23808342503E-01  0.00000000000E+00 0. -1.
     999901    1    3    3    0    0 -0.29075636952E-01 -0.37133353261E-01  0.13482193186E+00  0.89151625442E+00  0.88000000000E+00 0. -1.
        -11    1    4    4    0    0  0.10459511400E-01  0.69354482436E-02 -0.76145950985E-01  0.77174923346E-01  0.51100000000E-03 0. -1.
         11    1    4    4    0    0  0.44643169048E-03  0.19560858150E-01 -0.47560557729E-01  0.51430479730E-01  0.51100000000E-03 0.  1.
</event>
<event>
 8    1  0.1044719E+005  0.1043930E+01  0.7957747E-01            NaN
         13   -1    0    0    0    0  0.00000000000E+00  0.00000000000E+00  0.74505805969E-08  0.10566000000E+00  0.10566000000E+00 0. -1.
     999900   -1    0    0    0    0 -0.00000000000E+00 -0.00000000000E+00 -0.74505805969E-08  0.93827000000E+00  0.93827000000E+00 0.  1.
     999902    2    1    2    0    0 -0.23623088514E-01 -0.61180475327E-02 -0.70630817529E-02  0.10185259070E+01  0.10182090430E+01 0.  0.
     999903    2    3    3    0    0 -0.30836397512E-01  0.63941629637E-01 -0.10722193381E+00  0.13004845326E+00  0.19407258738E-01 0.  0.
         14    1    1    2    0    0  0.23623088514E-01  0.61180475327E-02  0.70630817529E-02  0.25404092985E-01  0.00000000000E+00 0.  1.
     999901    1    3    3    0    0  0.72133089981E-02 -0.70059677170E-01  0.10015885206E+00  0.88847745376E+00  0.88000000000E+00 0. -1.
        -11    1    4    4    0    0 -0.99854686150E-02  0.60352804856E-02 -0.22233036695E-01  0.25113805679E-01  0.51100000000E-03 0.  1.
         11    1    4    4    0    0 -0.20850928897E-01  0.57906349152E-01 -0.84988897116E-01  0.10493464758E+00  0.51100000000E-03 0. -1.
</event>
<event>
 8    1  0.1044719E+005  0.1043930E+01  0.7957747E-01            NaN
         13   -1    0    0    0    0  0.00000000000E+00  0.00000000000E+00  0.74505805969E-08  0.10566000000E+00  0.10566000000E+00 0.  1.
     999900   -1    0    0    0    0 -0.00000000000E+00 -0.00000000000E+00 -0.74505805969E-08  0.93827000000E+00  0.93827000000E+00 0.  1.
     999902    2    1    2    0    0 -0.13316923561E-01  0.78274281234E-02  0.18120759560E-01  0.10201188469E+01  0.10198409145E+01 0.  0.
     999903    2    3    3    0    0  0.40620407811E-02  0.89708397919E-01 -0.90935421244E-01  0.12944507264E+00  0.20559162454E-01 0.  0.
         14    1    1    2    0    0  0.13316923561E-01 -0.78274281234E-02 -0.18120759560E-01  0.23811153084E-01  0.00000000000E+00 0. -1.
     999901    1    3    3    0    0 -0.17378964342E-01 -0.81880969795E-01  0.10905618080E+00  0.89067377428E+00  0.88000000000E+00 0. -1.
        -11    1    4    4    0    0  0.11251507587E-01  0.63294453926E-01 -0.69482464486E-01  0.94661810213E-01  0.51100000000E-03 0. -1.
         11    1    4    4    0    0 -0.71894668062E-02  0.26413943993E-01 -0.21452956758E-01  0.34783262424E-01  0.51100000000E-03 0.  1.
</event>
<event>
 8    1  0.1044719E+005  0.1043930E+01  0.7957747E-01            NaN
         13   -1    0    0    0    0  0.00000000000E+00  0.00000000000E+00  0.74505805969E-08  0.10566000000E+00  0.10566000000E+00 0.  1.
     999900   -1    0    0    0    0 -0.00000000000E+00 -0.00000000000E+00 -0.74505805969E-08  0.93827000000E+00  0.93827000000E+00 0.  1.
     999902    2    1    2    0    0 -0.19998074552E-01  0.18038238635E-02 -0.11753095142E-01  0.10206638871E+01  0.10203986762E+01 0.  0.
     999903    2    3    3    0    0  0.27625777224E-01 -0.17237410502E-01 -0.12610710386E+00  0.13178400812E+00  0.20092567385E-01 0.  0.
         14    1    1    2    0    0  0.19998074552E-01 -0.18038238635E-02  0.11753095142E-01  0.23266112948E-01  0.00000000000E+00 0.  1.
     999901    1    3    3    0    0 -0.47623851776E-01  0.19041234365E-01  0.11435400872E+00  0.88887987893E+00  0.88000000000E+00 0. -1.
        -11    1    4    4    0    0  0.99326829947E-02 -0.17605448499E-01 -0.75879648523E-01  0.78527652387E-01  0.51100000000E-03 0. -1.
         11    1    4    4    0    0  0.17693094229E-01  0.36803799743E-03 -0.50227455335E-01  0.53256355731E-01  0.51100000000E-03 0.  1.
</event>
<event>
 8    1  0.1044719E+005  0.1043930E+01  0.7957747E-01            NaN
         13   -1    0    0    0    0  0.00000000000E+00  0.00000000000E+00  0.74505805969E-08  0.10566000000E+00  0.10566000000E+00 0. -1.
     999900   -1    0    0    0    0 -0.00000000000E+00 -0.00000000000E+00 -0.74505805969E-08  0.93827000000E+00  0.93827000000E+00 0.  1.
     999902    2    1    2    0    0  0.90998250692E-02 -0.32187265770E-03  0.20538568387E-01  0.10214635092E+01  0.10212164106E+01 0.  0.
     999903    2    3    3    0    0 -0.87605207335E-01  0.72692256210E-01 -0.58749842094E-01  0.12962855901E+00  0.19828840119E-01 0.  0.
         14    1    1    2    0    0 -0.90998250692E-02  0.32187265770E-03 -0.20538568387E-01  0.22466490819E-01  0.00000000000E+00 0.  1.
     999901    1    3    3    0    0  0.96705032404E-01 -0.73014128867E-01  0.79288410482E-01  0.89183495017E+00  0.88000000000E+00 0. -1.
        -11    1    4    4    0    0 -0.67673967435E-01  0.64761561642E-01 -0.43336497308E-01  0.10320919947E+00  0.51100000000E-03 0. -1.
         11    1    4    4    0    0 -0.19931239900E-01  0.79306945672E-02 -0.15413344787E-01  0.26419359545E-01  0.51100000000E-03 0.  1.
</event>
<event>
 8    1  0.1044719E+005  0.1043930E+01  0.7957747E-01            NaN
         13   -1    0    0    0    0  0.00000000000E+00  0.00000000000E+00  0.74505805969E-08  0.10566000000E+00  0.10566000000E+00 0.  1.
     999900   -1    0    0    0    0 -0.00000000000E+00 -0.00000000000E+00 -0.74505805969E-08  0.93827000000E+00  0.93827000000E+00 0. -1.
     999902    2    1    2    0    0  0.15193951370E-02 -0.23035644260E-01  0.56298681563E-02  0.10201677425E+01  0.10198909637E+01 0.  0.
     999903    2    3    3    0    0 -0.11346200329E-01 -0.10337584586E+00  0.80847936556E-01  0.13321913664E+00  0.19890896272E-01 0.  0.
         14    1    1    2    0    0 -0.15193951370E-02  0.23035644260E-01 -0.56298681563E-02  0.23762257542E-01  0.00000000000E+00 0. -1.
     999901    1    3    3    0    0  0.12865595466E-01  0.80340201597E-01 -0.75218068399E-01  0.88694860581E+00  0.88000000000E+00 0. -1.
        -11    1    4    4    0    0 -0.23261122654E-03 -0.35344753214E-01  0.16862296029E-01  0.39165084401E-01  0.51100000000E-03 0.  1.
         11    1    4    4    0    0 -0.11113589103E-01 -0.68031092643E-01  0.63985640526E-01  0.94054052244E-01  0.51100000000E-03 0. -1.
</event>
<event>
 8    1  0.1044719E+005  0.1043930E+01  0.7957747E-01            NaN
         13   -1    0    0    0    0  0.00000000000E+00  0.00000000000E+00  0.74505805969E-08  0.10566000000E+00  0.10566000000E+00 0. -1.
     999900   -1    0    0    0    0 -0.00000000000E+00 -0.00000000000E+00 -0.74505805969E-08  0.93827000000E+00  0.93827000000E+00 0.  1.
     999902    2    1    2    0    0 -0.23192245806E-01 -0.13351421367E-02 -0.28824963369E-02  0.10205212056E+01  0.10202526939E+01 0.  0.
     999903    2    3    3    0    0  0.11248953223E+00  0.55974829401E-01  0.15262022354E-01  0.12809574581E+00  0.19710768158E-01 0.  0.
         14    1    1    2    0    0  0.23192245806E-01  0.13351421367E-02  0.28824963369E-02  0.23408794398E-01  0.00000000000E+00 0. -1.
     999901    1    3    3    0    0 -0.13568177803E+00 -0.57309971538E-01 -0.18144518691E-01  0.89242545979E+00  0.88000000000E+00 0.  1.
        -11    1    4    4    0    0  0.90744439296E-01  0.42193441418E-01  0.44674235329E-02  0.10017514041E+00  0.51100000000E-03 0.  1.
         11    1    4    4    0    0  0.21745092929E-01  0.13781387983E-01  0.10794598821E-01  0.27920605400E-01  0.51100000000E-03 0. -1.
</event>
<event>
 8    1  0.1044719E+005  0.1043930E+01  0.7957747E-01            NaN
         13   -1    0    0    0    0  0.00000000000E+00  0.00000000000E+00  0.74505805969E-08  0.10566000000E+00  0.10566000000E+00 0. -1.
     999900   -1    0    0    0    0 -0.00000000000E+00 -0.00000000000E+00 -0.74505805969E-08  0.93827000000E+00  0.93827000000E+00 0.  1.
     999902    2    1    2    0    0  0.17302475342E-03  0.17077501655E-01  0.15601801571E-01  0.10207980478E+01  0.10205359216E+01 0.  0.
     999903    2    3    3    0    0  0.38526080724E-01  0.71925467304E-01 -0.10000015725E+00  0.13071767552E+00  0.20725527708E-01 0.  0.
         14    1    1    2    0    0 -0.17302475342E-03 -0.17077501655E-01 -0.15601801571E-01  0.23131952200E-01  0.00000000000E+00 0.  1.
     999901    1    3    3    0    0 -0.38353055971E-01 -0.54847965649E-01  0.11560195883E+00  0.89008037228E+00  0.88000000000E+00 0. -1.
        -11    1    4    4    0    0  0.22731553204E-01  0.58089304368E-01 -0.66512639731E-01  0.91188174442E-01  0.51100000000E-03 0.  1.
         11    1    4    4    0    0  0.15794527520E-01  0.13836162936E-01 -0.33487517523E-01  0.39529501075E-01  0.51100000000E-03 0. -1.
</event>
<event>
 8    1  0.1044719E+005  0.1043930E+01  0.7957747E-01            NaN
         13   -1    0    0    0    0  0.00000000000E+00  0.00000000000E+00  0.74505805969E-08  0.10566000000E+00  0.10566000000E+00 0.  1.
     999900   -1    0    0    0    0 -0.00000000000E+00 -0.00000000000E+00 -0.74505805969E-08  0.93827000000E+00  0.93827000000E+00 0. -1.
     999902    2    1    2    0    0 -0.34809211889E-02  0.20994211657E-02  0.24228960833E-01  0.10193624009E+01  0.10190663067E+01 0.  0.
     999903    2    3    3    0    0 -0.28437404088E-01 -0.11696781352E+00  0.46733260960E-01  0.13070820724E+00  0.20260365453E-01 0.  0.
         14    1    1    2    0    0  0.34809211889E-02 -0.20994211657E-02 -0.24228960833E-01  0.24567599081E-01  0.00000000000E+00 0. -1.
     999901    1    3    3    0    0  0.24956482899E-01  0.11906723469E+00 -0.22504300127E-01  0.88865419368E+00  0.88000000000E+00 0.  1.
        -11    1    4    4    0    0 -0.51548044524E-02 -0.59911926422E-01  0.18449398087E-01  0.62901926420E-01  0.51100000000E-03 0. -1.
         11    1    4    4    0    0 -0.23282599635E-01 -0.57055887103E-01  0.28283862873E-01  0.67806280822E-01  0.51100000000E-03 0.  1.
</event>
<event>
 8    1  0.1044719E+005  0.1043930E+01  0.7957747E-01            NaN
         13   -1    0    0    0    0  0.00000000000E+00  0.00000000000E+00  0.74505805969E-08  0.10566000000E+00  0.10566000000E+00 0. -1.
     999900   -1    0    0    0    0 -0.00000000000E+00 -0.00000000000E+00 -0.74505805969E-08  0.93827000000E+00  0.93827000000E+00 0. -1.
     999902    2    1    2    0    0  0.70778706913E-03  0.80850523639E-02 -0.22454821257E-01  0.10200534837E+01  0.10197740051E+01 0.  0.
     999903    2    3    3    0    0 -0.12239624809E+00 -0.62464110157E-02 -0.42410837001E-01  0.13114503120E+00  0.19505920045E-01 0.  0.
         14    1    1    2    0    0 -0.70778706913E-03 -0.80850523639E-02  0.22454821257E-01  0.23876516327E-01  0.00000000000E+00 0. -1.
     999901    1    3    3    0    0  0.12310403516E+00  0.14331463380E-01  0.19956015744E-01  0.88890845247E+00  0.88000000000E+00 0.  1.
        -11    1    4    4    0    0 -0.51398490120E-01 -0.52755342038E-02 -0.27712626674E-01  0.58633495938E-01  0.51100000000E-03 0.  1.
         11    1    4    4    0    0 -0.70997757967E-01 -0.97087681190E-03 -0.14698210327E-01  0.72511535261E-01  0.51100000000E-03 0. -1.
</event>
<event>
 8    1  0.1044719E+005  0.1043930E+01  0.7957747E-01            NaN
         13   -1    0    0    0    0  0.00000000000E+00  0.00000000000E+00  0.74505805969E-08  0.10566000000E+00  0.10566000000E+00 0. -1.
     999900   -1    0    0    0    0 -0.00000000000E+00 -0.00000000000E+00 -0.74505805969E-08  0.93827000000E+00  0.93827000000E+00 0.  1.
     999902    2    1    2    0    0 -0.66949577791E-02  0.17423442288E-02  0.22404743035E-01  0.10204815303E+01  0.10202120970E+01 0.  0.
     999903    2    3    3    0    0  0.10450266953E+00  0.71701135271E-01  0.25148308868E-01  0.13072500630E+00  0.19867790373E-01 0.  0.
         14    1    1    2    0    0  0.66949577791E-02 -0.17423442288E-02 -0.22404743035E-01  0.23448469748E-01  0.00000000000E+00 0.  1.
     999901    1    3    3    0    0 -0.11119762731E+00 -0.69958791042E-01 -0.27435658331E-02  0.88975652395E+00  0.88000000000E+00 0. -1.
        -11    1    4    4    0    0  0.68634540085E-01  0.58047161443E-01  0.16893143982E-01  0.91464815524E-01  0.51100000000E-03 0. -1.
         11    1    4    4    0    0  0.35868129448E-01  0.13653973828E-01  0.82551648855E-02  0.39260190775E-01  0.51100000000E-03 0.  1.
</event>
<event>
 8    1  0.1044719E+005  0.1043930E+01  0.7957747E-01            NaN
         13   -1    0    0    0    0  0.00000000000E+00  0.00000000000E+00  0.74505805969E-08  0.10566000000E+00  0.10566000000E+00 0. -1.
     999900   -1    0    0    0    0 -0.00000000000E+00 -0.00000000000E+00 -0.74505805969E-08  0.93827000000E+00  0.93827000000E+00 0.  1.
     999902    2    1    2    0    0 -0.12673456687E-01  0.76239165633E-02  0.16280021157E-01  0.10219350075E+01  0.10216982822E+01 0.  0.
     999903    2    3    3    0    0  0.29448189033E-01  0.12553822822E+00 -0.20871929316E-01  0.13229559435E+00  0.20962926021E-01 0.  0.
         14    1    1    2    0    0  0.12673456687E-01 -0.76239165633E-02 -0.16280021157E-01  0.21994992544E-01  0.00000000000E+00 0.  1.
     999901    1    3    3    0    0 -0.42121645720E-01 -0.11791431166E+00  0.37151950473E-01  0.88963941311E+00  0.88000000000E+00 0. -1.
        -11    1    4    4    0    0  0.22755714765E-01  0.59261526869E-01 -0.41764456980E-02  0.63619611293E-01  0.51100000000E-03 0.  1.
         11    1    4    4    0    0  0.66924742681E-02  0.66276701354E-01 -0.16695483618E-01  0.68675983054E-01  0.51100000000E-03 0. -1.
</event>
<event>
 8    1  0.1044719E+005  0.1043930E+01  0.7957747E-01            NaN
         13   -1    0    0    0    0  0.00000000000E+00  0.00000000000E+00  0.74505805969E-08  0.10566000000E+00  0.10566000000E+00 0. -1.
     999900   -1    0    0    0    0 -0.00000000000E+00 -0.00000000000E+00 -0.74505805969E-08  0.93827000000E+00  0.93827000000E+00 0. -1.
     999902    2    1    2    0    0  0.10818723191E-03  0.32261437563E-01  0.57148621537E-02  0.10111661219E+01  0.10106351737E+01 0.  0.
     999903    2    3    3    0    0 -0.40523443906E-01 -0.10775811870E+00  0.22370039721E-01  0.11901490125E+00  0.20252565040E-01 0.  0.
         14    1    1    2    0    0 -0.10818723191E-03 -0.32261437563E-01 -0.57148621537E-02  0.32763878091E-01  0.00000000000E+00 0. -1.
     999901    1    3    3    0    0  0.40631631137E-01  0.14001955626E+00 -0.16655177567E-01  0.89215122066E+00  0.88000000000E+00 0.  1.
        -11    1    4    4    0    0 -0.40747772686E-01 -0.90020655054E-01  0.15688075897E-01  0.10005236710E+00  0.51100000000E-03 0.  1.
         11    1    4    4    0    0  0.22432878002E-03 -0.17737463646E-01  0.66819638236E-02  0.18962534153E-01  0.51100000000E-03 0. -1.
</event>
<event>
 8    1  0.1044719E+005  0.1043930E+01  0.7957747E-01            NaN
         13   -1    0    0    0    0  0.00000000000E+00  0.00000000000E+00  0.74505805969E-08  0.10566000000E+00  0.10566000000E+00 0. -1.
     999900   -1    0    0    0    0 -0.00000000000E+00 -0.00000000000E+00 -0.74505805969E-08  0.93827000000E+00  0.93827000000E+00 0. -1.
     999902    2    1    2    0    0  0.11021629846E-01 -0.19170604434E-01 -0.83439259649E-02  0.10202950788E+01  0.10200212931E+01 0.  0.
     999903    2    3    3    0    0 -0.15110863234E-01  0.11763285025E+00  0.43724109505E-01  0.12782145303E+00  0.18992115642E-01 0.  0.
         14    1    1    2    0    0 -0.11021629846E-01  0.19170604434E-01  0.83439259649E-02  0.23634921184E-01  0.00000000000E+00 0. -1.
     999901    1    3    3    0    0  0.26132493080E-01 -0.13680345469E+00 -0.52068035470E-01  0.89247362579E+00  0.88000000000E+00 0. -1.
        -11    1    4    4    0    0 -0.44686913136E-02  0.33141485662E-01  0.21668903377E-01  0.39851345881E-01  0.51100000000E-03 0. -1.
         11    1    4    4    0    0 -0.10642171921E-01  0.84491364589E-01  0.22055206127E-01  0.87970107148E-01  0.51100000000E-03 0.  1.
</event>
<event>
 8    1  0.1044719E+005  0.1043930E+01  0.7957747E-01            NaN
         13   -1    0    0    0    0  0.00000000000E+00  0.00000000000E+00  0.74505805969E-08  0.10566000000E+00  0.10566000000E+00 0.  1.
     999900   -1    0    0    0    0 -0.00000000000E+00 -0.00000000000E+00 -0.74505805969E-08  0.93827000000E+00  0.93827000000E+00 0.  1.
     999902    2    1    2    0    0 -0.17158844256E-01 -0.18282036496E-02  0.10822801282E-01  0.10235608740E+01  0.10233581785E+01 0.  0.
     999903    2    3    3    0    0 -0.12477462699E+00 -0.10259908624E-01  0.49564720619E-01  0.13611893980E+00  0.19943193712E-01 0.  0.
         14    1    1    2    0    0  0.17158844256E-01  0.18282036496E-02 -0.10822801282E-01  0.20369125960E-01  0.00000000000E+00 0. -1.
     999901    1    3    3    0    0  0.10761578273E+00  0.84317049748E-02 -0.38741919337E-01  0.88744193424E+00  0.88000000000E+00 0.  1.
        -11    1    4    4    0    0 -0.10613756007E+00 -0.10161438122E-01  0.34246599155E-01  0.11198895997E+00  0.51100000000E-03 0.  1.
         11    1    4    4    0    0 -0.18637066925E-01 -0.98470502880E-04  0.15318121464E-01  0.24129979821E-01  0.51100000000E-03 0. -1.
</event>
<event>
 8    1  0.1044719E+005  0.1043930E+01  0.7957747E-01            NaN
         13   -1    0    0    0    0  0.00000000000E+00  0.00000000000E+00  0.74505805969E-08  0.10566000000E+00  0.10566000000E+00 0.  1.
     999900   -1    0    0    0    0 -0.00000000000E+00 -0.00000000000E+00 -0.74505805969E-08  0.93827000000E+00  0.93827000000E+00 0.  1.
     999902    2    1    2    0    0 -0.18022224629E-01 -0.97207471040E-02  0.11946951310E-01  0.10202229726E+01  0.10199474940E+01 0.  0.
     999903    2    3    3    0    0  0.11625899846E+00 -0.10210259246E-01 -0.48728975984E-01  0.12797118373E+00  0.19537314301E-01 0.  0.
         14    1    1    2    0    0  0.18022224629E-01  0.97207471040E-02 -0.11946951310E-01  0.23707027448E-01  0.00000000000E+00 0. -1.
     999901    1    3    3    0    0 -0.13428122308E+00  0.48951214230E-03  0.60675927294E-01  0.89225178882E+00  0.88000000000E+00 0.  1.
        -11    1    4    4    0    0  0.99666680909E-01 -0.17209570729E-02 -0.41365618940E-01  0.10792490226E+00  0.51100000000E-03 0.  1.
         11    1    4    4    0    0  0.16592317547E-01 -0.84893021734E-02 -0.73633570440E-02  0.20046281474E-01  0.51100000000E-03 0. -1.
</event>
<event>
 8    1  0.1044719E+005  0.1043930E+01  0.7957747E-01            NaN
         13   -1    0    0    0    0  0.00000000000E+00  0.00000000000E+00  0.74505805969E-08  0.10566000000E+00  0.10566000000E+00 0. -1.
     999900   -1    0    0    0    0 -0.00000000000E+00 -0.00000000000E+00 -0.74505805969E-08  0.93827000000E+00  0.93827000000E+00 0.  1.
     999902    2    1    2    0    0 -0.11377058850E-02  0.21241984300E-01  0.90935971183E-02  0.10207953986E+01  0.10205332117E+01 0.  0.
     999903    2    3    3    0    0  0.11333214462E+00  0.78881205532E-02  0.63475706023E-01  0.13161651555E+00  0.19681068593E-01 0.  0.
         14    1    1    2    0    0  0.11377058850E-02 -0.21241984300E-01 -0.90935971183E-02  0.23134601363E-01  0.00000000000E+00 0.  1.
     999901    1    3    3    0    0 -0.11446985051E+00  0.13353863747E-01 -0.54382108905E-01  0.88917888308E+00  0.88000000000E+00 0. -1.
        -11    1    4    4    0    0  0.66065345156E-01  0.52210098263E-02  0.25829620838E-01  0.71128891512E-01  0.51100000000E-03 0. -1.
         11    1    4    4    0    0  0.47266799466E-01  0.26671107270E-02  0.37646085186E-01  0.60487624042E-01  0.51100000000E-03 0.  1.
</event>
<event>
 8    1  0.1044719E+005  0.1043930E+01  0.7957747E-01            NaN
         13   -1    0    0    0    0  0.00000000000E+00  0.00000000000E+00  0.74505805969E-08  0.10566000000E+00  0.10566000000E+00 0. -1.
     999900   -1    0    0    0    0 -0.00000000000E+00 -0.00000000000E+00 -0.74505805969E-08  0.93827000000E+00  0.93827000000E+00 0.  1.
     999902    2    1    2    0    0  0.19550380526E-01  0.60069100496E-02  0.13785457764E-01  0.10192654669E+01  0.10189670028E+01 0.  0.
     999903    2    3    3    0    0  0.28571330828E-01  0.10900112889E+00 -0.61510067582E-01  0.13001938016E+00  0.20590865903E-01 0.  0.
         14    1    1    2    0    0 -0.19550380526E-01 -0.60069100496E-02 -0.13785457764E-01  0.24664533095E-01  0.00000000000E+00 0.  1.
     999901    1    3    3    0    0 -0.90209503021E-02 -0.10299421884E+00  0.75295525345E-01  0.88924608675E+00  0.88000000000E+00 0. -1.
        -11    1    4    4    0    0  0.23707101108E-02  0.23132108489E-01 -0.45610718021E-02  0.23701881920E-01  0.51100000000E-03 0. -1.
         11    1    4    4    0    0  0.26200620717E-01  0.85869020399E-01 -0.56948995779E-01  0.10631749824E+00  0.51100000000E-03 0.  1.
</event>
<event>
 8    1  0.1044719E+005  0.1043930E+01  0.7957747E-01            NaN
         13   -1    0    0    0    0  0.00000000000E+00  0.00000000000E+00  0.74505805969E-08  0.10566000000E+00  0.10566000000E+00 0. -1.
     999900   -1    0    0    0    0 -0.00000000000E+00 -0.00000000000E+00 -0.74505805969E-08  0.93827000000E+00  0.93827000000E+00 0.  1.
     999902    2    1    2    0    0  0.18050782582E-01  0.55056358884E-02 -0.13587637390E-01  0.10206756097E+01  0.10204106691E+01 0.  0.
     999903    2    3    3    0    0  0.10384186719E+00  0.75640207254E-01  0.10092374916E-01  0.13341031043E+00  0.34523623282E-01 0.  0.
         14    1    1    2    0    0 -0.18050782582E-01 -0.55056358884E-02  0.13587637390E-01  0.23254390299E-01  0.00000000000E+00 0. -1.
     999901    1    3    3    0    0 -0.85791084605E-01 -0.70134571366E-01 -0.23680012306E-01  0.88726529927E+00  0.88000000000E+00 0.  1.
        -11    1    4    4    0    0  0.57128241899E-01  0.28340710558E-01  0.18493363969E-01  0.66401035604E-01  0.51100000000E-03 0.  1.
         11    1    4    4    0    0  0.46713625288E-01  0.47299496697E-01 -0.84009890531E-02  0.67009274831E-01  0.51100000000E-03 0. -1.
</event>
<event>
 8    1  0.1044719E+005  0.1043930E+01  0.7957747E-01            NaN
         13   -1    0    0    0    0  0.00000000000E+00  0.00000000000E+00  0.74505805969E-08  0.10566000000E+00  0.10566000000E+00 0.  1.
     999900   -1    0    0    0    0 -0.00000000000E+00 -0.00000000000E+00 -0.74505805969E-08  0.93827000000E+00  0.93827000000E+00 0. -1.
     999902    2    1    2    0    0 -0.58877973668E-02 -0.17878127247E-01  0.13750159112E-01  0.10206199063E+01  0.10203536802E+01 0.  0.
     999903    2    3    3    0    0  0.69254334896E-01 -0.47698266371E-01 -0.97490054495E-01  0.12994040961E+00  0.17575887107E-01 0.  0.
         14    1    1    2    0    0  0.58877973668E-02  0.17878127247E-01 -0.13750159112E-01  0.23310093679E-01  0.00000000000E+00 0. -1.
     999901    1    3    3    0    0 -0.75142132263E-01  0.29820139123E-01  0.11124021361E+00  0.89067949671E+00  0.88000000000E+00 0.  1.
        -11    1    4    4    0    0  0.34725027886E-01 -0.28331161310E-01 -0.39609296325E-01  0.59813374251E-01  0.51100000000E-03 0. -1.
         11    1    4    4    0    0  0.34529307010E-01 -0.19367105060E-01 -0.57880758170E-01  0.70127035359E-01  0.51100000000E-03 0.  1.
</event>
<event>
 8    1  0.1044719E+005  0.1043930E+01  0.7957747E-01            NaN
         13   -1    0    0    0    0  0.00000000000E+00  0.00000000000E+00  0.74505805969E-08  0.10566000000E+00  0.10566000000E+00 0.  1.
     999900   -1    0    0    0    0 -0.00000000000E+00 -0.00000000000E+00 -0.74505805969E-08  0.93827000000E+00  0.93827000000E+00 0. -1.
     999902    2    1    2    0    0  0.50755562654E-02  0.33033672686E-01 -0.12463628599E-01  0.10082603092E+01  0.10076291601E+01 0.  0.
     999903    2    3    3    0    0  0.89927523510E-01  0.80188204169E-01 -0.13515592994E-01  0.12292166621E+00  0.20247399743E-01 0.  0.
         14    1    1    2    0    0 -0.50755562654E-02 -0.33033672686E-01  0.12463628599E-01  0.35669690780E-01  0.00000000000E+00 0. -1.
     999901    1    3    3    0    0 -0.84851967244E-01 -0.47154531483E-01  0.10519643952E-02  0.88533864301E+00  0.88000000000E+00 0. -1.
        -11    1    4    4    0    0  0.22901319333E-01  0.32643547461E-01 -0.18748336855E-02  0.39923022686E-01  0.51100000000E-03 0.  1.
         11    1    4    4    0    0  0.67026204177E-01  0.47544656708E-01 -0.11640759309E-01  0.82998643520E-01  0.51100000000E-03 0. -1.
</event>
<event>
 8    1  0.1044719E+005  0.1043930E+01  0.7957747E-01            NaN
         13   -1    0    0    0    0  0.00000000000E+00  0.00000000000E+00  0.74505805969E-08  0.10566000000E+00  0.10566000000E+00 0. -1.
     999900   -1    0    0    0    0 -0.00000000000E+00 -0.00000000000E+00 -0.74505805969E-08  0.93827000000E+00  0.93827000000E+00 0. -1.
     999902    2    1    2    0    0 -0.11616699806E-01  0.46071980441E-02 -0.21117322142E-01  0.10193919625E+01  0.10190965891E+01 0.  0.
     999903    2    3    3    0    0  0.26427060145E-01  0.10427127173E+00 -0.72575868548E-01  0.13145714665E+00  0.21043694884E-01 0.  0.
         14    1    1    2    0    0  0.11616699806E-01 -0.46071980441E-02  0.21117322142E-01  0.24538037466E-01  0.00000000000E+00 0. -1.
     999901    1    3    3    0    0 -0.38043759951E-01 -0.99664073687E-01  0.51458546406E-01  0.88793481588E+00  0.88000000000E+00 0.  1.
        -11    1    4    4    0    0  0.26071060200E-01  0.97714428718E-01 -0.60908071848E-01  0.11805873156E+00  0.51100000000E-03 0.  1.
         11    1    4    4    0    0  0.35599994480E-03  0.65568430139E-02 -0.11667796700E-01  0.13398415097E-01  0.51100000000E-03 0. -1.
</event>
<event>
 8    1  0.1044719E+005  0.1043930E+01  0.7957747E-01            NaN
         13   -1    0    0    0    0  0.00000000000E+00  0.00000000000E+00  0.74505805969E-08  0.10566000000E+00  0.10566000000E+00 0.  1.
     999900   -1    0    0    0    0 -0.00000000000E+00 -0.00000000000E+00 -0.74505805969E-08  0.93827000000E+00  0.93827000000E+00 0.  1.
     999902    2    1    2    0    0  0.13766149173E-01 -0.12119910917E-01 -0.13725562802E-01  0.10210217007E+01  0.10207646757E+01 0.  0.
     999903    2    3    3    0    0  0.11543868657E+00 -0.61437756604E-01  0.15775886088E-01  0.13330559164E+00  0.20513748703E-01 0.  0.
         14    1    1    2    0    0 -0.13766149173E-01  0.12119910917E-01  0.13725562802E-01  0.22908299324E-01  0.00000000000E+00 0. -1.
     999901    1    3    3    0    0 -0.10167253740E+00  0.49317845687E-01 -0.29501448891E-01  0.88771610904E+00  0.88000000000E+00 0. -1.
        -11    1    4    4    0    0  0.50916615328E-01 -0.22984821058E-01  0.16281763286E-01  0.58190726514E-01  0.51100000000E-03 0.  1.
         11    1    4    4    0    0  0.64522071242E-01 -0.38452935546E-01 -0.50587719754E-03  0.75114865121E-01  0.51100000000E-03 0. -1.
</event>
<event>
 8    1  0.1044719E+005  0.1043930E+01  0.7957747E-01            NaN
         13   -1    0    0    0    0  0.00000000000E+00  0.00000000000E+00  0.74505805969E-08  0.10566000000E+00  0.10566000000E+00 0.  1.
     999900   -1    0    0    0    0 -0.00000000000E+00 -0.00000000000E+00 -0.74505805969E-08  0.93827000000E+00  0.93827000000E+00 0. -1.
     999902    2    1    2    0    0 -0.19295732175E-01  0.56658300101E-02  0.13219514299E-01  0.10198637899E+01  0.10195797995E+01 0.  0.
     999903    2    3    3    0    0 -0.90098334128E-01  0.90566438507E-01  0.30048862171E-01  0.13278749741E+00  0.20238472120E-01 0.  0.
         14    1    1    2    0    0  0.19295732175E-01 -0.56658300101E-02 -0.13219514299E-01  0.24066210092E-01  0.00000000000E+00 0. -1.
     999901    1    3    3    0    0  0.70802601953E-01 -0.84900608497E-01 -0.16829347872E-01  0.88707629250E+00  0.88000000000E+00 0. -1.
        -11    1    4    4    0    0 -0.73453571600E-01  0.64819024599E-01  0.28749540144E-01  0.10209667140E+00  0.51100000000E-03 0. -1.
         11    1    4    4    0    0 -0.16644762528E-01  0.25747413908E-01  0.12993220268E-02  0.30690826011E-01  0.51100000000E-03 0.  1.
</event>
<event>
 8    1  0.1044719E+005  0.1043930E+01  0.7957747E-01            NaN
         13   -1    0    0    0    0  0.00000000000E+00  0.00000000000E+00  0.74505805969E-08  0.10566000000E+00  0.10566000000E+00 0. -1.
     999900   -1    0    0    0    0 -0.00000000000E+00 -0.00000000000E+00 -0.74505805969E-08  0.93827000000E+00  0.93827000000E+00 0.  1.
     999902    2    1    2    0    0  0.19682441745E-01  0.10142026900E-01 -0.93079603085E-02  0.10199113125E+01  0.10196284559E+01 0.  0.
     999903    2    3    3    0    0 -0.11751339116E+00  0.44411603468E-01  0.12151094154E-01  0.12836344984E+00  0.23403814708E-01 0.  0.
         14    1    1    2    0    0 -0.19682441745E-01 -0.10142026900E-01  0.93079603085E-02  0.24018687470E-01  0.00000000000E+00 0. -1.
     999901    1    3    3    0    0  0.13719583290E+00 -0.34269576567E-01 -0.21459054462E-01  0.89154786269E+00  0.88000000000E+00 0. -1.
        -11    1    4    4    0    0 -0.45135375955E-01  0.28648743320E-01  0.11497345281E-02  0.53474626384E-01  0.51100000000E-03 0.  1.
         11    1    4    4    0    0 -0.72378015201E-01  0.15762860148E-01  0.11001359626E-01  0.74888823459E-01  0.51100000000E-03 0. -1.
</event>
<event>
 8    1  0.1044719E+005  0.1043930E+01  0.7957747E-01            NaN
         13   -1    0    0    0    0  0.00000000000E+00  0.00000000000E+00  0.74505805969E-08  0.10566000000E+00  0.10566000000E+00 0.  1.
     999900   -1    0    0    0    0 -0.00000000000E+00 -0.00000000000E+00 -0.74505805969E-08  0.93827000000E+00  0.93827000000E+00 0.  1.
     999902    2    1    2    0    0 -0.33991746412E-02 -0.21030576794E-01 -0.88695045567E-02  0.10208538725E+01  0.10205930244E+01 0.  0.
     999903    2    3    3    0    0  0.81396913910E-01 -0.75795474021E-01 -0.69990071941E-01  0.13297702613E+00  0.20343741805E-01 0.  0.
         14    1    1    2    0    0  0.33991746412E-02  0.21030576794E-01  0.88695045567E-02  0.23076127483E-01  0.00000000000E+00 0. -1.
     999901    1    3    3    0    0 -0.84796088551E-01  0.54764897227E-01  0.61120567384E-01  0.88787684639E+00  0.88000000000E+00 0.  1.
        -11    1    4    4    0    0  0.63914839966E-01 -0.47070336201E-01 -0.47195694448E-01  0.92349434289E-01  0.51100000000E-03 0. -1.
         11    1    4    4    0    0  0.17482073944E-01 -0.28725137820E-01 -0.22794377493E-01  0.40627591836E-01  0.51100000000E-03 0.  1.
</event>
<event>
 8    1  0.1044719E+005  0.1043930E+01  0.7957747E-01            NaN
         13   -1    0    0    0    0  0.00000000000E+00  0.00000000000E+00  0.74505805969E-08  0.10566000000E+00  0.10566000000E+00 0.  1.
     999900   -1    0    0    0    0 -0.00000000000E+00 -0.00000000000E+00 -0.74505805969E-08  0.93827000000E+00  0.93827000000E+00 0.  1.
     999902    2    1    2    0    0  0.89080668387E-02 -0.19129252874E-01 -0.10866541154E-01  0.10201947164E+01  0.10199185731E+01 0.  0.
     999903    2    3    3    0    0  0.95586497169E-01  0.60877724493E-01 -0.63081963012E-01  0.13079001832E+00  0.16846930100E-01 0.  0.
         14    1    1    2    0    0 -0.89080668387E-02  0.19129252874E-01  0.10866541154E-01  0.23735283588E-01  0.00000000000E+00 0. -1.
     999901    1    3    3    0    0 -0.86678430330E-01 -0.80006977367E-01  0.52215421858E-01  0.88940469809E+00  0.88000000000E+00 0. -1.
        -11    1    4    4    0    0  0.42412071320E-01  0.18923066325E-01 -0.20387138406E-01  0.50722408915E-01  0.51100000000E-03 0. -1.
         11    1    4    4    0    0  0.53174425849E-01  0.41954658168E-01 -0.42694824606E-01  0.80067609403E-01  0.51100000000E-03 0.  1.
</event>
<event>
 8    1  0.1044719E+005  0.1043930E+01  0.7957747E-01            NaN
         13   -1    0    0    0    0  0.00000000000E+00  0.00000000000E+00  0.74505805969E-08  0.10566000000E+00  0.10566000000E+00 0. -1.
     999900   -1    0    0    0    0 -0.00000000000E+00 -0.00000000000E+00 -0.74505805969E-08  0.93827000000E+00  0.93827000000E+00 0. -1.
     999902    2    1    2    0    0  0.12273198088E-01 -0.17735440979E-01  0.86742055196E-02  0.10206830841E+01  0.10204183157E+01 0.  0.
     999903    2    3    3    0    0 -0.17573756059E-02 -0.76139700680E-01 -0.10525563375E+00  0.13130806598E+00  0.19045140246E-01 0.  0.
         14    1    1    2    0    0 -0.12273198088E-01  0.17735440979E-01 -0.86742055196E-02  0.23246915912E-01  0.00000000000E+00 0. -1.
     999901    1    3    3    0    0  0.14030573694E-01  0.58404259702E-01  0.11392983927E+00  0.88937501810E+00  0.88000000000E+00 0.  1.
        -11    1    4    4    0    0  0.70617889558E-02 -0.35744965649E-01 -0.40534820497E-01  0.54506001745E-01  0.51100000000E-03 0.  1.
         11    1    4    4    0    0 -0.88191645617E-02 -0.40394735031E-01 -0.64720813257E-01  0.76802064240E-01  0.51100000000E-03 0. -1.
</event>
<event>
 8    1  0.1044719E+005  0.1043930E+01  0.7957747E-01            NaN
         13   -1    0    0    0    0  0.00000000000E+00  0.00000000000E+00  0.74505805969E-08  0.10566000000E+00  0.10566000000E+00 0.  1.
     999900   -1    0    0    0    0 -0.00000000000E+00 -0.00000000000E+00 -0.74505805969E-08  0.93827000000E+00  0.93827000000E+00 0. -1.
     999902    2    1    2    0    0 -0.20955383846E-01 -0.25447080437E-02 -0.10783783621E-01  0.10202257042E+01  0.10199502899E+01 0.  0.
     999903    2    3    3    0    0  0.54534802133E-01  0.53079898245E-01  0.10113737539E+00  0.12819475694E+00  0.20337324405E-01 0.  0.
         14    1    1    2    0    0  0.20955383846E-01  0.25447080437E-02  0.10783783621E-01  0.23704295821E-01  0.00000000000E+00 0. -1.
     999901    1    3    3    0    0 -0.75490185979E-01 -0.55624606288E-01 -0.11192115901E+00  0.89203094724E+00  0.88000000000E+00 0. -1.
        -11    1    4    4    0    0  0.30122045439E-01  0.39274428693E-01  0.53294026201E-01  0.72734673439E-01  0.51100000000E-03 0. -1.
         11    1    4    4    0    0  0.24412756694E-01  0.13805469552E-01  0.47843349189E-01  0.55460083498E-01  0.51100000000E-03 0.  1.
</event>
<event>
 8    1  0.1044719E+005  0.1043930E+01  0.7957747E-01            NaN
         13   -1    0    0    0    0  0.00000000000E+00  0.00000000000E+00  0.74505805969E-08  0.10566000000E+00  0.10566000000E+00 0.  1.
     999900   -1    0    0    0    0 -0.00000000000E+00 -0.00000000000E+00 -0.74505805969E-08  0.93827000000E+00  0.93827000000E+00 0. -1.
     999902    2    1    2    0    0  0.20101071412E-01  0.19916752388E-02 -0.11533113298E-01  0.10206698937E+01  0.10204048213E+01 0.  0.
     999903    2    3    3    0    0  0.52046181344E-01  0.90409966266E-01 -0.80129040193E-01  0.13300797303E+00  0.19689865810E-01 0.  0.
         14    1    1    2    0    0 -0.20101071412E-01 -0.19916752388E-02  0.11533113298E-01  0.23260106287E-01  0.00000000000E+00 0.  1.
     999901    1    3    3    0    0 -0.31945109932E-01 -0.88418291027E-01  0.68595926895E-01  0.88766192068E+00  0.88000000000E+00 0.  1.
        -11    1    4    4    0    0  0.24133673439E-01  0.59329985868E-01 -0.43301964507E-01  0.77316250996E-01  0.51100000000E-03 0.  1.
         11    1    4    4    0    0  0.27912507904E-01  0.31079980398E-01 -0.36827075685E-01  0.55691722038E-01  0.51100000000E-03 0. -1.
</event>
<event>
 8    1  0.1044719E+005  0.1043930E+01  0.7957747E-01            NaN
         13   -1    0    0    0    0  0.00000000000E+00  0.00000000000E+00  0.74505805969E-08  0.10566000000E+00  0.10566000000E+00 0.  1.
     999900   -1    0    0    0    0 -0.00000000000E+00 -0.00000000000E+00 -0.74505805969E-08  0.93827000000E+00  0.93827000000E+00 0.  1.
     999902    2    1    2    0    0  0.82010516124E-02  0.37434589912E-02  0.19802678526E-01  0.10221718565E+01  0.10219402563E+01 0.  0.
     999903    2    3    3    0    0 -0.51959433072E-01  0.92240444215E-01 -0.74038125542E-01  0.13073644277E+00  0.20057198184E-01 0.  0.
         14    1    1    2    0    0 -0.82010516124E-02 -0.37434589912E-02 -0.19802678526E-01  0.21758143523E-01  0.00000000000E+00 0. -1.
     999901    1    3    3    0    0  0.60160484685E-01 -0.88496985224E-01  0.93840804068E-01  0.89143541371E+00  0.88000000000E+00 0. -1.
        -11    1    4    4    0    0 -0.18250266170E-01  0.19621654099E-01 -0.26146248432E-01  0.37442875863E-01  0.51100000000E-03 0. -1.
         11    1    4    4    0    0 -0.33709166902E-01  0.72618790116E-01 -0.47891877110E-01  0.93293566902E-01  0.51100000000E-03 0.  1.
</event>
<event>
 8    1  0.1044719E+005  0.1043930E+01  0.7957747E-01            NaN
         13   -1    0    0    0    0  0.00000000000E+00  0.00000000000E+00  0.74505805969E-08  0.10566000000E+00  0.10566000000E+00 0.  1.
     999900   -1    0    0    0    0 -0.00000000000E+00 -0.00000000000E+00 -0.74505805969E-08  0.93827000000E+00  0.93827000000E+00 0. -1.
     999902    2    1    2    0    0 -0.41859281631E-02  0.11977209321E-01 -0.18622408910E-01  0.10213962553E+01  0.10211476586E+01 0.  0.
     999903    2    3    3    0    0  0.12902917971E+00  0.11094575982E-02 -0.14202080028E-01  0.13129293975E+00  0.19656470653E-01 0.  0.
         14    1    1    2    0    0  0.41859281631E-02 -0.11977209321E-01  0.18622408910E-01  0.22533744724E-01  0.00000000000E+00 0.  1.
     999901    1    3    3    0    0 -0.13321510788E+00  0.10867751723E-01 -0.44203288813E-02  0.89010331552E+00  0.88000000000E+00 0.  1.
        -11    1    4    4    0    0  0.29992686701E-01 -0.24148074861E-02  0.45433927563E-02  0.30435112772E-01  0.51100000000E-03 0. -1.
         11    1    4    4    0    0  0.99036493013E-01  0.35242650844E-02 -0.18745472785E-01  0.10085782698E+00  0.51100000000E-03 0.  1.
</event>
<event>
 8    1  0.1187656E+005  0.1043930E+01  0.7957747E-01            NaN
         13   -1    0    0    0    0  0.00000000000E+00  0.00000000000E+00  0.74505805969E-08  0.10566000000E+00  0.10566000000E+00 0. -1.
     999900   -1    0    0    0    0 -0.00000000000E+00 -0.00000000000E+00 -0.74505805969E-08  0.93827000000E+00  0.93827000000E+00 0.  1.
     999902    2    1    2    0    0 -0.17245343970E-01  0.56649624295E-02  0.14345229347E-01  0.10207938963E+01  0.10205316749E+01 0.  0.
     999903    2    3    3    0    0 -0.27264919796E-01  0.10493596760E+00  0.74931354086E-01  0.13308572194E+00  0.18497794757E-01 0.  0.
         14    1    1    2    0    0  0.17245343970E-01 -0.56649624295E-02 -0.14345229347E-01  0.23136103669E-01  0.00000000000E+00 0.  1.
     999901    1    3    3    0    0  0.10019575827E-01 -0.99271005175E-01 -0.60586124740E-01  0.88770817439E+00  0.88000000000E+00 0. -1.
        -11    1    4    4    0    0 -0.85225206766E-02  0.67820635991E-01  0.44663131170E-01  0.81653710460E-01  0.51100000000E-03 0. -1.
         11    1    4    4    0    0 -0.18742399120E-01  0.37115331613E-01  0.30268222917E-01  0.51432011481E-01  0.51100000000E-03 0.  1.
</event>
<event>
 8    1  0.1044719E+005  0.1043930E+01  0.7957747E-01            NaN
         13   -1    0    0    0    0  0.00000000000E+00  0.00000000000E+00  0.74505805969E-08  0.10566000000E+00  0.10566000000E+00 0. -1.
     999900   -1    0    0    0    0 -0.00000000000E+00 -0.00000000000E+00 -0.74505805969E-08  0.93827000000E+00  0.93827000000E+00 0.  1.
     999902    2    1    2    0    0  0.15975494012E-01  0.17480490331E-01 -0.22445672731E-02  0.10201429860E+01  0.10198656235E+01 0.  0.
     999903    2    3    3    0    0  0.39896524460E-01 -0.75710969883E-01  0.95328008257E-01  0.12953798299E+00  0.19203547950E-01 0.  0.
         14    1    1    2    0    0 -0.15975494012E-01 -0.17480490331E-01  0.22445672731E-02  0.23787013966E-01  0.00000000000E+00 0.  1.
     999901    1    3    3    0    0 -0.23921030448E-01  0.93191460214E-01 -0.97572575530E-01  0.89060500305E+00  0.88000000000E+00 0. -1.
        -11    1    4    4    0    0  0.93287278262E-02 -0.32759348463E-01  0.46781623137E-01  0.57870384990E-01  0.51100000000E-03 0. -1.
         11    1    4    4    0    0  0.30567796634E-01 -0.42951621420E-01  0.48546385120E-01  0.71667597998E-01  0.51100000000E-03 0.  1.
</event>
<event>
 8    1  0.1044719E+005  0.1043930E+01  0.7957747E-01            NaN
         13   -1    0    0    0    0  0.00000000000E+00  0.00000000000E+00  0.74505805969E-08  0.10566000000E+00  0.10566000000E+00 0. -1.
     999900   -1    0    0    0    0 -0.00000000000E+00 -0.00000000000E+00 -0.74505805969E-08  0.93827000000E+00  0.93827000000E+00 0. -1.
     999902    2    1    2    0    0 -0.11992169987E-01  0.16125813207E-01 -0.14831147092E-01  0.10189536729E+01  0.10186475203E+01 0.  0.
     999903    2    3    3    0    0  0.11213233950E+00 -0.43218132219E-01 -0.39325320379E-01  0.12792698290E+00  0.19425849215E-01 0.  0.
         14    1    1    2    0    0  0.11992169987E-01 -0.16125813207E-01  0.14831147092E-01  0.24976327125E-01  0.00000000000E+00 0. -1.
     999901    1    3    3    0    0 -0.12412450949E+00  0.59343945426E-01  0.24494173287E-01  0.89102668997E+00  0.88000000000E+00 0. -1.
        -11    1    4    4    0    0  0.58111973795E-01 -0.28601253577E-01 -0.12928271083E-01  0.66048728366E-01  0.51100000000E-03 0.  1.
         11    1    4    4    0    0  0.54020365706E-01 -0.14616878642E-01 -0.26397049296E-01  0.61878254539E-01  0.51100000000E-03 0. -1.
</event>
<event>
 8    1  0.1044719E+005  0.1043930E+01  0.7957747E-01            NaN
         13   -1    0    0    0    0  0.00000000000E+00  0.00000000000E+00  0.74505805969E-08  0.10566000000E+00  0.10566000000E+00 0.  1.
     999900   -1    0    0    0    0 -0.00000000000E+00 -0.00000000000E+00 -0.74505805969E-08  0.93827000000E+00  0.93827000000E+00 0.  1.
     999902    2    1    2    0    0 -0.92020676652E-02 -0.22293197046E-01  0.57032288383E-02  0.10191471127E+01  0.10188457419E+01 0.  0.
     999903    2    3    3    0    0  0.41952402019E-01  0.10061721344E+00  0.62664188089E-01  0.12731287942E+00  0.19948461612E-01 0.  0.
         14    1    1    2    0    0  0.92020676652E-02  0.22293197046E-01 -0.57032288383E-02  0.24782887302E-01  0.00000000000E+00 0. -1.
     999901    1    3    3    0    0 -0.51154469684E-01 -0.12291041049E+00 -0.56960959251E-01  0.89183423328E+00  0.88000000000E+00 0. -1.
        -11    1    4    4    0    0  0.42377780931E-01  0.85637628697E-01  0.57144958243E-01  0.11133502207E+00  0.51100000000E-03 0. -1.
         11    1    4    4    0    0 -0.42537891270E-03  0.14979584743E-01  0.55192298460E-02  0.15977857347E-01  0.51100000000E-03 0.  1.
</event>
<event>
 8    1  0.1044719E+005  0.1043930E+01  0.7957747E-01            NaN
         13   -1    0    0    0    0  0.00000000000E+00  0.00000000000E+00  0.74505805969E-08  0.10566000000E+00  0.10566000000E+00 0. -1.
     999900   -1    0    0    0    0 -0.00000000000E+00 -0.00000000000E+00 -0.74505805969E-08  0.93827000000E+00  0.93827000000E+00 0.  1.
     999902    2    1    2    0    0 -0.75357889255E-02  0.19404548883E-02 -0.22808113991E-01  0.10198309638E+01  0.10195461889E+01 0.  0.
     999903    2    3    3    0    0  0.45131035439E-01  0.11842467596E+00  0.18625023136E-01  0.12962926029E+00  0.19890686275E-01 0.  0.
         14    1    1    2    0    0  0.75357889255E-02 -0.19404548883E-02  0.22808113991E-01  0.24099036157E-01  0.00000000000E+00 0. -1.
     999901    1    3    3    0    0 -0.52666824365E-01 -0.11648422108E+00 -0.41433137127E-01  0.89020170355E+00  0.88000000000E+00 0.  1.
        -11    1    4    4    0    0  0.36770577429E-01  0.71275669801E-01  0.15101443921E-01  0.81612567657E-01  0.51100000000E-03 0.  1.
         11    1    4    4    0    0  0.83604580099E-02  0.47149006164E-01  0.35235792154E-02  0.48016692638E-01  0.51100000000E-03 0. -1.
</event>
<event>
 8    1  0.1044719E+005  0.1043930E+01  0.7957747E-01            NaN
         13   -1    0    0    0    0  0.00000000000E+00  0.00000000000E+00  0.74505805969E-08  0.10566000000E+00  0.10566000000E+00 0.  1.
     999900   -1    0    0    0    0 -0.00000000000E+00 -0.00000000000E+00 -0.74505805969E-08  0.93827000000E+00  0.93827000000E+00 0.  1.
     999902    2    1    2    0    0 -0.18700543220E-01 -0.10458058043E-01  0.11348304405E-01  0.10196840662E+01  0.10193957669E+01 0.  0.
     999903    2    3    3    0    0  0.30166134388E-02  0.12190567389E+00  0.37382599236E-01  0.12913952661E+00  0.20235249560E-01 0.  0.
         14    1    1    2    0    0  0.18700543220E-01  0.10458058043E-01 -0.11348304405E-01  0.24245933837E-01  0.00000000000E+00 0. -1.
     999901    1    3    3    0    0 -0.21717156659E-01 -0.13236373193E+00 -0.26034294830E-01  0.89054453955E+00  0.88000000000E+00 0. -1.
        -11    1    4    4    0    0  0.70140259271E-02  0.84510111369E-01  0.17475430521E-01  0.86584105216E-01  0.51100000000E-03 0. -1.
         11    1    4    4    0    0 -0.39974124883E-02  0.37395562517E-01  0.19907168715E-01  0.42555421392E-01  0.51100000000E-03 0.  1.
</event>
<event>
 8    1  0.1044719E+005  0.1043930E+01  0.7957747E-01            NaN
         13   -1    0    0    0    0  0.00000000000E+00  0.00000000000E+00  0.74505805969E-08  0.10566000000E+00  0.10566000000E+00 0.  1.
     999900   -1    0    0    0    0 -0.00000000000E+00 -0.00000000000E+00 -0.74505805969E-08  0.93827000000E+00  0.93827000000E+00 0.  1.
     999902    2    1    2    0    0  0.20436088919E-01  0.74674814571E-02 -0.99767609725E-02  0.10199939859E+01  0.10197130962E+01 0.  0.
     999903    2    3    3    0    0  0.96134461864E-02  0.54430846041E-01 -0.11830850401E+00  0.13204215517E+00  0.19572768673E-01 0.  0.
         14    1    1    2    0    0 -0.20436088919E-01 -0.74674814571E-02  0.99767609725E-02  0.23936014061E-01  0.00000000000E+00 0.  1.
     999901    1    3    3    0    0  0.10822642732E-01 -0.46963364584E-01  0.10833174304E+00  0.88795183076E+00  0.88000000000E+00 0. -1.
        -11    1    4    4    0    0  0.33777726296E-02  0.46807027727E-01 -0.82653136523E-01  0.95047931543E-01  0.51100000000E-03 0. -1.
         11    1    4    4    0    0  0.62356735568E-02  0.76238183147E-02 -0.35655367488E-01  0.36994223631E-01  0.51100000000E-03 0.  1.
</event>
<event>
 8    1  0.1044719E+005  0.1043930E+01  0.7957747E-01            NaN
         13   -1    0    0    0    0  0.00000000000E+00  0.00000000000E+00  0.74505805969E-08  0.10566000000E+00  0.10566000000E+00 0. -1.
     999900   -1    0    0    0    0 -0.00000000000E+00 -0.00000000000E+00 -0.74505805969E-08  0.93827000000E+00  0.93827000000E+00 0. -1.
     999902    2    1    2    0    0 -0.22032922208E-01  0.15175432061E-01 -0.37536159039E-02  0.10169145779E+01  0.10165556678E+01 0.  0.
     999903    2    3    3    0    0 -0.11428890499E+00 -0.45075289762E-01 -0.35893876558E-01  0.12946074124E+00  0.19441645960E-01 0.  0.
         14    1    1    2    0    0  0.22032922208E-01 -0.15175432061E-01  0.37536159039E-02  0.27015422107E-01  0.00000000000E+00 0. -1.
     999901    1    3    3    0    0  0.92255982778E-01  0.60250721823E-01  0.32140260654E-01  0.88745383665E+00  0.88000000000E+00 0.  1.
        -11    1    4    4    0    0 -0.70208696784E-01 -0.19896682302E-01 -0.27602376814E-01  0.78021095849E-01  0.51100000000E-03 0. -1.
         11    1    4    4    0    0 -0.44080208202E-01 -0.25178607460E-01 -0.82914997436E-02  0.51439645389E-01  0.51100000000E-03 0.  1.
</event>
<event>
 8    1  0.1044719E+005  0.1043930E+01  0.7957747E-01            NaN
         13   -1    0    0    0    0  0.00000000000E+00  0.00000000000E+00  0.74505805969E-08  0.10566000000E+00  0.10566000000E+00 0. -1.
     999900   -1    0    0    0    0 -0.00000000000E+00 -0.00000000000E+00 -0.74505805969E-08  0.93827000000E+00  0.93827000000E+00 0. -1.
     999902    2    1    2    0    0  0.10389154481E-01  0.21207422181E-01 -0.98193700651E-03  0.10202941483E+01  0.10200203407E+01 0.  0.
     999903    2    3    3    0    0  0.12252588642E-01 -0.81950109263E-01 -0.96860967688E-01  0.12909398153E+00  0.20427008346E-01 0.  0.
         14    1    1    2    0    0 -0.10389154481E-01 -0.21207422181E-01  0.98193700651E-03  0.23635851723E-01  0.00000000000E+00 0.  1.
     999901    1    3    3    0    0 -0.18634341616E-02  0.10315753144E+00  0.95879030682E-01  0.89120016674E+00  0.88000000000E+00 0.  1.
        -11    1    4    4    0    0  0.11943874940E-01 -0.23972389644E-01 -0.37798283752E-01  0.46328209435E-01  0.51100000000E-03 0.  1.
         11    1    4    4    0    0  0.30871370268E-03 -0.57977719618E-01 -0.59062683936E-01  0.82765772099E-01  0.51100000000E-03 0. -1.
</event>
<event>
 8    1  0.1044719E+005  0.1043930E+01  0.7957747E-01            NaN
         13   -1    0    0    0    0  0.00000000000E+00  0.00000000000E+00  0.74505805969E-08  0.10566000000E+00  0.10566000000E+00 0.  1.
     999900   -1    0    0    0    0 -0.00000000000E+00 -0.00000000000E+00 -0.74505805969E-08  0.93827000000E+00  0.93827000000E+00 0.  1.
     999902    2    1    2    0    0  0.13297015621E-01 -0.35476094719E-02  0.19283860047E-01  0.10202390014E+01  0.10199638996E+01 0.  0.
     999903    2    3    3    0    0 -0.16559295256E-01 -0.41326257581E-01 -0.11849561510E+00  0.12821780806E+00  0.20408960816E-01 0.  0.
         14    1    1    2    0    0 -0.13297015621E-01  0.35476094719E-02 -0.19283860047E-01  0.23690998622E-01  0.00000000000E+00 0. -1.
     999901    1    3    3    0    0  0.29856310878E-01  0.37778648109E-01  0.13777947515E+00  0.89202119332E+00  0.88000000000E+00 0. -1.
        -11    1    4    4    0    0 -0.10663930448E-01 -0.35794166623E-01 -0.72942685790E-01  0.81950218475E-01  0.51100000000E-03 0. -1.
         11    1    4    4    0    0 -0.58953648083E-02 -0.55320909578E-02 -0.45552929310E-01  0.46267589588E-01  0.51100000000E-03 0.  1.
</event>
<event>
 8    1  0.1044719E+005  0.1043930E+01  0.7957747E-01            NaN
         13   -1    0    0    0    0  0.00000000000E+00  0.00000000000E+00  0.74505805969E-08  0.10566000000E+00  0.10566000000E+00 0. -1.
     999900   -1    0    0    0    0 -0.00000000000E+00 -0.00000000000E+00 -0.74505805969E-08  0.93827000000E+00  0.93827000000E+00 0. -1.
     999902    2    1    2    0    0 -0.23006877415E-01  0.85745597078E-02 -0.66026873736E-02  0.10185049147E+01  0.10181875202E+01 0.  0.
     999903    2    3    3    0    0  0.96027980640E-01 -0.14760489730E-01 -0.78016300284E-01  0.12731821928E+00  0.26156083951E-01 0.  0.
         14    1    1    2    0    0  0.23006877415E-01 -0.85745597078E-02  0.66026873736E-02  0.25425085312E-01  0.00000000000E+00 0. -1.
     999901    1    3    3    0    0 -0.11903485805E+00  0.23335049437E-01  0.71413612910E-01  0.89118669541E+00  0.88000000000E+00 0.  1.
        -11    1    4    4    0    0  0.49522678139E-01 -0.68084661759E-02 -0.23560337558E-01  0.55264830485E-01  0.51100000000E-03 0.  1.
         11    1    4    4    0    0  0.46505302501E-01 -0.79520235537E-02 -0.54455962726E-01  0.72053388794E-01  0.51100000000E-03 0. -1.
</event>
<event>
 8    1  0.1044719E+005  0.1043930E+01  0.7957747E-01            NaN
         13   -1    0    0    0    0  0.00000000000E+00  0.00000000000E+00  0.74505805969E-08  0.10566000000E+00  0.10566000000E+00 0. -1.
     999900   -1    0    0    0    0 -0.00000000000E+00 -0.00000000000E+00 -0.74505805969E-08  0.93827000000E+00  0.93827000000E+00 0. -1.
     999902    2    1    2    0    0  0.23724728414E-01  0.90087829615E-03 -0.63858527590E-02  0.10193443653E+01  0.10190478308E+01 0.  0.
     999903    2    3    3    0    0  0.12170345919E+00  0.26351303878E-01  0.40002794422E-01  0.13232719382E+00  0.20103220324E-01 0.  0.
         14    1    1    2    0    0 -0.23724728414E-01 -0.90087829615E-03  0.63858527590E-02  0.24585634738E-01  0.00000000000E+00 0. -1.
     999901    1    3    3    0    0 -0.97978730776E-01 -0.25450425582E-01 -0.46388647181E-01  0.88701717144E+00  0.88000000000E+00 0. -1.
        -11    1    4    4    0    0  0.60665992263E-01  0.46368492823E-02  0.13473896349E-01  0.62319098135E-01  0.51100000000E-03 0. -1.
         11    1    4    4    0    0  0.61037466927E-01  0.21714454596E-01  0.26528898074E-01  0.70008095684E-01  0.51100000000E-03 0.  1.
</event>
<event>
 8    1  0.1044719E+005  0.1043930E+01  0.7957747E-01            NaN
         13   -1    0    0    0    0  0.00000000000E+00  0.00000000000E+00  0.74505805969E-08  0.10566000000E+00  0.10566000000E+00 0. -1.
     999900   -1    0    0    0    0 -0.00000000000E+00 -0.00000000000E+00 -0.74505805969E-08  0.93827000000E+00  0.93827000000E+00 0.  1.
     999902    2    1    2    0    0  0.17714452087E-01  0.38585277362E-02  0.15244107799E-01  0.10202430232E+01  0.10199680159E+01 0.  0.
     999903    2    3    3    0    0 -0.60290751842E-01  0.80783079073E-01 -0.77413382824E-01  0.12862224671E+00  0.19747655199E-01 0.  0.
         14    1    1    2    0    0 -0.17714452087E-01 -0.38585277362E-02 -0.15244107799E-01  0.23686976836E-01  0.00000000000E+00 0.  1.
     999901    1    3    3    0    0  0.78005203930E-01 -0.76924551337E-01  0.92657490623E-01  0.89162077646E+00  0.88000000000E+00 0. -1.
        -11    1    4    4    0    0 -0.21139605516E-01  0.19453261471E-01 -0.31247319944E-01  0.42449598678E-01  0.51100000000E-03 0.  1.
         11    1    4    4    0    0 -0.39151146327E-01  0.61329817602E-01 -0.46166062879E-01  0.86172648030E-01  0.51100000000E-03 0. -1.
</event>
<event>
 8    1  0.1044719E+005  0.1043930E+01  0.7957747E-01            NaN
         13   -1    0    0    0    0  0.00000000000E+00  0.00000000000E+00  0.74505805969E-08  0.10566000000E+00  0.10566000000E+00 0.  1.
     999900   -1    0    0    0    0 -0.00000000000E+00 -0.00000000000E+00 -0.74505805969E-08  0.93827000000E+00  0.93827000000E+00 0. -1.
     999902    2    1    2    0    0  0.10051987140E-01 -0.20642376152E-01  0.69913184219E-02  0.10199294027E+01  0.10196469770E+01 0.  0.
     999903    2    3    3    0    0 -0.91409998849E-01 -0.34705813140E-01  0.84765060455E-01  0.13058072538E+00  0.17490826484E-01 0.  0.
         14    1    1    2    0    0 -0.10051987140E-01  0.20642376152E-01 -0.69913184219E-02  0.24000597325E-01  0.00000000000E+00 0. -1.
     999901    1    3    3    0    0  0.10146198599E+00  0.14063436988E-01 -0.77773742033E-01  0.88934867730E+00  0.88000000000E+00 0. -1.
        -11    1    4    4    0    0 -0.28513085466E-01 -0.18871791021E-01  0.33917218366E-01  0.48164087885E-01  0.51100000000E-03 0.  1.
         11    1    4    4    0    0 -0.62896913383E-01 -0.15834022120E-01  0.50847842089E-01  0.82416637493E-01  0.51100000000E-03 0. -1.
</event>
<event>
 8    1  0.1044719E+005  0.1043930E+01  0.7957747E-01            NaN
         13   -1    0    0    0    0  0.00000000000E+00  0.00000000000E+00  0.74505805969E-08  0.10566000000E+00  0.10566000000E+00 0. -1.
     999900   -1    0    0    0    0 -0.00000000000E+00 -0.00000000000E+00 -0.74505805969E-08  0.93827000000E+00  0.93827000000E+00 0.  1.
     999902    2    1    2    0    0 -0.80786676660E-02  0.30152226901E-03 -0.22961479284E-01  0.10195869246E+01  0.10192962825E+01 0.  0.
     999903    2    3    3    0    0 -0.87702120527E-01  0.22066210104E-01  0.89552840651E-01  0.12859137579E+00  0.18369841750E-01 0.  0.
         14    1    1    2    0    0  0.80786676660E-02 -0.30152226901E-03  0.22961479284E-01  0.24343075357E-01  0.00000000000E+00 0. -1.
     999901    1    3    3    0    0  0.79623452861E-01 -0.21764687835E-01 -0.11251431994E+00  0.89099554885E+00  0.88000000000E+00 0.  1.
        -11    1    4    4    0    0 -0.53173282926E-01  0.61544459585E-02  0.44288367765E-01  0.69476584994E-01  0.51100000000E-03 0. -1.
         11    1    4    4    0    0 -0.34528837601E-01  0.15911764146E-01  0.45264472886E-01  0.59114790797E-01  0.51100000000E-03 0.  1.
</event>
<event>
 8    1  0.1044719E+005  0.1043930E+01  0.7957747E-01            NaN
         13   -1    0    0    0    0  0.00000000000E+00  0.00000000000E+00  0.74505805969E-08  0.10566000000E+00  0.10566000000E+00 0. -1.
     999900   -1    0    0    0    0 -0.00000000000E+00 -0.00000000000E+00 -0.74505805969E-08  0.93827000000E+00  0.93827000000E+00 0. -1.
     999902    2    1    2    0    0  0.10284476382E-01  0.10587005256E-01 -0.17764281455E-01  0.10208340083E+01  0.10205727058E+01 0.  0.
     999903    2    3    3    0    0  0.12125342745E+00  0.14225869832E-01 -0.48975400147E-01  0.13330852513E+00  0.21628777407E-01 0.  0.
         14    1    1    2    0    0 -0.10284476382E-01 -0.10587005256E-01  0.17764281455E-01  0.23095991651E-01  0.00000000000E+00 0. -1.
     999901    1    3    3    0    0 -0.11096895107E+00 -0.36388645764E-02  0.31211118692E-01  0.88752548322E+00  0.88000000000E+00 0.  1.
        -11    1    4    4    0    0  0.19548342179E-01 -0.54851088016E-02 -0.63007744424E-02  0.21264641546E-01  0.51100000000E-03 0.  1.
         11    1    4    4    0    0  0.10170508527E+00  0.19710978634E-01 -0.42674625705E-01  0.11204388358E+00  0.51100000000E-03 0. -1.
</event>
<event>
 8    1  0.1044719E+005  0.1043930E+01  0.7957747E-01            NaN
         13   -1    0    0    0    0  0.00000000000E+00  0.00000000000E+00  0.74505805969E-08  0.10566000000E+00  0.10566000000E+00 0. -1.
     999900   -1    0    0    0    0 -0.00000000000E+00 -0.00000000000E+00 -0.74505805969E-08  0.93827000000E+00  0.93827000000E+00 0.  1.
     999902    2    1    2    0    0  0.14837913301E-01  0.18183030171E-01 -0.57475597971E-02  0.10197676181E+01  0.10194813260E+01 0.  0.
     999903    2    3    3    0    0  0.10284130627E+00 -0.34195039643E-01  0.70077427358E-01  0.13058963360E+00  0.19929163718E-01 0.  0.
         14    1    1    2    0    0 -0.14837913301E-01 -0.18183030171E-01  0.57475597971E-02  0.24162381939E-01  0.00000000000E+00 0. -1.
     999901    1    3    3    0    0 -0.88003392973E-01  0.52378069814E-01 -0.75824987155E-01  0.88917798446E+00  0.88000000000E+00 0.  1.
        -11    1    4    4    0    0  0.87986064318E-01 -0.22282654780E-01  0.53646547571E-01  0.10543375838E+00  0.51100000000E-03 0.  1.
         11    1    4    4    0    0  0.14855241956E-01 -0.11912384863E-01  0.16430879787E-01  0.25155875224E-01  0.51100000000E-03 0. -1.
</event>
<event>
 8    1  0.1044719E+005  0.1043930E+01  0.7957747E-01            NaN
         13   -1    0    0    0    0  0.00000000000E+00  0.00000000000E+00  0.74505805969E-08  0.10566000000E+00  0.10566000000E+00 0. -1.
     999900   -1    0    0    0    0 -0.00000000000E+00 -0.00000000000E+00 -0.74505805969E-08  0.93827000000E+00  0.93827000000E+00 0.  1.
     999902    2    1    2    0    0 -0.14424681108E-01  0.14287170578E-02  0.18205421183E-01  0.10206587727E+01  0.10203934439E+01 0.  0.
     999903    2    3    3    0    0 -0.31032490708E-01 -0.55464241126E-01 -0.11046908629E+00  0.12932844290E+00  0.21980209117E-01 0.  0.
         14    1    1    2    0    0  0.14424681108E-01 -0.14287170578E-02 -0.18205421183E-01  0.23271227255E-01  0.00000000000E+00 0.  1.
     999901    1    3    3    0    0  0.16607809600E-01  0.56892958184E-01  0.12867450748E+00  0.89133032985E+00  0.88000000000E+00 0. -1.
        -11    1    4    4    0    0 -0.55367165699E-02 -0.30896376114E-01 -0.59379967083E-01  0.67167573271E-01  0.51100000000E-03 0.  1.
         11    1    4    4    0    0 -0.25495774138E-01 -0.24567865012E-01 -0.51089119211E-01  0.62160869628E-01  0.51100000000E-03 0. -1.
</event>
<event>
 8    1  0.1044719E+005  0.1043930E+01  0.7957747E-01            NaN
         13   -1    0    0    0    0  0.00000000000E+00  0.00000000000E+00  0.74505805969E-08  0.10566000000E+00  0.10566000000E+00 0. -1.
     999900   -1    0    0    0    0 -0.00000000000E+00 -0.00000000000E+00 -0.74505805969E-08  0.93827000000E+00  0.93827000000E+00 0. -1.
     999902    2    1    2    0    0 -0.18668763309E-01 -0.17708527015E-01 -0.15693291973E-02  0.10181506003E+01  0.10178241830E+01 0.  0.
     999903    2    3    3    0    0 -0.63981330319E-01 -0.10152665103E+00  0.50809027987E-01  0.13145888450E+00  0.17280320885E-01 0.  0.
         14    1    1    2    0    0  0.18668763309E-01  0.17708527015E-01  0.15693291973E-02  0.25779399657E-01  0.00000000000E+00 0. -1.
     999901    1    3    3    0    0  0.45312567010E-01  0.83818124018E-01 -0.52378357184E-01  0.88669171584E+00  0.88000000000E+00 0. -1.
        -11    1    4    4    0    0 -0.64816423126E-01 -0.10006056116E+00  0.48897404906E-01  0.12885845698E+00  0.51100000000E-03 0.  1.
         11    1    4    4    0    0  0.83509280759E-03 -0.14660898734E-02  0.19116230803E-02  0.26004275255E-02  0.51100000000E-03 0. -1.
</event>
<event>
 8    1  0.1044719E+005  0.1043930E+01  0.7957747E-01            NaN
         13   -1    0    0    0    0  0.00000000000E+00  0.00000000000E+00  0.74505805969E-08  0.10566000000E+00  0.10566000000E+00 0. -1.
     999900   -1    0    0    0    0 -0.00000000000E+00 -0.00000000000E+00 -0.74505805969E-08  0.93827000000E+00  0.93827000000E+00 0.  1.
     999902    2    1    2    0    0 -0.10426993840E-01  0.11407071414E-01 -0.17859990872E-01  0.10203117284E+01  0.10200383328E+01 0.  0.
     999903    2    3    3    0    0  0.58331485587E-03 -0.61909283014E-01  0.11016572977E+00  0.12796252554E+00  0.20120147793E-01 0.  0.
         14    1    1    2    0    0  0.10426993840E-01 -0.11407071414E-01  0.17859990872E-01  0.23618271587E-01  0.00000000000E+00 0. -1.
     999901    1    3    3    0    0 -0.11010308696E-01  0.73316354428E-01 -0.12802572064E+00  0.89234920287E+00  0.88000000000E+00 0.  1.
        -11    1    4    4    0    0 -0.56876202427E-02 -0.12265507329E-01  0.36326987875E-01  0.38764711570E-01  0.51100000000E-03 0.  1.
         11    1    4    4    0    0  0.62709350986E-02 -0.49643775685E-01  0.73838741895E-01  0.89197813969E-01  0.51100000000E-03 0. -1.
</event>
<event>
 8    1  0.1044719E+005  0.1043930E+01  0.7957747E-01            NaN
         13   -1    0    0    0    0  0.00000000000E+00  0.00000000000E+00  0.74505805969E-08  0.10566000000E+00  0.10566000000E+00 0.  1.
     999900   -1    0    0    0    0 -0.00000000000E+00 -0.00000000000E+00 -0.74505805969E-08  0.93827000000E+00  0.93827000000E+00 0.  1.
     999902    2    1    2    0    0  0.14797253123E-01 -0.91492972211E-02  0.16019278987E-01  0.10202807793E+01  0.10200066583E+01 0.  0.
     999903    2    3    3    0    0 -0.92498794566E-01  0.63829778861E-01  0.61406449008E-01  0.12960778512E+00  0.19928831318E-01 0.  0.
         14    1    1    2    0    0 -0.14797253123E-01  0.91492972211E-02 -0.16019278987E-01  0.23649220682E-01  0.00000000000E+00 0. -1.
     999901    1    3    3    0    0  0.10729604769E+00 -0.72979076082E-01 -0.45387170021E-01  0.89067299420E+00  0.88000000000E+00 0.  1.
        -11    1    4    4    0    0 -0.36896360311E-01  0.34972509460E-01  0.20670186265E-01  0.54881103700E-01  0.51100000000E-03 0. -1.
         11    1    4    4    0    0 -0.55602434255E-01  0.28857269401E-01  0.40736262744E-01  0.74726681417E-01  0.51100000000E-03 0.  1.
</event>
<event>
 7    1  0.1044719E+005  0.1043930E+01  0.7957747E-01            NaN
         13   -1    0    0    0    0  0.00000000000E+00  0.00000000000E+00  0.74505805969E-08  0.10566000000E+00  0.10566000000E+00 0. -1.
     999900   -1    0    0    0    0 -0.00000000000E+00 -0.00000000000E+00 -0.74505805969E-08  0.93827000000E+00  0.93827000000E+00 0.  1.
     999902    2    1    2    0    0 -0.18560010882E-01  0.77091293261E-02 -0.12312956993E-01  0.10203606642E+01  0.10200884136E+01 0.  0.
         14    1    1    2    0    0  0.18560010882E-01 -0.77091293261E-02  0.12312956993E-01  0.23569335774E-01  0.00000000000E+00 0.  1.
     999901    1    3    3    0    0  0.16876066998E-02  0.17108498965E-01 -0.13426868433E+00  0.89035028407E+00  0.88000000000E+00 0.  1.
        -11    1    3    3    0    0 -0.23153648272E-01  0.79892678984E-02  0.46932398804E-01  0.52941769978E-01  0.51100000000E-03 0.  1.
         11    1    3    3    0    0  0.29060306904E-02 -0.17388637537E-01  0.75023328531E-01  0.77068610177E-01  0.51100000000E-03 0. -1.
</event>
<event>
 8    1  0.1044719E+005  0.1043930E+01  0.7957747E-01            NaN
         13   -1    0    0    0    0  0.00000000000E+00  0.00000000000E+00  0.74505805969E-08  0.10566000000E+00  0.10566000000E+00 0. -1.
     999900   -1    0    0    0    0 -0.00000000000E+00 -0.00000000000E+00 -0.74505805969E-08  0.93827000000E+00  0.93827000000E+00 0.  1.
     999902    2    1    2    0    0  0.16521081444E-01 -0.16685028783E-01 -0.40870207191E-02  0.10200964091E+01  0.10198179464E+01 0.  0.
     999903    2    3    3    0    0 -0.97299769708E-01  0.61344114255E-01  0.51322796747E-01  0.12762008940E+00  0.20555101909E-01 0.  0.
         14    1    1    2    0    0 -0.16521081444E-01  0.16685028783E-01  0.40870207191E-02  0.23833590915E-01  0.00000000000E+00 0. -1.
     999901    1    3    3    0    0  0.11382085115E+00 -0.78029143038E-01 -0.55409817466E-01  0.89247631968E+00  0.88000000000E+00 0. -1.
        -11    1    4    4    0    0 -0.52703537368E-01  0.31921235789E-01  0.16313723075E-01  0.63741876557E-01  0.51100000000E-03 0. -1.
         11    1    4    4    0    0 -0.44596232339E-01  0.29422878466E-01  0.35009073672E-01  0.63878212847E-01  0.51100000000E-03 0.  1.
</event>
<event>
 8    1  0.1044719E+005  0.1043930E+01  0.7957747E-01            NaN
         13   -1    0    0    0    0  0.00000000000E+00  0.00000000000E+00  0.74505805969E-08  0.10566000000E+00  0.10566000000E+00 0. -1.
     999900   -1    0    0    0    0 -0.00000000000E+00 -0.00000000000E+00 -0.74505805969E-08  0.93827000000E+00  0.93827000000E+00 0. -1.
     999902    2    1    2    0    0  0.29430144616E-02 -0.12064478368E-01  0.17205745407E-01  0.10227108896E+01  0.10224907398E+01 0.  0.
     999903    2    3    3    0    0 -0.12463761507E+00 -0.13972073723E-01  0.40189256571E-01  0.13321176212E+00  0.20011079126E-01 0.  0.
         14    1    1    2    0    0 -0.29430144616E-02  0.12064478368E-01 -0.17205745407E-01  0.21219110430E-01  0.00000000000E+00 0.  1.
     999901    1    3    3    0    0  0.12758062953E+00  0.19075953548E-02 -0.22983511163E-01  0.88949912745E+00  0.88000000000E+00 0.  1.
        -11    1    4    4    0    0 -0.61745992769E-01 -0.76108792989E-02  0.94826216741E-02  0.62933888657E-01  0.51100000000E-03 0. -1.
         11    1    4    4    0    0 -0.62891622304E-01 -0.63611944236E-02  0.30706634897E-01  0.70277873461E-01  0.51100000000E-03 0.  1.
</event>
<event>
 8    1  0.1044719E+005  0.1043930E+01  0.7957747E-01            NaN
         13   -1    0    0    0    0  0.00000000000E+00  0.00000000000E+00  0.74505805969E-08  0.10566000000E+00  0.10566000000E+00 0. -1.
     999900   -1    0    0    0    0 -0.00000000000E+00 -0.00000000000E+00 -0.74505805969E-08  0.93827000000E+00  0.93827000000E+00 0. -1.
     999902    2    1    2    0    0 -0.77752798706E-02 -0.18365505504E-01  0.11974659752E-01  0.10206676002E+01  0.10204024749E+01 0.  0.
     999903    2    3    3    0    0  0.94364080721E-01  0.75986753784E-01  0.40418815039E-01  0.12929569811E+00  0.20127852850E-01 0.  0.
         14    1    1    2    0    0  0.77752798706E-02  0.18365505504E-01 -0.11974659752E-01  0.23262399826E-01  0.00000000000E+00 0.  1.
     999901    1    3    3    0    0 -0.10213936059E+00 -0.94352259288E-01 -0.28444155287E-01  0.89137190206E+00  0.88000000000E+00 0.  1.
        -11    1    4    4    0    0  0.86153376945E-01  0.62840928642E-01  0.30602167001E-01  0.11094205883E+00  0.51100000000E-03 0. -1.
         11    1    4    4    0    0  0.82107037762E-02  0.13145825142E-01  0.98166480383E-02  0.18353639282E-01  0.51100000000E-03 0.  1.
</event>
<event>
 8    1  0.1044719E+005  0.1043930E+01  0.7957747E-01            NaN
         13   -1    0    0    0    0  0.00000000000E+00  0.00000000000E+00  0.74505805969E-08  0.10566000000E+00  0.10566000000E+00 0. -1.
     999900   -1    0    0    0    0 -0.00000000000E+00 -0.00000000000E+00 -0.74505805969E-08  0.93827000000E+00  0.93827000000E+00 0. -1.
     999902    2    1    2    0    0 -0.18442572060E-01 -0.13317371359E-01  0.70611263223E-02  0.10201110926E+01  0.10198329770E+01 0.  0.
     999903    2    3    3    0    0 -0.86810819129E-01 -0.42775259505E-01 -0.87411471118E-01  0.13192921031E+00  0.19967726644E-01 0.  0.
         14    1    1    2    0    0  0.18442572060E-01  0.13317371359E-01 -0.70611263223E-02  0.23818907385E-01  0.00000000000E+00 0. -1.
     999901    1    3    3    0    0  0.68368247069E-01  0.29457888146E-01  0.94472597440E-01  0.88818188230E+00  0.88000000000E+00 0. -1.
        -11    1    4    4    0    0 -0.35402848592E-02  0.20558311123E-02 -0.50409315089E-02  0.65139979984E-02  0.51100000000E-03 0.  1.
         11    1    4    4    0    0 -0.83270534270E-01 -0.44831090617E-01 -0.82370539609E-01  0.12541521231E+00  0.51100000000E-03 0. -1.
</event>
<event>
 8    1  0.1044719E+005  0.1043930E+01  0.7957747E-01            NaN
         13   -1    0    0    0    0  0.00000000000E+00  0.00000000000E+00  0.74505805969E-08  0.10566000000E+00  0.10566000000E+00 0. -1.
     999900   -1    0    0    0    0 -0.00000000000E+00 -0.00000000000E+00 -0.74505805969E-08  0.93827000000E+00  0.93827000000E+00 0.  1.
     999902    2    1    2    0    0  0.23992706606E-01 -0.27420152253E-03  0.36839400576E-02  0.10196545686E+01  0.10193655589E+01 0.  0.
     999903    2    3    3    0    0 -0.21187197025E-01 -0.83041890191E-01 -0.94543719059E-01  0.12918256621E+00  0.20118840762E-01 0.  0.
         14    1    1    2    0    0 -0.23992706606E-01  0.27420152253E-03 -0.36839400576E-02  0.24275431430E-01  0.00000000000E+00 0.  1.
     999901    1    3    3    0    0  0.45179903631E-01  0.82767688669E-01  0.98227659117E-01  0.89047200236E+00  0.88000000000E+00 0. -1.
        -11    1    4    4    0    0  0.36237875449E-03 -0.18157145180E-01 -0.11041924216E-01  0.21260255192E-01  0.51100000000E-03 0. -1.
         11    1    4    4    0    0 -0.21549575780E-01 -0.64884745012E-01 -0.83501794843E-01  0.10792231101E+00  0.51100000000E-03 0.  1.
</event>
<event>
 8    1  0.1044719E+005  0.1043930E+01  0.7957747E-01            NaN
         13   -1    0    0    0    0  0.00000000000E+00  0.00000000000E+00  0.74505805969E-08  0.10566000000E+00  0.10566000000E+00 0.  1.
     999900   -1    0    0    0    0 -0.00000000000E+00 -0.00000000000E+00 -0.74505805969E-08  0.93827000000E+00  0.93827000000E+00 0. -1.
     999902    2    1    2    0    0 -0.15357328812E-01 -0.24216605061E-01  0.14163780501E-01  0.10119471267E+01  0.10114415865E+01 0.  0.
     999903    2    3    3    0    0  0.78174886642E-01  0.87098714422E-01 -0.10706981834E-01  0.11967030274E+00  0.22557547377E-01 0.  0.
         14    1    1    2    0    0  0.15357328812E-01  0.24216605061E-01 -0.14163780501E-01  0.31982873339E-01  0.00000000000E+00 0. -1.
     999901    1    3    3    0    0 -0.93532215454E-01 -0.11131531948E+00  0.24870762336E-01  0.89227682392E+00  0.88000000000E+00 0.  1.
        -11    1    4    4    0    0  0.19537302728E-01  0.36198692665E-01  0.96178702914E-03  0.41148969657E-01  0.51100000000E-03 0.  1.
         11    1    4    4    0    0  0.58637583914E-01  0.50900021756E-01 -0.11668768863E-01  0.78521333088E-01  0.51100000000E-03 0. -1.
</event>
<event>
 8    1  0.1044719E+005  0.1043930E+01  0.7957747E-01            NaN
         13   -1    0    0    0    0  0.00000000000E+00  0.00000000000E+00  0.74505805969E-08  0.10566000000E+00  0.10566000000E+00 0. -1.
     999900   -1    0    0    0    0 -0.00000000000E+00 -0.00000000000E+00 -0.74505805969E-08  0.93827000000E+00  0.93827000000E+00 0.  1.
     999902    2    1    2    0    0  0.19427318933E-01  0.13165118610E-01 -0.81748843908E-03  0.10204478928E+01  0.10201776770E+01 0.  0.
     999903    2    3    3    0    0  0.10677814439E-01  0.81697904947E-01 -0.10126455041E+00  0.13204319403E+00  0.19807385625E-01 0.  0.
         14    1    1    2    0    0 -0.19427318933E-01 -0.13165118610E-01  0.81748843908E-03  0.23482107151E-01  0.00000000000E+00 0. -1.
     999901    1    3    3    0    0  0.87495044937E-02 -0.68532786337E-01  0.10044706197E+00  0.88840469882E+00  0.88000000000E+00 0. -1.
        -11    1    4    4    0    0 -0.54590397893E-02  0.15546401511E-01 -0.23092363108E-01  0.28372699383E-01  0.51100000000E-03 0. -1.
         11    1    4    4    0    0  0.16136854228E-01  0.66151503436E-01 -0.78172187300E-01  0.10367049464E+00  0.51100000000E-03 0.  1.
</event>
<event>
 8    1  0.1044719E+005  0.1043930E+01  0.7957747E-01            NaN
         13   -1    0    0    0    0  0.00000000000E+00  0.00000000000E+00  0.74505805969E-08  0.10566000000E+00  0.10566000000E+00 0.  1.
     999900   -1    0    0    0    0 -0.00000000000E+00 -0.00000000000E+00 -0.74505805969E-08  0.93827000000E+00  0.93827000000E+00 0. -1.
     999902    2    1    2    0    0 -0.13741363104E-01 -0.68368858149E-02 -0.18239776409E-01  0.10200918476E+01  0.10198132770E+01 0.  0.
     999903    2    3    3    0    0  0.86095747012E-01  0.90120493552E-01 -0.27451674213E-01  0.12910753737E+00  0.19518728876E-01 0.  0.
         14    1    1    2    0    0  0.13741363104E-01  0.68368858149E-02  0.18239776409E-01  0.23838152426E-01  0.00000000000E+00 0.  1.
     999901    1    3    3    0    0 -0.99837110116E-01 -0.96957379367E-01  0.92118978039E-02  0.89098431020E+00  0.88000000000E+00 0. -1.
        -11    1    4    4    0    0  0.14745034081E-01  0.27535793990E-01 -0.73101403879E-02  0.32083255044E-01  0.51100000000E-03 0.  1.
         11    1    4    4    0    0  0.71350712931E-01  0.62584699562E-01 -0.20141533825E-01  0.97024282325E-01  0.51100000000E-03 0. -1.
</event>
<event>
 8    1  0.1044719E+005  0.1043930E+01  0.7957747E-01            NaN
         13   -1    0    0    0    0  0.00000000000E+00  0.00000000000E+00  0.74505805969E-08  0.10566000000E+00  0.10566000000E+00 0.  1.
     999900   -1    0    0    0    0 -0.00000000000E+00 -0.00000000000E+00 -0.74505805969E-08  0.93827000000E+00  0.93827000000E+00 0.  1.
     999902    2    1    2    0    0  0.16342486521E-01 -0.11307008051E-01 -0.13837433459E-01  0.10197143055E+01  0.10194267335E+01 0.  0.
     999903    2    3    3    0    0 -0.10374798420E+00 -0.40583478061E-01 -0.63578696740E-01  0.12968451601E+00  0.19109162665E-01 0.  0.
         14    1    1    2    0    0 -0.16342486521E-01  0.11307008051E-01  0.13837433459E-01  0.24215694528E-01  0.00000000000E+00 0.  1.
     999901    1    3    3    0    0  0.12009047072E+00  0.29276470010E-01  0.49741263281E-01  0.89002978946E+00  0.88000000000E+00 0. -1.
        -11    1    4    4    0    0 -0.67779347403E-01 -0.35648839227E-01 -0.46083048078E-01  0.89380020775E-01  0.51100000000E-03 0. -1.
         11    1    4    4    0    0 -0.35968636793E-01 -0.49346388341E-02 -0.17495648662E-01  0.40304495237E-01  0.51100000000E-03 0.  1.
</event>
<event>
 8    1  0.1044719E+005  0.1043930E+01  0.7957747E-01            NaN
         13   -1    0    0    0    0  0.00000000000E+00  0.00000000000E+00  0.74505805969E-08  0.10566000000E+00  0.10566000000E+00 0. -1.
     999900   -1    0    0    0    0 -0.00000000000E+00 -0.00000000000E+00 -0.74505805969E-08  0.93827000000E+00  0.93827000000E+00 0.  1.
     999902    2    1    2    0    0 -0.26043318810E-02  0.18498563622E-01  0.13064979461E-01  0.10211336606E+01  0.10208791700E+01 0.  0.
     999903    2    3    3    0    0 -0.35635430771E-02  0.54960230513E-01  0.12056522882E+00  0.13384189528E+00  0.18556744182E-01 0.  0.
         14    1    1    2    0    0  0.26043318810E-02 -0.18498563622E-01 -0.13064979461E-01  0.22796339376E-01  0.00000000000E+00 0.  1.
     999901    1    3    3    0    0  0.95921119611E-03 -0.36461666891E-01 -0.10750024936E+00  0.88729176535E+00  0.88000000000E+00 0.  1.
        -11    1    4    4    0    0 -0.21210089753E-02  0.48937594842E-01  0.88245913836E-01  0.10093061626E+00  0.51100000000E-03 0.  1.
         11    1    4    4    0    0 -0.14425341018E-02  0.60226356714E-02  0.32319314981E-01  0.32911279022E-01  0.51100000000E-03 0. -1.
</event>
<event>
 8    1  0.1044719E+005  0.1043930E+01  0.7957747E-01            NaN
         13   -1    0    0    0    0  0.00000000000E+00  0.00000000000E+00  0.74505805969E-08  0.10566000000E+00  0.10566000000E+00 0.  1.
     999900   -1    0    0    0    0 -0.00000000000E+00 -0.00000000000E+00 -0.74505805969E-08  0.93827000000E+00  0.93827000000E+00 0.  1.
     999902    2    1    2    0    0 -0.13836345668E-01 -0.11356058477E-01  0.11323867776E-01  0.10227490060E+01  0.10225296547E+01 0.  0.
     999903    2    3    3    0    0 -0.11928133839E+00  0.50106338083E-01  0.28158157314E-01  0.13416605208E+00  0.21655597496E-01 0.  0.
         14    1    1    2    0    0  0.13836345668E-01  0.11356058477E-01 -0.11323867776E-01  0.21180994003E-01  0.00000000000E+00 0. -1.
     999901    1    3    3    0    0  0.10544499273E+00 -0.61462396560E-01 -0.16834289538E-01  0.88858295391E+00  0.88000000000E+00 0. -1.
        -11    1    4    4    0    0 -0.70809703043E-01  0.37260601884E-01  0.25366166128E-01  0.83940872064E-01  0.51100000000E-03 0.  1.
         11    1    4    4    0    0 -0.48471635352E-01  0.12845736199E-01  0.27919911853E-02  0.50225180019E-01  0.51100000000E-03 0. -1.
</event>
<event>
 8    1  0.1044719E+005  0.1043930E+01  0.7957747E-01            NaN
         13   -1    0    0    0    0  0.00000000000E+00  0.00000000000E+00  0.74505805969E-08  0.10566000000E+00  0.10566000000E+00 0.  1.
     999900   -1    0    0    0    0 -0.00000000000E+00 -0.00000000000E+00 -0.74505805969E-08  0.93827000000E+00  0.93827000000E+00 0.  1.
     999902    2    1    2    0    0  0.23674459161E-01  0.92823062932E-02  0.13885600081E-02  0.10184629757E+01  0.10181445200E+01 0.  0.
     999903    2    3    3    0    0 -0.11510818898E-01 -0.83639824351E-01  0.94143979709E-01  0.12802707458E+00  0.19993092337E-01 0.  0.
         14    1    1    2    0    0 -0.23674459161E-01 -0.92823062932E-02 -0.13885600081E-02  0.25467024278E-01  0.00000000000E+00 0.  1.
     999901    1    3    3    0    0  0.35185278059E-01  0.92922130645E-01 -0.92755419701E-01  0.89043590114E+00  0.88000000000E+00 0.  1.
        -11    1    4    4    0    0 -0.22854391746E-02 -0.33543007242E-01  0.51940182205E-01  0.61874067391E-01  0.51100000000E-03 0.  1.
         11    1    4    4    0    0 -0.92253797235E-02 -0.50096817109E-01  0.42203797505E-01  0.66153007191E-01  0.51100000000E-03 0. -1.
</event>
<event>
 8    1  0.1044719E+005  0.1043930E+01  0.7957747E-01            NaN
         13   -1    0    0    0    0  0.00000000000E+00  0.00000000000E+00  0.74505805969E-08  0.10566000000E+00  0.10566000000E+00 0.  1.
     999900   -1    0    0    0    0 -0.00000000000E+00 -0.00000000000E+00 -0.74505805969E-08  0.93827000000E+00  0.93827000000E+00 0. -1.
     999902    2    1    2    0    0  0.16735362320E-01 -0.15995548128E-01 -0.27211059422E-02  0.10206204670E+01  0.10203542538E+01 0.  0.
     999903    2    3    3    0    0  0.10909799978E+00 -0.72654485099E-01  0.17769684370E-01  0.13373774395E+00  0.19722441863E-01 0.  0.
         14    1    1    2    0    0 -0.16735362320E-01  0.15995548128E-01  0.27211059422E-02  0.23309533016E-01  0.00000000000E+00 0. -1.
     999901    1    3    3    0    0 -0.92362637456E-01  0.56658936971E-01 -0.20490790312E-01  0.88688272304E+00  0.88000000000E+00 0. -1.
        -11    1    4    4    0    0  0.55859032474E-01 -0.34943777539E-01  0.18681411558E-01  0.68487629222E-01  0.51100000000E-03 0.  1.
         11    1    4    4    0    0  0.53238967301E-01 -0.37710707560E-01 -0.91172718785E-03  0.65250114724E-01  0.51100000000E-03 0. -1.
</event>
<event>
 7    1  0.1044719E+005  0.1043930E+01  0.7957747E-01            NaN
         13   -1    0    0    0    0  0.00000000000E+00  0.00000000000E+00  0.74505805969E-08  0.10566000000E+00  0.10566000000E+00 0.  1.
     999900   -1    0    0    0    0 -0.00000000000E+00 -0.00000000000E+00 -0.74505805969E-08  0.93827000000E+00  0.93827000000E+00 0.  1.
     999903    2    1    2    0    0 -0.11019497362E-01 -0.69015216884E-01  0.63014863189E-01  0.96112705042E-01  0.19551204674E-01 0.  0.
         14    1    1    2    0    0  0.58562957308E-01  0.23741496633E-01 -0.73393794220E-02  0.63617176307E-01  0.00000000000E+00 0. -1.
     999901    1    1    2    0    0 -0.47543459945E-01  0.45273720250E-01 -0.55675483767E-01  0.88420011865E+00  0.88000000000E+00 0.  1.
        -11    1    3    3    0    0 -0.13601958108E-01 -0.36268317879E-01  0.26176896683E-01  0.46753558015E-01  0.51100000000E-03 0. -1.
         11    1    3    3    0    0  0.25824607461E-02 -0.32746899005E-01  0.36837966506E-01  0.49359147027E-01  0.51100000000E-03 0.  1.
</event>
<event>
 8    1  0.1044719E+005  0.1043930E+01  0.7957747E-01            NaN
         13   -1    0    0    0    0  0.00000000000E+00  0.00000000000E+00  0.74505805969E-08  0.10566000000E+00  0.10566000000E+00 0.  1.
     999900   -1    0    0    0    0 -0.00000000000E+00 -0.00000000000E+00 -0.74505805969E-08  0.93827000000E+00  0.93827000000E+00 0.  1.
     999902    2    1    2    0    0  0.18095425945E-01  0.10505052084E-01  0.75717562319E-02  0.10216784371E+01  0.10214360953E+01 0.  0.
     999903    2    3    3    0    0 -0.30954075635E-01 -0.11134749178E+00 -0.55450594017E-01  0.12969989885E+00  0.19770600933E-01 0.  0.
         14    1    1    2    0    0 -0.18095425945E-01 -0.10505052084E-01 -0.75717562319E-02  0.22251562908E-01  0.00000000000E+00 0. -1.
     999901    1    3    3    0    0  0.49049501580E-01  0.12185254386E+00  0.63022350249E-01  0.89197853824E+00  0.88000000000E+00 0.  1.
        -11    1    4    4    0    0 -0.16759299220E-01 -0.42238223908E-01 -0.12624132024E-01  0.47165363347E-01  0.51100000000E-03 0.  1.
         11    1    4    4    0    0 -0.14194776415E-01 -0.69109267871E-01 -0.42826461993E-01  0.82534535504E-01  0.51100000000E-03 0. -1.
</event>
<event>
 8    1  0.1044719E+005  0.1043930E+01  0.7957747E-01            NaN
         13   -1    0    0    0    0  0.00000000000E+00  0.00000000000E+00  0.74505805969E-08  0.10566000000E+00  0.10566000000E+00 0. -1.
     999900   -1    0    0    0    0 -0.00000000000E+00 -0.00000000000E+00 -0.74505805969E-08  0.93827000000E+00  0.93827000000E+00 0. -1.
     999902    2    1    2    0    0  0.14928938086E-01  0.31496150969E-02  0.14899100248E-01  0.10226045116E+01  0.10223821256E+01 0.  0.
     999903    2    3    3    0    0 -0.12747367586E+00 -0.14279384341E-01  0.17560024742E-01  0.13098275603E+00  0.19866782631E-01 0.  0.
         14    1    1    2    0    0 -0.14928938086E-01 -0.31496150969E-02 -0.14899100248E-01  0.21325488408E-01  0.00000000000E+00 0.  1.
     999901    1    3    3    0    0  0.14240261395E+00  0.17428999438E-01 -0.26609244935E-02  0.89162175557E+00  0.88000000000E+00 0.  1.
        -11    1    4    4    0    0 -0.75761056506E-01 -0.18249830690E-01  0.10992940306E-01  0.78701333284E-01  0.51100000000E-03 0.  1.
         11    1    4    4    0    0 -0.51712619356E-01  0.39704463486E-02  0.65670844354E-02  0.52281422741E-01  0.51100000000E-03 0. -1.
</event>
<event>
 8    1  0.1044719E+005  0.1043930E+01  0.7957747E-01            NaN
         13   -1    0    0    0    0  0.00000000000E+00  0.00000000000E+00  0.74505805969E-08  0.10566000000E+00  0.10566000000E+00 0. -1.
     999900   -1    0    0    0    0 -0.00000000000E+00 -0.00000000000E+00 -0.74505805969E-08  0.93827000000E+00  0.93827000000E+00 0. -1.
     999902    2    1    2    0    0 -0.35707680763E-02  0.23231471071E-01 -0.86891072009E-02  0.10188710252E+01  0.10185628178E+01 0.  0.
     999903    2    3    3    0    0 -0.66700006306E-01 -0.87172462912E-01 -0.63094044394E-01  0.12806564438E+00  0.19287864070E-01 0.  0.
         14    1    1    2    0    0  0.35707680763E-02 -0.23231471071E-01  0.86891072009E-02  0.25058974774E-01  0.00000000000E+00 0. -1.
     999901    1    3    3    0    0  0.63129238230E-01  0.11040393398E+00  0.54404937193E-01  0.89080538085E+00  0.88000000000E+00 0.  1.
        -11    1    4    4    0    0 -0.12063892039E-01 -0.18016982651E-01 -0.42767146166E-02  0.22106572866E-01  0.51100000000E-03 0. -1.
         11    1    4    4    0    0 -0.54636114267E-01 -0.69155480261E-01 -0.58817329777E-01  0.10595907151E+00  0.51100000000E-03 0.  1.
</event>
<event>
 8    1  0.1079687E+005  0.1043930E+01  0.7957747E-01            NaN
         13   -1    0    0    0    0  0.00000000000E+00  0.00000000000E+00  0.74505805969E-08  0.10566000000E+00  0.10566000000E+00 0.  1.
     999900   -1    0    0    0    0 -0.00000000000E+00 -0.00000000000E+00 -0.74505805969E-08  0.93827000000E+00  0.93827000000E+00 0. -1.
     999902    2    1    2    0    0  0.18661649288E-01  0.28131373272E-02 -0.13459395106E-01  0.10207497021E+01  0.10204864664E+01 0.  0.
     999903    2    3    3    0    0 -0.26642856852E-01 -0.90669321501E-01  0.85534084078E-01  0.12912692459E+00  0.20661931979E-01 0.  0.
         14    1    1    2    0    0 -0.18661649288E-01 -0.28131373272E-02  0.13459395106E-01  0.23180297935E-01  0.00000000000E+00 0.  1.
     999901    1    3    3    0    0  0.45304506140E-01  0.93482458828E-01 -0.98993479184E-01  0.89162277747E+00  0.88000000000E+00 0. -1.
        -11    1    4    4    0    0 -0.12580591776E-01 -0.58484241021E-01  0.65418267113E-01  0.88648116338E-01  0.51100000000E-03 0. -1.
         11    1    4    4    0    0 -0.14062265076E-01 -0.32185080480E-01  0.20115816965E-01  0.40478808255E-01  0.51100000000E-03 0.  1.
</event>
<event>
 8    1  0.1044719E+005  0.1043930E+01  0.7957747E-01            NaN
         13   -1    0    0    0    0  0.00000000000E+00  0.00000000000E+00  0.74505805969E-08  0.10566000000E+00  0.10566000000E+00 0.  1.
     999900   -1    0    0    0    0 -0.00000000000E+00 -0.00000000000E+00 -0.74505805969E-08  0.93827000000E+00  0.93827000000E+00 0. -1.
     999902    2    1    2    0    0 -0.87138403971E-02  0.89128602262E-02 -0.19919966860E-01  0.10204315921E+01  0.10201609966E+01 0.  0.
     999903    2    3    3    0    0  0.59261404682E-02 -0.56414876605E-01 -0.11782234300E+00  0.13247499552E+00  0.21207604408E-01 0.  0.
         14    1    1    2    0    0  0.87138403971E-02 -0.89128602262E-02  0.19919966860E-01  0.23498407852E-01  0.00000000000E+00 0.  1.
     999901    1    3    3    0    0 -0.14639980865E-01  0.65327736831E-01  0.97902376141E-01  0.88795659663E+00  0.88000000000E+00 0.  1.
        -11    1    4    4    0    0 -0.77891860092E-02 -0.25099041526E-01 -0.47777679279E-01  0.54530735027E-01  0.51100000000E-03 0.  1.
         11    1    4    4    0    0  0.13715326477E-01 -0.31315835079E-01 -0.70044663722E-01  0.77944260494E-01  0.51100000000E-03 0. -1.
</event>
<event>
 8    1  0.1044719E+005  0.1043930E+01  0.7957747E-01            NaN
         13   -1    0    0    0    0  0.00000000000E+00  0.00000000000E+00  0.74505805969E-08  0.10566000000E+00  0.10566000000E+00 0. -1.
     999900   -1    0    0    0    0 -0.00000000000E+00 -0.00000000000E+00 -0.74505805969E-08  0.93827000000E+00  0.93827000000E+00 0.  1.
     999902    2    1    2    0    0 -0.10536714744E-01 -0.42226218332E-02 -0.20457441127E-01  0.10205342784E+01  0.10202660700E+01 0.  0.
     999903    2    3    3    0    0  0.96373761397E-01  0.18090568988E-01 -0.85101367965E-01  0.13142991686E+00  0.20406117817E-01 0.  0.
         14    1    1    2    0    0  0.10536714744E-01  0.42226218332E-02  0.20457441127E-01  0.23395721622E-01  0.00000000000E+00 0. -1.
     999901    1    3    3    0    0 -0.10691047614E+00 -0.22313190822E-01  0.64643926839E-01  0.88910436152E+00  0.88000000000E+00 0. -1.
        -11    1    4    4    0    0  0.43509287178E-01  0.23677224634E-02 -0.26727339826E-01  0.51120211224E-01  0.51100000000E-03 0. -1.
         11    1    4    4    0    0  0.52864474219E-01  0.15722846525E-01 -0.58374028139E-01  0.80309705636E-01  0.51100000000E-03 0.  1.
</event>
<event>
 8    1  0.1044719E+005  0.1043930E+01  0.7957747E-01            NaN
         13   -1    0    0    0    0  0.00000000000E+00  0.00000000000E+00  0.74505805969E-08  0.10566000000E+00  0.10566000000E+00 0.  1.
     999900   -1    0    0    0    0 -0.00000000000E+00 -0.00000000000E+00 -0.74505805969E-08  0.93827000000E+00  0.93827000000E+00 0. -1.
     999902    2    1    2    0    0 -0.12939515434E-01 -0.19808056764E-01  0.22865570603E-03  0.10202690098E+01  0.10199946127E+01 0.  0.
     999903    2    3    3    0    0  0.27268296605E-01  0.67510623294E-01 -0.10448526130E+00  0.12886213054E+00  0.19673194957E-01 0.  0.
         14    1    1    2    0    0  0.12939515434E-01  0.19808056764E-01 -0.22865570603E-03  0.23660990171E-01  0.00000000000E+00 0. -1.
     999901    1    3    3    0    0 -0.40207812039E-01 -0.87318680058E-01  0.10471391701E+00  0.89140687929E+00  0.88000000000E+00 0.  1.
        -11    1    4    4    0    0  0.19514601289E-01  0.41350706759E-01 -0.80255135083E-01  0.92368005506E-01  0.51100000000E-03 0. -1.
         11    1    4    4    0    0  0.77536953164E-02  0.26159916535E-01 -0.24230126219E-01  0.36494125030E-01  0.51100000000E-03 0.  1.
</event>
<event>
 8    1  0.1044719E+005  0.1043930E+01  0.7957747E-01            NaN
         13   -1    0    0    0    0  0.00000000000E+00  0.00000000000E+00  0.74505805969E-08  0.10566000000E+00  0.10566000000E+00 0.  1.
     999900   -1    0    0    0    0 -0.00000000000E+00 -0.00000000000E+00 -0.74505805969E-08  0.93827000000E+00  0.93827000000E+00 0.  1.
     999902    2    1    2    0    0  0.10630828403E-01 -0.13831632530E-02 -0.20546874837E-01  0.10207545449E+01  0.10204914205E+01 0.  0.
     999903    2    3    3    0    0  0.90734882018E-01 -0.14621679377E-01  0.89154403050E-01  0.13023431039E+00  0.23787721567E-01 0.  0.
         14    1    1    2    0    0 -0.10630828403E-01  0.13831632530E-02  0.20546874837E-01  0.23175455091E-01  0.00000000000E+00 0.  1.
     999901    1    3    3    0    0 -0.80104053614E-01  0.13238516124E-01 -0.10970127789E+00  0.89052023452E+00  0.88000000000E+00 0.  1.
        -11    1    4    4    0    0  0.67691158423E-01 -0.11443195895E-01  0.50917434358E-01  0.85474475158E-01  0.51100000000E-03 0. -1.
         11    1    4    4    0    0  0.23043723594E-01 -0.31784834826E-02  0.38236968692E-01  0.44759835233E-01  0.51100000000E-03 0.  1.
</event>
<event>
 8    1  0.1044719E+005  0.1043930E+01  0.7957747E-01            NaN
         13   -1    0    0    0    0  0.00000000000E+00  0.00000000000E+00  0.74505805969E-08  0.10566000000E+00  0.10566000000E+00 0. -1.
     999900   -1    0    0    0    0 -0.00000000000E+00 -0.00000000000E+00 -0.74505805969E-08  0.93827000000E+00  0.93827000000E+00 0.  1.
     999902    2    1    2    0    0  0.22088242504E-01  0.46057888560E-02  0.71865935671E-02  0.10202498211E+01  0.10199749735E+01 0.  0.
     999903    2    3    3    0    0  0.74271337642E-01 -0.93335528488E-01 -0.51045714384E-01  0.13137042611E+00  0.20609983659E-01 0.  0.
         14    1    1    2    0    0 -0.22088242504E-01 -0.46057888560E-02 -0.71865935671E-02  0.23680178948E-01  0.00000000000E+00 0.  1.
     999901    1    3    3    0    0 -0.52183095139E-01  0.97941317344E-01  0.58232307951E-01  0.88887939494E+00  0.88000000000E+00 0. -1.
        -11    1    4    4    0    0  0.57684167174E-01 -0.61543995047E-01 -0.28629699187E-01  0.89078882265E-01  0.51100000000E-03 0.  1.
         11    1    4    4    0    0  0.16587170468E-01 -0.31791533440E-01 -0.22416015197E-01  0.42291543847E-01  0.51100000000E-03 0. -1.
</event>
<event>
 8    1  0.1044719E+005  0.1043930E+01  0.7957747E-01            NaN
         13   -1    0    0    0    0  0.00000000000E+00  0.00000000000E+00  0.74505805969E-08  0.10566000000E+00  0.10566000000E+00 0. -1.
     999900   -1    0    0    0    0 -0.00000000000E+00 -0.00000000000E+00 -0.74505805969E-08  0.93827000000E+00  0.93827000000E+00 0. -1.
     999902    2    1    2    0    0 -0.15966025879E-02 -0.24742640609E-01 -0.99725488723E-02  0.10172054956E+01  0.10168543756E+01 0.  0.
     999903    2    3    3    0    0 -0.11734014955E+00 -0.16004339761E-02  0.45747732462E-01  0.12757811285E+00  0.20298959783E-01 0.  0.
         14    1    1    2    0    0  0.15966025879E-02  0.24742640609E-01  0.99725488723E-02  0.26724504395E-01  0.00000000000E+00 0.  1.
     999901    1    3    3    0    0  0.11574354696E+00 -0.23142206633E-01 -0.55720281334E-01  0.88962738275E+00  0.88000000000E+00 0. -1.
        -11    1    4    4    0    0 -0.10423896273E+00 -0.64812822920E-02  0.35780584788E-01  0.11040054230E+00  0.51100000000E-03 0. -1.
         11    1    4    4    0    0 -0.13101186822E-01  0.48808483159E-02  0.99671476738E-02  0.17177570555E-01  0.51100000000E-03 0.  1.
</event>
<event>
 8    1  0.1044719E+005  0.1043930E+01  0.7957747E-01            NaN
         13   -1    0    0    0    0  0.00000000000E+00  0.00000000000E+00  0.74505805969E-08  0.10566000000E+00  0.10566000000E+00 0. -1.
     999900   -1    0    0    0    0 -0.00000000000E+00 -0.00000000000E+00 -0.74505805969E-08  0.93827000000E+00  0.93827000000E+00 0. -1.
     999902    2    1    2    0    0 -0.47640400571E-02 -0.20017380641E-01 -0.11366832952E-01  0.10204226289E+01  0.10201518245E+01 0.  0.
     999903    2    3    3    0    0  0.10810639917E-01  0.12109671665E+00  0.34336391251E-01  0.12787316593E+00  0.19780649226E-01 0.  0.
         14    1    1    2    0    0  0.47640400571E-02  0.20017380641E-01  0.11366832952E-01  0.23507371115E-01  0.00000000000E+00 0.  1.
     999901    1    3    3    0    0 -0.15574679974E-01 -0.14111409729E+00 -0.45703224202E-01  0.89254946295E+00  0.88000000000E+00 0. -1.
        -11    1    4    4    0    0  0.13120184836E-02  0.18491544337E-01 -0.19003447177E-02  0.18642184301E-01  0.51100000000E-03 0.  1.
         11    1    4    4    0    0  0.94986214337E-02  0.10260517231E+00  0.36236735968E-01  0.10923098163E+00  0.51100000000E-03 0. -1.
</event>
<event>
 8    1  0.1044719E+005  0.1043930E+01  0.7957747E-01            NaN
         13   -1    0    0    0    0  0.00000000000E+00  0.00000000000E+00  0.74505805969E-08  0.10566000000E+00  0.10566000000E+00 0. -1.
     999900   -1    0    0    0    0 -0.00000000000E+00 -0.00000000000E+00 -0.74505805969E-08  0.93827000000E+00  0.93827000000E+00 0. -1.
     999902    2    1    2    0    0  0.15823158646E-01  0.15349451207E-01 -0.92124934696E-02  0.10200375736E+01  0.10197577181E+01 0.  0.
     999903    2    3    3    0    0 -0.12242450418E-01  0.11908350859E+00  0.51292984134E-01  0.13143791918E+00  0.17725596355E-01 0.  0.
         14    1    1    2    0    0 -0.15823158646E-01 -0.15349451207E-01  0.92124934696E-02  0.23892426369E-01  0.00000000000E+00 0. -1.
     999901    1    3    3    0    0  0.28065609064E-01 -0.10373405738E+00 -0.60505477604E-01  0.88859965445E+00  0.88000000000E+00 0.  1.
        -11    1    4    4    0    0 -0.11657722304E-01  0.84970766115E-01  0.28399327525E-01  0.90347753200E-01  0.51100000000E-03 0. -1.
         11    1    4    4    0    0 -0.58472811352E-03  0.34112742475E-01  0.22893656609E-01  0.41090165978E-01  0.51100000000E-03 0.  1.
</event>
<event>
 8    1  0.1044719E+005  0.1043930E+01  0.7957747E-01            NaN
         13   -1    0    0    0    0  0.00000000000E+00  0.00000000000E+00  0.74505805969E-08  0.10566000000E+00  0.10566000000E+00 0.  1.
     999900   -1    0    0    0    0 -0.00000000000E+00 -0.00000000000E+00 -0.74505805969E-08  0.93827000000E+00  0.93827000000E+00 0. -1.
     999902    2    1    2    0    0 -0.13205845076E-01 -0.24358107390E-02 -0.19499585613E-01  0.10202538230E+01  0.10199790694E+01 0.  0.
     999903    2    3    3    0    0  0.20857401700E-02  0.21462585677E-01 -0.12969204983E+00  0.13292787100E+00  0.19616273938E-01 0.  0.
         14    1    1    2    0    0  0.13205845076E-01  0.24358107390E-02  0.19499585613E-01  0.23676176997E-01  0.00000000000E+00 0.  1.
     999901    1    3    3    0    0 -0.15291585246E-01 -0.23898396416E-01  0.11019246422E+00  0.88732595200E+00  0.88000000000E+00 0.  1.
        -11    1    4    4    0    0  0.90120561166E-02  0.32550525567E-02 -0.38609887501E-01  0.39784382067E-01  0.51100000000E-03 0. -1.
         11    1    4    4    0    0 -0.69263159466E-02  0.18207533121E-01 -0.91082162328E-01  0.93143488932E-01  0.51100000000E-03 0.  1.
</event>
<event>
 8    1  0.1044719E+005  0.1043930E+01  0.7957747E-01            NaN
         13   -1    0    0    0    0  0.00000000000E+00  0.00000000000E+00  0.74505805969E-08  0.10566000000E+00  0.10566000000E+00 0. -1.
     999900   -1    0    0    0    0 -0.00000000000E+00 -0.00000000000E+00 -0.74505805969E-08  0.93827000000E+00  0.93827000000E+00 0. -1.
     999902    2    1    2    0    0 -0.22243100254E-01 -0.38336097595E-02 -0.11342745721E-01  0.10186691617E+01  0.10183559059E+01 0.  0.
     999903    2    3    3    0    0 -0.32639459639E-01  0.45328252076E-01 -0.11704953871E+00  0.13091981696E+00  0.17872302534E-01 0.  0.
         14    1    1    2    0    0  0.22243100254E-01  0.38336097595E-02  0.11342745721E-01  0.25260838331E-01  0.00000000000E+00 0. -1.
     999901    1    3    3    0    0  0.10396359384E-01 -0.49161861836E-01  0.10570679299E+00  0.88774934471E+00  0.88000000000E+00 0.  1.
        -11    1    4    4    0    0 -0.15821122927E-01  0.17486130340E-01 -0.31193210543E-01  0.39106907190E-01  0.51100000000E-03 0. -1.
         11    1    4    4    0    0 -0.16818336712E-01  0.27842121736E-01 -0.85856328170E-01  0.91812909769E-01  0.51100000000E-03 0.  1.
</event>
<event>
 8    1  0.1044719E+005  0.1043930E+01  0.7957747E-01            NaN
         13   -1    0    0    0    0  0.00000000000E+00  0.00000000000E+00  0.74505805969E-08  0.10566000000E+00  0.10566000000E+00 0.  1.
     999900   -1    0    0    0    0 -0.00000000000E+00 -0.00000000000E+00 -0.74505805969E-08  0.93827000000E+00  0.93827000000E+00 0. -1.
     999902    2    1    2    0    0  0.75814372707E-02  0.22973272347E-01 -0.80586147650E-02  0.10184311627E+01  0.10181119007E+01 0.  0.
     999903    2    3    3    0    0  0.92670759017E-01 -0.74704723959E-01  0.38923575558E-01  0.12770757488E+00  0.25010289645E-01 0.  0.
         14    1    1    2    0    0 -0.75814372707E-02 -0.22973272347E-01  0.80586147650E-02  0.25498837333E-01  0.00000000000E+00 0.  1.
     999901    1    3    3    0    0 -0.85089321746E-01  0.97677996306E-01 -0.46982190324E-01  0.89072358779E+00  0.88000000000E+00 0. -1.
        -11    1    4    4    0    0  0.60837486290E-01 -0.34058400094E-01  0.18094956089E-01  0.72033762306E-01  0.51100000000E-03 0. -1.
         11    1    4    4    0    0  0.31833272727E-01 -0.40646323864E-01  0.20828619469E-01  0.55673812571E-01  0.51100000000E-03 0.  1.
</event>
<event>
 8    1  0.1727080E+005  0.1043930E+01  0.7957747E-01            NaN
         13   -1    0    0    0    0  0.00000000000E+00  0.00000000000E+00  0.74505805969E-08  0.10566000000E+00  0.10566000000E+00 0. -1.
     999900   -1    0    0    0    0 -0.00000000000E+00 -0.00000000000E+00 -0.74505805969E-08  0.93827000000E+00  0.93827000000E+00 0. -1.
     999902    2    1    2    0    0  0.27611217963E-02 -0.24272343301E-01  0.11529309717E-02  0.10194739232E+01  0.10191805436E+01 0.  0.
     999903    2    3    3    0    0 -0.73571585077E-01  0.10175700008E+00 -0.41514339127E-02  0.12720814787E+00  0.19935227204E-01 0.  0.
         14    1    1    2    0    0 -0.27611217963E-02  0.24272343301E-01 -0.11529309717E-02  0.24456076806E-01  0.00000000000E+00 0. -1.
     999901    1    3    3    0    0  0.76332706873E-01 -0.12602934338E+00  0.53043648844E-02  0.89226577533E+00  0.88000000000E+00 0.  1.
        -11    1    4    4    0    0 -0.35566590292E-01  0.58946581615E-01  0.58398590446E-02  0.69094478099E-01  0.51100000000E-03 0. -1.
         11    1    4    4    0    0 -0.38004994785E-01  0.42810418469E-01 -0.99912929573E-02  0.58113669769E-01  0.51100000000E-03 0.  1.
</event>
<event>
 8    1  0.1044719E+005  0.1043930E+01  0.7957747E-01            NaN
         13   -1    0    0    0    0  0.00000000000E+00  0.00000000000E+00  0.74505805969E-08  0.10566000000E+00  0.10566000000E+00 0. -1.
     999900   -1    0    0    0    0 -0.00000000000E+00 -0.00000000000E+00 -0.74505805969E-08  0.93827000000E+00  0.93827000000E+00 0.  1.
     999902    2    1    2    0    0  0.21773023724E-01 -0.10018802943E-01 -0.43469792815E-02  0.10195714860E+01  0.10192804707E+01 0.  0.
     999903    2    3    3    0    0  0.10855044758E+00  0.22485589551E-01  0.68382157337E-01  0.13172218341E+00  0.19642116811E-01 0.  0.
         14    1    1    2    0    0 -0.21773023724E-01  0.10018802943E-01  0.43469792815E-02  0.24358513982E-01  0.00000000000E+00 0. -1.
     999901    1    3    3    0    0 -0.86777423860E-01 -0.32504392494E-01 -0.72729136618E-01  0.88784930261E+00  0.88000000000E+00 0.  1.
        -11    1    4    4    0    0  0.56273899080E-01  0.21613954961E-01  0.35695175018E-01  0.70059413410E-01  0.51100000000E-03 0. -1.
         11    1    4    4    0    0  0.52276548505E-01  0.87163458972E-03  0.32686982319E-01  0.61662770004E-01  0.51100000000E-03 0.  1.
</event>
<event>
 8    1  0.1044719E+005  0.1043930E+01  0.7957747E-01            NaN
         13   -1    0    0    0    0  0.00000000000E+00  0.00000000000E+00  0.74505805969E-08  0.10566000000E+00  0.10566000000E+00 0.  1.
     999900   -1    0    0    0    0 -0.00000000000E+00 -0.00000000000E+00 -0.74505805969E-08  0.93827000000E+00  0.93827000000E+00 0. -1.
     999902    2    1    2    0    0  0.26671970912E-02 -0.14899550078E-01  0.19006595992E-01  0.10196326499E+01  0.10193431117E+01 0.  0.
     999903    2    3    3    0    0 -0.19791907141E-02 -0.37929679915E-01 -0.12067671670E+00  0.12830588394E+00  0.21376437589E-01 0.  0.
         14    1    1    2    0    0 -0.26671970912E-02  0.14899550078E-01 -0.19006595992E-01  0.24297350145E-01  0.00000000000E+00 0. -1.
     999901    1    3    3    0    0  0.46463878053E-02  0.23030129836E-01  0.13968331269E+00  0.89132676592E+00  0.88000000000E+00 0.  1.
        -11    1    4    4    0    0 -0.57259013884E-02 -0.24913677239E-01 -0.48090213078E-01  0.54464731480E-01  0.51100000000E-03 0.  1.
         11    1    4    4    0    0  0.37467106742E-02 -0.13016002676E-01 -0.72586503625E-01  0.73841152456E-01  0.51100000000E-03 0. -1.
</event>
<event>
 8    1  0.1044719E+005  0.1043930E+01  0.7957747E-01            NaN
         13   -1    0    0    0    0  0.00000000000E+00  0.00000000000E+00  0.74505805969E-08  0.10566000000E+00  0.10566000000E+00 0. -1.
     999900   -1    0    0    0    0 -0.00000000000E+00 -0.00000000000E+00 -0.74505805969E-08  0.93827000000E+00  0.93827000000E+00 0. -1.
     999902    2    1    2    0    0 -0.14067266606E-01 -0.22469318141E-01 -0.97252792258E-02  0.10156928028E+01  0.10153002169E+01 0.  0.
     999903    2    3    3    0    0 -0.12386053491E+00 -0.94892413550E-02  0.23917640567E-01  0.12813723263E+00  0.20386737025E-01 0.  0.
         14    1    1    2    0    0  0.14067266606E-01  0.22469318141E-01  0.97252792258E-02  0.28237197161E-01  0.00000000000E+00 0.  1.
     999901    1    3    3    0    0  0.10979326830E+00 -0.12980076786E-01 -0.33642919793E-01  0.88755557021E+00  0.88000000000E+00 0. -1.
        -11    1    4    4    0    0 -0.75032464734E-01 -0.15635412891E-01  0.13361039299E-01  0.77801769854E-01  0.51100000000E-03 0.  1.
         11    1    4    4    0    0 -0.48828070174E-01  0.61461715362E-02  0.10556601268E-01  0.50335462775E-01  0.51100000000E-03 0. -1.
</event>
<event>
 8    1  0.1044719E+005  0.1043930E+01  0.7957747E-01            NaN
         13   -1    0    0    0    0  0.00000000000E+00  0.00000000000E+00  0.74505805969E-08  0.10566000000E+00  0.10566000000E+00 0. -1.
     999900   -1    0    0    0    0 -0.00000000000E+00 -0.00000000000E+00 -0.74505805969E-08  0.93827000000E+00  0.93827000000E+00 0.  1.
     999902    2    1    2    0    0  0.16089743876E-01  0.17354439357E-01  0.21214604867E-02  0.10201695914E+01  0.10198928562E+01 0.  0.
     999903    2    3    3    0    0 -0.50489982800E-01  0.75308373797E-01  0.93171446833E-01  0.13107925933E+00  0.16741092997E-01 0.  0.
         14    1    1    2    0    0 -0.16089743876E-01 -0.17354439357E-01 -0.21214604867E-02  0.23760408624E-01  0.00000000000E+00 0. -1.
     999901    1    3    3    0    0  0.66579726676E-01 -0.57953934440E-01 -0.91049986346E-01  0.88909033204E+00  0.88000000000E+00 0.  1.
        -11    1    4    4    0    0 -0.11255481656E-01  0.30974718585E-01  0.35088335492E-01  0.48141161882E-01  0.51100000000E-03 0.  1.
         11    1    4    4    0    0 -0.39234501144E-01  0.44333655212E-01  0.58083111341E-01  0.82938097449E-01  0.51100000000E-03 0. -1.
</event>
<event>
 8    1  0.1044719E+005  0.1043930E+01  0.7957747E-01            NaN
         13   -1    0    0    0    0  0.00000000000E+00  0.00000000000E+00  0.74505805969E-08  0.10566000000E+00  0.10566000000E+00 0.  1.
     999900   -1    0    0    0    0 -0.00000000000E+00 -0.00000000000E+00 -0.74505805969E-08  0.93827000000E+00  0.93827000000E+00 0.  1.
     999902    2    1    2    0    0 -0.18999512711E-01 -0.14871409243E-01  0.57430755664E-03  0.10197955821E+01  0.10195099603E+01 0.  0.
     999903    2    3    3    0    0 -0.24520166894E-01 -0.93108487928E-01  0.88035994865E-01  0.13198869726E+00  0.20006266592E-01 0.  0.
         14    1    1    2    0    0  0.18999512711E-01  0.14871409243E-01 -0.57430755664E-03  0.24134417858E-01  0.00000000000E+00 0.  1.
     999901    1    3    3    0    0  0.55206541824E-02  0.78237078685E-01 -0.87461687308E-01  0.88780688489E+00  0.88000000000E+00 0.  1.
        -11    1    4    4    0    0 -0.11712737973E-01 -0.68703771844E-01  0.71470023509E-01  0.99827961403E-01  0.51100000000E-03 0. -1.
         11    1    4    4    0    0 -0.12807428921E-01 -0.24404716084E-01  0.16565971355E-01  0.32160735854E-01  0.51100000000E-03 0.  1.
</event>
<event>
 8    1  0.1044719E+005  0.1043930E+01  0.7957747E-01            NaN
         13   -1    0    0    0    0  0.00000000000E+00  0.00000000000E+00  0.74505805969E-08  0.10566000000E+00  0.10566000000E+00 0.  1.
     999900   -1    0    0    0    0 -0.00000000000E+00 -0.00000000000E+00 -0.74505805969E-08  0.93827000000E+00  0.93827000000E+00 0.  1.
     999902    2    1    2    0    0  0.11856993341E-01 -0.18542244611E-01  0.12998269530E-01  0.10183691288E+01  0.10180482917E+01 0.  0.
     999903    2    3    3    0    0  0.65939407666E-01  0.10717070476E+00 -0.37457955913E-02  0.12763402962E+00  0.21043979895E-01 0.  0.
         14    1    1    2    0    0 -0.11856993341E-01  0.18542244611E-01 -0.12998269530E-01  0.25560871211E-01  0.00000000000E+00 0. -1.
     999901    1    3    3    0    0 -0.54082414326E-01 -0.12571294937E+00  0.16744065121E-01  0.89073509917E+00  0.88000000000E+00 0.  1.
        -11    1    4    4    0    0  0.38739282102E-02  0.12601028394E-01  0.51583749435E-02  0.14165563506E-01  0.51100000000E-03 0.  1.
         11    1    4    4    0    0  0.62065479456E-01  0.94569676366E-01 -0.89041705347E-02  0.11346846611E+00  0.51100000000E-03 0. -1.
</event>
<event>
 8    1  0.1044719E+005  0.1043930E+01  0.7957747E-01            NaN
         13   -1    0    0    0    0  0.00000000000E+00  0.00000000000E+00  0.74505805969E-08  0.10566000000E+00  0.10566000000E+00 0.  1.
     999900   -1    0    0    0    0 -0.00000000000E+00 -0.00000000000E+00 -0.74505805969E-08  0.93827000000E+00  0.93827000000E+00 0.  1.
     999902    2    1    2    0    0  0.14620712813E-01  0.11013015262E-01  0.15308984616E-01  0.10200675450E+01  0.10197883994E+01 0.  0.
     999903    2    3    3    0    0 -0.52757309022E-01 -0.96103786709E-01 -0.60773484973E-01  0.12776583075E+00  0.24726899446E-01 0.  0.
         14    1    1    2    0    0 -0.14620712813E-01 -0.11013015262E-01 -0.15308984616E-01  0.23862454992E-01  0.00000000000E+00 0. -1.
     999901    1    3    3    0    0  0.67378021834E-01  0.10711680197E+00  0.76082469588E-01  0.89230171426E+00  0.88000000000E+00 0. -1.
        -11    1    4    4    0    0 -0.26170225593E-01 -0.63952246987E-01 -0.27394992832E-01  0.74333823765E-01  0.51100000000E-03 0.  1.
         11    1    4    4    0    0 -0.26587083428E-01 -0.32151539722E-01 -0.33378492140E-01  0.53432006983E-01  0.51100000000E-03 0. -1.
</event>
<event>
 8    1  0.1044719E+005  0.1043930E+01  0.7957747E-01            NaN
         13   -1    0    0    0    0  0.00000000000E+00  0.00000000000E+00  0.74505805969E-08  0.10566000000E+00  0.10566000000E+00 0.  1.
     999900   -1    0    0    0    0 -0.00000000000E+00 -0.00000000000E+00 -0.74505805969E-08  0.93827000000E+00  0.93827000000E+00 0.  1.
     999902    2    1    2    0    0 -0.42441663122E-02  0.14845115953E-01  0.18180550959E-01  0.10200778964E+01  0.10197989958E+01 0.  0.
     999903    2    3    3    0    0  0.28586122953E-01  0.10828152703E+00  0.69079790837E-01  0.13306102874E+00  0.19777875120E-01 0.  0.
         14    1    1    2    0    0  0.42441663122E-02 -0.14845115953E-01 -0.18180550959E-01  0.23852103650E-01  0.00000000000E+00 0. -1.
     999901    1    3    3    0    0 -0.32830289265E-01 -0.93436411081E-01 -0.50899239878E-01  0.88701686761E+00  0.88000000000E+00 0. -1.
        -11    1    4    4    0    0  0.27248237417E-01  0.88137648204E-01  0.63864975392E-01  0.11220386658E+00  0.51100000000E-03 0. -1.
         11    1    4    4    0    0  0.13378855362E-02  0.20143878831E-01  0.52148154454E-02  0.20857162156E-01  0.51100000000E-03 0.  1.
</event>
<event>
 8    1  0.1044719E+005  0.1043930E+01  0.7957747E-01            NaN
         13   -1    0    0    0    0  0.00000000000E+00  0.00000000000E+00  0.74505805969E-08  0.10566000000E+00  0.10566000000E+00 0.  1.
     999900   -1    0    0    0    0 -0.00000000000E+00 -0.00000000000E+00 -0.74505805969E-08  0.93827000000E+00  0.93827000000E+00 0. -1.
     999902    2    1    2    0    0 -0.27504843984E-02  0.16141993726E-01  0.17084557593E-01  0.10202654435E+01  0.10199909627E+01 0.  0.
     999903    2    3    3    0    0  0.21020199340E-02  0.35419761494E-01 -0.12241588117E+00  0.12905528224E+00  0.20264252264E-01 0.  0.
         14    1    1    2    0    0  0.27504843984E-02 -0.16141993726E-01 -0.17084557593E-01  0.23664556493E-01  0.00000000000E+00 0. -1.
     999901    1    3    3    0    0 -0.48525043324E-02 -0.19277767768E-01  0.13950043876E+00  0.89121016127E+00  0.88000000000E+00 0.  1.
        -11    1    4    4    0    0  0.92065314838E-03  0.22061939117E-01 -0.41283652330E-01  0.46820698740E-01  0.51100000000E-03 0. -1.
         11    1    4    4    0    0  0.11813667856E-02  0.13357822377E-01 -0.81132228840E-01  0.82234583502E-01  0.51100000000E-03 0.  1.
</event>
<event>
 8    1  0.1044719E+005  0.1043930E+01  0.7957747E-01            NaN
         13   -1    0    0    0    0  0.00000000000E+00  0.00000000000E+00  0.74505805969E-08  0.10566000000E+00  0.10566000000E+00 0.  1.
     999900   -1    0    0    0    0 -0.00000000000E+00 -0.00000000000E+00 -0.74505805969E-08  0.93827000000E+00  0.93827000000E+00 0. -1.
     999902    2    1    2    0    0  0.22979165869E-01  0.28939468717E-02 -0.69629190778E-02  0.10197453099E+01  0.10194584827E+01 0.  0.
     999903    2    3    3    0    0  0.75079660805E-01  0.43193518314E-01  0.96547525024E-01  0.13123367292E+00  0.19955370934E-01 0.  0.
         14    1    1    2    0    0 -0.22979165869E-01 -0.28939468717E-02  0.69629190778E-02  0.24184690087E-01  0.00000000000E+00 0.  1.
     999901    1    3    3    0    0 -0.52100494936E-01 -0.40299571443E-01 -0.10351044410E+00  0.88851163699E+00  0.88000000000E+00 0. -1.
        -11    1    4    4    0    0  0.30038572125E-01  0.27210599729E-01  0.37042776875E-01  0.54910481627E-01  0.51100000000E-03 0. -1.
         11    1    4    4    0    0  0.45041088679E-01  0.15982918585E-01  0.59504748150E-01  0.76323191294E-01  0.51100000000E-03 0.  1.
</event>
<event>
 8    1  0.1044719E+005  0.1043930E+01  0.7957747E-01            NaN
         13   -1    0    0    0    0  0.00000000000E+00  0.00000000000E+00  0.74505805969E-08  0.10566000000E+00  0.10566000000E+00 0. -1.
     999900   -1    0    0    0    0 -0.00000000000E+00 -0.00000000000E+00 -0.74505805969E-08  0.93827000000E+00  0.93827000000E+00 0.  1.
     999902    2    1    2    0    0  0.21765266903E-01  0.23612702415E-02 -0.79401008150E-02  0.10206416415E+01  0.10203759174E+01 0.  0.
     999903    2    3    3    0    0 -0.11940536408E+00 -0.36204940138E-01  0.21518818427E-01  0.12806989225E+00  0.19245755221E-01 0.  0.
         14    1    1    2    0    0 -0.21765266903E-01 -0.23612702415E-02  0.79401008150E-02  0.23288358496E-01  0.00000000000E+00 0. -1.
     999901    1    3    3    0    0  0.14117063098E+00  0.38566210379E-01 -0.29458919242E-01  0.89257174925E+00  0.88000000000E+00 0.  1.
        -11    1    4    4    0    0 -0.45964975714E-01 -0.96086786732E-02 -0.32836080474E-03  0.46962481195E-01  0.51100000000E-03 0.  1.
         11    1    4    4    0    0 -0.73440388367E-01 -0.26596261464E-01  0.21847179231E-01  0.81107411059E-01  0.51100000000E-03 0. -1.
</event>
<event>
 8    1  0.1044719E+005  0.1043930E+01  0.7957747E-01            NaN
         13   -1    0    0    0    0  0.00000000000E+00  0.00000000000E+00  0.74505805969E-08  0.10566000000E+00  0.10566000000E+00 0.  1.
     999900   -1    0    0    0    0 -0.00000000000E+00 -0.00000000000E+00 -0.74505805969E-08  0.93827000000E+00  0.93827000000E+00 0. -1.
     999902    2    1    2    0    0  0.17424245665E-01 -0.26805396500E-02 -0.15654561918E-01  0.10203534239E+01  0.10200810040E+01 0.  0.
     999903    2    3    3    0    0 -0.10777484911E+00  0.59170309663E-01  0.32875156719E-01  0.12802194154E+00  0.13867153303E-01 0.  0.
         14    1    1    2    0    0 -0.17424245665E-01  0.26805396500E-02  0.15654561918E-01  0.23576576059E-01  0.00000000000E+00 0.  1.
     999901    1    3    3    0    0  0.12519909477E+00 -0.61850849313E-01 -0.48529718637E-01  0.89233148240E+00  0.88000000000E+00 0. -1.
        -11    1    4    4    0    0 -0.91027840404E-01  0.54385819233E-01  0.31112195529E-01  0.11050843811E+00  0.51100000000E-03 0. -1.
         11    1    4    4    0    0 -0.16747008703E-01  0.47844904295E-02  0.17629611901E-02  0.17513503428E-01  0.51100000000E-03 0.  1.
</event>
<event>
 8    1  0.1074280E+005  0.1043930E+01  0.7957747E-01            NaN
         13   -1    0    0    0    0  0.00000000000E+00  0.00000000000E+00  0.74505805969E-08  0.10566000000E+00  0.10566000000E+00 0. -1.
     999900   -1    0    0    0    0 -0.00000000000E+00 -0.00000000000E+00 -0.74505805969E-08  0.93827000000E+00  0.93827000000E+00 0. -1.
     999902    2    1    2    0    0  0.15154626768E-01 -0.20542804038E-01  0.53918618667E-03  0.10183964881E+01  0.10180763462E+01 0.  0.
     999903    2    3    3    0    0 -0.90751096601E-01  0.12250582886E-01  0.86112623766E-01  0.12732172033E+00  0.20238532075E-01 0.  0.
         14    1    1    2    0    0 -0.15154626768E-01  0.20542804038E-01 -0.53918618667E-03  0.25533511939E-01  0.00000000000E+00 0.  1.
     999901    1    3    3    0    0  0.10590572337E+00 -0.32793386924E-01 -0.85573437579E-01  0.89107476773E+00  0.88000000000E+00 0. -1.
        -11    1    4    4    0    0 -0.30919408875E-01 -0.53017025786E-02  0.30879052144E-01  0.44021527435E-01  0.51100000000E-03 0.  1.
         11    1    4    4    0    0 -0.59831687725E-01  0.17552285465E-01  0.55233571622E-01  0.83300192894E-01  0.51100000000E-03 0. -1.
</event>
<event>
 8    1  0.1044719E+005  0.1043930E+01  0.7957747E-01            NaN
         13   -1    0    0    0    0  0.00000000000E+00  0.00000000000E+00  0.74505805969E-08  0.10566000000E+00  0.10566000000E+00 0.  1.
     999900   -1    0    0    0    0 -0.00000000000E+00 -0.00000000000E+00 -0.74505805969E-08  0.93827000000E+00  0.93827000000E+00 0. -1.
     999902    2    1    2    0    0 -0.12168709797E-01  0.19152390585E-01  0.47791029702E-02  0.10207409640E+01  0.10204775276E+01 0.  0.
     999903    2    3    3    0    0 -0.12223206055E+00 -0.44370154299E-01  0.74425888091E-02  0.13160871908E+00  0.18869965328E-01 0.  0.
         14    1    1    2    0    0  0.12168709797E-01 -0.19152390585E-01 -0.47791029702E-02  0.23189035953E-01  0.00000000000E+00 0. -1.
     999901    1    3    3    0    0  0.11006335075E+00  0.63522544884E-01 -0.26634858388E-02  0.88913224497E+00  0.88000000000E+00 0.  1.
        -11    1    4    4    0    0 -0.93451404046E-01 -0.36552647486E-01  0.13258617034E-01  0.10121913358E+00  0.51100000000E-03 0. -1.
         11    1    4    4    0    0 -0.28780656499E-01 -0.78175068127E-02 -0.58160282251E-02  0.30389585496E-01  0.51100000000E-03 0.  1.
</event>
<event>
 8    1  0.1044719E+005  0.1043930E+01  0.7957747E-01            NaN
         13   -1    0    0    0    0  0.00000000000E+00  0.00000000000E+00  0.74505805969E-08  0.10566000000E+00  0.10566000000E+00 0. -1.
     999900   -1    0    0    0    0 -0.00000000000E+00 -0.00000000000E+00 -0.74505805969E-08  0.93827000000E+00  0.93827000000E+00 0.  1.
     999902    2    1    2    0    0  0.22256351549E-03  0.14075058360E-01  0.19680949323E-01  0.10197329636E+01  0.10194458399E+01 0.  0.
     999903    2    3    3    0    0 -0.69617589531E-01  0.65263266478E-01  0.89993951094E-01  0.13269192860E+00  0.20058264092E-01 0.  0.
         14    1    1    2    0    0 -0.22256351549E-03 -0.14075058360E-01 -0.19680949323E-01  0.24197036360E-01  0.00000000000E+00 0.  1.
     999901    1    3    3    0    0  0.69840153047E-01 -0.51188208119E-01 -0.70313001770E-01  0.88704103504E+00  0.88000000000E+00 0. -1.
        -11    1    4    4    0    0 -0.50134507931E-01  0.39975115126E-01  0.70428752678E-01  0.95246779681E-01  0.51100000000E-03 0. -1.
         11    1    4    4    0    0 -0.19483081600E-01  0.25288151352E-01  0.19565198416E-01  0.37445148918E-01  0.51100000000E-03 0.  1.
</event>
<event>
 8    1  0.1044719E+005  0.1043930E+01  0.7957747E-01            NaN
         13   -1    0    0    0    0  0.00000000000E+00  0.00000000000E+00  0.74505805969E-08  0.10566000000E+00  0.10566000000E+00 0. -1.
     999900   -1    0    0    0    0 -0.00000000000E+00 -0.00000000000E+00 -0.74505805969E-08  0.93827000000E+00  0.93827000000E+00 0.  1.
     999902    2    1    2    0    0 -0.17887628611E-01  0.15277958196E-01 -0.28270333995E-02  0.10202366384E+01  0.10199614812E+01 0.  0.
     999903    2    3    3    0    0  0.18525921636E-01 -0.79538451928E-01  0.98009483048E-01  0.12867390856E+00  0.16779179627E-01 0.  0.
         14    1    1    2    0    0  0.17887628611E-01 -0.15277958196E-01  0.28270333995E-02  0.23693361556E-01  0.00000000000E+00 0. -1.
     999901    1    3    3    0    0 -0.36413550247E-01  0.94816410124E-01 -0.10083651645E+00  0.89156272988E+00  0.88000000000E+00 0.  1.
        -11    1    4    4    0    0  0.21407785865E-02 -0.40420293212E-01  0.54759123552E-01  0.68097032017E-01  0.51100000000E-03 0. -1.
         11    1    4    4    0    0  0.16385143050E-01 -0.39118158716E-01  0.43250359496E-01  0.60576876543E-01  0.51100000000E-03 0.  1.
</event>
<event>
 8    1  0.1044719E+005  0.1043930E+01  0.7957747E-01            NaN
         13   -1    0    0    0    0  0.00000000000E+00  0.00000000000E+00  0.74505805969E-08  0.10566000000E+00  0.10566000000E+00 0.  1.
     999900   -1    0    0    0    0 -0.00000000000E+00 -0.00000000000E+00 -0.74505805969E-08  0.93827000000E+00  0.93827000000E+00 0.  1.
     999902    2    1    2    0    0  0.86414241988E-02 -0.10317711457E-01  0.18344398932E-01  0.10211781571E+01  0.10209246702E+01 0.  0.
     999903    2    3    3    0    0  0.12214292457E+00 -0.47893498707E-01 -0.58730315291E-02  0.13276326851E+00  0.19465655006E-01 0.  0.
         14    1    1    2    0    0 -0.86414241988E-02  0.10317711457E-01 -0.18344398932E-01  0.22751842872E-01  0.00000000000E+00 0. -1.
     999901    1    3    3    0    0 -0.11350150038E+00  0.37575787250E-01  0.24217430461E-01  0.88841488862E+00  0.88000000000E+00 0. -1.
        -11    1    4    4    0    0  0.66870562520E-01 -0.16039179193E-01 -0.92717867351E-03  0.68775345744E-01  0.51100000000E-03 0. -1.
         11    1    4    4    0    0  0.55272362055E-01 -0.31854319513E-01 -0.49458528556E-02  0.63987922769E-01  0.51100000000E-03 0.  1.
</event>
<event>
 8    1  0.1044719E+005  0.1043930E+01  0.7957747E-01            NaN
         13   -1    0    0    0    0  0.00000000000E+00  0.00000000000E+00  0.74505805969E-08  0.10566000000E+00  0.10566000000E+00 0. -1.
     999900   -1    0    0    0    0 -0.00000000000E+00 -0.00000000000E+00 -0.74505805969E-08  0.93827000000E+00  0.93827000000E+00 0.  1.
     999902    2    1    2    0    0  0.13496414626E-01 -0.11098658036E-01 -0.12314636761E-01  0.10225528230E+01  0.10223293462E+01 0.  0.
     999903    2    3    3    0    0  0.23348638101E-01  0.12649577603E+00 -0.20567572773E-01  0.13176810965E+00  0.19836063524E-01 0.  0.
         14    1    1    2    0    0 -0.13496414626E-01  0.11098658036E-01  0.12314636761E-01  0.21377177000E-01  0.00000000000E+00 0. -1.
     999901    1    3    3    0    0 -0.98522234746E-02 -0.13759443406E+00  0.82529360120E-02  0.89078471335E+00  0.88000000000E+00 0. -1.
        -11    1    4    4    0    0  0.22881757709E-01  0.70173867208E-01 -0.12652679642E-01  0.74888569875E-01  0.51100000000E-03 0. -1.
         11    1    4    4    0    0  0.46688039147E-03  0.56321908818E-01 -0.79148931302E-02  0.56879539770E-01  0.51100000000E-03 0.  1.
</event>
<event>
 8    1  0.1044719E+005  0.1043930E+01  0.7957747E-01            NaN
         13   -1    0    0    0    0  0.00000000000E+00  0.00000000000E+00  0.74505805969E-08  0.10566000000E+00  0.10566000000E+00 0. -1.
     999900   -1    0    0    0    0 -0.00000000000E+00 -0.00000000000E+00 -0.74505805969E-08  0.93827000000E+00  0.93827000000E+00 0. -1.
     999902    2    1    2    0    0  0.24102028269E-02 -0.15857210496E-01 -0.22232778726E-01  0.10165154664E+01  0.10161457262E+01 0.  0.
     999903    2    3    3    0    0 -0.28234409937E-02 -0.12668205891E+00 -0.18460407766E-01  0.12954096348E+00  0.19589759968E-01 0.  0.
         14    1    1    2    0    0 -0.24102028269E-02  0.15857210496E-01  0.22232778726E-01  0.27414533595E-01  0.00000000000E+00 0. -1.
     999901    1    3    3    0    0  0.52336438206E-02  0.11082484842E+00 -0.37723709591E-02  0.88697450292E+00  0.88000000000E+00 0.  1.
        -11    1    4    4    0    0  0.50008857456E-02 -0.89037035225E-01 -0.71791499079E-02  0.89467333783E-01  0.51100000000E-03 0. -1.
         11    1    4    4    0    0 -0.78243267394E-02 -0.37645023687E-01 -0.11281257859E-01  0.40073629698E-01  0.51100000000E-03 0.  1.
</event>
<event>
 8    1  0.1044719E+005  0.1043930E+01  0.7957747E-01            NaN
         13   -1    0    0    0    0  0.00000000000E+00  0.00000000000E+00  0.74505805969E-08  0.10566000000E+00  0.10566000000E+00 0.  1.
     999900   -1    0    0    0    0 -0.00000000000E+00 -0.00000000000E+00 -0.74505805969E-08  0.93827000000E+00  0.93827000000E+00 0.  1.
     999902    2    1    2    0    0  0.10378746368E-01  0.97193553866E-02  0.17737826918E-01  0.10211964400E+01  0.10209433649E+01 0.  0.
     999903    2    3    3    0    0  0.61174958905E-01  0.11355812632E+00  0.27227598848E-01  0.13358571379E+00  0.21586503620E-01 0.  0.
         14    1    1    2    0    0 -0.10378746368E-01 -0.97193553866E-02 -0.17737826918E-01  0.22733559973E-01  0.00000000000E+00 0. -1.
     999901    1    3    3    0    0 -0.50796212537E-01 -0.10383877094E+00 -0.94897719304E-02  0.88761072624E+00  0.88000000000E+00 0. -1.
        -11    1    4    4    0    0  0.32156833408E-01  0.38500969533E-01  0.13493559218E-01  0.51949243028E-01  0.51100000000E-03 0. -1.
         11    1    4    4    0    0  0.29018125497E-01  0.75057156792E-01  0.13734039630E-01  0.81636470763E-01  0.51100000000E-03 0.  1.
</event>
<event>
 8    1  0.1044719E+005  0.1043930E+01  0.7957747E-01            NaN
         13   -1    0    0    0    0  0.00000000000E+00  0.00000000000E+00  0.74505805969E-08  0.10566000000E+00  0.10566000000E+00 0.  1.
     999900   -1    0    0    0    0 -0.00000000000E+00 -0.00000000000E+00 -0.74505805969E-08  0.93827000000E+00  0.93827000000E+00 0.  1.
     999902    2    1    2    0    0  0.10757777568E-01 -0.19576568660E-01 -0.65624698690E-02  0.10206482941E+01  0.10203827235E+01 0.  0.
     999903    2    3    3    0    0 -0.68151776130E-01 -0.54275460876E-01  0.95142977241E-01  0.13060631264E+00  0.20379709059E-01 0.  0.
         14    1    1    2    0    0 -0.10757777568E-01  0.19576568660E-01  0.65624698690E-02  0.23281705897E-01  0.00000000000E+00 0.  1.
     999901    1    3    3    0    0  0.78909553698E-01  0.34698892216E-01 -0.10170544711E+00  0.89004198146E+00  0.88000000000E+00 0.  1.
        -11    1    4    4    0    0 -0.28479355440E-01 -0.31608127428E-01  0.56715238680E-01  0.70901529076E-01  0.51100000000E-03 0.  1.
         11    1    4    4    0    0 -0.39672420690E-01 -0.22667333448E-01  0.38427738561E-01  0.59704783569E-01  0.51100000000E-03 0. -1.
</event>
<event>
 8    1  0.1044719E+005  0.1043930E+01  0.7957747E-01            NaN
         13   -1    0    0    0    0  0.00000000000E+00  0.00000000000E+00  0.74505805969E-08  0.10566000000E+00  0.10566000000E+00 0.  1.
     999900   -1    0    0    0    0 -0.00000000000E+00 -0.00000000000E+00 -0.74505805969E-08  0.93827000000E+00  0.93827000000E+00 0.  1.
     999902    2    1    2    0    0  0.91639108276E-02 -0.20453361445E-01  0.90196153044E-02  0.10197707219E+01  0.10194845044E+01 0.  0.
     999903    2    3    3    0    0  0.30151710709E-01 -0.10797378859E+00  0.68878686660E-01  0.13315726539E+00  0.20472400202E-01 0.  0.
         14    1    1    2    0    0 -0.91639108276E-02  0.20453361445E-01 -0.90196153044E-02  0.24159278058E-01  0.00000000000E+00 0. -1.
     999901    1    3    3    0    0 -0.20987799882E-01  0.87520427142E-01 -0.59859071356E-01  0.88661345655E+00  0.88000000000E+00 0. -1.
        -11    1    4    4    0    0  0.24605043879E-01 -0.56931232809E-01  0.44387187559E-01  0.76269633498E-01  0.51100000000E-03 0. -1.
         11    1    4    4    0    0  0.55466668298E-02 -0.51042555779E-01  0.24491499101E-01  0.56887631895E-01  0.51100000000E-03 0.  1.
</event>
<event>
 8    1  0.1044719E+005  0.1043930E+01  0.7957747E-01            NaN
         13   -1    0    0    0    0  0.00000000000E+00  0.00000000000E+00  0.74505805969E-08  0.10566000000E+00  0.10566000000E+00 0.  1.
     999900   -1    0    0    0    0 -0.00000000000E+00 -0.00000000000E+00 -0.74505805969E-08  0.93827000000E+00  0.93827000000E+00 0.  1.
     999902    2    1    2    0    0  0.12774144636E-01 -0.19936327198E-01 -0.13072982473E-02  0.10202161867E+01  0.10199405486E+01 0.  0.
     999903    2    3    3    0    0 -0.20306087991E-01  0.12343690435E+00  0.16219188741E-01  0.12782761489E+00  0.20684063434E-01 0.  0.
         14    1    1    2    0    0 -0.12774144636E-01  0.19936327198E-01  0.13072982473E-02  0.23713813317E-01  0.00000000000E+00 0. -1.
     999901    1    3    3    0    0  0.33080232627E-01 -0.14337323155E+00 -0.17526486988E-01  0.89238857179E+00  0.88000000000E+00 0.  1.
        -11    1    4    4    0    0 -0.19633053834E-02  0.37198065934E-01 -0.36982450108E-02  0.37436463701E-01  0.51100000000E-03 0. -1.
         11    1    4    4    0    0 -0.18342782608E-01  0.86238838418E-01  0.19917433752E-01  0.90391151191E-01  0.51100000000E-03 0.  1.
</event>
<event>
 8    1  0.1044719E+005  0.1043930E+01  0.7957747E-01            NaN
         13   -1    0    0    0    0  0.00000000000E+00  0.00000000000E+00  0.74505805969E-08  0.10566000000E+00  0.10566000000E+00 0.  1.
     999900   -1    0    0    0    0 -0.00000000000E+00 -0.00000000000E+00 -0.74505805969E-08  0.93827000000E+00  0.93827000000E+00 0.  1.
     999902    2    1    2    0    0  0.20449806539E-01  0.78713560153E-02  0.96827732768E-02  0.10199736035E+01  0.10196922295E+01 0.  0.
     999903    2    3    3    0    0  0.33126607774E-01 -0.28414196691E-01 -0.12026539926E+00  0.12960072088E+00  0.20684338942E-01 0.  0.
         14    1    1    2    0    0 -0.20449806539E-01 -0.78713560153E-02 -0.96827732768E-02  0.23956396460E-01  0.00000000000E+00 0.  1.
     999901    1    3    3    0    0 -0.12676801235E-01  0.36285552706E-01  0.12994817254E+00  0.89037288266E+00  0.88000000000E+00 0. -1.
        -11    1    4    4    0    0  0.14419537165E-01 -0.19226276712E-01 -0.39957057512E-01  0.46630465731E-01  0.51100000000E-03 0.  1.
         11    1    4    4    0    0  0.18707070609E-01 -0.91879199786E-02 -0.80308341751E-01  0.82970255152E-01  0.51100000000E-03 0. -1.
</event>
<event>
 8    1  0.1044719E+005  0.1043930E+01  0.7957747E-01            NaN
         13   -1    0    0    0    0  0.00000000000E+00  0.00000000000E+00  0.74505805969E-08  0.10566000000E+00  0.10566000000E+00 0. -1.
     999900   -1    0    0    0    0 -0.00000000000E+00 -0.00000000000E+00 -0.74505805969E-08  0.93827000000E+00  0.93827000000E+00 0.  1.
     999902    2    1    2    0    0  0.10085649588E-01  0.18439641827E-01  0.10688341007E-01  0.10203507432E+01  0.10200782606E+01 0.  0.
     999903    2    3    3    0    0  0.13001015621E-01 -0.23393618261E-01  0.12721157227E+00  0.13167972170E+00  0.20987548794E-01 0.  0.
         14    1    1    2    0    0 -0.10085649588E-01 -0.18439641827E-01 -0.10688341007E-01  0.23579256812E-01  0.00000000000E+00 0.  1.
     999901    1    3    3    0    0 -0.29153660335E-02  0.41833260088E-01 -0.11652323126E+00  0.88867102149E+00  0.88000000000E+00 0.  1.
        -11    1    4    4    0    0  0.14286432697E-01 -0.12383402920E-01  0.10665774549E+00  0.10832168121E+00  0.51100000000E-03 0.  1.
         11    1    4    4    0    0 -0.12854170757E-02 -0.11010215341E-01  0.20553826783E-01  0.23358040486E-01  0.51100000000E-03 0. -1.
</event>
<event>
 8    1  0.1044719E+005  0.1043930E+01  0.7957747E-01            NaN
         13   -1    0    0    0    0  0.00000000000E+00  0.00000000000E+00  0.74505805969E-08  0.10566000000E+00  0.10566000000E+00 0. -1.
     999900   -1    0    0    0    0 -0.00000000000E+00 -0.00000000000E+00 -0.74505805969E-08  0.93827000000E+00  0.93827000000E+00 0.  1.
     999902    2    1    2    0    0 -0.68125934783E-02  0.19664237584E-01  0.12384340631E-01  0.10197129489E+01  0.10194253443E+01 0.  0.
     999903    2    3    3    0    0  0.70486693912E-01  0.80481931468E-01  0.74516615401E-01  0.13205626344E+00  0.20986077109E-01 0.  0.
         14    1    1    2    0    0  0.68125934783E-02 -0.19664237584E-01 -0.12384340631E-01  0.24217051070E-01  0.00000000000E+00 0.  1.
     999901    1    3    3    0    0 -0.77299287391E-01 -0.60817693883E-01 -0.62132274770E-01  0.88765668549E+00  0.88000000000E+00 0.  1.
        -11    1    4    4    0    0  0.41792000049E-01  0.62365048618E-01  0.50507318982E-01  0.90483263364E-01  0.51100000000E-03 0.  1.
         11    1    4    4    0    0  0.28694693863E-01  0.18116882849E-01  0.24009296419E-01  0.41573000080E-01  0.51100000000E-03 0. -1.
</event>
<event>
 8    1  0.1044719E+005  0.1043930E+01  0.7957747E-01            NaN
         13   -1    0    0    0    0  0.00000000000E+00  0.00000000000E+00  0.74505805969E-08  0.10566000000E+00  0.10566000000E+00 0. -1.
     999900   -1    0    0    0    0 -0.00000000000E+00 -0.00000000000E+00 -0.74505805969E-08  0.93827000000E+00  0.93827000000E+00 0. -1.
     999902    2    1    2    0    0 -0.63571375762E-03  0.66239982241E-02  0.22714145215E-01  0.10202611623E+01  0.10199865810E+01 0.  0.
     999903    2    3    3    0    0 -0.45097716773E-01 -0.24224298929E-01  0.12119806451E+00  0.13311541921E+00  0.20251500508E-01 0.  0.
         14    1    1    2    0    0  0.63571375762E-03 -0.66239982241E-02 -0.22714145215E-01  0.23668837684E-01  0.00000000000E+00 0.  1.
     999901    1    3    3    0    0  0.44462003015E-01  0.30848297153E-01 -0.98483919299E-01  0.88714574311E+00  0.88000000000E+00 0. -1.
        -11    1    4    4    0    0 -0.29638034444E-01 -0.15601622457E-01  0.53351792054E-01  0.62996020075E-01  0.51100000000E-03 0. -1.
         11    1    4    4    0    0 -0.15459682328E-01 -0.86226764722E-02  0.67846272461E-01  0.70119399135E-01  0.51100000000E-03 0.  1.
</event>
<event>
 8    1  0.1044719E+005  0.1043930E+01  0.7957747E-01            NaN
         13   -1    0    0    0    0  0.00000000000E+00  0.00000000000E+00  0.74505805969E-08  0.10566000000E+00  0.10566000000E+00 0.  1.
     999900   -1    0    0    0    0 -0.00000000000E+00 -0.00000000000E+00 -0.74505805969E-08  0.93827000000E+00  0.93827000000E+00 0.  1.
     999902    2    1    2    0    0 -0.82881638689E-03 -0.10855293096E-01 -0.19110574641E-01  0.10219359465E+01  0.10216992417E+01 0.  0.
     999903    2    3    3    0    0 -0.77224612043E-02  0.12599963981E+00 -0.27981949231E-01  0.13128702789E+00  0.22754089073E-01 0.  0.
         14    1    1    2    0    0  0.82881638689E-03  0.10855293096E-01  0.19110574641E-01  0.21994053467E-01  0.00000000000E+00 0.  1.
     999901    1    3    3    0    0  0.68936448174E-02 -0.13685493290E+00  0.88713745903E-02  0.89064891865E+00  0.88000000000E+00 0. -1.
        -11    1    4    4    0    0 -0.55511572175E-02  0.10349916204E+00 -0.13718041935E-01  0.10455303766E+00  0.51100000000E-03 0. -1.
         11    1    4    4    0    0 -0.21713039867E-02  0.22500477769E-01 -0.14263907296E-01  0.26733990222E-01  0.51100000000E-03 0.  1.
</event>
<event>
 8    1  0.1044719E+005  0.1043930E+01  0.7957747E-01            NaN
         13   -1    0    0    0    0  0.00000000000E+00  0.00000000000E+00  0.74505805969E-08  0.10566000000E+00  0.10566000000E+00 0.  1.
     999900   -1    0    0    0    0 -0.00000000000E+00 -0.00000000000E+00 -0.74505805969E-08  0.93827000000E+00  0.93827000000E+00 0. -1.
     999902    2    1    2    0    0  0.14118390716E-01  0.58075167743E-02  0.18306584290E-01  0.10200933216E+01  0.10198147859E+01 0.  0.
     999903    2    3    3    0    0  0.18610825656E-01  0.12838328759E+00  0.74494701833E-02  0.13151981398E+00  0.20330654172E-01 0.  0.
         14    1    1    2    0    0 -0.14118390716E-01 -0.58075167743E-02 -0.18306584290E-01  0.23836678373E-01  0.00000000000E+00 0. -1.
     999901    1    3    3    0    0 -0.44924349402E-02 -0.12257577082E+00  0.10857114106E-01  0.88857350765E+00  0.88000000000E+00 0. -1.
        -11    1    4    4    0    0  0.19178724993E-01  0.61840592731E-01  0.46088928835E-02  0.64912136125E-01  0.51100000000E-03 0. -1.
         11    1    4    4    0    0 -0.56789933606E-03  0.66542694861E-01  0.28405772998E-02  0.66607677856E-01  0.51100000000E-03 0.  1.
</event>
<event>
 8    1  0.1044719E+005  0.1043930E+01  0.7957747E-01            NaN
         13   -1    0    0    0    0  0.00000000000E+00  0.00000000000E+00  0.74505805969E-08  0.10566000000E+00  0.10566000000E+00 0.  1.
     999900   -1    0    0    0    0 -0.00000000000E+00 -0.00000000000E+00 -0.74505805969E-08  0.93827000000E+00  0.93827000000E+00 0. -1.
     999902    2    1    2    0    0  0.24013387669E-01 -0.12018214001E-02  0.14358741013E-02  0.10198437197E+01  0.10195592498E+01 0.  0.
     999903    2    3    3    0    0  0.50369274097E-01 -0.80434438638E-01 -0.88247845035E-01  0.13135308397E+00  0.21428668253E-01 0.  0.
         14    1    1    2    0    0 -0.24013387669E-01  0.12018214001E-02 -0.14358741013E-02  0.24086280253E-01  0.00000000000E+00 0.  1.
     999901    1    3    3    0    0 -0.26355886428E-01  0.79232617238E-01  0.89683719137E-01  0.88849063578E+00  0.88000000000E+00 0.  1.
        -11    1    4    4    0    0  0.29413924521E-02 -0.42872779964E-02 -0.13863374898E-01  0.14815087807E-01  0.51100000000E-03 0.  1.
         11    1    4    4    0    0  0.47427881645E-01 -0.76147160642E-01 -0.74384470137E-01  0.11653799616E+00  0.51100000000E-03 0. -1.
</event>
<event>
 8    1  0.1044719E+005  0.1043930E+01  0.7957747E-01            NaN
         13   -1    0    0    0    0  0.00000000000E+00  0.00000000000E+00  0.74505805969E-08  0.10566000000E+00  0.10566000000E+00 0.  1.
     999900   -1    0    0    0    0 -0.00000000000E+00 -0.00000000000E+00 -0.74505805969E-08  0.93827000000E+00  0.93827000000E+00 0.  1.
     999902    2    1    2    0    0 -0.21366851042E-01  0.49241152513E-02 -0.10816478107E-01  0.10194803490E+01  0.10191871254E+01 0.  0.
     999903    2    3    3    0    0  0.38008527287E-01  0.10521260218E+00  0.60259355827E-01  0.12895522847E+00  0.21998208593E-01 0.  0.
         14    1    1    2    0    0  0.21366851042E-01 -0.49241152513E-02  0.10816478107E-01  0.24449650981E-01  0.00000000000E+00 0.  1.
     999901    1    3    3    0    0 -0.59375378328E-01 -0.10028848693E+00 -0.71075833933E-01  0.89052512055E+00  0.88000000000E+00 0. -1.
        -11    1    4    4    0    0  0.25117792832E-01  0.81725266333E-01  0.35863944881E-01  0.92716807200E-01  0.51100000000E-03 0.  1.
         11    1    4    4    0    0  0.12890734454E-01  0.23487335846E-01  0.24395410945E-01  0.36238421269E-01  0.51100000000E-03 0. -1.
</event>
<event>
 8    1  0.1044719E+005  0.1043930E+01  0.7957747E-01            NaN
         13   -1    0    0    0    0  0.00000000000E+00  0.00000000000E+00  0.74505805969E-08  0.10566000000E+00  0.10566000000E+00 0. -1.
     999900   -1    0    0    0    0 -0.00000000000E+00 -0.00000000000E+00 -0.74505805969E-08  0.93827000000E+00  0.93827000000E+00 0. -1.
     999902    2    1    2    0    0 -0.29570313448E-03  0.95148563219E-03 -0.23677358393E-01  0.10202316864E+01  0.10199564128E+01 0.  0.
     999903    2    3    3    0    0 -0.92106230393E-01  0.88044637591E-01 -0.23793641410E-01  0.13117915506E+00  0.20159798207E-01 0.  0.
         14    1    1    2    0    0  0.29570313448E-03 -0.95148563219E-03  0.23677358393E-01  0.23698313563E-01  0.00000000000E+00 0. -1.
     999901    1    3    3    0    0  0.91810527259E-01 -0.87093151959E-01  0.11628301717E-03  0.88905253138E+00  0.88000000000E+00 0. -1.
        -11    1    4    4    0    0 -0.29122671537E-01  0.37387214125E-01 -0.15787541501E-01  0.49954392851E-01  0.51100000000E-03 0.  1.
         11    1    4    4    0    0 -0.62983558856E-01  0.50657423466E-01 -0.80060999089E-02  0.81224762205E-01  0.51100000000E-03 0. -1.
</event>
<event>
 8    1  0.1044719E+005  0.1043930E+01  0.7957747E-01            NaN
         13   -1    0    0    0    0  0.00000000000E+00  0.00000000000E+00  0.74505805969E-08  0.10566000000E+00  0.10566000000E+00 0.  1.
     999900   -1    0    0    0    0 -0.00000000000E+00 -0.00000000000E+00 -0.74505805969E-08  0.93827000000E+00  0.93827000000E+00 0. -1.
     999902    2    1    2    0    0  0.71685494585E-02 -0.74772429910E-02  0.20973082289E-01  0.10205383894E+01  0.10202702764E+01 0.  0.
     999903    2    3    3    0    0  0.19592092383E-02  0.71442162844E-01 -0.10457938044E+00  0.12811537834E+00  0.19206306757E-01 0.  0.
         14    1    1    2    0    0 -0.71685494585E-02  0.74772429910E-02 -0.20973082289E-01  0.23391610565E-01  0.00000000000E+00 0. -1.
     999901    1    3    3    0    0  0.52093402202E-02 -0.78919405835E-01  0.12555246273E+00  0.89242301110E+00  0.88000000000E+00 0.  1.
        -11    1    4    4    0    0 -0.67582658250E-02  0.15211879600E-01 -0.18121984855E-01  0.24611844588E-01  0.51100000000E-03 0. -1.
         11    1    4    4    0    0  0.87174750633E-02  0.56230283245E-01 -0.86457395588E-01  0.10350353375E+00  0.51100000000E-03 0.  1.
</event>
<event>
 8    1  0.1044719E+005  0.1043930E+01  0.7957747E-01            NaN
         13   -1    0    0    0    0  0.00000000000E+00  0.00000000000E+00  0.74505805969E-08  0.10566000000E+00  0.10566000000E+00 0. -1.
     999900   -1    0    0    0    0 -0.00000000000E+00 -0.00000000000E+00 -0.74505805969E-08  0.93827000000E+00  0.93827000000E+00 0. -1.
     999902    2    1    2    0    0  0.54781580390E-02  0.15730775536E-01  0.16589660623E-01  0.10204207602E+01  0.10201499123E+01 0.  0.
     999903    2    3    3    0    0  0.81900459134E-01 -0.48807004001E-01  0.89837337577E-01  0.13173031061E+00  0.13867900484E-01 0.  0.
         14    1    1    2    0    0 -0.54781580390E-02 -0.15730775536E-01 -0.16589660623E-01  0.23509239759E-01  0.00000000000E+00 0.  1.
     999901    1    3    3    0    0 -0.76422301095E-01  0.64537779537E-01 -0.73247676954E-01  0.88869044963E+00  0.88000000000E+00 0. -1.
        -11    1    4    4    0    0  0.41600288302E-01 -0.17781900559E-01  0.37689384616E-01  0.58885743674E-01  0.51100000000E-03 0.  1.
         11    1    4    4    0    0  0.40300170832E-01 -0.31025103442E-01  0.52147952961E-01  0.72844566933E-01  0.51100000000E-03 0. -1.
</event>
<event>
 8    1  0.1044719E+005  0.1043930E+01  0.7957747E-01            NaN
         13   -1    0    0    0    0  0.00000000000E+00  0.00000000000E+00  0.74505805969E-08  0.10566000000E+00  0.10566000000E+00 0. -1.
     999900   -1    0    0    0    0 -0.00000000000E+00 -0.00000000000E+00 -0.74505805969E-08  0.93827000000E+00  0.93827000000E+00 0. -1.
     999902    2    1    2    0    0  0.29520327413E-02 -0.29804495240E-03 -0.23672784001E-01  0.10200720028E+01  0.10197929627E+01 0.  0.
     999903    2    3    3    0    0 -0.88851662046E-01  0.91127033714E-01 -0.21174629182E-01  0.13058186561E+00  0.20112299285E-01 0.  0.
         14    1    1    2    0    0 -0.29520327413E-02  0.29804495240E-03  0.23672784001E-01  0.23857997201E-01  0.00000000000E+00 0. -1.
     999901    1    3    3    0    0  0.91803694787E-01 -0.91425078666E-01 -0.24981548183E-02  0.88949013719E+00  0.88000000000E+00 0. -1.
        -11    1    4    4    0    0 -0.91822597691E-02  0.58488224902E-02  0.32013284175E-02  0.11359236049E-01  0.51100000000E-03 0. -1.
         11    1    4    4    0    0 -0.79669402277E-01  0.85278211223E-01 -0.24375957600E-01  0.11922262956E+00  0.51100000000E-03 0.  1.
</event>
<event>
 8    1  0.1044719E+005  0.1043930E+01  0.7957747E-01            NaN
         13   -1    0    0    0    0  0.00000000000E+00  0.00000000000E+00  0.74505805969E-08  0.10566000000E+00  0.10566000000E+00 0.  1.
     999900   -1    0    0    0    0 -0.00000000000E+00 -0.00000000000E+00 -0.74505805969E-08  0.93827000000E+00  0.93827000000E+00 0. -1.
     999902    2    1    2    0    0 -0.72020535635E-02  0.18876851608E-01  0.12778992810E-01  0.10200237715E+01  0.10197435887E+01 0.  0.
     999903    2    3    3    0    0 -0.64931336311E-01  0.11206584939E+00  0.23547889978E-01  0.13315691087E+00  0.20035637176E-01 0.  0.
         14    1    1    2    0    0  0.72020535635E-02 -0.18876851608E-01 -0.12778992810E-01  0.23906228465E-01  0.00000000000E+00 0. -1.
     999901    1    3    3    0    0  0.57729282748E-01 -0.93188997778E-01 -0.10768897167E-01  0.88686686066E+00  0.88000000000E+00 0.  1.
        -11    1    4    4    0    0 -0.25641120203E-01  0.49287339164E-01  0.39933509799E-03  0.55561942340E-01  0.51100000000E-03 0. -1.
         11    1    4    4    0    0 -0.39290216109E-01  0.62778510222E-01  0.23148554880E-01  0.77594968533E-01  0.51100000000E-03 0.  1.
</event>
<event>
 8    1  0.1044719E+005  0.1043930E+01  0.7957747E-01            NaN
         13   -1    0    0    0    0  0.00000000000E+00  0.00000000000E+00  0.74505805969E-08  0.10566000000E+00  0.10566000000E+00 0.  1.
     999900   -1    0    0    0    0 -0.00000000000E+00 -0.00000000000E+00 -0.74505805969E-08  0.93827000000E+00  0.93827000000E+00 0. -1.
     999902    2    1    2    0    0  0.15248299367E-01 -0.15503149988E-01  0.98592649634E-02  0.10200539995E+01  0.10197745332E+01 0.  0.
     999903    2    3    3    0    0 -0.81512299061E-01 -0.19982237594E-01  0.97757164206E-01  0.13038624338E+00  0.20014109802E-01 0.  0.
         14    1    1    2    0    0 -0.15248299367E-01  0.15503149988E-01 -0.98592649634E-02  0.23876000477E-01  0.00000000000E+00 0.  1.
     999901    1    3    3    0    0  0.96760598428E-01  0.44790876059E-02 -0.87897899242E-01  0.88966775615E+00  0.88000000000E+00 0. -1.
        -11    1    4    4    0    0 -0.43497134351E-01 -0.38962312262E-03  0.48448772653E-01  0.65112957201E-01  0.51100000000E-03 0.  1.
         11    1    4    4    0    0 -0.38015164710E-01 -0.19592614472E-01  0.49308391553E-01  0.65273286176E-01  0.51100000000E-03 0. -1.
</event>
<event>
 8    1  0.1044719E+005  0.1043930E+01  0.7957747E-01            NaN
         13   -1    0    0    0    0  0.00000000000E+00  0.00000000000E+00  0.74505805969E-08  0.10566000000E+00  0.10566000000E+00 0. -1.
     999900   -1    0    0    0    0 -0.00000000000E+00 -0.00000000000E+00 -0.74505805969E-08  0.93827000000E+00  0.93827000000E+00 0. -1.
     999902    2    1    2    0    0  0.89447686839E-02 -0.10873570006E-02 -0.23068277636E-01  0.10191643652E+01  0.10188634191E+01 0.  0.
     999903    2    3    3    0    0 -0.10635008404E+00 -0.55326898295E-02 -0.72447111811E-01  0.13026002094E+00  0.19445771078E-01 0.  0.
         14    1    1    2    0    0 -0.89447686839E-02  0.10873570006E-02  0.23068277636E-01  0.24765634762E-01  0.00000000000E+00 0. -1.
     999901    1    3    3    0    0  0.11529485273E+00  0.44453328289E-02  0.49378834175E-01  0.88890434430E+00  0.88000000000E+00 0.  1.
        -11    1    4    4    0    0 -0.60789338339E-01  0.64749044677E-02 -0.41018545418E-01  0.73620990436E-01  0.51100000000E-03 0. -1.
         11    1    4    4    0    0 -0.45560745703E-01 -0.12007594297E-01 -0.31428566393E-01  0.56639030503E-01  0.51100000000E-03 0.  1.
</event>
<event>
 8    1  0.1044719E+005  0.1043930E+01  0.7957747E-01            NaN
         13   -1    0    0    0    0  0.00000000000E+00  0.00000000000E+00  0.74505805969E-08  0.10566000000E+00  0.10566000000E+00 0.  1.
     999900   -1    0    0    0    0 -0.00000000000E+00 -0.00000000000E+00 -0.74505805969E-08  0.93827000000E+00  0.93827000000E+00 0. -1.
     999902    2    1    2    0    0  0.60620338632E-02  0.21949774728E-01  0.12116240627E-01  0.10181357341E+01  0.10178089354E+01 0.  0.
     999903    2    3    3    0    0 -0.20420619717E-03 -0.12336757956E+00  0.17758227623E-01  0.12617820641E+00  0.19646468862E-01 0.  0.
         14    1    1    2    0    0 -0.60620338632E-02 -0.21949774728E-01 -0.12116240627E-01  0.25794265877E-01  0.00000000000E+00 0. -1.
     999901    1    3    3    0    0  0.62662400604E-02  0.14531735429E+00 -0.56419869951E-02  0.89195752771E+00  0.88000000000E+00 0.  1.
        -11    1    4    4    0    0 -0.31759151466E-02 -0.41127498176E-01 -0.28189285682E-02  0.41349304982E-01  0.51100000000E-03 0.  1.
         11    1    4    4    0    0  0.29717089494E-02 -0.82240081384E-01  0.20577156191E-01  0.84828901431E-01  0.51100000000E-03 0. -1.
</event>
<event>
 8    1  0.1044719E+005  0.1043930E+01  0.7957747E-01            NaN
         13   -1    0    0    0    0  0.00000000000E+00  0.00000000000E+00  0.74505805969E-08  0.10566000000E+00  0.10566000000E+00 0. -1.
     999900   -1    0    0    0    0 -0.00000000000E+00 -0.00000000000E+00 -0.74505805969E-08  0.93827000000E+00  0.93827000000E+00 0.  1.
     999902    2    1    2    0    0 -0.15321905657E-01 -0.19165819704E-01  0.28082084105E-02  0.10192323185E+01  0.10189330417E+01 0.  0.
     999903    2    3    3    0    0 -0.17933481052E-01  0.73222394972E-01 -0.10188478405E+00  0.12821995874E+00  0.19409269178E-01 0.  0.
         14    1    1    2    0    0  0.15321905657E-01  0.19165819704E-01 -0.28082084105E-02  0.24697681518E-01  0.00000000000E+00 0.  1.
     999901    1    3    3    0    0  0.26115753951E-02 -0.92388214676E-01  0.10469299247E+00  0.89101235974E+00  0.88000000000E+00 0. -1.
        -11    1    4    4    0    0 -0.80513039794E-02  0.24032339365E-01 -0.49901993028E-01  0.55971839887E-01  0.51100000000E-03 0. -1.
         11    1    4    4    0    0 -0.98821770729E-02  0.49190055607E-01 -0.51982791027E-01  0.72248118856E-01  0.51100000000E-03 0.  1.
</event>
<event>
 8    1  0.1044719E+005  0.1043930E+01  0.7957747E-01            NaN
         13   -1    0    0    0    0  0.00000000000E+00  0.00000000000E+00  0.74505805969E-08  0.10566000000E+00  0.10566000000E+00 0.  1.
     999900   -1    0    0    0    0 -0.00000000000E+00 -0.00000000000E+00 -0.74505805969E-08  0.93827000000E+00  0.93827000000E+00 0.  1.
     999902    2    1    2    0    0  0.97520568528E-02 -0.14072500585E-01 -0.20001335087E-01  0.10176014738E+01  0.10172608162E+01 0.  0.
     999903    2    3    3    0    0 -0.12099217172E+00 -0.34473958163E-03 -0.35545670347E-01  0.12770028206E+00  0.20115737536E-01 0.  0.
         14    1    1    2    0    0 -0.97520568528E-02  0.14072500585E-01  0.20001335087E-01  0.26328526181E-01  0.00000000000E+00 0. -1.
     999901    1    3    3    0    0  0.13074422857E+00 -0.13727761004E-01  0.15544335260E-01  0.88990119175E+00  0.88000000000E+00 0.  1.
        -11    1    4    4    0    0 -0.88797870312E-01  0.21720000460E-02 -0.34786897760E-01  0.95394804538E-01  0.51100000000E-03 0.  1.
         11    1    4    4    0    0 -0.32194301406E-01 -0.25167396277E-02 -0.75877258698E-03  0.32305477527E-01  0.51100000000E-03 0. -1.
</event>
<event>
 8    1  0.1044719E+005  0.1043930E+01  0.7957747E-01            NaN
         13   -1    0    0    0    0  0.00000000000E+00  0.00000000000E+00  0.74505805969E-08  0.10566000000E+00  0.10566000000E+00 0.  1.
     999900   -1    0    0    0    0 -0.00000000000E+00 -0.00000000000E+00 -0.74505805969E-08  0.93827000000E+00  0.93827000000E+00 0. -1.
     999902    2    1    2    0    0  0.23697280165E-01 -0.17696049946E-02  0.27515686698E-02  0.10200079658E+01  0.10197274080E+01 0.  0.
     999903    2    3    3    0    0 -0.92553880960E-01  0.52810834725E-01  0.68489310101E-01  0.12825979088E+00  0.20114253990E-01 0.  0.
         14    1    1    2    0    0 -0.23697280165E-01  0.17696049946E-02 -0.27515686698E-02  0.23922034178E-01  0.00000000000E+00 0. -1.
     999901    1    3    3    0    0  0.11625116112E+00 -0.54580439719E-01 -0.65737741431E-01  0.89174817494E+00  0.88000000000E+00 0. -1.
        -11    1    4    4    0    0 -0.59871964462E-01  0.44718384255E-01  0.48802748164E-01  0.89254441729E-01  0.51100000000E-03 0. -1.
         11    1    4    4    0    0 -0.32681916498E-01  0.80924504696E-02  0.19686561937E-01  0.39005349152E-01  0.51100000000E-03 0.  1.
</event>
<event>
 8    1  0.1044719E+005  0.1043930E+01  0.7957747E-01            NaN
         13   -1    0    0    0    0  0.00000000000E+00  0.00000000000E+00  0.74505805969E-08  0.10566000000E+00  0.10566000000E+00 0. -1.
     999900   -1    0    0    0    0 -0.00000000000E+00 -0.00000000000E+00 -0.74505805969E-08  0.93827000000E+00  0.93827000000E+00 0. -1.
     999902    2    1    2    0    0 -0.73982134601E-02 -0.11215245467E-01 -0.19454420351E-01  0.10202870356E+01  0.10200130613E+01 0.  0.
     999903    2    3    3    0    0 -0.36422395298E-01  0.56958463327E-01  0.10704433811E+00  0.12815924568E+00  0.19885786588E-01 0.  0.
         14    1    1    2    0    0  0.73982134601E-02  0.11215245467E-01  0.19454420351E-01  0.23642964376E-01  0.00000000000E+00 0. -1.
     999901    1    3    3    0    0  0.29024181838E-01 -0.68173708794E-01 -0.12649875846E+00  0.89212778995E+00  0.88000000000E+00 0. -1.
        -11    1    4    4    0    0 -0.91696714196E-02  0.29481613816E-01  0.57742083976E-01  0.65480209300E-01  0.51100000000E-03 0.  1.
         11    1    4    4    0    0 -0.27252723879E-01  0.27476849511E-01  0.49302254130E-01  0.62679036378E-01  0.51100000000E-03 0. -1.
</event>
<event>
 8    1  0.1044719E+005  0.1043930E+01  0.7957747E-01            NaN
         13   -1    0    0    0    0  0.00000000000E+00  0.00000000000E+00  0.74505805969E-08  0.10566000000E+00  0.10566000000E+00 0. -1.
     999900   -1    0    0    0    0 -0.00000000000E+00 -0.00000000000E+00 -0.74505805969E-08  0.93827000000E+00  0.93827000000E+00 0.  1.
     999902    2    1    2    0    0  0.59154308299E-02  0.21205299782E-01 -0.74884298718E-02  0.10206763198E+01  0.10204113955E+01 0.  0.
     999903    2    3    3    0    0 -0.35930744936E-01  0.65568757412E-01  0.10572357773E+00  0.13133039303E+00  0.21907004928E-01 0.  0.
         14    1    1    2    0    0 -0.59154308299E-02 -0.21205299782E-01  0.74884298718E-02  0.23253680197E-01  0.00000000000E+00 0.  1.
     999901    1    3    3    0    0  0.41846175766E-01 -0.44363457629E-01 -0.11321200761E+00  0.88934592677E+00  0.88000000000E+00 0.  1.
        -11    1    4    4    0    0 -0.14472064099E-01  0.39329193383E-01  0.43085639822E-01  0.60107067565E-01  0.51100000000E-03 0. -1.
         11    1    4    4    0    0 -0.21458680837E-01  0.26239564029E-01  0.62637937911E-01  0.71223325466E-01  0.51100000000E-03 0.  1.
</event>
<event>
 8    1  0.1044719E+005  0.1043930E+01  0.7957747E-01            NaN
         13   -1    0    0    0    0  0.00000000000E+00  0.00000000000E+00  0.74505805969E-08  0.10566000000E+00  0.10566000000E+00 0.  1.
     999900   -1    0    0    0    0 -0.00000000000E+00 -0.00000000000E+00 -0.74505805969E-08  0.93827000000E+00  0.93827000000E+00 0. -1.
     999902    2    1    2    0    0  0.14043377844E-03  0.17684647323E-01  0.18481405403E-01  0.10183501482E+01  0.10180288284E+01 0.  0.
     999903    2    3    3    0    0 -0.14112488759E-01  0.12516017136E+00 -0.27134788990E-01  0.13052416792E+00  0.20881350597E-01 0.  0.
         14    1    1    2    0    0 -0.14043377844E-03 -0.17684647323E-01 -0.18481405403E-01  0.25579851802E-01  0.00000000000E+00 0. -1.
     999901    1    3    3    0    0  0.14252922538E-01 -0.10747552404E+00  0.45616194392E-01  0.88782598028E+00  0.88000000000E+00 0.  1.
        -11    1    4    4    0    0 -0.13503064339E-01  0.82429550833E-01 -0.87063328142E-02  0.83982289497E-01  0.51100000000E-03 0. -1.
         11    1    4    4    0    0 -0.60942442018E-03  0.42730620529E-01 -0.18428456176E-01  0.46541878421E-01  0.51100000000E-03 0.  1.
</event>
<event>
 8    1  0.1044719E+005  0.1043930E+01  0.7957747E-01            NaN
         13   -1    0    0    0    0  0.00000000000E+00  0.00000000000E+00  0.74505805969E-08  0.10566000000E+00  0.10566000000E+00 0.  1.
     999900   -1    0    0    0    0 -0.00000000000E+00 -0.00000000000E+00 -0.74505805969E-08  0.93827000000E+00  0.93827000000E+00 0.  1.
     999902    2    1    2    0    0  0.20338990705E-01 -0.38273575330E-02  0.15776099309E-01  0.10179067696E+01  0.10175740677E+01 0.  0.
     999903    2    3    3    0    0  0.17182440658E-01  0.12545900682E+00  0.40703057140E-02  0.12837770693E+00  0.20713994966E-01 0.  0.
         14    1    1    2    0    0 -0.20338990705E-01  0.38273575330E-02 -0.15776099309E-01  0.26023230353E-01  0.00000000000E+00 0.  1.
     999901    1    3    3    0    0  0.31565500478E-02 -0.12928636436E+00  0.11705793595E-01  0.88952906272E+00  0.88000000000E+00 0. -1.
        -11    1    4    4    0    0  0.14610218822E-01  0.45865388958E-01 -0.41516487346E-02  0.48317592102E-01  0.51100000000E-03 0. -1.
         11    1    4    4    0    0  0.25722218357E-02  0.79593617866E-01  0.82219544486E-02  0.80060114827E-01  0.51100000000E-03 0.  1.
</event>
<event>
 7    1  0.1044719E+005  0.1043930E+01  0.7957747E-01            NaN
         13   -1    0    0    0    0  0.00000000000E+00  0.00000000000E+00  0.74505805969E-08  0.10566000000E+00  0.10566000000E+00 0.  1.
     999900   -1    0    0    0    0 -0.00000000000E+00 -0.00000000000E+00 -0.74505805969E-08  0.93827000000E+00  0.93827000000E+00 0. -1.
     999902    2    1    2    0    0  0.83028340503E-02  0.15172878830E-01  0.13420416901E-01  0.10220379719E+01  0.10218034816E+01 0.  0.
         14    1    1    2    0    0 -0.83028340503E-02 -0.15172878830E-01 -0.13420416901E-01  0.21892028117E-01  0.00000000000E+00 0. -1.
     999901    1    3    3    0    0  0.12671894780E+00  0.17690391622E-01  0.45326930674E-01  0.89040730699E+00  0.88000000000E+00 0.  1.
        -11    1    3    3    0    0 -0.43969628784E-01 -0.46680772176E-02 -0.36026346681E-01  0.57037513765E-01  0.51100000000E-03 0. -1.
         11    1    3    3    0    0 -0.74446484971E-01  0.21505644257E-02  0.41198329076E-02  0.74593151133E-01  0.51100000000E-03 0.  1.
</event>
<event>
 8    1  0.1044719E+005  0.1043930E+01  0.7957747E-01            NaN
         13   -1    0    0    0    0  0.00000000000E+00  0.00000000000E+00  0.74505805969E-08  0.10566000000E+00  0.10566000000E+00 0.  1.
     999900   -1    0    0    0    0 -0.00000000000E+00 -0.00000000000E+00 -0.74505805969E-08  0.93827000000E+00  0.93827000000E+00 0.  1.
     999902    2    1    2    0    0  0.22295076703E-01  0.74340755904E-02 -0.28228037844E-02  0.10202592555E+01  0.10199846294E+01 0.  0.
     999903    2    3    3    0    0  0.55423639487E-01  0.96813942083E-01 -0.69918311168E-01  0.13257233470E+00  0.15560671442E-01 0.  0.
         14    1    1    2    0    0 -0.22295076703E-01 -0.74340755904E-02  0.28228037844E-02  0.23670744523E-01  0.00000000000E+00 0.  1.
     999901    1    3    3    0    0 -0.33128562784E-01 -0.89379866492E-01  0.67095507384E-01  0.88768692078E+00  0.88000000000E+00 0.  1.
        -11    1    4    4    0    0  0.28164461723E-01  0.35171816003E-01 -0.31624007099E-01  0.55051180651E-01  0.51100000000E-03 0. -1.
         11    1    4    4    0    0  0.27259177764E-01  0.61642126079E-01 -0.38294304069E-01  0.77521154049E-01  0.51100000000E-03 0.  1.
</event>
<event>
 8    1  0.1044719E+005  0.1043930E+01  0.7957747E-01            NaN
         13   -1    0    0    0    0  0.00000000000E+00  0.00000000000E+00  0.74505805969E-08  0.10566000000E+00  0.10566000000E+00 0. -1.
     999900   -1    0    0    0    0 -0.00000000000E+00 -0.00000000000E+00 -0.74505805969E-08  0.93827000000E+00  0.93827000000E+00 0. -1.
     999902    2    1    2    0    0 -0.19873549595E-01  0.95687551351E-02  0.12107949004E-01  0.10187680947E+01  0.10184573184E+01 0.  0.
     999903    2    3    3    0    0  0.71586545965E-01  0.14874112438E-01  0.10461538070E+00  0.12918913767E+00  0.19989563012E-01 0.  0.
         14    1    1    2    0    0  0.19873549595E-01 -0.95687551351E-02 -0.12107949004E-01  0.25161905282E-01  0.00000000000E+00 0.  1.
     999901    1    3    3    0    0 -0.91460095560E-01 -0.53053573032E-02 -0.92507431698E-01  0.88957895704E+00  0.88000000000E+00 0. -1.
        -11    1    4    4    0    0  0.23727371287E-01  0.91682347169E-02  0.22458971125E-01  0.33936870525E-01  0.51100000000E-03 0. -1.
         11    1    4    4    0    0  0.47859174677E-01  0.57058777214E-02  0.82156409577E-01  0.95252267149E-01  0.51100000000E-03 0.  1.
</event>
<event>
 8    1  0.1044719E+005  0.1043930E+01  0.7957747E-01            NaN
         13   -1    0    0    0    0  0.00000000000E+00  0.00000000000E+00  0.74505805969E-08  0.10566000000E+00  0.10566000000E+00 0.  1.
     999900   -1    0    0    0    0 -0.00000000000E+00 -0.00000000000E+00 -0.74505805969E-08  0.93827000000E+00  0.93827000000E+00 0. -1.
     999902    2    1    2    0    0  0.56982398029E-02 -0.56805748248E-02  0.25349952048E-01  0.10173337797E+01  0.10169860669E+01 0.  0.
     999903    2    3    3    0    0  0.10069532789E+00 -0.34307708870E-01 -0.66792707060E-01  0.12697754244E+00  0.18586624745E-01 0.  0.
         14    1    1    2    0    0 -0.56982398029E-02  0.56805748248E-02 -0.25349952048E-01  0.26596220334E-01  0.00000000000E+00 0. -1.
     999901    1    3    3    0    0 -0.94997088088E-01  0.28627134045E-01  0.92142659108E-01  0.89035623723E+00  0.88000000000E+00 0.  1.
        -11    1    4    4    0    0  0.31826564995E-01 -0.23997768708E-02 -0.16594651947E-01  0.35976836474E-01  0.51100000000E-03 0. -1.
         11    1    4    4    0    0  0.68868762896E-01 -0.31907932000E-01 -0.50198055113E-01  0.91000705961E-01  0.51100000000E-03 0.  1.
</event>
<event>
 8    1  0.1044719E+005  0.1043930E+01  0.7957747E-01            NaN
         13   -1    0    0    0    0  0.00000000000E+00  0.00000000000E+00  0.74505805969E-08  0.10566000000E+00  0.10566000000E+00 0.  1.
     999900   -1    0    0    0    0 -0.00000000000E+00 -0.00000000000E+00 -0.74505805969E-08  0.93827000000E+00  0.93827000000E+00 0.  1.
     999902    2    1    2    0    0  0.15075548190E-01  0.13620093329E-01 -0.10135876573E-01  0.10212250426E+01  0.10209726111E+01 0.  0.
     999903    2    3    3    0    0 -0.88022316037E-01 -0.81407023361E-01  0.43405501405E-01  0.12851792286E+00  0.16055758231E-01 0.  0.
         14    1    1    2    0    0 -0.15075548190E-01 -0.13620093329E-01  0.10135876573E-01  0.22704957375E-01  0.00000000000E+00 0. -1.
     999901    1    3    3    0    0  0.10309786423E+00  0.95027116690E-01 -0.53541377977E-01  0.89270711976E+00  0.88000000000E+00 0. -1.
        -11    1    4    4    0    0 -0.63338982781E-01 -0.51034932602E-01  0.34618689424E-01  0.88403087411E-01  0.51100000000E-03 0.  1.
         11    1    4    4    0    0 -0.24683333256E-01 -0.30372090759E-01  0.87868119806E-02  0.40114835454E-01  0.51100000000E-03 0. -1.
</event>
<event>
 8    1  0.1044719E+005  0.1043930E+01  0.7957747E-01            NaN
         13   -1    0    0    0    0  0.00000000000E+00  0.00000000000E+00  0.74505805969E-08  0.10566000000E+00  0.10566000000E+00 0. -1.
     999900   -1    0    0    0    0 -0.00000000000E+00 -0.00000000000E+00 -0.74505805969E-08  0.93827000000E+00  0.93827000000E+00 0.  1.
     999902    2    1    2    0    0  0.14873961245E-01  0.12979100847E-01 -0.13304102204E-01  0.10201247292E+01  0.10198469357E+01 0.  0.
     999903    2    3    3    0    0  0.23057123061E-01  0.11972480076E+00 -0.49224655814E-01  0.13290891851E+00  0.19392138545E-01 0.  0.
         14    1    1    2    0    0 -0.14873961245E-01 -0.12979100847E-01  0.13304102204E-01  0.23805270790E-01  0.00000000000E+00 0. -1.
     999901    1    3    3    0    0 -0.81831618158E-02 -0.10674569992E+00  0.35920553610E-01  0.88721581070E+00  0.88000000000E+00 0. -1.
        -11    1    4    4    0    0  0.15500978466E-01  0.93583649434E-01 -0.46238967818E-01  0.10552953634E+00  0.51100000000E-03 0. -1.
         11    1    4    4    0    0  0.75561445949E-02  0.26141151329E-01 -0.29856879955E-02  0.27379382165E-01  0.51100000000E-03 0.  1.
</event>
<event>
 7    1  0.1044719E+005  0.1043930E+01  0.7957747E-01            NaN
         13   -1    0    0    0    0  0.00000000000E+00  0.00000000000E+00  0.74505805969E-08  0.10566000000E+00  0.10566000000E+00 0. -1.
     999900   -1    0    0    0    0 -0.00000000000E+00 -0.00000000000E+00 -0.74505805969E-08  0.93827000000E+00  0.93827000000E+00 0.  1.
     999903    2    1    2    0    0 -0.71761995060E-01  0.31261588924E-01 -0.39670302094E-01  0.90294702894E-01  0.21268042349E-01 0.  0.
         14    1    1    2    0    0 -0.33755329992E-02  0.64254128310E-01 -0.10408026344E-02  0.64351149935E-01  0.00000000000E+00 0.  1.
     999901    1    1    2    0    0  0.75137528059E-01 -0.95515717234E-01  0.40711104728E-01  0.88928414717E+00  0.88000000000E+00 0.  1.
        -11    1    3    3    0    0 -0.33809365378E-01  0.23094485709E-01 -0.12172022504E-01  0.42718236273E-01  0.51100000000E-03 0.  1.
         11    1    3    3    0    0 -0.37952629682E-01  0.81671032146E-02 -0.27498279589E-01  0.47576466620E-01  0.51100000000E-03 0. -1.
</event>
<event>
 8    1  0.1044719E+005  0.1043930E+01  0.7957747E-01            NaN
         13   -1    0    0    0    0  0.00000000000E+00  0.00000000000E+00  0.74505805969E-08  0.10566000000E+00  0.10566000000E+00 0. -1.
     999900   -1    0    0    0    0 -0.00000000000E+00 -0.00000000000E+00 -0.74505805969E-08  0.93827000000E+00  0.93827000000E+00 0. -1.
     999902    2    1    2    0    0  0.98306927788E-02  0.20633506787E-01  0.27360303517E-02  0.10209110951E+01  0.10206515537E+01 0.  0.
     999903    2    3    3    0    0 -0.16976617912E-01  0.72591483641E-02 -0.12808080259E+00  0.13073664633E+00  0.18613917130E-01 0.  0.
         14    1    1    2    0    0 -0.98306927788E-02 -0.20633506787E-01 -0.27360303517E-02  0.23018904946E-01  0.00000000000E+00 0. -1.
     999901    1    3    3    0    0  0.26807310690E-01  0.13374358423E-01  0.13081683295E+00  0.89017444872E+00  0.88000000000E+00 0.  1.
        -11    1    4    4    0    0 -0.29184231506E-02  0.97599638099E-02 -0.77780145912E-01  0.78446072600E-01  0.51100000000E-03 0.  1.
         11    1    4    4    0    0 -0.14058194761E-01 -0.25008154458E-02 -0.50300656682E-01  0.52290573735E-01  0.51100000000E-03 0. -1.
</event>
<event>
 8    1  0.1044719E+005  0.1043930E+01  0.7957747E-01            NaN
         13   -1    0    0    0    0  0.00000000000E+00  0.00000000000E+00  0.74505805969E-08  0.10566000000E+00  0.10566000000E+00 0.  1.
     999900   -1    0    0    0    0 -0.00000000000E+00 -0.00000000000E+00 -0.74505805969E-08  0.93827000000E+00  0.93827000000E+00 0. -1.
     999902    2    1    2    0    0 -0.21447056619E-01 -0.81250221667E-02 -0.29846525300E-02  0.10208020867E+01  0.10205400530E+01 0.  0.
     999903    2    3    3    0    0  0.69325333247E-01 -0.10332180642E+00  0.35502292731E-01  0.13019369945E+00  0.14442613134E-01 0.  0.
         14    1    1    2    0    0  0.21447056619E-01  0.81250221667E-02  0.29846525300E-02  0.23127913298E-01  0.00000000000E+00 0.  1.
     999901    1    3    3    0    0 -0.90772389866E-01  0.95196784255E-01 -0.38486945260E-01  0.89060838726E+00  0.88000000000E+00 0.  1.
        -11    1    4    4    0    0  0.34090953325E-01 -0.61810071298E-01  0.23844775994E-01  0.74508472509E-01  0.51100000000E-03 0.  1.
         11    1    4    4    0    0  0.35234379923E-01 -0.41511735124E-01  0.11657516737E-01  0.55685226937E-01  0.51100000000E-03 0. -1.
</event>
<event>
 8    1  0.1044719E+005  0.1043930E+01  0.7957747E-01            NaN
         13   -1    0    0    0    0  0.00000000000E+00  0.00000000000E+00  0.74505805969E-08  0.10566000000E+00  0.10566000000E+00 0. -1.
     999900   -1    0    0    0    0 -0.00000000000E+00 -0.00000000000E+00 -0.74505805969E-08  0.93827000000E+00  0.93827000000E+00 0.  1.
     999902    2    1    2    0    0  0.82358596528E-03 -0.25615275247E-01 -0.27975219764E-02  0.10181492562E+01  0.10178228044E+01 0.  0.
     999903    2    3    3    0    0  0.11523053727E-01 -0.11525442489E+00  0.58847607144E-01  0.13138560244E+00  0.19564570976E-01 0.  0.
         14    1    1    2    0    0 -0.82358596528E-03  0.25615275247E-01  0.27975219764E-02  0.25780743764E-01  0.00000000000E+00 0.  1.
     999901    1    3    3    0    0 -0.10699467761E-01  0.89639149640E-01 -0.61645129120E-01  0.88676365380E+00  0.88000000000E+00 0.  1.
        -11    1    4    4    0    0  0.18673902464E-02 -0.91816283705E-01  0.49765670114E-01  0.10445381823E+00  0.51100000000E-03 0. -1.
         11    1    4    4    0    0  0.96556634803E-02 -0.23438141182E-01  0.90819370303E-02  0.26931784206E-01  0.51100000000E-03 0.  1.
</event>
<event>
 8    1  0.1044719E+005  0.1043930E+01  0.7957747E-01            NaN
         13   -1    0    0    0    0  0.00000000000E+00  0.00000000000E+00  0.74505805969E-08  0.10566000000E+00  0.10566000000E+00 0.  1.
     999900   -1    0    0    0    0 -0.00000000000E+00 -0.00000000000E+00 -0.74505805969E-08  0.93827000000E+00  0.93827000000E+00 0. -1.
     999902    2    1    2    0    0 -0.22479652941E-01  0.60045333979E-02 -0.43026103878E-02  0.10202677585E+01  0.10199933320E+01 0.  0.
     999903    2    3    3    0    0  0.21056520581E-01  0.11310407914E+00  0.56709957517E-01  0.13061150770E+00  0.24646234707E-01 0.  0.
         14    1    1    2    0    0  0.22479652941E-01 -0.60045333979E-02  0.43026103878E-02  0.23662241521E-01  0.00000000000E+00 0.  1.
     999901    1    3    3    0    0 -0.43536173522E-01 -0.10709954574E+00 -0.61012567905E-01  0.88965625078E+00  0.88000000000E+00 0.  1.
        -11    1    4    4    0    0 -0.83187920613E-03  0.30840945148E-01  0.25203068499E-01  0.39841080600E-01  0.51100000000E-03 0.  1.
         11    1    4    4    0    0  0.21888399787E-01  0.82263133994E-01  0.31506889019E-01  0.90770427103E-01  0.51100000000E-03 0. -1.
</event>
<event>
 8    1  0.1044719E+005  0.1043930E+01  0.7957747E-01            NaN
         13   -1    0    0    0    0  0.00000000000E+00  0.00000000000E+00  0.74505805969E-08  0.10566000000E+00  0.10566000000E+00 0. -1.
     999900   -1    0    0    0    0 -0.00000000000E+00 -0.00000000000E+00 -0.74505805969E-08  0.93827000000E+00  0.93827000000E+00 0. -1.
     999902    2    1    2    0    0 -0.10343375172E-01 -0.48652113970E-02 -0.21045073776E-01  0.10199810789E+01  0.10196998826E+01 0.  0.
     999903    2    3    3    0    0  0.63873177947E-01  0.84931164269E-01 -0.73622935768E-01  0.13074774764E+00  0.19533338602E-01 0.  0.
         14    1    1    2    0    0  0.10343375172E-01  0.48652113970E-02  0.21045073776E-01  0.23948921106E-01  0.00000000000E+00 0. -1.
     999901    1    3    3    0    0 -0.74216553119E-01 -0.89796375666E-01  0.52577861992E-01  0.88923333125E+00  0.88000000000E+00 0.  1.
        -11    1    4    4    0    0  0.50873725557E-01  0.68863692349E-01 -0.67960092396E-01  0.10931230194E+00  0.51100000000E-03 0.  1.
         11    1    4    4    0    0  0.12999452390E-01  0.16067471920E-01 -0.56628433725E-02  0.21435445701E-01  0.51100000000E-03 0. -1.
</event>
<event>
 8    1  0.1044719E+005  0.1043930E+01  0.7957747E-01            NaN
         13   -1    0    0    0    0  0.00000000000E+00  0.00000000000E+00  0.74505805969E-08  0.10566000000E+00  0.10566000000E+00 0.  1.
     999900   -1    0    0    0    0 -0.00000000000E+00 -0.00000000000E+00 -0.74505805969E-08  0.93827000000E+00  0.93827000000E+00 0.  1.
     999902    2    1    2    0    0 -0.12176121369E-01  0.25630290861E-02 -0.20587944315E-01  0.10198740132E+01  0.10195902669E+01 0.  0.
     999903    2    3    3    0    0 -0.10794808591E+00  0.49268395440E-01 -0.55619256983E-01  0.13275459999E+00  0.21215985237E-01 0.  0.
         14    1    1    2    0    0  0.12176121369E-01 -0.25630290861E-02  0.20587944315E-01  0.24055986798E-01  0.00000000000E+00 0.  1.
     999901    1    3    3    0    0  0.95771964540E-01 -0.46705366354E-01  0.35031312668E-01  0.88711941322E+00  0.88000000000E+00 0. -1.
        -11    1    4    4    0    0 -0.64689770539E-01  0.31414391366E-01 -0.22261945370E-01  0.75282705384E-01  0.51100000000E-03 0.  1.
         11    1    4    4    0    0 -0.43258315369E-01  0.17854004074E-01 -0.33357311613E-01  0.57471894602E-01  0.51100000000E-03 0. -1.
</event>
<event>
 8    1  0.1044719E+005  0.1043930E+01  0.7957747E-01            NaN
         13   -1    0    0    0    0  0.00000000000E+00  0.00000000000E+00  0.74505805969E-08  0.10566000000E+00  0.10566000000E+00 0. -1.
     999900   -1    0    0    0    0 -0.00000000000E+00 -0.00000000000E+00 -0.74505805969E-08  0.93827000000E+00  0.93827000000E+00 0. -1.
     999902    2    1    2    0    0 -0.16785686695E-02  0.23381520096E-01 -0.12922703668E-02  0.10204527123E+01  0.10201826087E+01 0.  0.
     999903    2    3    3    0    0 -0.31327784903E-01 -0.24645185487E-01  0.12220964420E+00  0.13003799804E+00  0.19643536496E-01 0.  0.
         14    1    1    2    0    0  0.16785686695E-02 -0.23381520096E-01  0.12922703668E-02  0.23477287694E-01  0.00000000000E+00 0.  1.
     999901    1    3    3    0    0  0.29649216233E-01  0.48026705583E-01 -0.12350191456E+00  0.89041471426E+00  0.88000000000E+00 0. -1.
        -11    1    4    4    0    0 -0.15611353133E-01 -0.12506719578E-01  0.32585944662E-01  0.38239211443E-01  0.51100000000E-03 0. -1.
         11    1    4    4    0    0 -0.15716431769E-01 -0.12138465909E-01  0.89623699535E-01  0.91798786601E-01  0.51100000000E-03 0.  1.
</event>
<event>
 8    1  0.1044719E+005  0.1043930E+01  0.7957747E-01            NaN
         13   -1    0    0    0    0  0.00000000000E+00  0.00000000000E+00  0.74505805969E-08  0.10566000000E+00  0.10566000000E+00 0. -1.
     999900   -1    0    0    0    0 -0.00000000000E+00 -0.00000000000E+00 -0.74505805969E-08  0.93827000000E+00  0.93827000000E+00 0. -1.
     999902    2    1    2    0    0 -0.13313149670E-01 -0.11290740739E-01  0.15006263225E-01  0.10209102538E+01  0.10206506932E+01 0.  0.
     999903    2    3    3    0    0 -0.47088469039E-01  0.89330734839E-01  0.82559331632E-01  0.13196207159E+00  0.20016018480E-01 0.  0.
         14    1    1    2    0    0  0.13313149670E-01  0.11290740739E-01 -0.15006263225E-01  0.23019746231E-01  0.00000000000E+00 0.  1.
     999901    1    3    3    0    0  0.33775319369E-01 -0.10062147558E+00 -0.67553068407E-01  0.88894818218E+00  0.88000000000E+00 0. -1.
        -11    1    4    4    0    0 -0.95448470242E-02  0.23073664681E-01  0.10416525111E-01  0.27060362579E-01  0.51100000000E-03 0. -1.
         11    1    4    4    0    0 -0.37543622015E-01  0.66257070158E-01  0.72142806521E-01  0.10490170901E+00  0.51100000000E-03 0.  1.
</event>
<event>
 8    1  0.1044719E+005  0.1043930E+01  0.7957747E-01            NaN
         13   -1    0    0    0    0  0.00000000000E+00  0.00000000000E+00  0.74505805969E-08  0.10566000000E+00  0.10566000000E+00 0.  1.
     999900   -1    0    0    0    0 -0.00000000000E+00 -0.00000000000E+00 -0.74505805969E-08  0.93827000000E+00  0.93827000000E+00 0. -1.
     999902    2    1    2    0    0 -0.41322311542E-02 -0.13027781079E-01 -0.60999333344E-02  0.10289631165E+01  0.10288542596E+01 0.  0.
     999903    2    3    3    0    0 -0.11428474200E+00  0.73658926819E-01  0.10687079690E-01  0.13771120782E+00  0.19066287834E-01 0.  0.
         14    1    1    2    0    0  0.41322311542E-02  0.13027781079E-01  0.60999333344E-02  0.14966883471E-01  0.00000000000E+00 0.  1.
     999901    1    3    3    0    0  0.11015251085E+00 -0.86686707898E-01 -0.16787013025E-01  0.89125190871E+00  0.88000000000E+00 0. -1.
        -11    1    4    4    0    0 -0.62218249316E-01  0.28828185252E-01  0.62571765257E-02  0.68859191049E-01  0.51100000000E-03 0. -1.
         11    1    4    4    0    0 -0.52066492688E-01  0.44830741568E-01  0.44299031646E-02  0.68852016770E-01  0.51100000000E-03 0.  1.
</event>
<event>
 8    1  0.1044719E+005  0.1043930E+01  0.7957747E-01            NaN
         13   -1    0    0    0    0  0.00000000000E+00  0.00000000000E+00  0.74505805969E-08  0.10566000000E+00  0.10566000000E+00 0. -1.
     999900   -1    0    0    0    0 -0.00000000000E+00 -0.00000000000E+00 -0.74505805969E-08  0.93827000000E+00  0.93827000000E+00 0.  1.
     999902    2    1    2    0    0 -0.43183064334E-02 -0.70086639634E-02  0.21061879781E-01  0.10213164660E+01  0.10210660859E+01 0.  0.
     999903    2    3    3    0    0  0.10626536537E-01  0.96317588259E-01 -0.82824023788E-01  0.12907661947E+00  0.20271992796E-01 0.  0.
         14    1    1    2    0    0  0.43183064334E-02  0.70086639634E-02 -0.21061879781E-01  0.22613534021E-01  0.00000000000E+00 0.  1.
     999901    1    3    3    0    0 -0.14944842970E-01 -0.10332625222E+00  0.10388590357E+00  0.89223984650E+00  0.88000000000E+00 0. -1.
        -11    1    4    4    0    0  0.40935559822E-02  0.23111688895E-01 -0.32120309373E-01  0.39785459145E-01  0.51100000000E-03 0.  1.
         11    1    4    4    0    0  0.65329805546E-02  0.73205899364E-01 -0.50703714414E-01  0.89291160330E-01  0.51100000000E-03 0. -1.
</event>
<event>
 8    1  0.1044719E+005  0.1043930E+01  0.7957747E-01            NaN
         13   -1    0    0    0    0  0.00000000000E+00  0.00000000000E+00  0.74505805969E-08  0.10566000000E+00  0.10566000000E+00 0.  1.
     999900   -1    0    0    0    0 -0.00000000000E+00 -0.00000000000E+00 -0.74505805969E-08  0.93827000000E+00  0.93827000000E+00 0. -1.
     999902    2    1    2    0    0 -0.39419740324E-02 -0.22131317178E-01  0.76784718201E-02  0.10201751418E+01  0.10198985374E+01 0.  0.
     999903    2    3    3    0    0 -0.24181692398E-01 -0.39163794515E-01  0.12230803436E+00  0.13234650512E+00  0.20923314760E-01 0.  0.
         14    1    1    2    0    0  0.39419740324E-02  0.22131317178E-01 -0.76784718201E-02  0.23754858214E-01  0.00000000000E+00 0. -1.
     999901    1    3    3    0    0  0.20239718366E-01  0.17032477337E-01 -0.11462956253E+00  0.88782863667E+00  0.88000000000E+00 0. -1.
        -11    1    4    4    0    0  0.36153464092E-03 -0.12966564726E-01  0.49416448626E-01  0.51093140673E-01  0.51100000000E-03 0. -1.
         11    1    4    4    0    0 -0.24543227039E-01 -0.26197229789E-01  0.72891585729E-01  0.81253364443E-01  0.51100000000E-03 0.  1.
</event>
<event>
 7    1  0.1044719E+005  0.1043930E+01  0.7957747E-01            NaN
         13   -1    0    0    0    0  0.00000000000E+00  0.00000000000E+00  0.74505805969E-08  0.10566000000E+00  0.10566000000E+00 0. -1.
     999900   -1    0    0    0    0 -0.00000000000E+00 -0.00000000000E+00 -0.74505805969E-08  0.93827000000E+00  0.93827000000E+00 0.  1.
     999903    2    1    2    0    0 -0.10559993020E+00 -0.20704247083E-01 -0.42221233974E-01  0.11781111367E+00  0.22733561118E-01 0.  0.
         14    1    1    2    0    0  0.84775997615E-02  0.37190744801E-01  0.12437980738E-01  0.40121372875E-01  0.00000000000E+00 0. -1.
     999901    1    1    2    0    0  0.97122330434E-01 -0.16486497718E-01  0.29783253237E-01  0.88599751346E+00  0.88000000000E+00 0. -1.
        -11    1    3    3    0    0 -0.24931717071E-01 -0.14099867713E-01 -0.67014040955E-02  0.29420515350E-01  0.51100000000E-03 0. -1.
         11    1    3    3    0    0 -0.80668213124E-01 -0.66043793698E-02 -0.35519829879E-01  0.88390598319E-01  0.51100000000E-03 0.  1.
</event>
<event>
 8    1  0.1044719E+005  0.1043930E+01  0.7957747E-01            NaN
         13   -1    0    0    0    0  0.00000000000E+00  0.00000000000E+00  0.74505805969E-08  0.10566000000E+00  0.10566000000E+00 0.  1.
     999900   -1    0    0    0    0 -0.00000000000E+00 -0.00000000000E+00 -0.74505805969E-08  0.93827000000E+00  0.93827000000E+00 0.  1.
     999902    2    1    2    0    0  0.62382506581E-02  0.16349359373E-01  0.16599857810E-01  0.10198100373E+01  0.10195247616E+01 0.  0.
     999903    2    3    3    0    0  0.52346180147E-01 -0.36743723361E-01 -0.10922174026E+00  0.12808368286E+00  0.19642237328E-01 0.  0.
         14    1    1    2    0    0 -0.62382506581E-02 -0.16349359373E-01 -0.16599857810E-01  0.24119962739E-01  0.00000000000E+00 0.  1.
     999901    1    3    3    0    0 -0.46107929489E-01  0.53093082734E-01  0.12582159807E+00  0.89172635440E+00  0.88000000000E+00 0. -1.
        -11    1    4    4    0    0  0.14939732864E-01 -0.21943418328E-01 -0.39700486701E-01  0.47760852079E-01  0.51100000000E-03 0. -1.
         11    1    4    4    0    0  0.37406447283E-01 -0.14800305033E-01 -0.69521253557E-01  0.80322830780E-01  0.51100000000E-03 0.  1.
</event>
<event>
 8    1  0.1498230E+005  0.1043930E+01  0.7957747E-01            NaN
         13   -1    0    0    0    0  0.00000000000E+00  0.00000000000E+00  0.74505805969E-08  0.10566000000E+00  0.10566000000E+00 0.  1.
     999900   -1    0    0    0    0 -0.00000000000E+00 -0.00000000000E+00 -0.74505805969E-08  0.93827000000E+00  0.93827000000E+00 0. -1.
     999902    2    1    2    0    0  0.22963393741E-02  0.19473919411E-01  0.12268078584E-01  0.10207996636E+01  0.10205375743E+01 0.  0.
     999903    2    3    3    0    0 -0.26889523017E-01  0.12186652387E+00  0.44022060860E-01  0.13381354450E+00  0.19840029233E-01 0.  0.
         14    1    1    2    0    0 -0.22963393741E-02 -0.19473919411E-01 -0.12268078584E-01  0.23130336441E-01  0.00000000000E+00 0. -1.
     999901    1    3    3    0    0  0.29185862391E-01 -0.10239260446E+00 -0.31753982276E-01  0.88698611906E+00  0.88000000000E+00 0.  1.
        -11    1    4    4    0    0 -0.92675628996E-02  0.52151266541E-01  0.28860875021E-01  0.60322910671E-01  0.51100000000E-03 0. -1.
         11    1    4    4    0    0 -0.17621960118E-01  0.69715257334E-01  0.15161185839E-01  0.73490633829E-01  0.51100000000E-03 0.  1.
</event>
<event>
 8    1  0.1044719E+005  0.1043930E+01  0.7957747E-01            NaN
         13   -1    0    0    0    0  0.00000000000E+00  0.00000000000E+00  0.74505805969E-08  0.10566000000E+00  0.10566000000E+00 0. -1.
     999900   -1    0    0    0    0 -0.00000000000E+00 -0.00000000000E+00 -0.74505805969E-08  0.93827000000E+00  0.93827000000E+00 0. -1.
     999902    2    1    2    0    0 -0.11177700369E-01 -0.94096589581E-02  0.16820387705E-01  0.10216497821E+01  0.10214068088E+01 0.  0.
     999903    2    3    3    0    0  0.42788533765E-01  0.11136761138E+00  0.50693209662E-01  0.13111799068E+00  0.19710973818E-01 0.  0.
         14    1    1    2    0    0  0.11177700369E-01  0.94096589581E-02 -0.16820387705E-01  0.22280217903E-01  0.00000000000E+00 0.  1.
     999901    1    3    3    0    0 -0.53966234134E-01 -0.12077727033E+00 -0.33872821956E-01  0.89053179142E+00  0.88000000000E+00 0. -1.
        -11    1    4    4    0    0  0.10348793762E-01  0.53619424650E-01  0.20647327712E-01  0.58384188739E-01  0.51100000000E-03 0.  1.
         11    1    4    4    0    0  0.32439740003E-01  0.57748186727E-01  0.30045881950E-01  0.72733801941E-01  0.51100000000E-03 0. -1.
</event>
<event>
 8    1  0.1044719E+005  0.1043930E+01  0.7957747E-01            NaN
         13   -1    0    0    0    0  0.00000000000E+00  0.00000000000E+00  0.74505805969E-08  0.10566000000E+00  0.10566000000E+00 0.  1.
     999900   -1    0    0    0    0 -0.00000000000E+00 -0.00000000000E+00 -0.74505805969E-08  0.93827000000E+00  0.93827000000E+00 0. -1.
     999902    2    1    2    0    0 -0.11537737409E-01 -0.15194211472E-01 -0.14805258495E-01  0.10197808980E+01  0.10194949244E+01 0.  0.
     999903    2    3    3    0    0 -0.87279610099E-01 -0.97646244874E-01 -0.31960405893E-03  0.13256897111E+00  0.20540459513E-01 0.  0.
         14    1    1    2    0    0  0.11537737409E-01  0.15194211472E-01  0.14805258495E-01  0.24149101968E-01  0.00000000000E+00 0.  1.
     999901    1    3    3    0    0  0.75741872691E-01  0.82452033402E-01 -0.14485654436E-01  0.88721192692E+00  0.88000000000E+00 0. -1.
        -11    1    4    4    0    0 -0.17533876877E-01 -0.28396163224E-01  0.66578026433E-02  0.34034781933E-01  0.51100000000E-03 0.  1.
         11    1    4    4    0    0 -0.69745733223E-01 -0.69250081649E-01 -0.69774067023E-02  0.98534189176E-01  0.51100000000E-03 0. -1.
</event>
<event>
 8    1  0.1044719E+005  0.1043930E+01  0.7957747E-01            NaN
         13   -1    0    0    0    0  0.00000000000E+00  0.00000000000E+00  0.74505805969E-08  0.10566000000E+00  0.10566000000E+00 0. -1.
     999900   -1    0    0    0    0 -0.00000000000E+00 -0.00000000000E+00 -0.74505805969E-08  0.93827000000E+00  0.93827000000E+00 0. -1.
     999902    2    1    2    0    0 -0.23295757731E-01 -0.48475722895E-02  0.69930913113E-02  0.10191288990E+01  0.10188270796E+01 0.  0.
     999903    2    3    3    0    0 -0.12086227855E+00 -0.14472493424E-01  0.48562855388E-01  0.13270918442E+00  0.20886197902E-01 0.  0.
         14    1    1    2    0    0  0.23295757731E-01  0.48475722895E-02 -0.69930913113E-02  0.24801101012E-01  0.00000000000E+00 0.  1.
     999901    1    3    3    0    0  0.97566520822E-01  0.96249211346E-02 -0.41569764076E-01  0.88641971457E+00  0.88000000000E+00 0.  1.
        -11    1    4    4    0    0 -0.10075607039E+00 -0.16709889410E-01  0.46950588373E-01  0.11240829594E+00  0.51100000000E-03 0.  1.
         11    1    4    4    0    0 -0.20106208158E-01  0.22373959855E-02  0.16122670141E-02  0.20300888483E-01  0.51100000000E-03 0. -1.
</event>
<event>
 8    1  0.1044719E+005  0.1043930E+01  0.7957747E-01            NaN
         13   -1    0    0    0    0  0.00000000000E+00  0.00000000000E+00  0.74505805969E-08  0.10566000000E+00  0.10566000000E+00 0.  1.
     999900   -1    0    0    0    0 -0.00000000000E+00 -0.00000000000E+00 -0.74505805969E-08  0.93827000000E+00  0.93827000000E+00 0. -1.
     999902    2    1    2    0    0 -0.14125569169E-01 -0.19291168793E-01 -0.20451102913E-02  0.10199328465E+01  0.10196505029E+01 0.  0.
     999903    2    3    3    0    0  0.11342218489E+00 -0.44175206548E-01  0.39232132404E-01  0.12943216959E+00  0.19937036222E-01 0.  0.
         14    1    1    2    0    0  0.14125569169E-01  0.19291168793E-01  0.20451102913E-02  0.23997153453E-01  0.00000000000E+00 0.  1.
     999901    1    3    3    0    0 -0.12754775406E+00  0.24884037756E-01 -0.41277242695E-01  0.89050067696E+00  0.88000000000E+00 0. -1.
        -11    1    4    4    0    0  0.69081172796E-01 -0.35570461388E-01  0.30209933716E-01  0.83368863339E-01  0.51100000000E-03 0.  1.
         11    1    4    4    0    0  0.44341012090E-01 -0.86047451604E-02  0.90221986875E-02  0.46063306250E-01  0.51100000000E-03 0. -1.
</event>
<event>
 8    1  0.1130328E+005  0.1043930E+01  0.7957747E-01            NaN
         13   -1    0    0    0    0  0.00000000000E+00  0.00000000000E+00  0.74505805969E-08  0.10566000000E+00  0.10566000000E+00 0.  1.
     999900   -1    0    0    0    0 -0.00000000000E+00 -0.00000000000E+00 -0.74505805969E-08  0.93827000000E+00  0.93827000000E+00 0.  1.
     999902    2    1    2    0    0 -0.18762321289E-01 -0.13575806832E-01  0.18984832111E-02  0.10206935745E+01  0.10204290478E+01 0.  0.
     999903    2    3    3    0    0 -0.78916041078E-01  0.42115139916E-03 -0.10413200984E+00  0.13217973089E+00  0.20002171757E-01 0.  0.
         14    1    1    2    0    0  0.18762321289E-01  0.13575806832E-01 -0.18984832111E-02  0.23236425495E-01  0.00000000000E+00 0. -1.
     999901    1    3    3    0    0  0.60153719790E-01 -0.13996958232E-01  0.10603049306E+00  0.88851384362E+00  0.88000000000E+00 0. -1.
        -11    1    4    4    0    0 -0.54738223963E-01 -0.87067516454E-02 -0.67403360340E-01  0.87267146126E-01  0.51100000000E-03 0.  1.
         11    1    4    4    0    0 -0.24177817115E-01  0.91279030446E-02 -0.36728649504E-01  0.44912584760E-01  0.51100000000E-03 0. -1.
</event>
<event>
 8    1  0.1044719E+005  0.1043930E+01  0.7957747E-01            NaN
         13   -1    0    0    0    0  0.00000000000E+00  0.00000000000E+00  0.74505805969E-08  0.10566000000E+00  0.10566000000E+00 0.  1.
     999900   -1    0    0    0    0 -0.00000000000E+00 -0.00000000000E+00 -0.74505805969E-08  0.93827000000E+00  0.93827000000E+00 0.  1.
     999902    2    1    2    0    0  0.15340870924E-01 -0.13627375510E-01 -0.13004727925E-01  0.10196365722E+01  0.10193471287E+01 0.  0.
     999903    2    3    3    0    0  0.11424620433E+00  0.48833673066E-01 -0.38342541722E-01  0.13153429639E+00  0.19854414875E-01 0.  0.
         14    1    1    2    0    0 -0.15340870924E-01  0.13627375510E-01  0.13004727925E-01  0.24293427762E-01  0.00000000000E+00 0.  1.
     999901    1    3    3    0    0 -0.98905333411E-01 -0.62461048576E-01  0.25337813797E-01  0.88810227585E+00  0.88000000000E+00 0.  1.
        -11    1    4    4    0    0  0.25545050213E-01  0.12599665317E-01 -0.17634479799E-01  0.33504285625E-01  0.51100000000E-03 0.  1.
         11    1    4    4    0    0  0.88701154122E-01  0.36234007749E-01 -0.20708061923E-01  0.98030010761E-01  0.51100000000E-03 0. -1.
</event>
<event>
 8    1  0.1044719E+005  0.1043930E+01  0.7957747E-01            NaN
         13   -1    0    0    0    0  0.00000000000E+00  0.00000000000E+00  0.74505805969E-08  0.10566000000E+00  0.10566000000E+00 0.  1.
     999900   -1    0    0    0    0 -0.00000000000E+00 -0.00000000000E+00 -0.74505805969E-08  0.93827000000E+00  0.93827000000E+00 0.  1.
     999902    2    1    2    0    0 -0.11575017540E-01  0.29936841380E-01  0.52555855059E-02  0.10114059061E+01  0.10108828272E+01 0.  0.
     999903    2    3    3    0    0  0.10792906910E+00  0.45440174790E-01 -0.29509627453E-01  0.12251322414E+00  0.20619857796E-01 0.  0.
         14    1    1    2    0    0  0.11575017540E-01 -0.29936841380E-01 -0.52555855059E-02  0.32524093867E-01  0.00000000000E+00 0.  1.
     999901    1    3    3    0    0 -0.11950408664E+00 -0.15503333410E-01  0.34765212959E-01  0.88889268199E+00  0.88000000000E+00 0.  1.
        -11    1    4    4    0    0  0.60275397724E-01  0.15625267782E-01 -0.20652357080E-01  0.65605285900E-01  0.51100000000E-03 0. -1.
         11    1    4    4    0    0  0.47653671373E-01  0.29814907008E-01 -0.88572703734E-02  0.56907938239E-01  0.51100000000E-03 0.  1.
</event>
<event>
 8    1  0.1044719E+005  0.1043930E+01  0.7957747E-01            NaN
         13   -1    0    0    0    0  0.00000000000E+00  0.00000000000E+00  0.74505805969E-08  0.10566000000E+00  0.10566000000E+00 0. -1.
     999900   -1    0    0    0    0 -0.00000000000E+00 -0.00000000000E+00 -0.74505805969E-08  0.93827000000E+00  0.93827000000E+00 0.  1.
     999902    2    1    2    0    0 -0.20817119856E-01 -0.11677401984E-01 -0.26452476024E-02  0.10199151810E+01  0.10196324166E+01 0.  0.
     999903    2    3    3    0    0  0.95710886272E-01  0.31143900185E-01 -0.76779655119E-01  0.12811455839E+00  0.19690311358E-01 0.  0.
         14    1    1    2    0    0  0.20817119856E-01  0.11677401984E-01  0.26452476024E-02  0.24014818989E-01  0.00000000000E+00 0.  1.
     999901    1    3    3    0    0 -0.11652800613E+00 -0.42821302169E-01  0.74134407516E-01  0.89180062262E+00  0.88000000000E+00 0. -1.
        -11    1    4    4    0    0  0.48692833980E-02  0.41466033560E-02 -0.11063329866E-01  0.12789160603E-01  0.51100000000E-03 0.  1.
         11    1    4    4    0    0  0.90841602874E-01  0.26997296829E-01 -0.65716325252E-01  0.11532539779E+00  0.51100000000E-03 0. -1.
</event>
<event>
 8    1  0.1044719E+005  0.1043930E+01  0.7957747E-01            NaN
         13   -1    0    0    0    0  0.00000000000E+00  0.00000000000E+00  0.74505805969E-08  0.10566000000E+00  0.10566000000E+00 0. -1.
     999900   -1    0    0    0    0 -0.00000000000E+00 -0.00000000000E+00 -0.74505805969E-08  0.93827000000E+00  0.93827000000E+00 0.  1.
     999902    2    1    2    0    0  0.11438778323E-01  0.14607217722E-01  0.13665521720E-01  0.10208873668E+01  0.10206272840E+01 0.  0.
     999903    2    3    3    0    0 -0.53473753879E-01  0.17531184450E-01  0.11794575475E+00  0.13235118107E+00  0.20948729943E-01 0.  0.
         14    1    1    2    0    0 -0.11438778323E-01 -0.14607217722E-01 -0.13665521720E-01  0.23042633161E-01  0.00000000000E+00 0.  1.
     999901    1    3    3    0    0  0.64912532202E-01 -0.29239667276E-02 -0.10428023303E+00  0.88853618577E+00  0.88000000000E+00 0.  1.
        -11    1    4    4    0    0 -0.38140445849E-02  0.88245776162E-02  0.18976689128E-01  0.21279002736E-01  0.51100000000E-03 0. -1.
         11    1    4    4    0    0 -0.49659709294E-01  0.87066068336E-02  0.98969065619E-01  0.11107217834E+00  0.51100000000E-03 0.  1.
</event>
<event>
 8    1  0.1044719E+005  0.1043930E+01  0.7957747E-01            NaN
         13   -1    0    0    0    0  0.00000000000E+00  0.00000000000E+00  0.74505805969E-08  0.10566000000E+00  0.10566000000E+00 0. -1.
     999900   -1    0    0    0    0 -0.00000000000E+00 -0.00000000000E+00 -0.74505805969E-08  0.93827000000E+00  0.93827000000E+00 0. -1.
     999902    2    1    2    0    0 -0.16626303513E-03 -0.24157752341E-01  0.13519118439E-02  0.10197338783E+01  0.10194467765E+01 0.  0.
     999903    2    3    3    0    0 -0.60547196004E-02 -0.12725536732E+00 -0.32870775255E-01  0.13303495278E+00  0.19677973847E-01 0.  0.
         14    1    1    2    0    0  0.16626303513E-03  0.24157752341E-01 -0.13519118439E-02  0.24196121739E-01  0.00000000000E+00 0. -1.
     999901    1    3    3    0    0  0.58884565653E-02  0.10309761498E+00  0.34222687099E-01  0.88669892548E+00  0.88000000000E+00 0.  1.
        -11    1    4    4    0    0 -0.13222993719E-01 -0.75724303352E-01 -0.20351748753E-01  0.79520264583E-01  0.51100000000E-03 0.  1.
         11    1    4    4    0    0  0.71682741186E-02 -0.51531063967E-01 -0.12519026501E-01  0.53514688198E-01  0.51100000000E-03 0. -1.
</event>
<event>
 8    1  0.1044719E+005  0.1043930E+01  0.7957747E-01            NaN
         13   -1    0    0    0    0  0.00000000000E+00  0.00000000000E+00  0.74505805969E-08  0.10566000000E+00  0.10566000000E+00 0. -1.
     999900   -1    0    0    0    0 -0.00000000000E+00 -0.00000000000E+00 -0.74505805969E-08  0.93827000000E+00  0.93827000000E+00 0. -1.
     999902    2    1    2    0    0 -0.61713417937E-02 -0.15850608402E-01 -0.16090150364E-01  0.10205158977E+01  0.10202472628E+01 0.  0.
     999903    2    3    3    0    0 -0.68511540185E-01  0.98232694846E-01 -0.47504343567E-01  0.13041020067E+00  0.20165919388E-01 0.  0.
         14    1    1    2    0    0  0.61713417937E-02  0.15850608402E-01  0.16090150364E-01  0.23414102268E-01  0.00000000000E+00 0.  1.
     999901    1    3    3    0    0  0.62340198391E-01 -0.11408330325E+00  0.31414193203E-01  0.89010569707E+00  0.88000000000E+00 0.  1.
        -11    1    4    4    0    0 -0.40375573378E-01  0.51609128472E-01 -0.15838659208E-01  0.67415230577E-01  0.51100000000E-03 0. -1.
         11    1    4    4    0    0 -0.28135966807E-01  0.46623566374E-01 -0.31665684359E-01  0.62994970089E-01  0.51100000000E-03 0.  1.
</event>
<event>
 8    1  0.1044719E+005  0.1043930E+01  0.7957747E-01            NaN
         13   -1    0    0    0    0  0.00000000000E+00  0.00000000000E+00  0.74505805969E-08  0.10566000000E+00  0.10566000000E+00 0.  1.
     999900   -1    0    0    0    0 -0.00000000000E+00 -0.00000000000E+00 -0.74505805969E-08  0.93827000000E+00  0.93827000000E+00 0. -1.
     999902    2    1    2    0    0 -0.12848691789E-01 -0.15130929004E-01 -0.13445904970E-01  0.10199544655E+01  0.10196726364E+01 0.  0.
     999903    2    3    3    0    0  0.79918182458E-01 -0.74027125235E-01  0.68524988251E-01  0.12934024925E+00  0.12895538091E-01 0.  0.
         14    1    1    2    0    0  0.12848691789E-01  0.15130929004E-01  0.13445904970E-01  0.23975534482E-01  0.00000000000E+00 0.  1.
     999901    1    3    3    0    0 -0.92766874247E-01  0.58896196230E-01 -0.81970893221E-01  0.89061421627E+00  0.88000000000E+00 0. -1.
        -11    1    4    4    0    0  0.59343550211E-01 -0.59493512604E-01  0.57601018777E-01  0.10187871946E+00  0.51100000000E-03 0.  1.
         11    1    4    4    0    0  0.20574632248E-01 -0.14533612631E-01  0.10923969474E-01  0.27461529788E-01  0.51100000000E-03 0. -1.
</event>
<event>
 8    1  0.1044719E+005  0.1043930E+01  0.7957747E-01            NaN
         13   -1    0    0    0    0  0.00000000000E+00  0.00000000000E+00  0.74505805969E-08  0.10566000000E+00  0.10566000000E+00 0.  1.
     999900   -1    0    0    0    0 -0.00000000000E+00 -0.00000000000E+00 -0.74505805969E-08  0.93827000000E+00  0.93827000000E+00 0. -1.
     999902    2    1    2    0    0  0.10765892017E-01  0.10523178056E-01 -0.13445163193E-01  0.10237454980E+01  0.10235464965E+01 0.  0.
     999903    2    3    3    0    0  0.67073589458E-01  0.96560209536E-01 -0.65794367711E-01  0.13621332012E+00  0.20060640243E-01 0.  0.
         14    1    1    2    0    0 -0.10765892017E-01 -0.10523178056E-01  0.13445163193E-01  0.20184501990E-01  0.00000000000E+00 0.  1.
     999901    1    3    3    0    0 -0.56307697442E-01 -0.86037031480E-01  0.52349204518E-01  0.88753217789E+00  0.88000000000E+00 0.  1.
        -11    1    4    4    0    0  0.31530231213E-01  0.45039736701E-01 -0.19412786651E-01  0.58308239289E-01  0.51100000000E-03 0. -1.
         11    1    4    4    0    0  0.35543358245E-01  0.51520472835E-01 -0.46381581061E-01  0.77905080831E-01  0.51100000000E-03 0.  1.
</event>
<event>
 8    1  0.1044719E+005  0.1043930E+01  0.7957747E-01            NaN
         13   -1    0    0    0    0  0.00000000000E+00  0.00000000000E+00  0.74505805969E-08  0.10566000000E+00  0.10566000000E+00 0.  1.
     999900   -1    0    0    0    0 -0.00000000000E+00 -0.00000000000E+00 -0.74505805969E-08  0.93827000000E+00  0.93827000000E+00 0.  1.
     999902    2    1    2    0    0  0.13254566694E-01 -0.16088564866E-01 -0.10842074502E-01  0.10204337016E+01  0.10201631553E+01 0.  0.
     999903    2    3    3    0    0 -0.54249057170E-01  0.10074651453E+00 -0.55908726533E-01  0.12900889934E+00  0.20608008420E-01 0.  0.
         14    1    1    2    0    0 -0.13254566694E-01  0.16088564866E-01  0.10842074502E-01  0.23496298372E-01  0.00000000000E+00 0.  1.
     999901    1    3    3    0    0  0.67503623865E-01 -0.11683507940E+00  0.45066652031E-01  0.89142480229E+00  0.88000000000E+00 0.  1.
        -11    1    4    4    0    0 -0.14931326069E-01  0.42752508347E-01 -0.14175161845E-01  0.47454376010E-01  0.51100000000E-03 0. -1.
         11    1    4    4    0    0 -0.39317731101E-01  0.57994006186E-01 -0.41733564689E-01  0.81554523327E-01  0.51100000000E-03 0.  1.
</event>
<event>
 8    1  0.1044719E+005  0.1043930E+01  0.7957747E-01            NaN
         13   -1    0    0    0    0  0.00000000000E+00  0.00000000000E+00  0.74505805969E-08  0.10566000000E+00  0.10566000000E+00 0.  1.
     999900   -1    0    0    0    0 -0.00000000000E+00 -0.00000000000E+00 -0.74505805969E-08  0.93827000000E+00  0.93827000000E+00 0.  1.
     999902    2    1    2    0    0  0.14955323974E-01  0.85894724543E-02 -0.13200926860E-01  0.10222112242E+01  0.10219804703E+01 0.  0.
     999903    2    3    3    0    0 -0.30874683847E-01  0.94687696505E-01 -0.87052516475E-01  0.13374774657E+00  0.19781635808E-01 0.  0.
         14    1    1    2    0    0 -0.14955323974E-01 -0.85894724543E-02  0.13200926860E-01  0.21718775798E-01  0.00000000000E+00 0.  1.
     999901    1    3    3    0    0  0.45830007821E-01 -0.86098224051E-01  0.73851589615E-01  0.88846347763E+00  0.88000000000E+00 0. -1.
        -11    1    4    4    0    0 -0.18205442391E-01  0.55019844820E-01 -0.63221605902E-01  0.85766275601E-01  0.51100000000E-03 0.  1.
         11    1    4    4    0    0 -0.12669241457E-01  0.39667851685E-01 -0.23830910573E-01  0.47981470967E-01  0.51100000000E-03 0. -1.
</event>
<event>
 8    1  0.1044719E+005  0.1043930E+01  0.7957747E-01            NaN
         13   -1    0    0    0    0  0.00000000000E+00  0.00000000000E+00  0.74505805969E-08  0.10566000000E+00  0.10566000000E+00 0.  1.
     999900   -1    0    0    0    0 -0.00000000000E+00 -0.00000000000E+00 -0.74505805969E-08  0.93827000000E+00  0.93827000000E+00 0. -1.
     999902    2    1    2    0    0 -0.19856153964E-01  0.12223718488E-01 -0.74518926767E-04  0.10206128025E+01  0.10203464123E+01 0.  0.
     999903    2    3    3    0    0  0.53518509490E-01  0.56551491595E-01 -0.10280386649E+00  0.13049926397E+00  0.19978009720E-01 0.  0.
         14    1    1    2    0    0  0.19856153964E-01 -0.12223718488E-01  0.74518926767E-04  0.23317197452E-01  0.00000000000E+00 0. -1.
     999901    1    3    3    0    0 -0.73374663455E-01 -0.44327773107E-01  0.10272934756E+00  0.89011353858E+00  0.88000000000E+00 0.  1.
        -11    1    4    4    0    0  0.33139549015E-01  0.47750272182E-01 -0.76481874622E-01  0.96062773586E-01  0.51100000000E-03 0.  1.
         11    1    4    4    0    0  0.20378960476E-01  0.88012194126E-02 -0.26321991868E-01  0.34436490386E-01  0.51100000000E-03 0. -1.
</event>
<event>
 8    1  0.1044719E+005  0.1043930E+01  0.7957747E-01            NaN
         13   -1    0    0    0    0  0.00000000000E+00  0.00000000000E+00  0.74505805969E-08  0.10566000000E+00  0.10566000000E+00 0. -1.
     999900   -1    0    0    0    0 -0.00000000000E+00 -0.00000000000E+00 -0.74505805969E-08  0.93827000000E+00  0.93827000000E+00 0.  1.
     999902    2    1    2    0    0  0.94520691016E-02 -0.58226950335E-02 -0.20502175276E-01  0.10206150996E+01  0.10203487625E+01 0.  0.
     999903    2    3    3    0    0  0.10419488845E+00 -0.71370414838E-01  0.31221223382E-01  0.13159990553E+00  0.19835812356E-01 0.  0.
         14    1    1    2    0    0 -0.94520691016E-02  0.58226950335E-02  0.20502175276E-01  0.23314900360E-01  0.00000000000E+00 0. -1.
     999901    1    3    3    0    0 -0.94742819353E-01  0.65547719805E-01 -0.51723398658E-01  0.88901519411E+00  0.88000000000E+00 0.  1.
        -11    1    4    4    0    0  0.10809813674E-01 -0.15848939226E-01  0.51756907359E-02  0.19876867003E-01  0.51100000000E-03 0. -1.
         11    1    4    4    0    0  0.93385074780E-01 -0.55521475612E-01  0.26045532646E-01  0.11172303853E+00  0.51100000000E-03 0.  1.
</event>
<event>
 8    1  0.1044719E+005  0.1043930E+01  0.7957747E-01            NaN
         13   -1    0    0    0    0  0.00000000000E+00  0.00000000000E+00  0.74505805969E-08  0.10566000000E+00  0.10566000000E+00 0.  1.
     999900   -1    0    0    0    0 -0.00000000000E+00 -0.00000000000E+00 -0.74505805969E-08  0.93827000000E+00  0.93827000000E+00 0. -1.
     999902    2    1    2    0    0 -0.14356015075E-01  0.18017825325E-01  0.21791662855E-02  0.10207894303E+01  0.10205271065E+01 0.  0.
     999903    2    3    3    0    0 -0.30891466943E-01  0.10981877512E+00 -0.66654449889E-01  0.13318653362E+00  0.16774711621E-01 0.  0.
         14    1    1    2    0    0  0.14356015075E-01 -0.18017825325E-01 -0.21791662855E-02  0.23140569655E-01  0.00000000000E+00 0. -1.
     999901    1    3    3    0    0  0.16535451868E-01 -0.91800949795E-01  0.68833616175E-01  0.88760289672E+00  0.88000000000E+00 0. -1.
        -11    1    4    4    0    0 -0.11602576697E-01  0.57377847525E-01 -0.25844777593E-01  0.63992584120E-01  0.51100000000E-03 0. -1.
         11    1    4    4    0    0 -0.19288890245E-01  0.52440927596E-01 -0.40809672296E-01  0.69193949504E-01  0.51100000000E-03 0.  1.
</event>
<event>
 8    1  0.1044719E+005  0.1043930E+01  0.7957747E-01            NaN
         13   -1    0    0    0    0  0.00000000000E+00  0.00000000000E+00  0.74505805969E-08  0.10566000000E+00  0.10566000000E+00 0.  1.
     999900   -1    0    0    0    0 -0.00000000000E+00 -0.00000000000E+00 -0.74505805969E-08  0.93827000000E+00  0.93827000000E+00 0.  1.
     999902    2    1    2    0    0  0.14412144456E-01  0.16412888909E-01 -0.13706102009E-01  0.10181433743E+01  0.10178167717E+01 0.  0.
     999903    2    3    3    0    0  0.40786113542E-01 -0.10564061870E+00 -0.56988641899E-01  0.12827483168E+00  0.19577532055E-01 0.  0.
         14    1    1    2    0    0 -0.14412144456E-01 -0.16412888909E-01  0.13706102009E-01  0.25786625650E-01  0.00000000000E+00 0.  1.
     999901    1    3    3    0    0 -0.26373969086E-01  0.12205350761E+00  0.43282539890E-01  0.88986854266E+00  0.88000000000E+00 0. -1.
        -11    1    4    4    0    0  0.25326225285E-01 -0.40615341200E-01 -0.27651917745E-01  0.55280315701E-01  0.51100000000E-03 0.  1.
         11    1    4    4    0    0  0.15459888257E-01 -0.65025277498E-01 -0.29336724155E-01  0.72994515984E-01  0.51100000000E-03 0. -1.
</event>
<event>
 8    1  0.1044719E+005  0.1043930E+01  0.7957747E-01            NaN
         13   -1    0    0    0    0  0.00000000000E+00  0.00000000000E+00  0.74505805969E-08  0.10566000000E+00  0.10566000000E+00 0. -1.
     999900   -1    0    0    0    0 -0.00000000000E+00 -0.00000000000E+00 -0.74505805969E-08  0.93827000000E+00  0.93827000000E+00 0. -1.
     999902    2    1    2    0    0  0.32531422838E-01  0.89721591733E-02 -0.10837531591E-02  0.10101665933E+01  0.10096021883E+01 0.  0.
     999903    2    3    3    0    0  0.67234226581E-01  0.75478809623E-01  0.69399750090E-01  0.12416696384E+00  0.19586160195E-01 0.  0.
         14    1    1    2    0    0 -0.32531422838E-01 -0.89721591733E-02  0.10837531591E-02  0.33763406715E-01  0.00000000000E+00 0. -1.
     999901    1    3    3    0    0 -0.34702803744E-01 -0.66506650450E-01 -0.70483503249E-01  0.88599962944E+00  0.88000000000E+00 0. -1.
        -11    1    4    4    0    0  0.29429129852E-01  0.38518234856E-01  0.22309060342E-01  0.53363689852E-01  0.51100000000E-03 0. -1.
         11    1    4    4    0    0  0.37805096729E-01  0.36960574767E-01  0.47090689749E-01  0.70803273991E-01  0.51100000000E-03 0.  1.
</event>
<event>
 8    1  0.1044719E+005  0.1043930E+01  0.7957747E-01            NaN
         13   -1    0    0    0    0  0.00000000000E+00  0.00000000000E+00  0.74505805969E-08  0.10566000000E+00  0.10566000000E+00 0. -1.
     999900   -1    0    0    0    0 -0.00000000000E+00 -0.00000000000E+00 -0.74505805969E-08  0.93827000000E+00  0.93827000000E+00 0. -1.
     999902    2    1    2    0    0 -0.20268362422E-01  0.10308774411E-01  0.46254378713E-02  0.10207250001E+01  0.10204611966E+01 0.  0.
     999903    2    3    3    0    0 -0.10597424162E+00  0.41932119544E-01  0.67128634617E-01  0.13379085187E+00  0.20122025763E-01 0.  0.
         14    1    1    2    0    0  0.20268362422E-01 -0.10308774411E-01 -0.46254378713E-02  0.23204999906E-01  0.00000000000E+00 0.  1.
     999901    1    3    3    0    0  0.85705879201E-01 -0.31623345133E-01 -0.62503196745E-01  0.88693414823E+00  0.88000000000E+00 0. -1.
        -11    1    4    4    0    0 -0.66700526214E-01  0.25307799626E-01  0.52952179209E-01  0.88846155365E-01  0.51100000000E-03 0. -1.
         11    1    4    4    0    0 -0.39273715409E-01  0.16624319917E-01  0.14176455408E-01  0.44944696502E-01  0.51100000000E-03 0.  1.
</event>
<event>
 8    1  0.1044719E+005  0.1043930E+01  0.7957747E-01            NaN
         13   -1    0    0    0    0  0.00000000000E+00  0.00000000000E+00  0.74505805969E-08  0.10566000000E+00  0.10566000000E+00 0.  1.
     999900   -1    0    0    0    0 -0.00000000000E+00 -0.00000000000E+00 -0.74505805969E-08  0.93827000000E+00  0.93827000000E+00 0.  1.
     999902    2    1    2    0    0 -0.12288662507E-02  0.70104984246E-02  0.17821937420E-01  0.10247394124E+01  0.10245597028E+01 0.  0.
     999903    2    3    3    0    0  0.22101203530E-01  0.46803639440E-01  0.12515968058E+00  0.13701807245E+00  0.20735541284E-01 0.  0.
         14    1    1    2    0    0  0.12288662507E-02 -0.70104984246E-02 -0.17821937420E-01  0.19190587636E-01  0.00000000000E+00 0. -1.
     999901    1    3    3    0    0 -0.23330069780E-01 -0.39793141015E-01 -0.10733774316E+00  0.88772133991E+00  0.88000000000E+00 0.  1.
        -11    1    4    4    0    0  0.17815528498E-01  0.16768639969E-01  0.68581963586E-01  0.72817080362E-01  0.51100000000E-03 0.  1.
         11    1    4    4    0    0  0.42856750317E-02  0.30034999471E-01  0.56577716998E-01  0.64200992090E-01  0.51100000000E-03 0. -1.
</event>
<event>
 8    1  0.1044719E+005  0.1043930E+01  0.7957747E-01            NaN
         13   -1    0    0    0    0  0.00000000000E+00  0.00000000000E+00  0.74505805969E-08  0.10566000000E+00  0.10566000000E+00 0.  1.
     999900   -1    0    0    0    0 -0.00000000000E+00 -0.00000000000E+00 -0.74505805969E-08  0.93827000000E+00  0.93827000000E+00 0. -1.
     999902    2    1    2    0    0 -0.17285889618E-01  0.37729628210E-02  0.88222456983E-02  0.10241595866E+01  0.10239687444E+01 0.  0.
     999903    2    3    3    0    0  0.33804378117E-01  0.50835252961E-01 -0.11555221307E+00  0.13270342914E+00  0.23041858355E-01 0.  0.
         14    1    1    2    0    0  0.17285889618E-01 -0.37729628210E-02 -0.88222456983E-02  0.19770413438E-01  0.00000000000E+00 0. -1.
     999901    1    3    3    0    0 -0.51090267736E-01 -0.47062290140E-01  0.12437445877E+00  0.89145615742E+00  0.88000000000E+00 0.  1.
        -11    1    4    4    0    0  0.33312328271E-01  0.39648973043E-01 -0.78920508521E-01  0.94395233271E-01  0.51100000000E-03 0. -1.
         11    1    4    4    0    0  0.49204984621E-03  0.11186279918E-01 -0.36631704551E-01  0.38308195869E-01  0.51100000000E-03 0.  1.
</event>
<event>
 8    1  0.1044719E+005  0.1043930E+01  0.7957747E-01            NaN
         13   -1    0    0    0    0  0.00000000000E+00  0.00000000000E+00  0.74505805969E-08  0.10566000000E+00  0.10566000000E+00 0. -1.
     999900   -1    0    0    0    0 -0.00000000000E+00 -0.00000000000E+00 -0.74505805969E-08  0.93827000000E+00  0.93827000000E+00 0.  1.
     999902    2    1    2    0    0  0.31080908103E-02  0.60150577398E-02 -0.22779563349E-01  0.10201655380E+01  0.10198887073E+01 0.  0.
     999903    2    3    3    0    0 -0.34743372136E-01 -0.12202967249E+00  0.15780342823E-01  0.12925866713E+00  0.18985282044E-01 0.  0.
         14    1    1    2    0    0 -0.31080908103E-02 -0.60150577398E-02  0.22779563349E-01  0.23764462007E-01  0.00000000000E+00 0. -1.
     999901    1    3    3    0    0  0.37851462946E-01  0.12804473023E+00 -0.38559906172E-01  0.89090687086E+00  0.88000000000E+00 0.  1.
        -11    1    4    4    0    0 -0.10160717681E-02 -0.26886975977E-01  0.76983564685E-02  0.27990492892E-01  0.51100000000E-03 0. -1.
         11    1    4    4    0    0 -0.33727300368E-01 -0.95142696510E-01  0.80819863541E-02  0.10126817424E+00  0.51100000000E-03 0.  1.
</event>
<event>
 8    1  0.1044719E+005  0.1043930E+01  0.7957747E-01            NaN
         13   -1    0    0    0    0  0.00000000000E+00  0.00000000000E+00  0.74505805969E-08  0.10566000000E+00  0.10566000000E+00 0. -1.
     999900   -1    0    0    0    0 -0.00000000000E+00 -0.00000000000E+00 -0.74505805969E-08  0.93827000000E+00  0.93827000000E+00 0. -1.
     999902    2    1    2    0    0  0.42569149945E-02  0.19926612655E-01 -0.11904390681E-01  0.10203311497E+01  0.10200582088E+01 0.  0.
     999903    2    3    3    0    0  0.11043316517E+00  0.48378143978E-01  0.48485611893E-01  0.13143867132E+00  0.19731725056E-01 0.  0.
         14    1    1    2    0    0 -0.42569149945E-02 -0.19926612655E-01  0.11904390681E-01  0.23598850283E-01  0.00000000000E+00 0. -1.
     999901    1    3    3    0    0 -0.10617625018E+00 -0.28451531323E-01 -0.60390002574E-01  0.88889247840E+00  0.88000000000E+00 0. -1.
        -11    1    4    4    0    0  0.69341235665E-01  0.25847616573E-01  0.38890302771E-01  0.83600376893E-01  0.51100000000E-03 0. -1.
         11    1    4    4    0    0  0.41091929507E-01  0.22530527405E-01  0.95953091220E-02  0.47838294429E-01  0.51100000000E-03 0.  1.
</event>
<event>
 8    1  0.1044719E+005  0.1043930E+01  0.7957747E-01            NaN
         13   -1    0    0    0    0  0.00000000000E+00  0.00000000000E+00  0.74505805969E-08  0.10566000000E+00  0.10566000000E+00 0.  1.
     999900   -1    0    0    0    0 -0.00000000000E+00 -0.00000000000E+00 -0.74505805969E-08  0.93827000000E+00  0.93827000000E+00 0.  1.
     999902    2    1    2    0    0 -0.37494748619E-02 -0.21716296637E-01 -0.43742355661E-02  0.10214624670E+01  0.10212153453E+01 0.  0.
     999903    2    3    3    0    0  0.88847536429E-01 -0.43588208685E-01  0.84546282926E-01  0.13187860608E+00  0.21214997506E-01 0.  0.
         14    1    1    2    0    0  0.37494748619E-02  0.21716296637E-01  0.43742355661E-02  0.22467532979E-01  0.00000000000E+00 0. -1.
     999901    1    3    3    0    0 -0.92597011291E-01  0.21871912048E-01 -0.88920518492E-01  0.88958386094E+00  0.88000000000E+00 0.  1.
        -11    1    4    4    0    0  0.68782044506E-01 -0.36139433435E-01  0.76407415005E-01  0.10897422853E+00  0.51100000000E-03 0. -1.
         11    1    4    4    0    0  0.20065491923E-01 -0.74487752504E-02  0.81388679214E-02  0.22904377549E-01  0.51100000000E-03 0.  1.
</event>
<event>
 8    1  0.1044719E+005  0.1043930E+01  0.7957747E-01            NaN
         13   -1    0    0    0    0  0.00000000000E+00  0.00000000000E+00  0.74505805969E-08  0.10566000000E+00  0.10566000000E+00 0.  1.
     999900   -1    0    0    0    0 -0.00000000000E+00 -0.00000000000E+00 -0.74505805969E-08  0.93827000000E+00  0.93827000000E+00 0. -1.
     999902    2    1    2    0    0  0.51313993054E-02  0.21951618300E-01 -0.70444443047E-02  0.10203115962E+01  0.10200381974E+01 0.  0.
     999903    2    3    3    0    0  0.11446052089E+00  0.97573780053E-05 -0.61806649681E-01  0.13158599101E+00  0.19839358577E-01 0.  0.
         14    1    1    2    0    0 -0.51313993054E-02 -0.21951618300E-01  0.70444443047E-02  0.23618403850E-01  0.00000000000E+00 0. -1.
     999901    1    3    3    0    0 -0.10932912158E+00  0.21941860922E-01  0.54762205376E-01  0.88872560514E+00  0.88000000000E+00 0.  1.
        -11    1    4    4    0    0  0.60581292506E-01 -0.21853290957E-02 -0.43584369432E-01  0.74664094750E-01  0.51100000000E-03 0.  1.
         11    1    4    4    0    0  0.53879228384E-01  0.21950864737E-02 -0.18222280248E-01  0.56921896265E-01  0.51100000000E-03 0. -1.
</event>
<event>
 8    1  0.1044719E+005  0.1043930E+01  0.7957747E-01            NaN
         13   -1    0    0    0    0  0.00000000000E+00  0.00000000000E+00  0.74505805969E-08  0.10566000000E+00  0.10566000000E+00 0. -1.
     999900   -1    0    0    0    0 -0.00000000000E+00 -0.00000000000E+00 -0.74505805969E-08  0.93827000000E+00  0.93827000000E+00 0. -1.
     999902    2    1    2    0    0  0.11516823679E-01  0.19387460921E-01 -0.36207083445E-02  0.10210909896E+01  0.10208355345E+01 0.  0.
     999903    2    3    3    0    0 -0.67166419977E-01  0.81584116867E-01  0.76269999370E-01  0.13179801084E+00  0.19654687962E-01 0.  0.
         14    1    1    2    0    0 -0.11516823679E-01 -0.19387460921E-01  0.36207083445E-02  0.22839010432E-01  0.00000000000E+00 0. -1.
     999901    1    3    3    0    0  0.78683243656E-01 -0.62196655947E-01 -0.79890707714E-01  0.88929297873E+00  0.88000000000E+00 0.  1.
        -11    1    4    4    0    0  0.19470307976E-03  0.68016079648E-02  0.43110226192E-02  0.80712958823E-02  0.51100000000E-03 0. -1.
         11    1    4    4    0    0 -0.67361123057E-01  0.74782508903E-01  0.71958976750E-01  0.12372671495E+00  0.51100000000E-03 0.  1.
</event>
<event>
 8    1  0.1044719E+005  0.1043930E+01  0.7957747E-01            NaN
         13   -1    0    0    0    0  0.00000000000E+00  0.00000000000E+00  0.74505805969E-08  0.10566000000E+00  0.10566000000E+00 0. -1.
     999900   -1    0    0    0    0 -0.00000000000E+00 -0.00000000000E+00 -0.74505805969E-08  0.93827000000E+00  0.93827000000E+00 0.  1.
     999902    2    1    2    0    0  0.71122007685E-02  0.89451142003E-02  0.20646497836E-01  0.10203317725E+01  0.10200588462E+01 0.  0.
     999903    2    3    3    0    0  0.12690968747E+00 -0.27002238285E-03 -0.25431672504E-01  0.13097270310E+00  0.20023418887E-01 0.  0.
         14    1    1    2    0    0 -0.71122007685E-02 -0.89451142003E-02 -0.20646497836E-01  0.23598227491E-01  0.00000000000E+00 0.  1.
     999901    1    3    3    0    0 -0.11979748670E+00  0.92151365832E-02  0.46078170340E-01  0.88935906941E+00  0.88000000000E+00 0. -1.
        -11    1    4    4    0    0  0.57000269789E-01 -0.10058740018E-01 -0.10985039236E-01  0.58916391732E-01  0.51100000000E-03 0.  1.
         11    1    4    4    0    0  0.69909417684E-01  0.97887176348E-02 -0.14446633268E-01  0.72056311365E-01  0.51100000000E-03 0. -1.
</event>
<event>
 8    1  0.1044719E+005  0.1043930E+01  0.7957747E-01            NaN
         13   -1    0    0    0    0  0.00000000000E+00  0.00000000000E+00  0.74505805969E-08  0.10566000000E+00  0.10566000000E+00 0. -1.
     999900   -1    0    0    0    0 -0.00000000000E+00 -0.00000000000E+00 -0.74505805969E-08  0.93827000000E+00  0.93827000000E+00 0.  1.
     999902    2    1    2    0    0 -0.14280792352E-01 -0.11749238972E-01 -0.14883683190E-01  0.10201916413E+01  0.10199154256E+01 0.  0.
     999903    2    3    3    0    0  0.11306621254E+00 -0.39827798780E-01 -0.45254805286E-01  0.13006352122E+00  0.22322638194E-01 0.  0.
         14    1    1    2    0    0  0.14280792352E-01  0.11749238972E-01  0.14883683190E-01  0.23738358661E-01  0.00000000000E+00 0. -1.
     999901    1    3    3    0    0 -0.12734700489E+00  0.28078559808E-01  0.30371122097E-01  0.89012812012E+00  0.88000000000E+00 0. -1.
        -11    1    4    4    0    0  0.62802293357E-01 -0.15784023082E-01 -0.34283703867E-01  0.73272756925E-01  0.51100000000E-03 0. -1.
         11    1    4    4    0    0  0.50263919184E-01 -0.24043775698E-01 -0.10971101419E-01  0.56790764292E-01  0.51100000000E-03 0.  1.
</event>
<event>
 8    1  0.1044719E+005  0.1043930E+01  0.7957747E-01            NaN
         13   -1    0    0    0    0  0.00000000000E+00  0.00000000000E+00  0.74505805969E-08  0.10566000000E+00  0.10566000000E+00 0. -1.
     999900   -1    0    0    0    0 -0.00000000000E+00 -0.00000000000E+00 -0.74505805969E-08  0.93827000000E+00  0.93827000000E+00 0.  1.
     999902    2    1    2    0    0  0.40278018593E-02  0.21799982904E-01 -0.96378655819E-02  0.10197566491E+01  0.10194700939E+01 0.  0.
     999903    2    3    3    0    0 -0.67179667938E-01  0.32896128952E-01  0.10327989215E+00  0.12961955388E+00  0.23221316517E-01 0.  0.
         14    1    1    2    0    0 -0.40278018593E-02 -0.21799982904E-01  0.96378655819E-02  0.24173350935E-01  0.00000000000E+00 0. -1.
     999901    1    3    3    0    0  0.71207469797E-01 -0.11096146048E-01 -0.11291775774E+00  0.89013709518E+00  0.88000000000E+00 0.  1.
        -11    1    4    4    0    0 -0.42949695087E-01  0.30772735031E-01  0.80494200289E-01  0.96287148314E-01  0.51100000000E-03 0.  1.
         11    1    4    4    0    0 -0.24229972851E-01  0.21233939208E-02  0.22785691865E-01  0.33332405567E-01  0.51100000000E-03 0. -1.
</event>
<event>
 8    1  0.1470639E+005  0.1043930E+01  0.7957747E-01            NaN
         13   -1    0    0    0    0  0.00000000000E+00  0.00000000000E+00  0.74505805969E-08  0.10566000000E+00  0.10566000000E+00 0. -1.
     999900   -1    0    0    0    0 -0.00000000000E+00 -0.00000000000E+00 -0.74505805969E-08  0.93827000000E+00  0.93827000000E+00 0.  1.
     999902    2    1    2    0    0 -0.15049745156E-01 -0.99457701287E-02 -0.16249958957E-01  0.10196509074E+01  0.10193618095E+01 0.  0.
     999903    2    3    3    0    0  0.34684420170E-01  0.71481314141E-01 -0.10148913738E+00  0.13039865138E+00  0.19778169809E-01 0.  0.
         14    1    1    2    0    0  0.15049745156E-01  0.99457701287E-02  0.16249958957E-01  0.24279092627E-01  0.00000000000E+00 0. -1.
     999901    1    3    3    0    0 -0.49734165326E-01 -0.81427084269E-01  0.85239178425E-01  0.88925225599E+00  0.88000000000E+00 0. -1.
        -11    1    4    4    0    0  0.15213974675E-01  0.52439965608E-01 -0.65944707072E-01  0.85617641466E-01  0.51100000000E-03 0.  1.
         11    1    4    4    0    0  0.19470445495E-01  0.19041348532E-01 -0.35544430309E-01  0.44781009912E-01  0.51100000000E-03 0. -1.
</event>
<event>
 8    1  0.1044719E+005  0.1043930E+01  0.7957747E-01            NaN
         13   -1    0    0    0    0  0.00000000000E+00  0.00000000000E+00  0.74505805969E-08  0.10566000000E+00  0.10566000000E+00 0. -1.
     999900   -1    0    0    0    0 -0.00000000000E+00 -0.00000000000E+00 -0.74505805969E-08  0.93827000000E+00  0.93827000000E+00 0. -1.
     999902    2    1    2    0    0 -0.15213497010E-01 -0.25927806921E-02 -0.17952421691E-01  0.10202559119E+01  0.10199812073E+01 0.  0.
     999903    2    3    3    0    0 -0.46509376208E-01  0.11908258069E+00 -0.22300689639E-01  0.13132214999E+00  0.20109779245E-01 0.  0.
         14    1    1    2    0    0  0.15213497010E-01  0.25927806921E-02  0.17952421691E-01  0.23674088104E-01  0.00000000000E+00 0. -1.
     999901    1    3    3    0    0  0.31295879198E-01 -0.12167536138E+00  0.43482679480E-02  0.88893376191E+00  0.88000000000E+00 0.  1.
        -11    1    4    4    0    0 -0.36544855177E-01  0.89677964998E-01 -0.81004730328E-02  0.97177891675E-01  0.51100000000E-03 0. -1.
         11    1    4    4    0    0 -0.99645210311E-02  0.29404615689E-01 -0.14200216606E-01  0.34144258315E-01  0.51100000000E-03 0.  1.
</event>
<event>
 8    1  0.1044719E+005  0.1043930E+01  0.7957747E-01            NaN
         13   -1    0    0    0    0  0.00000000000E+00  0.00000000000E+00  0.74505805969E-08  0.10566000000E+00  0.10566000000E+00 0.  1.
     999900   -1    0    0    0    0 -0.00000000000E+00 -0.00000000000E+00 -0.74505805969E-08  0.93827000000E+00  0.93827000000E+00 0. -1.
     999902    2    1    2    0    0 -0.17970283720E-01  0.11636730238E-01  0.71627619850E-02  0.10213545765E+01  0.10211050490E+01 0.  0.
     999903    2    3    3    0    0 -0.11987275048E+00 -0.50607083734E-01  0.21666050199E-01  0.13317174031E+00  0.18295940945E-01 0.  0.
         14    1    1    2    0    0  0.17970283720E-01 -0.11636730238E-01 -0.71627619850E-02  0.22575423514E-01  0.00000000000E+00 0. -1.
     999901    1    3    3    0    0  0.10190246676E+00  0.62243813971E-01 -0.14503288214E-01  0.88818283618E+00  0.88000000000E+00 0. -1.
        -11    1    4    4    0    0 -0.78307490112E-01 -0.36268444228E-01  0.60604705427E-02  0.86512735933E-01  0.51100000000E-03 0.  1.
         11    1    4    4    0    0 -0.41565260365E-01 -0.14338639505E-01  0.15605579656E-01  0.46659004377E-01  0.51100000000E-03 0. -1.
</event>
<event>
 8    1  0.1044719E+005  0.1043930E+01  0.7957747E-01            NaN
         13   -1    0    0    0    0  0.00000000000E+00  0.00000000000E+00  0.74505805969E-08  0.10566000000E+00  0.10566000000E+00 0. -1.
     999900   -1    0    0    0    0 -0.00000000000E+00 -0.00000000000E+00 -0.74505805969E-08  0.93827000000E+00  0.93827000000E+00 0.  1.
     999902    2    1    2    0    0  0.19029637062E-01  0.46877052397E-03  0.13223028828E-01  0.10207525255E+01  0.10204893547E+01 0.  0.
     999903    2    3    3    0    0  0.85199253336E-01  0.76360626899E-01  0.65556887361E-01  0.13346631197E+00  0.20632325157E-01 0.  0.
         14    1    1    2    0    0 -0.19029637062E-01 -0.46877052397E-03 -0.13223028828E-01  0.23177474493E-01  0.00000000000E+00 0.  1.
     999901    1    3    3    0    0 -0.66169616274E-01 -0.75891856375E-01 -0.52333858533E-01  0.88728621354E+00  0.88000000000E+00 0.  1.
        -11    1    4    4    0    0  0.86092135932E-01  0.73450159827E-01  0.63715626412E-01  0.12987195239E+00  0.51100000000E-03 0. -1.
         11    1    4    4    0    0 -0.89288259604E-03  0.29104670712E-02  0.18412609491E-02  0.35943595794E-02  0.51100000000E-03 0.  1.
</event>
<event>
 8    1  0.1044719E+005  0.1043930E+01  0.7957747E-01            NaN
         13   -1    0    0    0    0  0.00000000000E+00  0.00000000000E+00  0.74505805969E-08  0.10566000000E+00  0.10566000000E+00 0.  1.
     999900   -1    0    0    0    0 -0.00000000000E+00 -0.00000000000E+00 -0.74505805969E-08  0.93827000000E+00  0.93827000000E+00 0. -1.
     999902    2    1    2    0    0 -0.22986410326E-02 -0.23828645229E-01 -0.24810437043E-02  0.10198625186E+01  0.10195784978E+01 0.  0.
     999903    2    3    3    0    0 -0.77266202069E-01 -0.89460806206E-01  0.56063039659E-01  0.13230681584E+00  0.19716167829E-01 0.  0.
         14    1    1    2    0    0  0.22986410326E-02  0.23828645229E-01  0.24810437043E-02  0.24067481420E-01  0.00000000000E+00 0.  1.
     999901    1    3    3    0    0  0.74967561036E-01  0.65632160977E-01 -0.58544083364E-01  0.88755570274E+00  0.88000000000E+00 0. -1.
        -11    1    4    4    0    0 -0.68222567901E-01 -0.71450358620E-01  0.40213054910E-01  0.10666219304E+00  0.51100000000E-03 0. -1.
         11    1    4    4    0    0 -0.90436341674E-02 -0.18010447586E-01  0.15849984749E-01  0.25644622804E-01  0.51100000000E-03 0.  1.
</event>
<event>
 8    1  0.1044719E+005  0.1043930E+01  0.7957747E-01            NaN
         13   -1    0    0    0    0  0.00000000000E+00  0.00000000000E+00  0.74505805969E-08  0.10566000000E+00  0.10566000000E+00 0. -1.
     999900   -1    0    0    0    0 -0.00000000000E+00 -0.00000000000E+00 -0.74505805969E-08  0.93827000000E+00  0.93827000000E+00 0. -1.
     999902    2    1    2    0    0 -0.22243219955E-01  0.47393437535E-02 -0.93642928720E-02  0.10193350372E+01  0.10190382750E+01 0.  0.
     999903    2    3    3    0    0  0.41765421012E-01 -0.72662978835E-01 -0.96497449335E-01  0.12934604144E+00  0.19859048857E-01 0.  0.
         14    1    1    2    0    0  0.22243219955E-01 -0.47393437535E-02  0.93642928720E-02  0.24594962780E-01  0.00000000000E+00 0.  1.
     999901    1    3    3    0    0 -0.64008640967E-01  0.77402322588E-01  0.87133156463E-01  0.88998899578E+00  0.88000000000E+00 0.  1.
        -11    1    4    4    0    0  0.61408625532E-02 -0.29446724196E-01 -0.35562450343E-01  0.46580776659E-01  0.51100000000E-03 0. -1.
         11    1    4    4    0    0  0.35624558459E-01 -0.43216254639E-01 -0.60934998993E-01  0.82765264777E-01  0.51100000000E-03 0.  1.
</event>
<event>
 8    1  0.1269598E+005  0.1043930E+01  0.7957747E-01            NaN
         13   -1    0    0    0    0  0.00000000000E+00  0.00000000000E+00  0.74505805969E-08  0.10566000000E+00  0.10566000000E+00 0.  1.
     999900   -1    0    0    0    0 -0.00000000000E+00 -0.00000000000E+00 -0.74505805969E-08  0.93827000000E+00  0.93827000000E+00 0. -1.
     999902    2    1    2    0    0  0.53600368810E-03  0.21588424028E-01 -0.82923280900E-02  0.10207975540E+01  0.10205354165E+01 0.  0.
     999903    2    3    3    0    0 -0.12083471917E+00  0.47231391953E-01 -0.89991544017E-02  0.13209686550E+00  0.23168153862E-01 0.  0.
         14    1    1    2    0    0 -0.53600368810E-03 -0.21588424028E-01  0.82923280900E-02  0.23132445982E-01  0.00000000000E+00 0.  1.
     999901    1    3    3    0    0  0.12137072285E+00 -0.25642967926E-01  0.70682631173E-03  0.88870068852E+00  0.88000000000E+00 0.  1.
        -11    1    4    4    0    0 -0.61262400403E-01  0.21718006974E-01  0.69056946432E-02  0.65365918257E-01  0.51100000000E-03 0.  1.
         11    1    4    4    0    0 -0.59572318762E-01  0.25513384979E-01 -0.15904849045E-01  0.66730947242E-01  0.51100000000E-03 0. -1.
</event>
<event>
 8    1  0.1044719E+005  0.1043930E+01  0.7957747E-01            NaN
         13   -1    0    0    0    0  0.00000000000E+00  0.00000000000E+00  0.74505805969E-08  0.10566000000E+00  0.10566000000E+00 0. -1.
     999900   -1    0    0    0    0 -0.00000000000E+00 -0.00000000000E+00 -0.74505805969E-08  0.93827000000E+00  0.93827000000E+00 0.  1.
     999902    2    1    2    0    0  0.16739535649E-01  0.17173913638E-01  0.52040443378E-02  0.10193894735E+01  0.10190940395E+01 0.  0.
     999903    2    3    3    0    0 -0.16709020823E-01 -0.69329366194E-01  0.10536465239E+00  0.12886503770E+00  0.20463029459E-01 0.  0.
         14    1    1    2    0    0 -0.16739535649E-01 -0.17173913638E-01 -0.52040443378E-02  0.24540526499E-01  0.00000000000E+00 0.  1.
     999901    1    3    3    0    0  0.33448556472E-01  0.86503279833E-01 -0.10016060805E+00  0.89052443580E+00  0.88000000000E+00 0.  1.
        -11    1    4    4    0    0 -0.57415193767E-02 -0.56080417417E-01  0.73268013740E-01  0.92446964367E-01  0.51100000000E-03 0. -1.
         11    1    4    4    0    0 -0.10967501446E-01 -0.13248948778E-01  0.32096638650E-01  0.36418073334E-01  0.51100000000E-03 0.  1.
</event>
<event>
 8    1  0.1044719E+005  0.1043930E+01  0.7957747E-01            NaN
         13   -1    0    0    0    0  0.00000000000E+00  0.00000000000E+00  0.74505805969E-08  0.10566000000E+00  0.10566000000E+00 0. -1.
     999900   -1    0    0    0    0 -0.00000000000E+00 -0.00000000000E+00 -0.74505805969E-08  0.93827000000E+00  0.93827000000E+00 0. -1.
     999902    2    1    2    0    0  0.16166485460E-01 -0.87855996074E-02 -0.17929734517E-01  0.10182391963E+01  0.10179150473E+01 0.  0.
     999903    2    3    3    0    0 -0.12395208289E+00  0.65159085236E-02  0.14668913187E-01  0.12642642385E+00  0.19023346681E-01 0.  0.
         14    1    1    2    0    0 -0.16166485460E-01  0.87855996074E-02  0.17929734517E-01  0.25690803655E-01  0.00000000000E+00 0. -1.
     999901    1    3    3    0    0  0.14011856835E+00 -0.15301508131E-01 -0.32598647704E-01  0.89181277249E+00  0.88000000000E+00 0. -1.
        -11    1    4    4    0    0 -0.74863757940E-01 -0.14271182614E-02  0.16451458740E-01  0.76665054198E-01  0.51100000000E-03 0.  1.
         11    1    4    4    0    0 -0.49088324945E-01  0.79430267850E-02 -0.17825455530E-02  0.49761369656E-01  0.51100000000E-03 0. -1.
</event>
<event>
 8    1  0.1044719E+005  0.1043930E+01  0.7957747E-01            NaN
         13   -1    0    0    0    0  0.00000000000E+00  0.00000000000E+00  0.74505805969E-08  0.10566000000E+00  0.10566000000E+00 0. -1.
     999900   -1    0    0    0    0 -0.00000000000E+00 -0.00000000000E+00 -0.74505805969E-08  0.93827000000E+00  0.93827000000E+00 0.  1.
     999902    2    1    2    0    0  0.18524573544E-01  0.22373618241E-01 -0.15020133009E-01  0.10112291894E+01  0.10107003169E+01 0.  0.
     999903    2    3    3    0    0  0.11164576502E+00 -0.38202141917E-02 -0.53033277709E-01  0.12511256484E+00  0.19006694939E-01 0.  0.
         14    1    1    2    0    0 -0.18524573544E-01 -0.22373618241E-01  0.15020133009E-01  0.32700810599E-01  0.00000000000E+00 0. -1.
     999901    1    3    3    0    0 -0.93121191474E-01  0.26193832433E-01  0.38013144700E-01  0.88611662456E+00  0.88000000000E+00 0.  1.
        -11    1    4    4    0    0  0.47471072073E-01 -0.71922403116E-02 -0.14397705351E-01  0.50127697383E-01  0.51100000000E-03 0. -1.
         11    1    4    4    0    0  0.64174692945E-01  0.33720261199E-02 -0.38635572358E-01  0.74984867454E-01  0.51100000000E-03 0.  1.
</event>
<event>
 8    1  0.1044719E+005  0.1043930E+01  0.7957747E-01            NaN
         13   -1    0    0    0    0  0.00000000000E+00  0.00000000000E+00  0.74505805969E-08  0.10566000000E+00  0.10566000000E+00 0. -1.
     999900   -1    0    0    0    0 -0.00000000000E+00 -0.00000000000E+00 -0.74505805969E-08  0.93827000000E+00  0.93827000000E+00 0.  1.
     999902    2    1    2    0    0  0.94909805529E-02  0.10851323857E-02 -0.21401278142E-01  0.10204934702E+01  0.10202243144E+01 0.  0.
     999903    2    3    3    0    0 -0.86075254136E-01  0.93726143285E-01 -0.20560600859E-01  0.13048449895E+00  0.20246650344E-01 0.  0.
         14    1    1    2    0    0 -0.94909805529E-02 -0.10851323857E-02  0.21401278142E-01  0.23436529826E-01  0.00000000000E+00 0. -1.
     999901    1    3    3    0    0  0.95566234689E-01 -0.92641010899E-01 -0.84067728323E-03  0.89000897122E+00  0.88000000000E+00 0. -1.
        -11    1    4    4    0    0 -0.80728573840E-02  0.12921879635E-01  0.34600144824E-02  0.15632620409E-01  0.51100000000E-03 0. -1.
         11    1    4    4    0    0 -0.78002396752E-01  0.80804263650E-01 -0.24020615341E-01  0.11485187855E+00  0.51100000000E-03 0.  1.
</event>
<event>
 8    1  0.1044719E+005  0.1043930E+01  0.7957747E-01            NaN
         13   -1    0    0    0    0  0.00000000000E+00  0.00000000000E+00  0.74505805969E-08  0.10566000000E+00  0.10566000000E+00 0. -1.
     999900   -1    0    0    0    0 -0.00000000000E+00 -0.00000000000E+00 -0.74505805969E-08  0.93827000000E+00  0.93827000000E+00 0. -1.
     999902    2    1    2    0    0 -0.63865466537E-02  0.98630005813E-02 -0.19804469892E-01  0.10209021085E+01  0.10206423621E+01 0.  0.
     999903    2    3    3    0    0  0.12053281207E-01  0.10162068524E+00  0.78536262238E-01  0.13049186624E+00  0.19701203329E-01 0.  0.
         14    1    1    2    0    0  0.63865466537E-02 -0.98630005813E-02  0.19804469892E-01  0.23027891487E-01  0.00000000000E+00 0. -1.
     999901    1    3    3    0    0 -0.18439827861E-01 -0.91757684658E-01 -0.98340732130E-01  0.89041024227E+00  0.88000000000E+00 0. -1.
        -11    1    4    4    0    0  0.92580131741E-03  0.19435944680E-01  0.61609798188E-02  0.20416460198E-01  0.51100000000E-03 0.  1.
         11    1    4    4    0    0  0.11127479890E-01  0.82184740560E-01  0.72375282419E-01  0.11007540604E+00  0.51100000000E-03 0. -1.
</event>
<event>
 8    1  0.1044719E+005  0.1043930E+01  0.7957747E-01            NaN
         13   -1    0    0    0    0  0.00000000000E+00  0.00000000000E+00  0.74505805969E-08  0.10566000000E+00  0.10566000000E+00 0. -1.
     999900   -1    0    0    0    0 -0.00000000000E+00 -0.00000000000E+00 -0.74505805969E-08  0.93827000000E+00  0.93827000000E+00 0. -1.
     999902    2    1    2    0    0 -0.81307568442E-02  0.13750827219E-01  0.17879835590E-01  0.10199532826E+01  0.10196714254E+01 0.  0.
     999903    2    3    3    0    0  0.14930916188E-01 -0.11304679042E+00  0.58396177018E-01  0.12964375749E+00  0.19871620033E-01 0.  0.
         14    1    1    2    0    0  0.81307568442E-02 -0.13750827219E-01 -0.17879835590E-01  0.23976717390E-01  0.00000000000E+00 0.  1.
     999901    1    3    3    0    0 -0.23061673032E-01  0.12679761764E+00 -0.40516341428E-01  0.89030952512E+00  0.88000000000E+00 0. -1.
        -11    1    4    4    0    0 -0.20732337437E-02 -0.57380156013E-01  0.26058697937E-01  0.63056303899E-01  0.51100000000E-03 0. -1.
         11    1    4    4    0    0  0.17004149932E-01 -0.55666634407E-01  0.32337479081E-01  0.66587453589E-01  0.51100000000E-03 0.  1.
</event>
<event>
 8    1  0.1044719E+005  0.1043930E+01  0.7957747E-01            NaN
         13   -1    0    0    0    0  0.00000000000E+00  0.00000000000E+00  0.74505805969E-08  0.10566000000E+00  0.10566000000E+00 0. -1.
     999900   -1    0    0    0    0 -0.00000000000E+00 -0.00000000000E+00 -0.74505805969E-08  0.93827000000E+00  0.93827000000E+00 0.  1.
     999902    2    1    2    0    0  0.10072302306E-01 -0.17332724707E-01 -0.13087837976E-01  0.10199891119E+01  0.10197081064E+01 0.  0.
     999903    2    3    3    0    0 -0.61914196156E-02 -0.10588449441E+00  0.74480119810E-01  0.13107175254E+00  0.19561600994E-01 0.  0.
         14    1    1    2    0    0 -0.10072302306E-01  0.17332724707E-01  0.13087837976E-01  0.23940888087E-01  0.00000000000E+00 0.  1.
     999901    1    3    3    0    0  0.16263721921E-01  0.88551769701E-01 -0.87567957787E-01  0.88891735938E+00  0.88000000000E+00 0.  1.
        -11    1    4    4    0    0 -0.11167670488E-02 -0.66843639391E-01  0.35621360999E-01  0.75752635440E-01  0.51100000000E-03 0.  1.
         11    1    4    4    0    0 -0.50746525667E-02 -0.39040855017E-01  0.38858758811E-01  0.55319117098E-01  0.51100000000E-03 0. -1.
</event>
<event>
 8    1  0.1044719E+005  0.1043930E+01  0.7957747E-01            NaN
         13   -1    0    0    0    0  0.00000000000E+00  0.00000000000E+00  0.74505805969E-08  0.10566000000E+00  0.10566000000E+00 0. -1.
     999900   -1    0    0    0    0 -0.00000000000E+00 -0.00000000000E+00 -0.74505805969E-08  0.93827000000E+00  0.93827000000E+00 0.  1.
     999902    2    1    2    0    0 -0.17002881807E-02 -0.21932786352E-01  0.23863295865E-04  0.10219313940E+01  0.10216945901E+01 0.  0.
     999903    2    3    3    0    0 -0.12422807017E+00  0.10948775706E-01  0.38869344286E-01  0.13198576313E+00  0.18892502114E-01 0.  0.
         14    1    1    2    0    0  0.17002881807E-02  0.21932786352E-01 -0.23863295865E-04  0.21998606013E-01  0.00000000000E+00 0.  1.
     999901    1    3    3    0    0  0.12252778199E+00 -0.32881562058E-01 -0.38845480990E-01  0.88994563085E+00  0.88000000000E+00 0. -1.
        -11    1    4    4    0    0 -0.22638719600E-01  0.93277234858E-02  0.62651311561E-02  0.25279063273E-01  0.51100000000E-03 0.  1.
         11    1    4    4    0    0 -0.10158935057E+00  0.16210522206E-02  0.32604213130E-01  0.10670669986E+00  0.51100000000E-03 0. -1.
</event>
<event>
 8    1  0.1044719E+005  0.1043930E+01  0.7957747E-01            NaN
         13   -1    0    0    0    0  0.00000000000E+00  0.00000000000E+00  0.74505805969E-08  0.10566000000E+00  0.10566000000E+00 0.  1.
     999900   -1    0    0    0    0 -0.00000000000E+00 -0.00000000000E+00 -0.74505805969E-08  0.93827000000E+00  0.93827000000E+00 0.  1.
     999902    2    1    2    0    0  0.28961451092E-03 -0.31814893918E-01 -0.14029969481E-01  0.10091577209E+01  0.10085584734E+01 0.  0.
     999903    2    3    3    0    0  0.57159628169E-01  0.22947828237E-01  0.99189297242E-01  0.11839863081E+00  0.19644163922E-01 0.  0.
         14    1    1    2    0    0 -0.28961451092E-03  0.31814893918E-01  0.14029969481E-01  0.34772279120E-01  0.00000000000E+00 0.  1.
     999901    1    3    3    0    0 -0.56870013658E-01 -0.54762722155E-01 -0.11321926672E+00  0.89075909007E+00  0.88000000000E+00 0.  1.
        -11    1    4    4    0    0  0.15944544807E-01  0.14384102945E-01  0.44216522249E-01  0.49157836480E-01  0.51100000000E-03 0.  1.
         11    1    4    4    0    0  0.41215083362E-01  0.85637252916E-02  0.54972774993E-01  0.69240794326E-01  0.51100000000E-03 0. -1.
</event>
<event>
 8    1  0.1044719E+005  0.1043930E+01  0.7957747E-01            NaN
         13   -1    0    0    0    0  0.00000000000E+00  0.00000000000E+00  0.74505805969E-08  0.10566000000E+00  0.10566000000E+00 0.  1.
     999900   -1    0    0    0    0 -0.00000000000E+00 -0.00000000000E+00 -0.74505805969E-08  0.93827000000E+00  0.93827000000E+00 0. -1.
     999902    2    1    2    0    0 -0.20578809650E-01  0.10810151965E-01  0.53332173137E-02  0.10200806814E+01  0.10198018467E+01 0.  0.
     999903    2    3    3    0    0  0.91837480003E-02  0.16945694428E-01 -0.12663280210E+00  0.12972205419E+00  0.20504804007E-01 0.  0.
         14    1    1    2    0    0  0.20578809650E-01 -0.10810151965E-01 -0.53332173137E-02  0.23849318628E-01  0.00000000000E+00 0. -1.
     999901    1    3    3    0    0 -0.29762557650E-01 -0.61355424624E-02  0.13196601942E+00  0.89035862718E+00  0.88000000000E+00 0.  1.
        -11    1    4    4    0    0  0.72985707038E-02 -0.29609700646E-02 -0.28579241249E-01  0.29649125272E-01  0.51100000000E-03 0. -1.
         11    1    4    4    0    0  0.18851772965E-02  0.19906664492E-01 -0.98053560854E-01  0.10007292892E+00  0.51100000000E-03 0.  1.
</event>
<event>
 8    1  0.1044719E+005  0.1043930E+01  0.7957747E-01            NaN
         13   -1    0    0    0    0  0.00000000000E+00  0.00000000000E+00  0.74505805969E-08  0.10566000000E+00  0.10566000000E+00 0. -1.
     999900   -1    0    0    0    0 -0.00000000000E+00 -0.00000000000E+00 -0.74505805969E-08  0.93827000000E+00  0.93827000000E+00 0.  1.
     999902    2    1    2    0    0 -0.31745818669E-02 -0.53441800384E-02 -0.23206390150E-01  0.10199055380E+01  0.10196225437E+01 0.  0.
     999903    2    3    3    0    0 -0.68803002286E-01  0.76122836689E-01 -0.80198678512E-01  0.13187846335E+00  0.20774062491E-01 0.  0.
         14    1    1    2    0    0  0.31745818669E-02  0.53441800384E-02  0.23206390150E-01  0.24024461995E-01  0.00000000000E+00 0. -1.
     999901    1    3    3    0    0  0.65628420419E-01 -0.81467016727E-01  0.56992288362E-01  0.88802707465E+00  0.88000000000E+00 0. -1.
        -11    1    4    4    0    0 -0.18621730555E-01  0.34762408587E-01 -0.34457132108E-01  0.52371260952E-01  0.51100000000E-03 0. -1.
         11    1    4    4    0    0 -0.50181271731E-01  0.41360428102E-01 -0.45741546404E-01  0.79507202402E-01  0.51100000000E-03 0.  1.
</event>
<event>
 8    1  0.1044719E+005  0.1043930E+01  0.7957747E-01            NaN
         13   -1    0    0    0    0  0.00000000000E+00  0.00000000000E+00  0.74505805969E-08  0.10566000000E+00  0.10566000000E+00 0. -1.
     999900   -1    0    0    0    0 -0.00000000000E+00 -0.00000000000E+00 -0.74505805969E-08  0.93827000000E+00  0.93827000000E+00 0.  1.
     999902    2    1    2    0    0  0.10336087591E-01  0.19223346052E-01  0.63029527151E-02  0.10212121886E+01  0.10209594680E+01 0.  0.
     999903    2    3    3    0    0  0.10380539876E+00  0.78017056318E-01  0.28959054147E-01  0.13402195457E+00  0.16156596238E-01 0.  0.
         14    1    1    2    0    0 -0.10336087591E-01 -0.19223346052E-01 -0.63029527151E-02  0.22717811362E-01  0.00000000000E+00 0.  1.
     999901    1    3    3    0    0 -0.93469311165E-01 -0.58793710265E-01 -0.22656101432E-01  0.88719023407E+00  0.88000000000E+00 0. -1.
        -11    1    4    4    0    0  0.31070158688E-01  0.16698218954E-01  0.29732755171E-02  0.35401790427E-01  0.51100000000E-03 0.  1.
         11    1    4    4    0    0  0.72735240068E-01  0.61318837364E-01  0.25985778630E-01  0.98620164141E-01  0.51100000000E-03 0. -1.
</event>
<event>
 8    1  0.1044719E+005  0.1043930E+01  0.7957747E-01            NaN
         13   -1    0    0    0    0  0.00000000000E+00  0.00000000000E+00  0.74505805969E-08  0.10566000000E+00  0.10566000000E+00 0.  1.
     999900   -1    0    0    0    0 -0.00000000000E+00 -0.00000000000E+00 -0.74505805969E-08  0.93827000000E+00  0.93827000000E+00 0. -1.
     999902    2    1    2    0    0  0.64659639443E-02 -0.99637054683E-02 -0.20694938865E-01  0.10200686377E+01  0.10197895180E+01 0.  0.
     999903    2    3    3    0    0 -0.76736332935E-01  0.79456049898E-01  0.59479500207E-01  0.12802241942E+00  0.25499024924E-01 0.  0.
         14    1    1    2    0    0 -0.64659639443E-02  0.99637054683E-02  0.20694938865E-01  0.23861362304E-01  0.00000000000E+00 0.  1.
     999901    1    3    3    0    0  0.83202296879E-01 -0.89419755366E-01 -0.80174439073E-01  0.89204621827E+00  0.88000000000E+00 0. -1.
        -11    1    4    4    0    0 -0.39876874320E-01  0.23994354636E-01  0.20483254087E-01  0.50849965378E-01  0.51100000000E-03 0.  1.
         11    1    4    4    0    0 -0.36859458614E-01  0.55461695262E-01  0.38996246121E-01  0.77172454044E-01  0.51100000000E-03 0. -1.
</event>
<event>
 8    1  0.1044719E+005  0.1043930E+01  0.7957747E-01            NaN
         13   -1    0    0    0    0  0.00000000000E+00  0.00000000000E+00  0.74505805969E-08  0.10566000000E+00  0.10566000000E+00 0.  1.
     999900   -1    0    0    0    0 -0.00000000000E+00 -0.00000000000E+00 -0.74505805969E-08  0.93827000000E+00  0.93827000000E+00 0. -1.
     999902    2    1    2    0    0 -0.15529423088E-01 -0.12835294740E-01 -0.13885935461E-01  0.10194611019E+01  0.10191674108E+01 0.  0.
     999903    2    3    3    0    0  0.40037320149E-01  0.11955536152E+00  0.11196688977E-02  0.12769873610E+00  0.20229732362E-01 0.  0.
         14    1    1    2    0    0  0.15529423088E-01  0.12835294740E-01  0.13885935461E-01  0.24468898139E-01  0.00000000000E+00 0.  1.
     999901    1    3    3    0    0 -0.55566743237E-01 -0.13239065626E+00 -0.15005604359E-01  0.89176236576E+00  0.88000000000E+00 0. -1.
        -11    1    4    4    0    0  0.10016943452E-01  0.37274809787E-01  0.93756577098E-02  0.39722974200E-01  0.51100000000E-03 0.  1.
         11    1    4    4    0    0  0.30020376698E-01  0.82280551732E-01 -0.82559888121E-02  0.87975761904E-01  0.51100000000E-03 0. -1.
</event>
<event>
 8    1  0.1044719E+005  0.1043930E+01  0.7957747E-01            NaN
         13   -1    0    0    0    0  0.00000000000E+00  0.00000000000E+00  0.74505805969E-08  0.10566000000E+00  0.10566000000E+00 0. -1.
     999900   -1    0    0    0    0 -0.00000000000E+00 -0.00000000000E+00 -0.74505805969E-08  0.93827000000E+00  0.93827000000E+00 0.  1.
     999902    2    1    2    0    0 -0.19006828282E-02  0.11491678396E-01 -0.21345847595E-01  0.10196130002E+01  0.10193229880E+01 0.  0.
     999903    2    3    3    0    0 -0.95518931175E-01 -0.75554060738E-01  0.36970557444E-01  0.12846646896E+00  0.17450765667E-01 0.  0.
         14    1    1    2    0    0  0.19006828282E-02 -0.11491678396E-01  0.21345847595E-01  0.24316999756E-01  0.00000000000E+00 0. -1.
     999901    1    3    3    0    0  0.93618248347E-01  0.87045739133E-01 -0.58316405039E-01  0.89114653129E+00  0.88000000000E+00 0.  1.
        -11    1    4    4    0    0 -0.47199223473E-01 -0.32295808726E-01  0.25428601643E-01  0.62591220313E-01  0.51100000000E-03 0. -1.
         11    1    4    4    0    0 -0.48319707702E-01 -0.43258252011E-01  0.11541955801E-01  0.65875248646E-01  0.51100000000E-03 0.  1.
</event>
<event>
 8    1  0.1044719E+005  0.1043930E+01  0.7957747E-01            NaN
         13   -1    0    0    0    0  0.00000000000E+00  0.00000000000E+00  0.74505805969E-08  0.10566000000E+00  0.10566000000E+00 0.  1.
     999900   -1    0    0    0    0 -0.00000000000E+00 -0.00000000000E+00 -0.74505805969E-08  0.93827000000E+00  0.93827000000E+00 0.  1.
     999902    2    1    2    0    0 -0.20397474825E-01 -0.12848312398E-01  0.99476216387E-03  0.10198027195E+01  0.10195172687E+01 0.  0.
     999903    2    3    3    0    0  0.28415222630E-01 -0.88017233446E-01 -0.89995589686E-01  0.13058267351E+00  0.19954202513E-01 0.  0.
         14    1    1    2    0    0  0.20397474825E-01  0.12848312398E-01 -0.99476216387E-03  0.24127280462E-01  0.00000000000E+00 0.  1.
     999901    1    3    3    0    0 -0.48812697455E-01  0.75168921048E-01  0.90990351850E-01  0.88922004603E+00  0.88000000000E+00 0. -1.
        -11    1    4    4    0    0  0.16488797522E-01 -0.52938874722E-01 -0.40085802011E-01  0.68421762214E-01  0.51100000000E-03 0. -1.
         11    1    4    4    0    0  0.11926425108E-01 -0.35078358724E-01 -0.49909787676E-01  0.62160911298E-01  0.51100000000E-03 0.  1.
</event>
<event>
 8    1  0.1044719E+005  0.1043930E+01  0.7957747E-01            NaN
         13   -1    0    0    0    0  0.00000000000E+00  0.00000000000E+00  0.74505805969E-08  0.10566000000E+00  0.10566000000E+00 0. -1.
     999900   -1    0    0    0    0 -0.00000000000E+00 -0.00000000000E+00 -0.74505805969E-08  0.93827000000E+00  0.93827000000E+00 0.  1.
     999902    2    1    2    0    0  0.38444332479E-03 -0.80209059696E-03 -0.23578062438E-01  0.10203351664E+01  0.10200623194E+01 0.  0.
     999903    2    3    3    0    0 -0.11914361484E+00  0.17608219288E-01 -0.49399572119E-01  0.13168864127E+00  0.19908042837E-01 0.  0.
         14    1    1    2    0    0 -0.38444332479E-03  0.80209059696E-03  0.23578062438E-01  0.23594833637E-01  0.00000000000E+00 0. -1.
     999901    1    3    3    0    0  0.11952805817E+00 -0.18410309885E-01  0.25821509680E-01  0.88864652509E+00  0.88000000000E+00 0.  1.
        -11    1    4    4    0    0 -0.93325313905E-01  0.59572136518E-02 -0.34484190434E-01  0.99672077939E-01  0.51100000000E-03 0. -1.
         11    1    4    4    0    0 -0.25818300938E-01  0.11651005636E-01 -0.14915381685E-01  0.32016563330E-01  0.51100000000E-03 0.  1.
</event>
<event>
 8    1  0.1044719E+005  0.1043930E+01  0.7957747E-01            NaN
         13   -1    0    0    0    0  0.00000000000E+00  0.00000000000E+00  0.74505805969E-08  0.10566000000E+00  0.10566000000E+00 0. -1.
     999900   -1    0    0    0    0 -0.00000000000E+00 -0.00000000000E+00 -0.74505805969E-08  0.93827000000E+00  0.93827000000E+00 0. -1.
     999902    2    1    2    0    0 -0.23414578396E-02  0.22789461936E-01  0.82089457765E-02  0.10195942487E+01  0.10193037836E+01 0.  0.
     999903    2    3    3    0    0 -0.87947878258E-01 -0.89961536584E-01  0.14477263302E-01  0.12825787074E+00  0.20312136759E-01 0.  0.
         14    1    1    2    0    0  0.23414578396E-02 -0.22789461936E-01 -0.82089457765E-02  0.24335751291E-01  0.00000000000E+00 0.  1.
     999901    1    3    3    0    0  0.85606420418E-01  0.11275099852E+00 -0.62683175259E-02  0.89133637797E+00  0.88000000000E+00 0. -1.
        -11    1    4    4    0    0 -0.37984796502E-01 -0.27654200627E-01 -0.54045110456E-03  0.46990986221E-01  0.51100000000E-03 0. -1.
         11    1    4    4    0    0 -0.49963081756E-01 -0.62307335958E-01  0.15017714407E-01  0.81266884521E-01  0.51100000000E-03 0.  1.
</event>
<event>
 8    1  0.1044719E+005  0.1043930E+01  0.7957747E-01            NaN
         13   -1    0    0    0    0  0.00000000000E+00  0.00000000000E+00  0.74505805969E-08  0.10566000000E+00  0.10566000000E+00 0. -1.
     999900   -1    0    0    0    0 -0.00000000000E+00 -0.00000000000E+00 -0.74505805969E-08  0.93827000000E+00  0.93827000000E+00 0. -1.
     999902    2    1    2    0    0  0.14513837521E-01 -0.15760181876E-01  0.10314514546E-01  0.10201513536E+01  0.10198741885E+01 0.  0.
     999903    2    3    3    0    0  0.89176197117E-01  0.69865661117E-01  0.63350595006E-01  0.13126492740E+00  0.19585161260E-01 0.  0.
         14    1    1    2    0    0 -0.14513837521E-01  0.15760181876E-01 -0.10314514546E-01  0.23778646360E-01  0.00000000000E+00 0. -1.
     999901    1    3    3    0    0 -0.74662359596E-01 -0.85625842993E-01 -0.53036080459E-01  0.88888642624E+00  0.88000000000E+00 0. -1.
        -11    1    4    4    0    0  0.28285857515E-01  0.18424574047E-01  0.95169962805E-02  0.35076901279E-01  0.51100000000E-03 0.  1.
         11    1    4    4    0    0  0.60890339602E-01  0.51441087070E-01  0.53833598725E-01  0.96188026118E-01  0.51100000000E-03 0. -1.
</event>
<event>
 8    1  0.1044719E+005  0.1043930E+01  0.7957747E-01            NaN
         13   -1    0    0    0    0  0.00000000000E+00  0.00000000000E+00  0.74505805969E-08  0.10566000000E+00  0.10566000000E+00 0. -1.
     999900   -1    0    0    0    0 -0.00000000000E+00 -0.00000000000E+00 -0.74505805969E-08  0.93827000000E+00  0.93827000000E+00 0. -1.
     999902    2    1    2    0    0  0.13267824483E-01 -0.19457568878E-01 -0.40620083553E-02  0.10200316305E+01  0.10197516340E+01 0.  0.
     999903    2    3    3    0    0  0.42309546897E-01  0.11365234119E-01  0.12105958893E+00  0.13017271980E+00  0.19241793151E-01 0.  0.
         14    1    1    2    0    0 -0.13267824483E-01  0.19457568878E-01  0.40620083553E-02  0.23898369506E-01  0.00000000000E+00 0.  1.
     999901    1    3    3    0    0 -0.29041722414E-01 -0.30822802997E-01 -0.12512159729E+00  0.88985891069E+00  0.88000000000E+00 0. -1.
        -11    1    4    4    0    0  0.22885329411E-01  0.15792851064E-01  0.66135581792E-01  0.71744886556E-01  0.51100000000E-03 0.  1.
         11    1    4    4    0    0  0.19424217486E-01 -0.44276169453E-02  0.54924007141E-01  0.58427833249E-01  0.51100000000E-03 0. -1.
</event>
<event>
 8    1  0.1044719E+005  0.1043930E+01  0.7957747E-01            NaN
         13   -1    0    0    0    0  0.00000000000E+00  0.00000000000E+00  0.74505805969E-08  0.10566000000E+00  0.10566000000E+00 0. -1.
     999900   -1    0    0    0    0 -0.00000000000E+00 -0.00000000000E+00 -0.74505805969E-08  0.93827000000E+00  0.93827000000E+00 0.  1.
     999902    2    1    2    0    0 -0.82100676725E-02  0.21098257788E-01  0.75832173857E-02  0.10200543455E+01  0.10197748873E+01 0.  0.
     999903    2    3    3    0    0  0.12633342695E+00  0.84631561497E-02 -0.20315760681E-01  0.12930188227E+00  0.16567644648E-01 0.  0.
         14    1    1    2    0    0  0.82100676725E-02 -0.21098257788E-01 -0.75832173857E-02  0.23875654521E-01  0.00000000000E+00 0.  1.
     999901    1    3    3    0    0 -0.13454349462E+00  0.12635101638E-01  0.27898978067E-01  0.89075246321E+00  0.88000000000E+00 0. -1.
        -11    1    4    4    0    0  0.39311237163E-01 -0.26679522902E-02 -0.11919826262E-01  0.41168370332E-01  0.51100000000E-03 0. -1.
         11    1    4    4    0    0  0.87022189787E-01  0.11131108440E-01 -0.83959344191E-02  0.88133511937E-01  0.51100000000E-03 0.  1.
</event>
<event>
 8    1  0.1044719E+005  0.1043930E+01  0.7957747E-01            NaN
         13   -1    0    0    0    0  0.00000000000E+00  0.00000000000E+00  0.74505805969E-08  0.10566000000E+00  0.10566000000E+00 0.  1.
     999900   -1    0    0    0    0 -0.00000000000E+00 -0.00000000000E+00 -0.74505805969E-08  0.93827000000E+00  0.93827000000E+00 0. -1.
     999902    2    1    2    0    0 -0.21423388236E-01  0.78306791614E-02  0.48116961895E-02  0.10206183394E+01  0.10203520771E+01 0.  0.
     999903    2    3    3    0    0  0.56758739620E-01 -0.93443905455E-01 -0.64727197324E-01  0.12865161114E+00  0.20206656995E-01 0.  0.
         14    1    1    2    0    0  0.21423388236E-01 -0.78306791614E-02 -0.48116961895E-02  0.23311660599E-01  0.00000000000E+00 0. -1.
     999901    1    3    3    0    0 -0.78182127856E-01  0.10127458462E+00  0.69538893513E-01  0.89196672826E+00  0.88000000000E+00 0.  1.
        -11    1    4    4    0    0  0.21538354940E-01 -0.49706320661E-01 -0.23851246292E-01  0.59192584990E-01  0.51100000000E-03 0.  1.
         11    1    4    4    0    0  0.35220384679E-01 -0.43737584794E-01 -0.40875951032E-01  0.69459026154E-01  0.51100000000E-03 0. -1.
</event>
<event>
 8    1  0.1044719E+005  0.1043930E+01  0.7957747E-01            NaN
         13   -1    0    0    0    0  0.00000000000E+00  0.00000000000E+00  0.74505805969E-08  0.10566000000E+00  0.10566000000E+00 0. -1.
     999900   -1    0    0    0    0 -0.00000000000E+00 -0.00000000000E+00 -0.74505805969E-08  0.93827000000E+00  0.93827000000E+00 0. -1.
     999902    2    1    2    0    0 -0.12116079750E-01  0.20247653161E-01  0.20881989521E-02  0.10202418717E+01  0.10199668374E+01 0.  0.
     999903    2    3    3    0    0 -0.12168762441E+00 -0.94775694282E-02  0.45732399799E-01  0.13187577121E+00  0.20051543173E-01 0.  0.
         14    1    1    2    0    0  0.12116079750E-01 -0.20247653161E-01 -0.20881989521E-02  0.23688128290E-01  0.00000000000E+00 0. -1.
     999901    1    3    3    0    0  0.10957154466E+00  0.29725222589E-01 -0.43644200847E-01  0.88836610050E+00  0.88000000000E+00 0.  1.
        -11    1    4    4    0    0 -0.19521784565E-01  0.56429971571E-02  0.57307058845E-02  0.21119791676E-01  0.51100000000E-03 0. -1.
         11    1    4    4    0    0 -0.10216583984E+00 -0.15120566585E-01  0.40001693915E-01  0.11075597953E+00  0.51100000000E-03 0.  1.
</event>
<event>
 8    1  0.1044719E+005  0.1043930E+01  0.7957747E-01            NaN
         13   -1    0    0    0    0  0.00000000000E+00  0.00000000000E+00  0.74505805969E-08  0.10566000000E+00  0.10566000000E+00 0. -1.
     999900   -1    0    0    0    0 -0.00000000000E+00 -0.00000000000E+00 -0.74505805969E-08  0.93827000000E+00  0.93827000000E+00 0.  1.
     999902    2    1    2    0    0 -0.14245498404E-01 -0.11814249010E-01 -0.18713393664E-01  0.10176107712E+01  0.10172703573E+01 0.  0.
     999903    2    3    3    0    0 -0.11924983414E+00  0.41571680095E-01  0.17406505500E-01  0.12902728320E+00  0.19907934287E-01 0.  0.
         14    1    1    2    0    0  0.14245498404E-01  0.11814249010E-01  0.18713393664E-01  0.26319228843E-01  0.00000000000E+00 0. -1.
     999901    1    3    3    0    0  0.10500433574E+00 -0.53385929105E-01 -0.36119899164E-01  0.88858348795E+00  0.88000000000E+00 0. -1.
        -11    1    4    4    0    0 -0.51856315047E-01  0.22807876034E-01 -0.10950825595E-02  0.56663365116E-01  0.51100000000E-03 0. -1.
         11    1    4    4    0    0 -0.67393519097E-01  0.18763804061E-01  0.18501588059E-01  0.72363918087E-01  0.51100000000E-03 0.  1.
</event>
<event>
 8    1  0.1044719E+005  0.1043930E+01  0.7957747E-01            NaN
         13   -1    0    0    0    0  0.00000000000E+00  0.00000000000E+00  0.74505805969E-08  0.10566000000E+00  0.10566000000E+00 0. -1.
     999900   -1    0    0    0    0 -0.00000000000E+00 -0.00000000000E+00 -0.74505805969E-08  0.93827000000E+00  0.93827000000E+00 0.  1.
     999902    2    1    2    0    0 -0.12029656188E-01  0.11555975547E-01  0.39345352313E-02  0.10267913371E+01  0.10266482923E+01 0.  0.
     999903    2    3    3    0    0  0.67019422405E-03  0.61859143851E-01 -0.12012034221E+00  0.13657714513E+00  0.19935323464E-01 0.  0.
         14    1    1    2    0    0  0.12029656188E-01 -0.11555975547E-01 -0.39345352313E-02  0.17138662910E-01  0.00000000000E+00 0. -1.
     999901    1    3    3    0    0 -0.12699850412E-01 -0.50303168304E-01  0.12405487744E+00  0.89021419196E+00  0.88000000000E+00 0. -1.
        -11    1    4    4    0    0 -0.88007997069E-02  0.25697176522E-01 -0.42820889747E-01  0.50711819888E-01  0.51100000000E-03 0.  1.
         11    1    4    4    0    0  0.94709939309E-02  0.36161967328E-01 -0.77299452466E-01  0.85865325246E-01  0.51100000000E-03 0. -1.
</event>
<event>
 8    1  0.1044719E+005  0.1043930E+01  0.7957747E-01            NaN
         13   -1    0    0    0    0  0.00000000000E+00  0.00000000000E+00  0.74505805969E-08  0.10566000000E+00  0.10566000000E+00 0. -1.
     999900   -1    0    0    0    0 -0.00000000000E+00 -0.00000000000E+00 -0.74505805969E-08  0.93827000000E+00  0.93827000000E+00 0. -1.
     999902    2    1    2    0    0 -0.17214469936E-01 -0.99384980693E-02  0.14143424396E-01  0.10195343411E+01  0.10192424268E+01 0.  0.
     999903    2    3    3    0    0  0.36807632185E-02  0.74394081617E-01 -0.10175841188E+00  0.12769252194E+00  0.20064355824E-01 0.  0.
         14    1    1    2    0    0  0.17214469936E-01  0.99384980693E-02 -0.14143424396E-01  0.24395658890E-01  0.00000000000E+00 0.  1.
     999901    1    3    3    0    0 -0.20895233154E-01 -0.84332579686E-01  0.11590183627E+00  0.89184181917E+00  0.88000000000E+00 0.  1.
        -11    1    4    4    0    0 -0.26409698673E-02  0.25727227955E-01 -0.50424707759E-01  0.56672544090E-01  0.51100000000E-03 0. -1.
         11    1    4    4    0    0  0.63217330858E-02  0.48666853662E-01 -0.51333704118E-01  0.71019977852E-01  0.51100000000E-03 0.  1.
</event>
<event>
 8    1  0.1044719E+005  0.1043930E+01  0.7957747E-01            NaN
         13   -1    0    0    0    0  0.00000000000E+00  0.00000000000E+00  0.74505805969E-08  0.10566000000E+00  0.10566000000E+00 0.  1.
     999900   -1    0    0    0    0 -0.00000000000E+00 -0.00000000000E+00 -0.74505805969E-08  0.93827000000E+00  0.93827000000E+00 0. -1.
     999902    2    1    2    0    0  0.18486283261E-01  0.11500251647E-01 -0.93222659635E-02  0.10202466071E+01  0.10199716840E+01 0.  0.
     999903    2    3    3    0    0  0.94196711390E-01 -0.69619800691E-01 -0.57420217621E-01  0.13197528325E+00  0.20011419525E-01 0.  0.
         14    1    1    2    0    0 -0.18486283261E-01 -0.11500251647E-01  0.93222659635E-02  0.23683392904E-01  0.00000000000E+00 0. -1.
     999901    1    3    3    0    0 -0.75710428130E-01  0.81120052338E-01  0.48097951658E-01  0.88827132385E+00  0.88000000000E+00 0.  1.
        -11    1    4    4    0    0  0.62441822293E-01 -0.41861747482E-01 -0.26637010931E-01  0.79756996846E-01  0.51100000000E-03 0. -1.
         11    1    4    4    0    0  0.31754889098E-01 -0.27758053209E-01 -0.30783206690E-01  0.52218286401E-01  0.51100000000E-03 0.  1.
</event>
<event>
 8    1  0.1044719E+005  0.1043930E+01  0.7957747E-01            NaN
         13   -1    0    0    0    0  0.00000000000E+00  0.00000000000E+00  0.74505805969E-08  0.10566000000E+00  0.10566000000E+00 0. -1.
     999900   -1    0    0    0    0 -0.00000000000E+00 -0.00000000000E+00 -0.74505805969E-08  0.93827000000E+00  0.93827000000E+00 0. -1.
     999902    2    1    2    0    0  0.40184699097E-02  0.14777779190E-01 -0.17671023805E-01  0.10205463318E+01  0.10202784028E+01 0.  0.
     999903    2    3    3    0    0 -0.98427924341E-02  0.10166294018E-01  0.12628384422E+00  0.12872998047E+00  0.20580681822E-01 0.  0.
         14    1    1    2    0    0 -0.40184699097E-02 -0.14777779190E-01  0.17671023805E-01  0.23383668244E-01  0.00000000000E+00 0. -1.
     999901    1    3    3    0    0  0.13861262344E-01  0.46114851720E-02 -0.14395486803E+00  0.89181635128E+00  0.88000000000E+00 0. -1.
        -11    1    4    4    0    0 -0.70402295597E-02  0.16135715245E-01  0.10416192329E+00  0.10564039722E+00  0.51100000000E-03 0. -1.
         11    1    4    4    0    0 -0.28025628744E-02 -0.59694212264E-02  0.22121920926E-01  0.23089583255E-01  0.51100000000E-03 0.  1.
</event>
<event>
 8    1  0.1044719E+005  0.1043930E+01  0.7957747E-01            NaN
         13   -1    0    0    0    0  0.00000000000E+00  0.00000000000E+00  0.74505805969E-08  0.10566000000E+00  0.10566000000E+00 0.  1.
     999900   -1    0    0    0    0 -0.00000000000E+00 -0.00000000000E+00 -0.74505805969E-08  0.93827000000E+00  0.93827000000E+00 0.  1.
     999902    2    1    2    0    0  0.17628303596E-01 -0.86198487793E-03 -0.14778782764E-01  0.10209101710E+01  0.10206506086E+01 0.  0.
     999903    2    3    3    0    0 -0.80063734002E-01 -0.88012601348E-01  0.45916097249E-01  0.12915749645E+00  0.20419387977E-01 0.  0.
         14    1    1    2    0    0 -0.17628303596E-01  0.86198487793E-03  0.14778782764E-01  0.23019828966E-01  0.00000000000E+00 0.  1.
     999901    1    3    3    0    0  0.97692037598E-01  0.87150616470E-01 -0.60694880014E-01  0.89175267458E+00  0.88000000000E+00 0.  1.
        -11    1    4    4    0    0 -0.31939638734E-01 -0.46557129326E-01  0.28743985412E-01  0.63357593325E-01  0.51100000000E-03 0.  1.
         11    1    4    4    0    0 -0.48124095268E-01 -0.41455472022E-01  0.17172111838E-01  0.65799903129E-01  0.51100000000E-03 0. -1.
</event>
<event>
 8    1  0.1044719E+005  0.1043930E+01  0.7957747E-01            NaN
         13   -1    0    0    0    0  0.00000000000E+00  0.00000000000E+00  0.74505805969E-08  0.10566000000E+00  0.10566000000E+00 0.  1.
     999900   -1    0    0    0    0 -0.00000000000E+00 -0.00000000000E+00 -0.74505805969E-08  0.93827000000E+00  0.93827000000E+00 0. -1.
     999902    2    1    2    0    0  0.14303666866E-01  0.71579377224E-02  0.18837204792E-01  0.10192182368E+01  0.10189186145E+01 0.  0.
     999903    2    3    3    0    0  0.80632247191E-01  0.22945941777E-01  0.10092925200E+00  0.13277148378E+00  0.20334145297E-01 0.  0.
         14    1    1    2    0    0 -0.14303666866E-01 -0.71579377224E-02 -0.18837204792E-01  0.24711763244E-01  0.00000000000E+00 0.  1.
     999901    1    3    3    0    0 -0.66328580325E-01 -0.15788004055E-01 -0.82092047211E-01  0.88644675297E+00  0.88000000000E+00 0. -1.
        -11    1    4    4    0    0  0.41333328069E-01  0.70819828256E-02  0.36201971960E-01  0.55402548541E-01  0.51100000000E-03 0.  1.
         11    1    4    4    0    0  0.39298919122E-01  0.15863958952E-01  0.64727280043E-01  0.77368935242E-01  0.51100000000E-03 0. -1.
</event>
<event>
 8    1  0.1044719E+005  0.1043930E+01  0.7957747E-01            NaN
         13   -1    0    0    0    0  0.00000000000E+00  0.00000000000E+00  0.74505805969E-08  0.10566000000E+00  0.10566000000E+00 0.  1.
     999900   -1    0    0    0    0 -0.00000000000E+00 -0.00000000000E+00 -0.74505805969E-08  0.93827000000E+00  0.93827000000E+00 0.  1.
     999902    2    1    2    0    0  0.14278294635E-01 -0.31836531757E-02  0.15889419849E-01  0.10223318749E+01  0.10221037048E+01 0.  0.
     999903    2    3    3    0    0 -0.93498704296E-01 -0.12683827614E-01  0.91139428142E-01  0.13251801876E+00  0.18754805933E-01 0.  0.
         14    1    1    2    0    0 -0.14278294635E-01  0.31836531757E-02 -0.15889419849E-01  0.21598125112E-01  0.00000000000E+00 0. -1.
     999901    1    3    3    0    0  0.10777699893E+00  0.95001744379E-02 -0.75250008292E-01  0.88981385613E+00  0.88000000000E+00 0.  1.
        -11    1    4    4    0    0 -0.25619531014E-01 -0.10641782696E-01  0.33037054305E-01  0.43142971461E-01  0.51100000000E-03 0.  1.
         11    1    4    4    0    0 -0.67879173282E-01 -0.20420449176E-02  0.58102373836E-01  0.89375047297E-01  0.51100000000E-03 0. -1.
</event>
<event>
 8    1  0.1044719E+005  0.1043930E+01  0.7957747E-01            NaN
         13   -1    0    0    0    0  0.00000000000E+00  0.00000000000E+00  0.74505805969E-08  0.10566000000E+00  0.10566000000E+00 0.  1.
     999900   -1    0    0    0    0 -0.00000000000E+00 -0.00000000000E+00 -0.74505805969E-08  0.93827000000E+00  0.93827000000E+00 0. -1.
     999902    2    1    2    0    0  0.15928823007E-01  0.16974018505E-01  0.46457157622E-02  0.10201933747E+01  0.10199171998E+01 0.  0.
     999903    2    3    3    0    0 -0.12057030869E+00  0.30550161161E-01 -0.27889822472E-01  0.12897236626E+00  0.19634596386E-01 0.  0.
         14    1    1    2    0    0 -0.15928823007E-01 -0.16974018505E-01 -0.46457157622E-02  0.23736625319E-01  0.00000000000E+00 0. -1.
     999901    1    3    3    0    0  0.13649913170E+00 -0.13576142657E-01  0.32535538234E-01  0.89122100842E+00  0.88000000000E+00 0.  1.
        -11    1    4    4    0    0 -0.11487708954E+00  0.33224055054E-01 -0.27036862140E-01  0.12260439050E+00  0.51100000000E-03 0. -1.
         11    1    4    4    0    0 -0.56932191591E-02 -0.26738938930E-02 -0.85296033129E-03  0.63679757593E-02  0.51100000000E-03 0.  1.
</event>
<event>
 8    1  0.1044719E+005  0.1043930E+01  0.7957747E-01            NaN
         13   -1    0    0    0    0  0.00000000000E+00  0.00000000000E+00  0.74505805969E-08  0.10566000000E+00  0.10566000000E+00 0. -1.
     999900   -1    0    0    0    0 -0.00000000000E+00 -0.00000000000E+00 -0.74505805969E-08  0.93827000000E+00  0.93827000000E+00 0. -1.
     999902    2    1    2    0    0  0.23715156583E-01  0.16684221882E-02  0.13583100401E-04  0.10201562231E+01  0.10198791728E+01 0.  0.
     999903    2    3    3    0    0  0.88045821173E-01 -0.32595167534E-01 -0.91253831125E-01  0.13243883062E+00  0.19956717866E-01 0.  0.
         14    1    1    2    0    0 -0.23715156583E-01 -0.16684221882E-02 -0.13583100401E-04  0.23773776916E-01  0.00000000000E+00 0.  1.
     999901    1    3    3    0    0 -0.64330664590E-01  0.34263589722E-01  0.91267414225E-01  0.88771739247E+00  0.88000000000E+00 0.  1.
        -11    1    4    4    0    0  0.18463003953E-01  0.14051384781E-02 -0.16769775552E-01  0.24986864993E-01  0.51100000000E-03 0. -1.
         11    1    4    4    0    0  0.69582817220E-01 -0.34000306012E-01 -0.74484055573E-01  0.10745196562E+00  0.51100000000E-03 0.  1.
</event>
<event>
 8    1  0.1044719E+005  0.1043930E+01  0.7957747E-01            NaN
         13   -1    0    0    0    0  0.00000000000E+00  0.00000000000E+00  0.74505805969E-08  0.10566000000E+00  0.10566000000E+00 0. -1.
     999900   -1    0    0    0    0 -0.00000000000E+00 -0.00000000000E+00 -0.74505805969E-08  0.93827000000E+00  0.93827000000E+00 0.  1.
     999902    2    1    2    0    0  0.16930883433E-01  0.11756566185E-01 -0.10546205053E-01  0.10207762940E+01  0.10205136688E+01 0.  0.
     999903    2    3    3    0    0 -0.12421084154E+00 -0.25964601151E-01 -0.72942105329E-02  0.12872559559E+00  0.20361232393E-01 0.  0.
         14    1    1    2    0    0 -0.16930883433E-01 -0.11756566185E-01  0.10546205053E-01  0.23153706038E-01  0.00000000000E+00 0. -1.
     999901    1    3    3    0    0  0.14114172497E+00  0.37721167336E-01 -0.32519945203E-02  0.89205069837E+00  0.88000000000E+00 0. -1.
        -11    1    4    4    0    0 -0.84599210709E-01 -0.25837019104E-01 -0.99811258989E-02  0.89019447335E-01  0.51100000000E-03 0. -1.
         11    1    4    4    0    0 -0.39611630831E-01 -0.12758204718E-03  0.26869153660E-02  0.39706148257E-01  0.51100000000E-03 0.  1.
</event>
<event>
 8    1  0.1044719E+005  0.1043930E+01  0.7957747E-01            NaN
         13   -1    0    0    0    0  0.00000000000E+00  0.00000000000E+00  0.74505805969E-08  0.10566000000E+00  0.10566000000E+00 0.  1.
     999900   -1    0    0    0    0 -0.00000000000E+00 -0.00000000000E+00 -0.74505805969E-08  0.93827000000E+00  0.93827000000E+00 0. -1.
     999902    2    1    2    0    0  0.13619062419E-01 -0.12473666845E-01  0.18147534680E-01  0.10180378344E+01  0.10177085182E+01 0.  0.
     999903    2    3    3    0    0  0.54110741452E-01  0.80407197121E-01  0.83952078480E-01  0.12978298978E+00  0.20059493169E-01 0.  0.
         14    1    1    2    0    0 -0.13619062419E-01  0.12473666845E-01 -0.18147534680E-01  0.25892165624E-01  0.00000000000E+00 0.  1.
     999901    1    3    3    0    0 -0.40491679033E-01 -0.92880863965E-01 -0.65804543800E-01  0.88825484460E+00  0.88000000000E+00 0. -1.
        -11    1    4    4    0    0  0.35836772087E-01  0.66113117429E-01  0.69789914095E-01  0.10259684089E+00  0.51100000000E-03 0. -1.
         11    1    4    4    0    0  0.18273969365E-01  0.14294079692E-01  0.14162164384E-01  0.27186148893E-01  0.51100000000E-03 0.  1.
</event>
<event>
 8    1  0.1044719E+005  0.1043930E+01  0.7957747E-01            NaN
         13   -1    0    0    0    0  0.00000000000E+00  0.00000000000E+00  0.74505805969E-08  0.10566000000E+00  0.10566000000E+00 0.  1.
     999900   -1    0    0    0    0 -0.00000000000E+00 -0.00000000000E+00 -0.74505805969E-08  0.93827000000E+00  0.93827000000E+00 0.  1.
     999902    2    1    2    0    0 -0.67271943670E-02 -0.21419865690E-01 -0.25460150917E-02  0.10213346911E+01  0.10210847190E+01 0.  0.
     999903    2    3    3    0    0  0.10550379525E+00  0.25200228790E-01 -0.69844448062E-01  0.13043721817E+00  0.19222866992E-01 0.  0.
         14    1    1    2    0    0  0.67271943670E-02  0.21419865690E-01  0.25460150917E-02  0.22595308873E-01  0.00000000000E+00 0.  1.
     999901    1    3    3    0    0 -0.11223098962E+00 -0.46620094480E-01  0.67298432971E-01  0.89089747296E+00  0.88000000000E+00 0. -1.
        -11    1    4    4    0    0  0.42018228202E-01  0.84523796851E-02 -0.38769812408E-01  0.57795620065E-01  0.51100000000E-03 0. -1.
         11    1    4    4    0    0  0.63485567049E-01  0.16747849105E-01 -0.31074635654E-01  0.72641598105E-01  0.51100000000E-03 0.  1.
</event>
<event>
 8    1  0.1044719E+005  0.1043930E+01  0.7957747E-01            NaN
         13   -1    0    0    0    0  0.00000000000E+00  0.00000000000E+00  0.74505805969E-08  0.10566000000E+00  0.10566000000E+00 0.  1.
     999900   -1    0    0    0    0 -0.00000000000E+00 -0.00000000000E+00 -0.74505805969E-08  0.93827000000E+00  0.93827000000E+00 0.  1.
     999902    2    1    2    0    0 -0.63232695847E-02 -0.27966314819E-02 -0.23024733515E-01  0.10198895499E+01  0.10196061744E+01 0.  0.
     999903    2    3    3    0    0 -0.10455103385E+00  0.63055573399E-01 -0.45049120347E-01  0.13170585262E+00  0.20250539641E-01 0.  0.
         14    1    1    2    0    0  0.63232695847E-02  0.27966314819E-02  0.23024733515E-01  0.24040450065E-01  0.00000000000E+00 0.  1.
     999901    1    3    3    0    0  0.98227764261E-01 -0.65852204881E-01  0.22024386831E-01  0.88818369731E+00  0.88000000000E+00 0. -1.
        -11    1    4    4    0    0 -0.59363064870E-01  0.24643775681E-01 -0.26922569398E-01  0.69687696293E-01  0.51100000000E-03 0. -1.
         11    1    4    4    0    0 -0.45187968975E-01  0.38411797718E-01 -0.18126550948E-01  0.62018156328E-01  0.51100000000E-03 0.  1.
</event>
<event>
 8    1  0.1044719E+005  0.1043930E+01  0.7957747E-01            NaN
         13   -1    0    0    0    0  0.00000000000E+00  0.00000000000E+00  0.74505805969E-08  0.10566000000E+00  0.10566000000E+00 0. -1.
     999900   -1    0    0    0    0 -0.00000000000E+00 -0.00000000000E+00 -0.74505805969E-08  0.93827000000E+00  0.93827000000E+00 0.  1.
     999902    2    1    2    0    0 -0.89959805083E-02  0.99367714897E-02  0.19462867265E-01  0.10202980239E+01  0.10200243072E+01 0.  0.
     999903    2    3    3    0    0  0.14864620046E-01  0.60018628815E-01  0.11633115006E+00  0.13324617371E+00  0.19960300607E-01 0.  0.
         14    1    1    2    0    0  0.89959805083E-02 -0.99367714897E-02 -0.19462867265E-01  0.23631976115E-01  0.00000000000E+00 0.  1.
     999901    1    3    3    0    0 -0.23860600554E-01 -0.50081857326E-01 -0.96868282791E-01  0.88705185018E+00  0.88000000000E+00 0.  1.
        -11    1    4    4    0    0  0.17008240735E-01  0.29916650436E-01  0.54810874285E-01  0.64720779407E-01  0.51100000000E-03 0.  1.
         11    1    4    4    0    0 -0.21436206898E-02  0.30101978380E-01  0.61520275771E-01  0.68525394300E-01  0.51100000000E-03 0. -1.
</event>
<event>
 8    1  0.1044719E+005  0.1043930E+01  0.7957747E-01            NaN
         13   -1    0    0    0    0  0.00000000000E+00  0.00000000000E+00  0.74505805969E-08  0.10566000000E+00  0.10566000000E+00 0. -1.
     999900   -1    0    0    0    0 -0.00000000000E+00 -0.00000000000E+00 -0.74505805969E-08  0.93827000000E+00  0.93827000000E+00 0.  1.
     999902    2    1    2    0    0  0.99921105646E-02 -0.20611137337E-01  0.25151452126E-02  0.10208868402E+01  0.10206267454E+01 0.  0.
     999903    2    3    3    0    0 -0.10728964822E-01  0.11897743412E+00  0.43751136719E-01  0.12869025920E+00  0.19397946619E-01 0.  0.
         14    1    1    2    0    0 -0.99921105646E-02  0.20611137337E-01 -0.25151452126E-02  0.23043159751E-01  0.00000000000E+00 0. -1.
     999901    1    3    3    0    0  0.20721075386E-01 -0.13958857145E+00 -0.41235991507E-01  0.89219658105E+00  0.88000000000E+00 0. -1.
        -11    1    4    4    0    0  0.13363786056E-02  0.81679008897E-01  0.32324511238E-01  0.87854320041E-01  0.51100000000E-03 0. -1.
         11    1    4    4    0    0 -0.12065343427E-01  0.37298425219E-01  0.11426625481E-01  0.40835939156E-01  0.51100000000E-03 0.  1.
</event>
<event>
 8    1  0.1044719E+005  0.1043930E+01  0.7957747E-01            NaN
         13   -1    0    0    0    0  0.00000000000E+00  0.00000000000E+00  0.74505805969E-08  0.10566000000E+00  0.10566000000E+00 0.  1.
     999900   -1    0    0    0    0 -0.00000000000E+00 -0.00000000000E+00 -0.74505805969E-08  0.93827000000E+00  0.93827000000E+00 0.  1.
     999902    2    1    2    0    0 -0.14367246957E-01  0.13903195613E-01  0.97749272530E-02  0.10216754311E+01  0.10214330231E+01 0.  0.
     999903    2    3    3    0    0  0.13285361381E-01 -0.21095135532E-01  0.12862085231E+00  0.13256694289E+00  0.20227830520E-01 0.  0.
         14    1    1    2    0    0  0.14367246957E-01 -0.13903195613E-01 -0.97749272530E-02  0.22254568883E-01  0.00000000000E+00 0. -1.
     999901    1    3    3    0    0 -0.27652608337E-01  0.34998331145E-01 -0.11884592506E+00  0.88910848823E+00  0.88000000000E+00 0.  1.
        -11    1    4    4    0    0  0.17252255153E-01 -0.12201373608E-01  0.69363557458E-01  0.72512606145E-01  0.51100000000E-03 0.  1.
         11    1    4    4    0    0 -0.39668937724E-02 -0.88937619234E-02  0.59257294857E-01  0.60054336747E-01  0.51100000000E-03 0. -1.
</event>
<event>
 8    1  0.1044719E+005  0.1043930E+01  0.7957747E-01            NaN
         13   -1    0    0    0    0  0.00000000000E+00  0.00000000000E+00  0.74505805969E-08  0.10566000000E+00  0.10566000000E+00 0. -1.
     999900   -1    0    0    0    0 -0.00000000000E+00 -0.00000000000E+00 -0.74505805969E-08  0.93827000000E+00  0.93827000000E+00 0.  1.
     999902    2    1    2    0    0 -0.94020430303E-03  0.22786340686E-01 -0.67265293533E-02  0.10201529627E+01  0.10198758355E+01 0.  0.
     999903    2    3    3    0    0  0.79746176172E-01 -0.10553497592E-01  0.99353529045E-01  0.12949319847E+00  0.20652742952E-01 0.  0.
         14    1    1    2    0    0  0.94020430303E-03 -0.22786340686E-01  0.67265293533E-02  0.23777037308E-01  0.00000000000E+00 0. -1.
     999901    1    3    3    0    0 -0.80686380475E-01  0.33339838278E-01 -0.10608005840E+00  0.89065976422E+00  0.88000000000E+00 0.  1.
        -11    1    4    4    0    0  0.55941254495E-01 -0.91805509444E-02  0.54222034066E-01  0.78447412764E-01  0.51100000000E-03 0. -1.
         11    1    4    4    0    0  0.23804921677E-01 -0.13729466473E-02  0.45131494979E-01  0.51045785708E-01  0.51100000000E-03 0.  1.
</event>
<event>
 8    1  0.1044719E+005  0.1043930E+01  0.7957747E-01            NaN
         13   -1    0    0    0    0  0.00000000000E+00  0.00000000000E+00  0.74505805969E-08  0.10566000000E+00  0.10566000000E+00 0. -1.
     999900   -1    0    0    0    0 -0.00000000000E+00 -0.00000000000E+00 -0.74505805969E-08  0.93827000000E+00  0.93827000000E+00 0. -1.
     999902    2    1    2    0    0 -0.18149349021E-01  0.45370686645E-02  0.14399900036E-01  0.10203219297E+01  0.10200487730E+01 0.  0.
     999903    2    3    3    0    0  0.73633686878E-01  0.40258291206E-01 -0.95881365836E-01  0.12798674099E+00  0.12029950156E-01 0.  0.
         14    1    1    2    0    0  0.18149349021E-01 -0.45370686645E-02 -0.14399900036E-01  0.23608070294E-01  0.00000000000E+00 0.  1.
     999901    1    3    3    0    0 -0.91783035899E-01 -0.35721222542E-01  0.11028126587E+00  0.89233518872E+00  0.88000000000E+00 0. -1.
        -11    1    4    4    0    0  0.23849412201E-01  0.14315515133E-01 -0.23726325083E-01  0.36564026840E-01  0.51100000000E-03 0.  1.
         11    1    4    4    0    0  0.49784274677E-01  0.25942776073E-01 -0.72155040753E-01  0.91422714150E-01  0.51100000000E-03 0. -1.
</event>
<event>
 8    1  0.1044719E+005  0.1043930E+01  0.7957747E-01            NaN
         13   -1    0    0    0    0  0.00000000000E+00  0.00000000000E+00  0.74505805969E-08  0.10566000000E+00  0.10566000000E+00 0. -1.
     999900   -1    0    0    0    0 -0.00000000000E+00 -0.00000000000E+00 -0.74505805969E-08  0.93827000000E+00  0.93827000000E+00 0. -1.
     999902    2    1    2    0    0  0.15547612292E-01  0.15467752058E-01 -0.11598882311E-01  0.10191204520E+01  0.10188184244E+01 0.  0.
     999903    2    3    3    0    0 -0.11389183077E+00  0.40270761977E-01  0.30099229513E-01  0.12832951622E+00  0.31135473793E-01 0.  0.
         14    1    1    2    0    0 -0.15547612292E-01 -0.15467752058E-01  0.11598882311E-01  0.24809548012E-01  0.00000000000E+00 0. -1.
     999901    1    3    3    0    0  0.12943944306E+00 -0.24803009919E-01 -0.41698111824E-01  0.89079093577E+00  0.88000000000E+00 0. -1.
        -11    1    4    4    0    0 -0.11146925498E+00  0.44125709268E-01  0.30573812835E-01  0.12372345039E+00  0.51100000000E-03 0. -1.
         11    1    4    4    0    0 -0.24225757934E-02 -0.38549472902E-02 -0.47458332110E-03  0.46060658282E-02  0.51100000000E-03 0.  1.
</event>
<event>
 8    1  0.1044719E+005  0.1043930E+01  0.7957747E-01            NaN
         13   -1    0    0    0    0  0.00000000000E+00  0.00000000000E+00  0.74505805969E-08  0.10566000000E+00  0.10566000000E+00 0.  1.
     999900   -1    0    0    0    0 -0.00000000000E+00 -0.00000000000E+00 -0.74505805969E-08  0.93827000000E+00  0.93827000000E+00 0.  1.
     999902    2    1    2    0    0 -0.41621153671E-02 -0.19780496755E-01  0.11839858931E-01  0.10205040845E+01  0.10202351754E+01 0.  0.
     999903    2    3    3    0    0 -0.56378635739E-01  0.44635024861E-01  0.10822357102E+00  0.13136644368E+00  0.19338179534E-01 0.  0.
         14    1    1    2    0    0  0.41621153671E-02  0.19780496755E-01 -0.11839858931E-01  0.23425915472E-01  0.00000000000E+00 0. -1.
     999901    1    3    3    0    0  0.52216520372E-01 -0.64415521616E-01 -0.96383712087E-01  0.88913764085E+00  0.88000000000E+00 0.  1.
        -11    1    4    4    0    0 -0.10764393294E-01  0.12750939837E-01  0.39843682567E-01  0.43199986010E-01  0.51100000000E-03 0.  1.
         11    1    4    4    0    0 -0.45614242445E-01  0.31884085024E-01  0.68379888452E-01  0.88166457666E-01  0.51100000000E-03 0. -1.
</event>
<event>
 8    1  0.1044719E+005  0.1043930E+01  0.7957747E-01            NaN
         13   -1    0    0    0    0  0.00000000000E+00  0.00000000000E+00  0.74505805969E-08  0.10566000000E+00  0.10566000000E+00 0. -1.
     999900   -1    0    0    0    0 -0.00000000000E+00 -0.00000000000E+00 -0.74505805969E-08  0.93827000000E+00  0.93827000000E+00 0. -1.
     999902    2    1    2    0    0  0.72060117576E-03 -0.24818414446E-01 -0.23349286073E-02  0.10189915788E+01  0.10186863662E+01 0.  0.
     999903    2    3    3    0    0  0.93455396477E-01 -0.60766684222E-01 -0.66135711611E-01  0.13109374666E+00  0.19624908180E-01 0.  0.
         14    1    1    2    0    0 -0.72060117576E-03  0.24818414446E-01  0.23349286073E-02  0.24938421227E-01  0.00000000000E+00 0.  1.
     999901    1    3    3    0    0 -0.92734795301E-01  0.35948269776E-01  0.63800783004E-01  0.88789783211E+00  0.88000000000E+00 0.  1.
        -11    1    4    4    0    0  0.34001133237E-01 -0.26878827667E-01 -0.15780564952E-01  0.46128470486E-01  0.51100000000E-03 0.  1.
         11    1    4    4    0    0  0.59454263240E-01 -0.33887856555E-01 -0.50355146660E-01  0.84965276174E-01  0.51100000000E-03 0. -1.
</event>
<event>
 8    1  0.1044719E+005  0.1043930E+01  0.7957747E-01            NaN
         13   -1    0    0    0    0  0.00000000000E+00  0.00000000000E+00  0.74505805969E-08  0.10566000000E+00  0.10566000000E+00 0. -1.
     999900   -1    0    0    0    0 -0.00000000000E+00 -0.00000000000E+00 -0.74505805969E-08  0.93827000000E+00  0.93827000000E+00 0.  1.
     999902    2    1    2    0    0 -0.17828223353E-01  0.12753653269E-01 -0.42932325550E-02  0.10215931903E+01  0.10213489675E+01 0.  0.
     999903    2    3    3    0    0 -0.80566360286E-01 -0.39540275685E-01 -0.96118890294E-01  0.13305355688E+00  0.20249348511E-01 0.  0.
         14    1    1    2    0    0  0.17828223353E-01 -0.12753653269E-01  0.42932325550E-02  0.22336809652E-01  0.00000000000E+00 0. -1.
     999901    1    3    3    0    0  0.62738136933E-01  0.52293928954E-01  0.91825657739E-01  0.88853963347E+00  0.88000000000E+00 0.  1.
        -11    1    4    4    0    0 -0.66329198503E-01 -0.23868754263E-01 -0.68989688386E-01  0.98636292655E-01  0.51100000000E-03 0.  1.
         11    1    4    4    0    0 -0.14237161783E-01 -0.15671521422E-01 -0.27129201908E-01  0.34417264222E-01  0.51100000000E-03 0. -1.
</event>
<event>
 8    1  0.1044719E+005  0.1043930E+01  0.7957747E-01            NaN
         13   -1    0    0    0    0  0.00000000000E+00  0.00000000000E+00  0.74505805969E-08  0.10566000000E+00  0.10566000000E+00 0.  1.
     999900   -1    0    0    0    0 -0.00000000000E+00 -0.00000000000E+00 -0.74505805969E-08  0.93827000000E+00  0.93827000000E+00 0. -1.
     999902    2    1    2    0    0  0.11747445646E-01  0.42321339553E-02 -0.19344241820E-01  0.10209058143E+01  0.10206461524E+01 0.  0.
     999903    2    3    3    0    0  0.92218422772E-01 -0.64573273079E-01 -0.69268149537E-01  0.13315463361E+00  0.16066574528E-01 0.  0.
         14    1    1    2    0    0 -0.11747445646E-01 -0.42321339553E-02  0.19344241820E-01  0.23024185732E-01  0.00000000000E+00 0.  1.
     999901    1    3    3    0    0 -0.80470977126E-01  0.68805407034E-01  0.49923907717E-01  0.88775118066E+00  0.88000000000E+00 0.  1.
        -11    1    4    4    0    0  0.49007298162E-01 -0.34310955971E-01 -0.27396802785E-01  0.65801237805E-01  0.51100000000E-03 0. -1.
         11    1    4    4    0    0  0.43211124610E-01 -0.30262317108E-01 -0.41871346752E-01  0.67353395806E-01  0.51100000000E-03 0.  1.
</event>
<event>
 8    1  0.1044719E+005  0.1043930E+01  0.7957747E-01            NaN
         13   -1    0    0    0    0  0.00000000000E+00  0.00000000000E+00  0.74505805969E-08  0.10566000000E+00  0.10566000000E+00 0.  1.
     999900   -1    0    0    0    0 -0.00000000000E+00 -0.00000000000E+00 -0.74505805969E-08  0.93827000000E+00  0.93827000000E+00 0.  1.
     999902    2    1    2    0    0  0.20321599367E-01 -0.36825797772E-02  0.78081698175E-02  0.10218506814E+01  0.10216121176E+01 0.  0.
     999903    2    3    3    0    0 -0.23853649651E-01 -0.11242637900E+00 -0.60514489429E-01  0.13143243569E+00  0.20094636693E-01 0.  0.
         14    1    1    2    0    0 -0.20321599367E-01  0.36825797772E-02 -0.78081698175E-02  0.22079318616E-01  0.00000000000E+00 0.  1.
     999901    1    3    3    0    0  0.44175249017E-01  0.10874379923E+00  0.68322659246E-01  0.89041824569E+00  0.88000000000E+00 0. -1.
        -11    1    4    4    0    0 -0.53193542008E-02 -0.51989648802E-01 -0.18117088477E-01  0.55314637553E-01  0.51100000000E-03 0. -1.
         11    1    4    4    0    0 -0.18534295450E-01 -0.60436730200E-01 -0.42397400952E-01  0.76117798139E-01  0.51100000000E-03 0.  1.
</event>
<event>
 7    1  0.1044719E+005  0.1043930E+01  0.7957747E-01            NaN
         13   -1    0    0    0    0  0.00000000000E+00  0.00000000000E+00  0.74505805969E-08  0.10566000000E+00  0.10566000000E+00 0. -1.
     999900   -1    0    0    0    0 -0.00000000000E+00 -0.00000000000E+00 -0.74505805969E-08  0.93827000000E+00  0.93827000000E+00 0.  1.
     999903    2    1    2    0    0  0.67707365807E-01  0.36770999447E-01 -0.47208292040E-01  0.92474669673E-01  0.19660821675E-01 0.  0.
         14    1    1    2    0    0 -0.63401692874E-01  0.22120510508E-01 -0.86749765159E-02  0.67707805030E-01  0.00000000000E+00 0.  1.
     999901    1    1    2    0    0 -0.43056729328E-02 -0.58891509956E-01  0.55883268556E-01  0.88374752530E+00  0.88000000000E+00 0. -1.
        -11    1    3    3    0    0  0.61693867881E-01  0.34947792846E-01 -0.35779727348E-01  0.79422487804E-01  0.51100000000E-03 0. -1.
         11    1    3    3    0    0  0.60134979256E-02  0.18232066017E-02 -0.11428564692E-01  0.13052181869E-01  0.51100000000E-03 0.  1.
</event>
<event>
 8    1  0.1044719E+005  0.1043930E+01  0.7957747E-01            NaN
         13   -1    0    0    0    0  0.00000000000E+00  0.00000000000E+00  0.74505805969E-08  0.10566000000E+00  0.10566000000E+00 0. -1.
     999900   -1    0    0    0    0 -0.00000000000E+00 -0.00000000000E+00 -0.74505805969E-08  0.93827000000E+00  0.93827000000E+00 0. -1.
     999902    2    1    2    0    0  0.23304572762E-01 -0.31224657042E-02  0.39085632074E-03  0.10204139274E+01  0.10201429201E+01 0.  0.
     999903    2    3    3    0    0 -0.55206405788E-01 -0.78702327769E-01  0.84667833506E-01  0.12969573501E+00  0.20261737655E-01 0.  0.
         14    1    1    2    0    0 -0.23304572762E-01  0.31224657042E-02 -0.39085632074E-03  0.23516072639E-01  0.00000000000E+00 0.  1.
     999901    1    3    3    0    0  0.78510978550E-01  0.75579862064E-01 -0.84276977185E-01  0.89071819235E+00  0.88000000000E+00 0. -1.
        -11    1    4    4    0    0 -0.25330522843E-01 -0.44900240594E-01  0.56606892296E-01  0.76565451539E-01  0.51100000000E-03 0. -1.
         11    1    4    4    0    0 -0.29875882945E-01 -0.33802087174E-01  0.28060941210E-01  0.53130283471E-01  0.51100000000E-03 0.  1.
</event>
<event>
 8    1  0.1044719E+005  0.1043930E+01  0.7957747E-01            NaN
         13   -1    0    0    0    0  0.00000000000E+00  0.00000000000E+00  0.74505805969E-08  0.10566000000E+00  0.10566000000E+00 0. -1.
     999900   -1    0    0    0    0 -0.00000000000E+00 -0.00000000000E+00 -0.74505805969E-08  0.93827000000E+00  0.93827000000E+00 0.  1.
     999902    2    1    2    0    0 -0.14767030960E-01 -0.99457895302E-02 -0.17304548426E-01  0.10191019649E+01  0.10187994815E+01 0.  0.
     999903    2    3    3    0    0  0.11181480148E+00  0.50039837185E-01  0.26698036280E-01  0.12693748273E+00  0.19844501635E-01 0.  0.
         14    1    1    2    0    0  0.14767030960E-01  0.99457895302E-02  0.17304548426E-01  0.24828035141E-01  0.00000000000E+00 0. -1.
     999901    1    3    3    0    0 -0.12658183244E+00 -0.59985626715E-01 -0.44002584706E-01  0.89216448213E+00  0.88000000000E+00 0.  1.
        -11    1    4    4    0    0  0.70572357954E-01  0.32245313096E-01  0.70608839617E-02  0.77912355420E-01  0.51100000000E-03 0. -1.
         11    1    4    4    0    0  0.41242443523E-01  0.17794524090E-01  0.19637152318E-01  0.49025127307E-01  0.51100000000E-03 0.  1.
</event>
<event>
 8    1  0.1044719E+005  0.1043930E+01  0.7957747E-01            NaN
         13   -1    0    0    0    0  0.00000000000E+00  0.00000000000E+00  0.74505805969E-08  0.10566000000E+00  0.10566000000E+00 0.  1.
     999900   -1    0    0    0    0 -0.00000000000E+00 -0.00000000000E+00 -0.74505805969E-08  0.93827000000E+00  0.93827000000E+00 0.  1.
     999902    2    1    2    0    0  0.20743464488E-01 -0.31997880904E-02 -0.12172540309E-01  0.10196668448E+01  0.10193781309E+01 0.  0.
     999903    2    3    3    0    0 -0.50477046309E-02  0.11290421884E+00  0.58154844609E-01  0.12888557765E+00  0.21369703376E-01 0.  0.
         14    1    1    2    0    0 -0.20743464488E-01  0.31997880904E-02  0.12172540309E-01  0.24263155202E-01  0.00000000000E+00 0. -1.
     999901    1    3    3    0    0  0.25791169118E-01 -0.11610400693E+00 -0.70327384918E-01  0.89078126715E+00  0.88000000000E+00 0. -1.
        -11    1    4    4    0    0  0.24641203029E-02  0.13061784822E-01  0.14438988643E-01  0.19632310757E-01  0.51100000000E-03 0. -1.
         11    1    4    4    0    0 -0.75118249339E-02  0.99842434013E-01  0.43715855966E-01  0.10925326690E+00  0.51100000000E-03 0.  1.
</event>
<event>
 8    1  0.1044719E+005  0.1043930E+01  0.7957747E-01            NaN
         13   -1    0    0    0    0  0.00000000000E+00  0.00000000000E+00  0.74505805969E-08  0.10566000000E+00  0.10566000000E+00 0.  1.
     999900   -1    0    0    0    0 -0.00000000000E+00 -0.00000000000E+00 -0.74505805969E-08  0.93827000000E+00  0.93827000000E+00 0. -1.
     999902    2    1    2    0    0  0.19973632707E-01 -0.60669509415E-02 -0.11043659707E-01  0.10203139818E+01  0.10200406389E+01 0.  0.
     999903    2    3    3    0    0  0.50959926315E-01 -0.18955887266E-01  0.11525142815E+00  0.13066420557E+00  0.28879113123E-01 0.  0.
         14    1    1    2    0    0 -0.19973632707E-01  0.60669509415E-02  0.11043659707E-01  0.23616018228E-01  0.00000000000E+00 0.  1.
     999901    1    3    3    0    0 -0.30986293609E-01  0.12888936325E-01 -0.12629508786E+00  0.88964977620E+00  0.88000000000E+00 0. -1.
        -11    1    4    4    0    0  0.31621590650E-01 -0.13266888293E-01  0.39671554856E-01  0.52440716107E-01  0.51100000000E-03 0. -1.
         11    1    4    4    0    0  0.19338335666E-01 -0.56889989733E-02  0.75579873298E-01  0.78223489467E-01  0.51100000000E-03 0.  1.
</event>
<event>
 8    1  0.1044719E+005  0.1043930E+01  0.7957747E-01            NaN
         13   -1    0    0    0    0  0.00000000000E+00  0.00000000000E+00  0.74505805969E-08  0.10566000000E+00  0.10566000000E+00 0. -1.
     999900   -1    0    0    0    0 -0.00000000000E+00 -0.00000000000E+00 -0.74505805969E-08  0.93827000000E+00  0.93827000000E+00 0.  1.
     999902    2    1    2    0    0 -0.19852572438E-01 -0.12027428362E-01 -0.53356154050E-02  0.10201129377E+01  0.10198348656E+01 0.  0.
     999903    2    3    3    0    0  0.67884745750E-01  0.10662354722E+00  0.30962845062E-02  0.12778621056E+00  0.18515104737E-01 0.  0.
         14    1    1    2    0    0  0.19852572438E-01  0.12027428362E-01  0.53356154050E-02  0.23817062312E-01  0.00000000000E+00 0.  1.
     999901    1    3    3    0    0 -0.87737318188E-01 -0.11865097559E+00 -0.84318999112E-02  0.89232672713E+00  0.88000000000E+00 0. -1.
        -11    1    4    4    0    0  0.48740539173E-01  0.60641623923E-01  0.47528175022E-02  0.77948041067E-01  0.51100000000E-03 0.  1.
         11    1    4    4    0    0  0.19144206577E-01  0.45981923301E-01 -0.16565329961E-02  0.49838169494E-01  0.51100000000E-03 0. -1.
</event>
<event>
 8    1  0.1044719E+005  0.1043930E+01  0.7957747E-01            NaN
         13   -1    0    0    0    0  0.00000000000E+00  0.00000000000E+00  0.74505805969E-08  0.10566000000E+00  0.10566000000E+00 0.  1.
     999900   -1    0    0    0    0 -0.00000000000E+00 -0.00000000000E+00 -0.74505805969E-08  0.93827000000E+00  0.93827000000E+00 0. -1.
     999902    2    1    2    0    0 -0.19831153602E-01 -0.80281248225E-02 -0.10273515458E-01  0.10201966783E+01  0.10199205811E+01 0.  0.
     999903    2    3    3    0    0  0.61681471873E-01 -0.16294057088E-01 -0.11272550456E+00  0.13047253908E+00  0.15682595725E-01 0.  0.
         14    1    1    2    0    0  0.19831153602E-01  0.80281248225E-02  0.10273515458E-01  0.23733321748E-01  0.00000000000E+00 0.  1.
     999901    1    3    3    0    0 -0.81512625475E-01  0.82659322656E-02  0.10245198910E+00  0.88972413917E+00  0.88000000000E+00 0. -1.
        -11    1    4    4    0    0  0.49512892011E-01 -0.19286580928E-01 -0.92315362754E-01  0.10651706906E+00  0.51100000000E-03 0. -1.
         11    1    4    4    0    0  0.12168579862E-01  0.29925238399E-02 -0.20410141802E-01  0.23955470026E-01  0.51100000000E-03 0.  1.
</event>
<event>
 8    1  0.1044719E+005  0.1043930E+01  0.7957747E-01            NaN
         13   -1    0    0    0    0  0.00000000000E+00  0.00000000000E+00  0.74505805969E-08  0.10566000000E+00  0.10566000000E+00 0. -1.
     999900   -1    0    0    0    0 -0.00000000000E+00 -0.00000000000E+00 -0.74505805969E-08  0.93827000000E+00  0.93827000000E+00 0. -1.
     999902    2    1    2    0    0  0.25062662761E-02  0.22732142939E-01  0.11086500790E-01  0.10185146072E+01  0.10181974577E+01 0.  0.
     999903    2    3    3    0    0 -0.34887939900E-01  0.74411977384E-01 -0.97935187211E-01  0.12949556327E+00  0.20578855288E-01 0.  0.
         14    1    1    2    0    0 -0.25062662761E-02 -0.22732142939E-01 -0.11086500790E-01  0.25415392836E-01  0.00000000000E+00 0. -1.
     999901    1    3    3    0    0  0.37394206176E-01 -0.51679834446E-01  0.10902168800E+00  0.88901904389E+00  0.88000000000E+00 0.  1.
        -11    1    4    4    0    0 -0.70443010397E-02  0.28451016056E-01 -0.47369464991E-01  0.55706461261E-01  0.51100000000E-03 0.  1.
         11    1    4    4    0    0 -0.27843638860E-01  0.45960961329E-01 -0.50565722221E-01  0.73789102013E-01  0.51100000000E-03 0. -1.
</event>
<event>
 8    1  0.1044719E+005  0.1043930E+01  0.7957747E-01            NaN
         13   -1    0    0    0    0  0.00000000000E+00  0.00000000000E+00  0.74505805969E-08  0.10566000000E+00  0.10566000000E+00 0. -1.
     999900   -1    0    0    0    0 -0.00000000000E+00 -0.00000000000E+00 -0.74505805969E-08  0.93827000000E+00  0.93827000000E+00 0. -1.
     999902    2    1    2    0    0 -0.32082786020E-02  0.10384711664E-01 -0.20177195500E-01  0.10210115684E+01  0.10207543134E+01 0.  0.
     999903    2    3    3    0    0  0.47535243339E-01 -0.10031340975E+00  0.62083109780E-01  0.12882563660E+00  0.20478100255E-01 0.  0.
         14    1    1    2    0    0  0.32082786020E-02 -0.10384711664E-01  0.20177195500E-01  0.22918431582E-01  0.00000000000E+00 0. -1.
     999901    1    3    3    0    0 -0.50743521941E-01  0.11069812142E+00 -0.82260305280E-01  0.89218593182E+00  0.88000000000E+00 0. -1.
        -11    1    4    4    0    0  0.18060068481E-01 -0.52486185152E-01  0.21538455420E-01  0.59541010138E-01  0.51100000000E-03 0. -1.
         11    1    4    4    0    0  0.29475174858E-01 -0.47827224603E-01  0.40544654361E-01  0.69284626465E-01  0.51100000000E-03 0.  1.
</event>
<event>
 8    1  0.1044719E+005  0.1043930E+01  0.7957747E-01            NaN
         13   -1    0    0    0    0  0.00000000000E+00  0.00000000000E+00  0.74505805969E-08  0.10566000000E+00  0.10566000000E+00 0. -1.
     999900   -1    0    0    0    0 -0.00000000000E+00 -0.00000000000E+00 -0.74505805969E-08  0.93827000000E+00  0.93827000000E+00 0.  1.
     999902    2    1    2    0    0 -0.15689928971E-02  0.10558417226E-01  0.18927561339E-01  0.10221999634E+01  0.10219689676E+01 0.  0.
     999903    2    3    3    0    0  0.38866857495E-01  0.10052846883E+00 -0.73357374413E-01  0.13189317494E+00  0.19947419816E-01 0.  0.
         14    1    1    2    0    0  0.15689928971E-02 -0.10558417226E-01 -0.18927561339E-01  0.21730036615E-01  0.00000000000E+00 0.  1.
     999901    1    3    3    0    0 -0.40435850392E-01 -0.89970051608E-01  0.92284935752E-01  0.89030678844E+00  0.88000000000E+00 0. -1.
        -11    1    4    4    0    0  0.26494761106E-01  0.42471506452E-01 -0.29731336360E-01  0.58223832827E-01  0.51100000000E-03 0.  1.
         11    1    4    4    0    0  0.12372096389E-01  0.58056962383E-01 -0.43626038053E-01  0.73669342114E-01  0.51100000000E-03 0. -1.
</event>
<event>
 8    1  0.1044719E+005  0.1043930E+01  0.7957747E-01            NaN
         13   -1    0    0    0    0  0.00000000000E+00  0.00000000000E+00  0.74505805969E-08  0.10566000000E+00  0.10566000000E+00 0.  1.
     999900   -1    0    0    0    0 -0.00000000000E+00 -0.00000000000E+00 -0.74505805969E-08  0.93827000000E+00  0.93827000000E+00 0. -1.
     999902    2    1    2    0    0  0.19864671203E-01 -0.43357518247E-02  0.16124507624E-01  0.10179799778E+01  0.10176491692E+01 0.  0.
     999903    2    3    3    0    0 -0.22087069795E-01  0.87525834942E-01 -0.85971912911E-01  0.12633981564E+00  0.20541878493E-01 0.  0.
         14    1    1    2    0    0 -0.19864671203E-01  0.43357518247E-02 -0.16124507624E-01  0.25950022197E-01  0.00000000000E+00 0.  1.
     999901    1    3    3    0    0  0.41951740998E-01 -0.91861586767E-01  0.10209642053E+00  0.89164016216E+00  0.88000000000E+00 0.  1.
        -11    1    4    4    0    0 -0.13637903812E-01  0.34000533253E-01 -0.22988008452E-01  0.43252032732E-01  0.51100000000E-03 0. -1.
         11    1    4    4    0    0 -0.84491659834E-02  0.53525301689E-01 -0.62983904459E-01  0.83087782908E-01  0.51100000000E-03 0.  1.
</event>
<event>
 8    1  0.1044719E+005  0.1043930E+01  0.7957747E-01            NaN
         13   -1    0    0    0    0  0.00000000000E+00  0.00000000000E+00  0.74505805969E-08  0.10566000000E+00  0.10566000000E+00 0. -1.
     999900   -1    0    0    0    0 -0.00000000000E+00 -0.00000000000E+00 -0.74505805969E-08  0.93827000000E+00  0.93827000000E+00 0.  1.
     999902    2    1    2    0    0  0.55396334395E-02  0.18085288184E-01  0.12143160086E-01  0.10214528666E+01  0.10212055313E+01 0.  0.
     999903    2    3    3    0    0 -0.75222212372E-01 -0.41151648755E-01 -0.94633154113E-01  0.12935832472E+00  0.20647103636E-01 0.  0.
         14    1    1    2    0    0 -0.55396334395E-02 -0.18085288184E-01 -0.12143160086E-01  0.22477133363E-01  0.00000000000E+00 0.  1.
     999901    1    3    3    0    0  0.80761845812E-01  0.59236936939E-01  0.10677631420E+00  0.89209454191E+00  0.88000000000E+00 0. -1.
        -11    1    4    4    0    0 -0.28870763806E-01 -0.22898694615E-01 -0.28644745688E-01  0.46676051615E-01  0.51100000000E-03 0. -1.
         11    1    4    4    0    0 -0.46351448566E-01 -0.18252954140E-01 -0.65988408425E-01  0.82682273109E-01  0.51100000000E-03 0.  1.
</event>
<event>
 8    1  0.1044719E+005  0.1043930E+01  0.7957747E-01            NaN
         13   -1    0    0    0    0  0.00000000000E+00  0.00000000000E+00  0.74505805969E-08  0.10566000000E+00  0.10566000000E+00 0.  1.
     999900   -1    0    0    0    0 -0.00000000000E+00 -0.00000000000E+00 -0.74505805969E-08  0.93827000000E+00  0.93827000000E+00 0. -1.
     999902    2    1    2    0    0  0.67855667109E-02 -0.22296508366E-01 -0.16731943591E-02  0.10205638326E+01  0.10202963092E+01 0.  0.
     999903    2    3    3    0    0  0.10899178979E+00  0.16401819325E-01  0.68004167558E-01  0.13107037708E+00  0.20165490930E-01 0.  0.
         14    1    1    2    0    0 -0.67855667109E-02  0.22296508366E-01  0.16731943591E-02  0.23366167428E-01  0.00000000000E+00 0.  1.
     999901    1    3    3    0    0 -0.10220622308E+00 -0.38698327691E-01 -0.69677361917E-01  0.88949345549E+00  0.88000000000E+00 0. -1.
        -11    1    4    4    0    0  0.66173213998E-01  0.12010954956E-03  0.38056245675E-01  0.76337720905E-01  0.51100000000E-03 0.  1.
         11    1    4    4    0    0  0.42818575789E-01  0.16281709775E-01  0.29947921883E-01  0.54732656174E-01  0.51100000000E-03 0. -1.
</event>
<event>
 8    1  0.1044719E+005  0.1043930E+01  0.7957747E-01            NaN
         13   -1    0    0    0    0  0.00000000000E+00  0.00000000000E+00  0.74505805969E-08  0.10566000000E+00  0.10566000000E+00 0.  1.
     999900   -1    0    0    0    0 -0.00000000000E+00 -0.00000000000E+00 -0.74505805969E-08  0.93827000000E+00  0.93827000000E+00 0.  1.
     999902    2    1    2    0    0  0.28881725812E-01 -0.15499932929E-02 -0.17307398098E-01  0.10102238790E+01  0.10096614200E+01 0.  0.
     999903    2    3    3    0    0  0.17385643681E-01  0.10815080334E+00 -0.51136582532E-01  0.12269312548E+00  0.20971316088E-01 0.  0.
         14    1    1    2    0    0 -0.28881725812E-01  0.15499932929E-02  0.17307398098E-01  0.33706121017E-01  0.00000000000E+00 0. -1.
     999901    1    3    3    0    0  0.11496082132E-01 -0.10970079663E+00  0.33829184433E-01  0.88753075350E+00  0.88000000000E+00 0. -1.
        -11    1    4    4    0    0  0.10799984078E-01  0.59763553311E-01 -0.16865789775E-01  0.63032039045E-01  0.51100000000E-03 0.  1.
         11    1    4    4    0    0  0.65856596028E-02  0.48387250030E-01 -0.34270792757E-01  0.59661086439E-01  0.51100000000E-03 0. -1.
</event>
<event>
 8    1  0.1044719E+005  0.1043930E+01  0.7957747E-01            NaN
         13   -1    0    0    0    0  0.00000000000E+00  0.00000000000E+00  0.74505805969E-08  0.10566000000E+00  0.10566000000E+00 0. -1.
     999900   -1    0    0    0    0 -0.00000000000E+00 -0.00000000000E+00 -0.74505805969E-08  0.93827000000E+00  0.93827000000E+00 0.  1.
     999902    2    1    2    0    0  0.19084522324E-01  0.28535822135E-02 -0.12131306229E-01  0.10211367880E+01  0.10208823680E+01 0.  0.
     999903    2    3    3    0    0 -0.38825930753E-01 -0.11534150611E+00 -0.43259665902E-01  0.13080388717E+00  0.20667420598E-01 0.  0.
         14    1    1    2    0    0 -0.19084522324E-01 -0.28535822135E-02  0.12131306229E-01  0.22793212029E-01  0.00000000000E+00 0.  1.
     999901    1    3    3    0    0  0.57910453078E-01  0.11819508832E+00  0.31128359674E-01  0.89033290080E+00  0.88000000000E+00 0. -1.
        -11    1    4    4    0    0 -0.19714417820E-01 -0.79156671125E-01 -0.36313072630E-01  0.89293545222E-01  0.51100000000E-03 0.  1.
         11    1    4    4    0    0 -0.19111512933E-01 -0.36184834982E-01 -0.69465932726E-02  0.41510341944E-01  0.51100000000E-03 0. -1.
</event>
<event>
 8    1  0.1044719E+005  0.1043930E+01  0.7957747E-01            NaN
         13   -1    0    0    0    0  0.00000000000E+00  0.00000000000E+00  0.74505805969E-08  0.10566000000E+00  0.10566000000E+00 0.  1.
     999900   -1    0    0    0    0 -0.00000000000E+00 -0.00000000000E+00 -0.74505805969E-08  0.93827000000E+00  0.93827000000E+00 0. -1.
     999902    2    1    2    0    0  0.11488740148E-02  0.23593586414E-01 -0.84193409389E-02  0.10188528683E+01  0.10185442085E+01 0.  0.
     999903    2    3    3    0    0 -0.43685719665E-01  0.10512570102E+00 -0.64238546325E-01  0.13218866458E+00  0.19682405644E-01 0.  0.
         14    1    1    2    0    0 -0.11488740148E-02 -0.23593586414E-01  0.84193409389E-02  0.25077131678E-01  0.00000000000E+00 0. -1.
     999901    1    3    3    0    0  0.44834593680E-01 -0.81532114608E-01  0.55819205386E-01  0.88666420374E+00  0.88000000000E+00 0. -1.
        -11    1    4    4    0    0 -0.12922802244E-01  0.23278211514E-01 -0.65166663598E-02  0.27415360850E-01  0.51100000000E-03 0.  1.
         11    1    4    4    0    0 -0.30762917421E-01  0.81847489509E-01 -0.57721879966E-01  0.10477330373E+00  0.51100000000E-03 0. -1.
</event>
<event>
 8    1  0.1044719E+005  0.1043930E+01  0.7957747E-01            NaN
         13   -1    0    0    0    0  0.00000000000E+00  0.00000000000E+00  0.74505805969E-08  0.10566000000E+00  0.10566000000E+00 0. -1.
     999900   -1    0    0    0    0 -0.00000000000E+00 -0.00000000000E+00 -0.74505805969E-08  0.93827000000E+00  0.93827000000E+00 0. -1.
     999902    2    1    2    0    0  0.11638329568E-01 -0.10557607229E-01  0.20590284291E-01  0.10180287724E+01  0.10176992226E+01 0.  0.
     999903    2    3    3    0    0 -0.12375031025E+00  0.14813337533E-01  0.18838055112E-01  0.12731173597E+00  0.17883834538E-01 0.  0.
         14    1    1    2    0    0 -0.11638329568E-01  0.10557607229E-01 -0.20590284291E-01  0.25901227629E-01  0.00000000000E+00 0.  1.
     999901    1    3    3    0    0  0.13538863982E+00 -0.25370944762E-01  0.17522291793E-02  0.89071703640E+00  0.88000000000E+00 0.  1.
        -11    1    4    4    0    0 -0.29463335093E-01  0.58065042092E-02  0.12015803526E-01  0.32348790724E-01  0.51100000000E-03 0.  1.
         11    1    4    4    0    0 -0.94286975162E-01  0.90068333241E-02  0.68222515852E-02  0.94962945244E-01  0.51100000000E-03 0. -1.
</event>
<event>
 8    1  0.1044719E+005  0.1043930E+01  0.7957747E-01            NaN
         13   -1    0    0    0    0  0.00000000000E+00  0.00000000000E+00  0.74505805969E-08  0.10566000000E+00  0.10566000000E+00 0. -1.
     999900   -1    0    0    0    0 -0.00000000000E+00 -0.00000000000E+00 -0.74505805969E-08  0.93827000000E+00  0.93827000000E+00 0.  1.
     999902    2    1    2    0    0  0.31199617184E-02  0.40677213877E-02  0.23028188116E-01  0.10203380953E+01  0.10200653169E+01 0.  0.
     999903    2    3    3    0    0  0.77906565481E-01 -0.99586230727E-01  0.28248689677E-01  0.13108873124E+00  0.19985412011E-01 0.  0.
         14    1    1    2    0    0 -0.31199617184E-02 -0.40677213877E-02 -0.23028188116E-01  0.23591904677E-01  0.00000000000E+00 0.  1.
     999901    1    3    3    0    0 -0.74786603762E-01  0.10365395211E+00 -0.52205015615E-02  0.88924936409E+00  0.88000000000E+00 0. -1.
        -11    1    4    4    0    0  0.49887884344E-01 -0.71752414064E-01  0.11343314567E-01  0.88125716081E-01  0.51100000000E-03 0. -1.
         11    1    4    4    0    0  0.28018681136E-01 -0.27833816663E-01  0.16905375110E-01  0.42963015156E-01  0.51100000000E-03 0.  1.
</event>
<event>
 8    1  0.1044719E+005  0.1043930E+01  0.7957747E-01            NaN
         13   -1    0    0    0    0  0.00000000000E+00  0.00000000000E+00  0.74505805969E-08  0.10566000000E+00  0.10566000000E+00 0.  1.
     999900   -1    0    0    0    0 -0.00000000000E+00 -0.00000000000E+00 -0.74505805969E-08  0.93827000000E+00  0.93827000000E+00 0. -1.
     999902    2    1    2    0    0 -0.45428904123E-02  0.12360327318E-01  0.22945122558E-01  0.10174744865E+01  0.10171304914E+01 0.  0.
     999903    2    3    3    0    0 -0.10408062064E+00 -0.45620633176E-01  0.57540608759E-01  0.12929297399E+00  0.22175069415E-01 0.  0.
         14    1    1    2    0    0  0.45428904123E-02 -0.12360327318E-01 -0.22945122558E-01  0.26455513488E-01  0.00000000000E+00 0. -1.
     999901    1    3    3    0    0  0.99537730225E-01  0.57980960494E-01 -0.34595486200E-01  0.88818151252E+00  0.88000000000E+00 0. -1.
        -11    1    4    4    0    0 -0.64069782956E-01 -0.34107323054E-01  0.26161142670E-01  0.77155123490E-01  0.51100000000E-03 0. -1.
         11    1    4    4    0    0 -0.40010837681E-01 -0.11513310123E-01  0.31379466088E-01  0.52137850501E-01  0.51100000000E-03 0.  1.
</event>
<event>
 8    1  0.1044719E+005  0.1043930E+01  0.7957747E-01            NaN
         13   -1    0    0    0    0  0.00000000000E+00  0.00000000000E+00  0.74505805969E-08  0.10566000000E+00  0.10566000000E+00 0. -1.
     999900   -1    0    0    0    0 -0.00000000000E+00 -0.00000000000E+00 -0.74505805969E-08  0.93827000000E+00  0.93827000000E+00 0. -1.
     999902    2    1    2    0    0 -0.80187624827E-02 -0.18102699627E-01  0.10312272184E-01  0.10216062180E+01  0.10213622831E+01 0.  0.
     999903    2    3    3    0    0  0.19642783378E-01  0.11224212214E+00 -0.56920071866E-01  0.12903962565E+00  0.20668756249E-01 0.  0.
         14    1    1    2    0    0  0.80187624827E-02  0.18102699627E-01 -0.10312272184E-01  0.22323782008E-01  0.00000000000E+00 0.  1.
     999901    1    3    3    0    0 -0.27661545860E-01 -0.13034482177E+00  0.67232344051E-01  0.89256659234E+00  0.88000000000E+00 0.  1.
        -11    1    4    4    0    0 -0.42961798502E-02  0.15444716630E-01 -0.65554147956E-02  0.17327175685E-01  0.51100000000E-03 0.  1.
         11    1    4    4    0    0  0.23938963228E-01  0.96797405511E-01 -0.50364657071E-01  0.11171244996E+00  0.51100000000E-03 0. -1.
</event>
<event>
 8    1  0.1044719E+005  0.1043930E+01  0.7957747E-01            NaN
         13   -1    0    0    0    0  0.00000000000E+00  0.00000000000E+00  0.74505805969E-08  0.10566000000E+00  0.10566000000E+00 0. -1.
     999900   -1    0    0    0    0 -0.00000000000E+00 -0.00000000000E+00 -0.74505805969E-08  0.93827000000E+00  0.93827000000E+00 0. -1.
     999902    2    1    2    0    0  0.11518293537E-01 -0.11542304798E-01 -0.16493398400E-01  0.10207367235E+01  0.10204731895E+01 0.  0.
     999903    2    3    3    0    0 -0.21895245888E-01 -0.12880668766E+00 -0.44389365881E-02  0.13224771950E+00  0.19979754152E-01 0.  0.
         14    1    1    2    0    0 -0.11518293537E-01  0.11542304798E-01  0.16493398400E-01  0.23193276544E-01  0.00000000000E+00 0. -1.
     999901    1    3    3    0    0  0.33413539425E-01  0.11726438286E+00 -0.12054461812E-01  0.88848900396E+00  0.88000000000E+00 0.  1.
        -11    1    4    4    0    0 -0.99716012940E-03 -0.38632869120E-01 -0.85798033506E-02  0.39589986755E-01  0.51100000000E-03 0. -1.
         11    1    4    4    0    0 -0.20898085759E-01 -0.90173818540E-01  0.41408667625E-02  0.92657732743E-01  0.51100000000E-03 0.  1.
</event>
<event>
 8    1  0.1044719E+005  0.1043930E+01  0.7957747E-01            NaN
         13   -1    0    0    0    0  0.00000000000E+00  0.00000000000E+00  0.74505805969E-08  0.10566000000E+00  0.10566000000E+00 0. -1.
     999900   -1    0    0    0    0 -0.00000000000E+00 -0.00000000000E+00 -0.74505805969E-08  0.93827000000E+00  0.93827000000E+00 0. -1.
     999902    2    1    2    0    0  0.15481975901E-01 -0.47156294622E-02  0.16340727775E-01  0.10209311278E+01  0.10206720431E+01 0.  0.
     999903    2    3    3    0    0  0.23841243193E-02 -0.47639085126E-01  0.12307871172E+00  0.13334621693E+00  0.18912371876E-01 0.  0.
         14    1    1    2    0    0 -0.15481975901E-01  0.47156294622E-02 -0.16340727775E-01  0.22998872216E-01  0.00000000000E+00 0.  1.
     999901    1    3    3    0    0  0.13097851582E-01  0.42923455664E-01 -0.10673798394E+00  0.88758491086E+00  0.88000000000E+00 0. -1.
        -11    1    4    4    0    0 -0.72530837093E-02 -0.29270101393E-01  0.80921768002E-01  0.86359363803E-01  0.51100000000E-03 0.  1.
         11    1    4    4    0    0  0.96372080287E-02 -0.18368983733E-01  0.42156943717E-01  0.46986853125E-01  0.51100000000E-03 0. -1.
</event>
<event>
 8    1  0.1044719E+005  0.1043930E+01  0.7957747E-01            NaN
         13   -1    0    0    0    0  0.00000000000E+00  0.00000000000E+00  0.74505805969E-08  0.10566000000E+00  0.10566000000E+00 0.  1.
     999900   -1    0    0    0    0 -0.00000000000E+00 -0.00000000000E+00 -0.74505805969E-08  0.93827000000E+00  0.93827000000E+00 0. -1.
     999902    2    1    2    0    0  0.21297673281E-01 -0.85894024012E-02  0.53955065996E-02  0.10203401672E+01  0.10200674373E+01 0.  0.
     999903    2    3    3    0    0 -0.12588243196E+00 -0.20438583444E-01  0.89134677556E-02  0.12803149721E+00  0.69636197848E-02 0.  0.
         14    1    1    2    0    0 -0.21297673281E-01  0.85894024012E-02 -0.53955065996E-02  0.23589832815E-01  0.00000000000E+00 0. -1.
     999901    1    3    3    0    0  0.14718010524E+00  0.11849181042E-01 -0.35179611560E-02  0.89230866998E+00  0.88000000000E+00 0.  1.
        -11    1    4    4    0    0 -0.99977032172E-01 -0.18477949196E-01  0.54542256641E-02  0.10181773552E+00  0.51100000000E-03 0. -1.
         11    1    4    4    0    0 -0.25905399786E-01 -0.19606342475E-02  0.34592420915E-02  0.26213761683E-01  0.51100000000E-03 0.  1.
</event>
<event>
 8    1  0.1044719E+005  0.1043930E+01  0.7957747E-01            NaN
         13   -1    0    0    0    0  0.00000000000E+00  0.00000000000E+00  0.74505805969E-08  0.10566000000E+00  0.10566000000E+00 0.  1.
     999900   -1    0    0    0    0 -0.00000000000E+00 -0.00000000000E+00 -0.74505805969E-08  0.93827000000E+00  0.93827000000E+00 0.  1.
     999902    2    1    2    0    0 -0.53830724069E-02  0.56516192503E-02 -0.22304730233E-01  0.10202991037E+01  0.10200254123E+01 0.  0.
     999903    2    3    3    0    0  0.11932781294E+00 -0.15022653811E-01  0.42122977025E-01  0.12893432992E+00  0.19619102139E-01 0.  0.
         14    1    1    2    0    0  0.53830724069E-02 -0.56516192503E-02  0.22304730233E-01  0.23630896290E-01  0.00000000000E+00 0.  1.
     999901    1    3    3    0    0 -0.12471088535E+00  0.20674273061E-01 -0.64427707258E-01  0.89136477379E+00  0.88000000000E+00 0.  1.
        -11    1    4    4    0    0  0.88510996893E-01 -0.83480241457E-02  0.39514834212E-01  0.97291157470E-01  0.51100000000E-03 0.  1.
         11    1    4    4    0    0  0.30816816052E-01 -0.66746296655E-02  0.26081428131E-02  0.31643172450E-01  0.51100000000E-03 0. -1.
</event>
<event>
 8    1  0.1044719E+005  0.1043930E+01  0.7957747E-01            NaN
         13   -1    0    0    0    0  0.00000000000E+00  0.00000000000E+00  0.74505805969E-08  0.10566000000E+00  0.10566000000E+00 0. -1.
     999900   -1    0    0    0    0 -0.00000000000E+00 -0.00000000000E+00 -0.74505805969E-08  0.93827000000E+00  0.93827000000E+00 0. -1.
     999902    2    1    2    0    0 -0.14903626579E-01  0.14560371288E-01  0.10971433574E-01  0.10203822856E+01  0.10201105401E+01 0.  0.
     999903    2    3    3    0    0  0.12336201204E+00 -0.27203429245E-01  0.15116104709E-01  0.12859824218E+00  0.18729620779E-01 0.  0.
         14    1    1    2    0    0  0.14903626579E-01 -0.14560371288E-01 -0.10971433574E-01  0.23547714367E-01  0.00000000000E+00 0.  1.
     999901    1    3    3    0    0 -0.13826563861E+00  0.41763800533E-01 -0.41446711347E-02  0.89178404345E+00  0.88000000000E+00 0. -1.
        -11    1    4    4    0    0  0.92079725785E-01 -0.12109488880E-01  0.87813254083E-02  0.93288200853E-01  0.51100000000E-03 0.  1.
         11    1    4    4    0    0  0.31282286250E-01 -0.15093940365E-01  0.63347793003E-02  0.35310041328E-01  0.51100000000E-03 0. -1.
</event>
<event>
 8    1  0.1044719E+005  0.1043930E+01  0.7957747E-01            NaN
         13   -1    0    0    0    0  0.00000000000E+00  0.00000000000E+00  0.74505805969E-08  0.10566000000E+00  0.10566000000E+00 0. -1.
     999900   -1    0    0    0    0 -0.00000000000E+00 -0.00000000000E+00 -0.74505805969E-08  0.93827000000E+00  0.93827000000E+00 0.  1.
     999902    2    1    2    0    0 -0.14799635474E-01 -0.11668258832E-01  0.14146725602E-01  0.10203650404E+01  0.10200928920E+01 0.  0.
     999903    2    3    3    0    0 -0.85719761080E-01 -0.39451543996E-01 -0.88691860567E-01  0.13110841270E+00  0.20466264615E-01 0.  0.
         14    1    1    2    0    0  0.14799635474E-01  0.11668258832E-01 -0.14146725602E-01  0.23564959571E-01  0.00000000000E+00 0.  1.
     999901    1    3    3    0    0  0.70920125606E-01  0.27783285164E-01  0.10283858617E+00  0.88925662773E+00  0.88000000000E+00 0. -1.
        -11    1    4    4    0    0 -0.67416081779E-01 -0.26652135533E-01 -0.56441561363E-01  0.91875869417E-01  0.51100000000E-03 0.  1.
         11    1    4    4    0    0 -0.18303679301E-01 -0.12799408463E-01 -0.32250299204E-01  0.39232543286E-01  0.51100000000E-03 0. -1.
</event>
<event>
 8    1  0.1044719E+005  0.1043930E+01  0.7957747E-01            NaN
         13   -1    0    0    0    0  0.00000000000E+00  0.00000000000E+00  0.74505805969E-08  0.10566000000E+00  0.10566000000E+00 0.  1.
     999900   -1    0    0    0    0 -0.00000000000E+00 -0.00000000000E+00 -0.74505805969E-08  0.93827000000E+00  0.93827000000E+00 0.  1.
     999902    2    1    2    0    0 -0.77233794695E-02  0.18573572100E-01 -0.12076490644E-01  0.10204679072E+01  0.10201981572E+01 0.  0.
     999903    2    3    3    0    0 -0.87003253235E-01  0.98675365615E-01  0.55650349618E-02  0.13310506198E+00  0.19483173683E-01 0.  0.
         14    1    1    2    0    0  0.77233794695E-02 -0.18573572100E-01  0.12076490644E-01  0.23462092772E-01  0.00000000000E+00 0. -1.
     999901    1    3    3    0    0  0.79279873765E-01 -0.80101793515E-01 -0.17641525606E-01  0.88736284525E+00  0.88000000000E+00 0.  1.
        -11    1    4    4    0    0 -0.13395768640E-01  0.15194562173E-01 -0.61906033577E-02  0.21187402578E-01  0.51100000000E-03 0. -1.
         11    1    4    4    0    0 -0.73607484594E-01  0.83480803442E-01  0.11755638320E-01  0.11191765940E+00  0.51100000000E-03 0.  1.
</event>
<event>
 8    1  0.1044719E+005  0.1043930E+01  0.7957747E-01            NaN
         13   -1    0    0    0    0  0.00000000000E+00  0.00000000000E+00  0.74505805969E-08  0.10566000000E+00  0.10566000000E+00 0. -1.
     999900   -1    0    0    0    0 -0.00000000000E+00 -0.00000000000E+00 -0.74505805969E-08  0.93827000000E+00  0.93827000000E+00 0.  1.
     999902    2    1    2    0    0 -0.80213748936E-02 -0.75360299885E-02  0.20059746581E-01  0.10210492737E+01  0.10207928740E+01 0.  0.
     999903    2    3    3    0    0 -0.15353387259E-02 -0.14015104273E-01  0.13054415768E+00  0.13409332656E+00  0.27211444456E-01 0.  0.
         14    1    1    2    0    0  0.80213748936E-02  0.75360299885E-02 -0.20059746581E-01  0.22880726301E-01  0.00000000000E+00 0.  1.
     999901    1    3    3    0    0 -0.64860361677E-02  0.64790742840E-02 -0.11048441110E+00  0.88695594714E+00  0.88000000000E+00 0.  1.
        -11    1    4    4    0    0 -0.14237358567E-01 -0.82293670535E-02  0.78654378821E-01  0.80356687897E-01  0.51100000000E-03 0.  1.
         11    1    4    4    0    0  0.12702019841E-01 -0.57857372191E-02  0.51889778864E-01  0.53736638663E-01  0.51100000000E-03 0. -1.
</event>
<event>
 7    1  0.1044719E+005  0.1043930E+01  0.7957747E-01            NaN
         13   -1    0    0    0    0  0.00000000000E+00  0.00000000000E+00  0.74505805969E-08  0.10566000000E+00  0.10566000000E+00 0.  1.
     999900   -1    0    0    0    0 -0.00000000000E+00 -0.00000000000E+00 -0.74505805969E-08  0.93827000000E+00  0.93827000000E+00 0.  1.
     999903    2    1    2    0    0  0.17279620463E-01  0.78498349096E-01  0.52828507000E-02  0.83071783848E-01  0.20308536778E-01 0.  0.
         14    1    1    2    0    0 -0.52727278203E-01 -0.57275760675E-01  0.16671283446E-01  0.79615389965E-01  0.00000000000E+00 0.  1.
     999901    1    1    2    0    0  0.35447657740E-01 -0.21222588421E-01 -0.21954134146E-01  0.88124282619E+00  0.88000000000E+00 0.  1.
        -11    1    3    3    0    0  0.77775410984E-02  0.51780683491E-01  0.12439114895E-01  0.53821204267E-01  0.51100000000E-03 0. -1.
         11    1    3    3    0    0  0.95020793649E-02  0.26717665605E-01 -0.71562641948E-02  0.29250579582E-01  0.51100000000E-03 0.  1.
</event>
<event>
 8    1  0.1044719E+005  0.1043930E+01  0.7957747E-01            NaN
         13   -1    0    0    0    0  0.00000000000E+00  0.00000000000E+00  0.74505805969E-08  0.10566000000E+00  0.10566000000E+00 0.  1.
     999900   -1    0    0    0    0 -0.00000000000E+00 -0.00000000000E+00 -0.74505805969E-08  0.93827000000E+00  0.93827000000E+00 0. -1.
     999902    2    1    2    0    0  0.23979297110E-02 -0.19849868535E-01  0.11667455553E-01  0.10207805536E+01  0.10205180262E+01 0.  0.
     999903    2    3    3    0    0  0.55558319365E-01  0.72017018479E-01  0.91657845172E-01  0.13080077050E+00  0.20844739895E-01 0.  0.
         14    1    1    2    0    0 -0.23979297110E-02  0.19849868535E-01 -0.11667455553E-01  0.23149446362E-01  0.00000000000E+00 0. -1.
     999901    1    3    3    0    0 -0.53160389654E-01 -0.91866887014E-01 -0.79990389619E-01  0.88997978314E+00  0.88000000000E+00 0.  1.
        -11    1    4    4    0    0  0.40312334039E-01  0.52042490418E-01  0.52187689980E-01  0.84007863864E-01  0.51100000000E-03 0. -1.
         11    1    4    4    0    0  0.15245985326E-01  0.19974528062E-01  0.39470155192E-01  0.46792906639E-01  0.51100000000E-03 0.  1.
</event>
<event>
 8    1  0.1044719E+005  0.1043930E+01  0.7957747E-01            NaN
         13   -1    0    0    0    0  0.00000000000E+00  0.00000000000E+00  0.74505805969E-08  0.10566000000E+00  0.10566000000E+00 0.  1.
     999900   -1    0    0    0    0 -0.00000000000E+00 -0.00000000000E+00 -0.74505805969E-08  0.93827000000E+00  0.93827000000E+00 0.  1.
     999902    2    1    2    0    0 -0.18372009849E-01 -0.29515134700E-02  0.14585533434E-01  0.10202872429E+01  0.10200132735E+01 0.  0.
     999903    2    3    3    0    0  0.70532225080E-03  0.12520334820E+00 -0.27591573074E-01  0.12980056614E+00  0.20261199033E-01 0.  0.
         14    1    1    2    0    0  0.18372009849E-01  0.29515134700E-02 -0.14585533434E-01  0.23642757098E-01  0.00000000000E+00 0. -1.
     999901    1    3    3    0    0 -0.19077332100E-01 -0.12815486167E+00  0.42177106508E-01  0.89048667676E+00  0.88000000000E+00 0. -1.
        -11    1    4    4    0    0  0.99649304255E-02  0.44978503913E-01 -0.95885911121E-02  0.47059195203E-01  0.51100000000E-03 0.  1.
         11    1    4    4    0    0 -0.92596081747E-02  0.80224844289E-01 -0.18002981961E-01  0.82741370941E-01  0.51100000000E-03 0. -1.
</event>
<event>
 8    1  0.1044719E+005  0.1043930E+01  0.7957747E-01            NaN
         13   -1    0    0    0    0  0.00000000000E+00  0.00000000000E+00  0.74505805969E-08  0.10566000000E+00  0.10566000000E+00 0. -1.
     999900   -1    0    0    0    0 -0.00000000000E+00 -0.00000000000E+00 -0.74505805969E-08  0.93827000000E+00  0.93827000000E+00 0.  1.
     999902    2    1    2    0    0  0.20250339958E-01  0.47868310504E-02  0.34349272937E-02  0.10228399847E+01  0.10226225333E+01 0.  0.
     999903    2    3    3    0    0 -0.77236163283E-01 -0.68268602919E-01  0.78411601465E-01  0.13128952824E+00  0.21506601711E-01 0.  0.
         14    1    1    2    0    0 -0.20250339958E-01 -0.47868310504E-02 -0.34349272937E-02  0.21090015302E-01  0.00000000000E+00 0. -1.
     999901    1    3    3    0    0  0.97486503241E-01  0.73055433969E-01 -0.74976674171E-01  0.89155045646E+00  0.88000000000E+00 0.  1.
        -11    1    4    4    0    0 -0.26854439391E-01 -0.13332057728E-01  0.15542475406E-01  0.33774758933E-01  0.51100000000E-03 0. -1.
         11    1    4    4    0    0 -0.50381723892E-01 -0.54936545191E-01  0.62869126059E-01  0.97514769303E-01  0.51100000000E-03 0.  1.
</event>
<event>
 8    1  0.1044719E+005  0.1043930E+01  0.7957747E-01            NaN
         13   -1    0    0    0    0  0.00000000000E+00  0.00000000000E+00  0.74505805969E-08  0.10566000000E+00  0.10566000000E+00 0.  1.
     999900   -1    0    0    0    0 -0.00000000000E+00 -0.00000000000E+00 -0.74505805969E-08  0.93827000000E+00  0.93827000000E+00 0. -1.
     999902    2    1    2    0    0  0.15408215121E-01 -0.63335270141E-04  0.18403588411E-01  0.10199277257E+01  0.10196452601E+01 0.  0.
     999903    2    3    3    0    0  0.10522408524E+00 -0.76952282950E-01  0.13783531706E-02  0.13185753736E+00  0.19767355317E-01 0.  0.
         14    1    1    2    0    0 -0.15408215121E-01  0.63335270141E-04 -0.18403588411E-01  0.24002274288E-01  0.00000000000E+00 0. -1.
     999901    1    3    3    0    0 -0.89815870118E-01  0.76888947680E-01  0.17025235241E-01  0.88807018835E+00  0.88000000000E+00 0. -1.
        -11    1    4    4    0    0  0.16605289133E-01 -0.40573455872E-02  0.72297764002E-04  0.17101579704E-01  0.51100000000E-03 0. -1.
         11    1    4    4    0    0  0.88618796106E-01 -0.72894937363E-01  0.13060554066E-02  0.11475595766E+00  0.51100000000E-03 0.  1.
</event>
<event>
 8    1  0.1044719E+005  0.1043930E+01  0.7957747E-01            NaN
         13   -1    0    0    0    0  0.00000000000E+00  0.00000000000E+00  0.74505805969E-08  0.10566000000E+00  0.10566000000E+00 0.  1.
     999900   -1    0    0    0    0 -0.00000000000E+00 -0.00000000000E+00 -0.74505805969E-08  0.93827000000E+00  0.93827000000E+00 0.  1.
     999902    2    1    2    0    0 -0.61346861262E-02 -0.22291279706E-01  0.14343103068E-02  0.10207655278E+01  0.10205026556E+01 0.  0.
     999903    2    3    3    0    0 -0.82446073819E-01 -0.97119562054E-01  0.36096419655E-01  0.13362170547E+00  0.17951162611E-01 0.  0.
         14    1    1    2    0    0  0.61346861262E-02  0.22291279706E-01 -0.14343103068E-02  0.23164472168E-01  0.00000000000E+00 0. -1.
     999901    1    3    3    0    0  0.76311387693E-01  0.74828282348E-01 -0.34662109348E-01  0.88714382236E+00  0.88000000000E+00 0. -1.
        -11    1    4    4    0    0 -0.35660877557E-01 -0.52400396890E-01  0.24010881628E-01  0.67781142952E-01  0.51100000000E-03 0. -1.
         11    1    4    4    0    0 -0.46785196262E-01 -0.44719165163E-01  0.12085538026E-01  0.65840562517E-01  0.51100000000E-03 0.  1.
</event>
<event>
 8    1  0.1044719E+005  0.1043930E+01  0.7957747E-01            NaN
         13   -1    0    0    0    0  0.00000000000E+00  0.00000000000E+00  0.74505805969E-08  0.10566000000E+00  0.10566000000E+00 0. -1.
     999900   -1    0    0    0    0 -0.00000000000E+00 -0.00000000000E+00 -0.74505805969E-08  0.93827000000E+00  0.93827000000E+00 0. -1.
     999902    2    1    2    0    0  0.89198439968E-02  0.15860500365E-01 -0.15173946186E-01  0.10202367999E+01  0.10199616464E+01 0.  0.
     999903    2    3    3    0    0  0.49024604412E-01  0.12142321250E+00 -0.12983580420E-01  0.13301829484E+00  0.19449550891E-01 0.  0.
         14    1    1    2    0    0 -0.89198439968E-02 -0.15860500365E-01  0.15173946186E-01  0.23693200113E-01  0.00000000000E+00 0. -1.
     999901    1    3    3    0    0 -0.40104760415E-01 -0.10556271213E+00 -0.21903657654E-02  0.88721850505E+00  0.88000000000E+00 0. -1.
        -11    1    4    4    0    0  0.40211502928E-01  0.76170091849E-01 -0.11395683549E-01  0.86884812163E-01  0.51100000000E-03 0. -1.
         11    1    4    4    0    0  0.88131014843E-02  0.45253120648E-01 -0.15878968714E-02  0.46133482674E-01  0.51100000000E-03 0.  1.
</event>
<event>
 8    1  0.1044719E+005  0.1043930E+01  0.7957747E-01            NaN
         13   -1    0    0    0    0  0.00000000000E+00  0.00000000000E+00  0.74505805969E-08  0.10566000000E+00  0.10566000000E+00 0. -1.
     999900   -1    0    0    0    0 -0.00000000000E+00 -0.00000000000E+00 -0.74505805969E-08  0.93827000000E+00  0.93827000000E+00 0. -1.
     999902    2    1    2    0    0 -0.92412571899E-02 -0.14627703772E-01 -0.15144937142E-01  0.10209356600E+01  0.10206766786E+01 0.  0.
     999903    2    3    3    0    0 -0.10541297663E+00 -0.69568310537E-02  0.75606567105E-01  0.13102348598E+00  0.17044287826E-01 0.  0.
         14    1    1    2    0    0  0.92412571899E-02  0.14627703772E-01  0.15144937142E-01  0.22994340024E-01  0.00000000000E+00 0. -1.
     999901    1    3    3    0    0  0.96171719442E-01 -0.76708727181E-02 -0.90751504247E-01  0.88991217400E+00  0.88000000000E+00 0. -1.
        -11    1    4    4    0    0 -0.90855136096E-03 -0.15736018108E-03  0.40500176258E-02  0.41849721112E-02  0.51100000000E-03 0.  1.
         11    1    4    4    0    0 -0.10450442527E+00 -0.67994708726E-02  0.71556549479E-01  0.12683851387E+00  0.51100000000E-03 0. -1.
</event>
<event>
 8    1  0.1044719E+005  0.1043930E+01  0.7957747E-01            NaN
         13   -1    0    0    0    0  0.00000000000E+00  0.00000000000E+00  0.74505805969E-08  0.10566000000E+00  0.10566000000E+00 0.  1.
     999900   -1    0    0    0    0 -0.00000000000E+00 -0.00000000000E+00 -0.74505805969E-08  0.93827000000E+00  0.93827000000E+00 0.  1.
     999902    2    1    2    0    0 -0.15984368912E-01  0.12384790244E-01  0.87782567562E-02  0.10218859334E+01  0.10216481391E+01 0.  0.
     999903    2    3    3    0    0 -0.89771783176E-01 -0.13879143760E-01  0.97222465819E-01  0.13399137053E+00  0.15807461190E-01 0.  0.
         14    1    1    2    0    0  0.15984368912E-01 -0.12384790244E-01 -0.87782567562E-02  0.22044066562E-01  0.00000000000E+00 0. -1.
     999901    1    3    3    0    0  0.73787414264E-01  0.26263934005E-01 -0.88444209062E-01  0.88789456291E+00  0.88000000000E+00 0. -1.
        -11    1    4    4    0    0 -0.28512859331E-01 -0.11821623692E-01  0.34374734966E-01  0.46201920511E-01  0.51100000000E-03 0. -1.
         11    1    4    4    0    0 -0.61258923845E-01 -0.20575200688E-02  0.62847730853E-01  0.87789450014E-01  0.51100000000E-03 0.  1.
</event>
<event>
 8    1  0.1044719E+005  0.1043930E+01  0.7957747E-01            NaN
         13   -1    0    0    0    0  0.00000000000E+00  0.00000000000E+00  0.74505805969E-08  0.10566000000E+00  0.10566000000E+00 0.  1.
     999900   -1    0    0    0    0 -0.00000000000E+00 -0.00000000000E+00 -0.74505805969E-08  0.93827000000E+00  0.93827000000E+00 0.  1.
     999902    2    1    2    0    0 -0.18879813843E-01 -0.12008334575E-01  0.55424302044E-02  0.10208786225E+01  0.10206183400E+01 0.  0.
     999903    2    3    3    0    0 -0.11812721833E+00 -0.14687211977E-01  0.57609529148E-01  0.13376633739E+00  0.20120170561E-01 0.  0.
         14    1    1    2    0    0  0.18879813843E-01  0.12008334575E-01 -0.55424302044E-02  0.23051377456E-01  0.00000000000E+00 0. -1.
     999901    1    3    3    0    0  0.99247404488E-01  0.26788774019E-02 -0.52067098943E-01  0.88711228516E+00  0.88000000000E+00 0. -1.
        -11    1    4    4    0    0 -0.64108167242E-01  0.20629271996E-02  0.31920508781E-01  0.71647001176E-01  0.51100000000E-03 0.  1.
         11    1    4    4    0    0 -0.54019051089E-01 -0.16750139177E-01  0.25689020366E-01  0.62119336212E-01  0.51100000000E-03 0. -1.
</event>
<event>
 8    1  0.1044719E+005  0.1043930E+01  0.7957747E-01            NaN
         13   -1    0    0    0    0  0.00000000000E+00  0.00000000000E+00  0.74505805969E-08  0.10566000000E+00  0.10566000000E+00 0. -1.
     999900   -1    0    0    0    0 -0.00000000000E+00 -0.00000000000E+00 -0.74505805969E-08  0.93827000000E+00  0.93827000000E+00 0.  1.
     999902    2    1    2    0    0 -0.60118869632E-02 -0.22891290332E-01  0.64756020449E-02  0.10193925311E+01  0.10190971716E+01 0.  0.
     999903    2    3    3    0    0 -0.73308484403E-01  0.92500963867E-01  0.46549785592E-01  0.12840984634E+00  0.19789994891E-01 0.  0.
         14    1    1    2    0    0  0.60118869632E-02  0.22891290332E-01 -0.64756020449E-02  0.24537468895E-01  0.00000000000E+00 0. -1.
     999901    1    3    3    0    0  0.67296597440E-01 -0.11539225420E+00 -0.40074183547E-01  0.89098268476E+00  0.88000000000E+00 0.  1.
        -11    1    4    4    0    0 -0.58843068517E-01  0.84920365410E-01  0.40991023462E-01  0.11115079981E+00  0.51100000000E-03 0.  1.
         11    1    4    4    0    0 -0.14465415887E-01  0.75805984578E-02  0.55587621297E-02  0.17259046531E-01  0.51100000000E-03 0. -1.
</event>
<event>
 8    1  0.1044719E+005  0.1043930E+01  0.7957747E-01            NaN
         13   -1    0    0    0    0  0.00000000000E+00  0.00000000000E+00  0.74505805969E-08  0.10566000000E+00  0.10566000000E+00 0. -1.
     999900   -1    0    0    0    0 -0.00000000000E+00 -0.00000000000E+00 -0.74505805969E-08  0.93827000000E+00  0.93827000000E+00 0. -1.
     999902    2    1    2    0    0 -0.13704233645E-01 -0.17289184987E-01 -0.57876199812E-02  0.10211217015E+01  0.10208669407E+01 0.  0.
     999903    2    3    3    0    0  0.45114579991E-01 -0.11123819025E+00 -0.53290580804E-01  0.13289729304E+00  0.20311184040E-01 0.  0.
         14    1    1    2    0    0  0.13704233645E-01  0.17289184987E-01  0.57876199812E-02  0.22808298541E-01  0.00000000000E+00 0. -1.
     999901    1    3    3    0    0 -0.58818813636E-01  0.93949005261E-01  0.47502960822E-01  0.88822440842E+00  0.88000000000E+00 0. -1.
        -11    1    4    4    0    0  0.29504237463E-01 -0.90233892542E-01 -0.36029202339E-01  0.10154319245E+00  0.51100000000E-03 0.  1.
         11    1    4    4    0    0  0.15610342528E-01 -0.21004297706E-01 -0.17261378464E-01  0.31354100584E-01  0.51100000000E-03 0. -1.
</event>
<event>
 8    1  0.1044719E+005  0.1043930E+01  0.7957747E-01            NaN
         13   -1    0    0    0    0  0.00000000000E+00  0.00000000000E+00  0.74505805969E-08  0.10566000000E+00  0.10566000000E+00 0.  1.
     999900   -1    0    0    0    0 -0.00000000000E+00 -0.00000000000E+00 -0.74505805969E-08  0.93827000000E+00  0.93827000000E+00 0. -1.
     999902    2    1    2    0    0 -0.22640338666E-02  0.21777726478E-01  0.91930345962E-02  0.10201832717E+01  0.10199068589E+01 0.  0.
     999903    2    3    3    0    0 -0.92918687725E-01  0.81618368368E-01  0.45070398556E-01  0.13277899296E+00  0.17420664761E-01 0.  0.
         14    1    1    2    0    0  0.22640338666E-02 -0.21777726478E-01 -0.91930345962E-02  0.23746728301E-01  0.00000000000E+00 0. -1.
     999901    1    3    3    0    0  0.90654653859E-01 -0.59840641890E-01 -0.35877363960E-01  0.88740427874E+00  0.88000000000E+00 0. -1.
        -11    1    4    4    0    0 -0.48198087339E-01  0.33195223809E-01  0.26849109683E-01  0.64390327835E-01  0.51100000000E-03 0. -1.
         11    1    4    4    0    0 -0.44720600386E-01  0.48423144559E-01  0.18221288873E-01  0.68388665121E-01  0.51100000000E-03 0.  1.
</event>
<event>
 8    1  0.1044719E+005  0.1043930E+01  0.7957747E-01            NaN
         13   -1    0    0    0    0  0.00000000000E+00  0.00000000000E+00  0.74505805969E-08  0.10566000000E+00  0.10566000000E+00 0. -1.
     999900   -1    0    0    0    0 -0.00000000000E+00 -0.00000000000E+00 -0.74505805969E-08  0.93827000000E+00  0.93827000000E+00 0.  1.
     999902    2    1    2    0    0 -0.91046509615E-02  0.20037970238E-01 -0.56083400913E-02  0.10212172635E+01  0.10209646570E+01 0.  0.
     999903    2    3    3    0    0  0.69113100767E-01 -0.10600782381E+00 -0.34871296910E-02  0.12879916731E+00  0.23723111517E-01 0.  0.
         14    1    1    2    0    0  0.91046509615E-02 -0.20037970238E-01  0.56083400913E-02  0.22712736493E-01  0.00000000000E+00 0.  1.
     999901    1    3    3    0    0 -0.78217751729E-01  0.12604579405E+00 -0.21212104003E-02  0.89241809620E+00  0.88000000000E+00 0.  1.
        -11    1    4    4    0    0  0.85494973508E-02 -0.29311333869E-01  0.39410965959E-02  0.30790283557E-01  0.51100000000E-03 0.  1.
         11    1    4    4    0    0  0.60563603416E-01 -0.76696489942E-01 -0.74282262869E-02  0.98008883755E-01  0.51100000000E-03 0. -1.
</event>
<event>
 8    1  0.1044719E+005  0.1043930E+01  0.7957747E-01            NaN
         13   -1    0    0    0    0  0.00000000000E+00  0.00000000000E+00  0.74505805969E-08  0.10566000000E+00  0.10566000000E+00 0. -1.
     999900   -1    0    0    0    0 -0.00000000000E+00 -0.00000000000E+00 -0.74505805969E-08  0.93827000000E+00  0.93827000000E+00 0. -1.
     999902    2    1    2    0    0  0.11092642088E-01 -0.41242880325E-02  0.20324489986E-01  0.10204110427E+01  0.10201399682E+01 0.  0.
     999903    2    3    3    0    0  0.10406931795E+00  0.77576182751E-01  0.75474857392E-02  0.13165748796E+00  0.20694021526E-01 0.  0.
         14    1    1    2    0    0 -0.11092642088E-01  0.41242880325E-02 -0.20324489986E-01  0.23518957321E-01  0.00000000000E+00 0.  1.
     999901    1    3    3    0    0 -0.92976675864E-01 -0.81700470783E-01  0.12777004247E-01  0.88875355471E+00  0.88000000000E+00 0.  1.
        -11    1    4    4    0    0  0.37707716098E-01  0.34802082078E-01  0.11558861820E-01  0.52601570109E-01  0.51100000000E-03 0. -1.
         11    1    4    4    0    0  0.66361601854E-01  0.42774100672E-01 -0.40113760803E-02  0.79055917856E-01  0.51100000000E-03 0.  1.
</event>
<event>
 8    1  0.1044719E+005  0.1043930E+01  0.7957747E-01            NaN
         13   -1    0    0    0    0  0.00000000000E+00  0.00000000000E+00  0.74505805969E-08  0.10566000000E+00  0.10566000000E+00 0. -1.
     999900   -1    0    0    0    0 -0.00000000000E+00 -0.00000000000E+00 -0.74505805969E-08  0.93827000000E+00  0.93827000000E+00 0.  1.
     999902    2    1    2    0    0  0.16584248700E-01  0.10205927927E-01  0.27608257655E-03  0.10244550291E+01  0.10242699020E+01 0.  0.
     999903    2    3    3    0    0 -0.22808460458E-02 -0.10981543845E+00 -0.72566245240E-01  0.13312623180E+00  0.19801536924E-01 0.  0.
         14    1    1    2    0    0 -0.16584248700E-01 -0.10205927927E-01 -0.27608257655E-03  0.19474970896E-01  0.00000000000E+00 0.  1.
     999901    1    3    3    0    0  0.18865094746E-01  0.12002136637E+00  0.72842327817E-01  0.89132879731E+00  0.88000000000E+00 0. -1.
        -11    1    4    4    0    0  0.27135808765E-02 -0.56959563917E-01 -0.48376204381E-01  0.74781506498E-01  0.51100000000E-03 0.  1.
         11    1    4    4    0    0 -0.49944269222E-02 -0.52855874530E-01 -0.24190040859E-01  0.58344725300E-01  0.51100000000E-03 0. -1.
</event>
<event>
 8    1  0.1044719E+005  0.1043930E+01  0.7957747E-01            NaN
         13   -1    0    0    0    0  0.00000000000E+00  0.00000000000E+00  0.74505805969E-08  0.10566000000E+00  0.10566000000E+00 0. -1.
     999900   -1    0    0    0    0 -0.00000000000E+00 -0.00000000000E+00 -0.74505805969E-08  0.93827000000E+00  0.93827000000E+00 0. -1.
     999902    2    1    2    0    0  0.68875943689E-02 -0.16228558947E-02  0.22148590928E-01  0.10206784904E+01  0.10204136162E+01 0.  0.
     999903    2    3    3    0    0  0.97589944145E-01  0.59231762302E-02 -0.83113589904E-01  0.12974415751E+00  0.19151928513E-01 0.  0.
         14    1    1    2    0    0 -0.68875943689E-02  0.16228558947E-02 -0.22148590928E-01  0.23251509576E-01  0.00000000000E+00 0.  1.
     999901    1    3    3    0    0 -0.90702349776E-01 -0.75460321249E-02  0.10526218083E+00  0.89093433292E+00  0.88000000000E+00 0.  1.
        -11    1    4    4    0    0  0.54086648435E-01 -0.44209628675E-02 -0.52817532834E-01  0.75728880537E-01  0.51100000000E-03 0.  1.
         11    1    4    4    0    0  0.43503295710E-01  0.10344139098E-01 -0.30296057070E-01  0.54015276971E-01  0.51100000000E-03 0. -1.
</event>
<event>
 8    1  0.1044719E+005  0.1043930E+01  0.7957747E-01            NaN
         13   -1    0    0    0    0  0.00000000000E+00  0.00000000000E+00  0.74505805969E-08  0.10566000000E+00  0.10566000000E+00 0. -1.
     999900   -1    0    0    0    0 -0.00000000000E+00 -0.00000000000E+00 -0.74505805969E-08  0.93827000000E+00  0.93827000000E+00 0.  1.
     999902    2    1    2    0    0  0.18448792361E-01  0.10116806135E-01 -0.87316264690E-02  0.10211495477E+01  0.10208954157E+01 0.  0.
     999903    2    3    3    0    0 -0.11558044622E+00  0.43503016361E-01  0.31909873950E-01  0.12944880901E+00  0.22077185448E-01 0.  0.
         14    1    1    2    0    0 -0.18448792361E-01 -0.10116806135E-01  0.87316264690E-02  0.22780452295E-01  0.00000000000E+00 0. -1.
     999901    1    3    3    0    0  0.13402923859E+00 -0.33386210226E-01 -0.40641500419E-01  0.89170073869E+00  0.88000000000E+00 0. -1.
        -11    1    4    4    0    0 -0.83160298561E-01  0.21524909249E-01  0.17203227926E-01  0.87608042707E-01  0.51100000000E-03 0.  1.
         11    1    4    4    0    0 -0.32420147664E-01  0.21978107111E-01  0.14706646024E-01  0.41840766305E-01  0.51100000000E-03 0. -1.
</event>
<event>
 8    1  0.1044719E+005  0.1043930E+01  0.7957747E-01            NaN
         13   -1    0    0    0    0  0.00000000000E+00  0.00000000000E+00  0.74505805969E-08  0.10566000000E+00  0.10566000000E+00 0. -1.
     999900   -1    0    0    0    0 -0.00000000000E+00 -0.00000000000E+00 -0.74505805969E-08  0.93827000000E+00  0.93827000000E+00 0. -1.
     999902    2    1    2    0    0  0.15434948840E-01 -0.45792138404E-02  0.15571539271E-01  0.10215317929E+01  0.10212862107E+01 0.  0.
     999903    2    3    3    0    0  0.68340380684E-01 -0.39182299873E-01  0.10722068936E+00  0.13451661549E+00  0.19818762832E-01 0.  0.
         14    1    1    2    0    0 -0.15434948840E-01  0.45792138404E-02 -0.15571539271E-01  0.22398207079E-01  0.00000000000E+00 0.  1.
     999901    1    3    3    0    0 -0.52905431844E-01  0.34603086033E-01 -0.91649150090E-01  0.88701517743E+00  0.88000000000E+00 0. -1.
        -11    1    4    4    0    0  0.23274190822E-01 -0.91952917970E-02  0.48967506499E-01  0.54993810227E-01  0.51100000000E-03 0. -1.
         11    1    4    4    0    0  0.45066189863E-01 -0.29987008076E-01  0.58253182862E-01  0.79522805262E-01  0.51100000000E-03 0.  1.
</event>
<event>
 7    1  0.1044719E+005  0.1043930E+01  0.7957747E-01            NaN
         13   -1    0    0    0    0  0.00000000000E+00  0.00000000000E+00  0.74505805969E-08  0.10566000000E+00  0.10566000000E+00 0. -1.
     999900   -1    0    0    0    0 -0.00000000000E+00 -0.00000000000E+00 -0.74505805969E-08  0.93827000000E+00  0.93827000000E+00 0. -1.
     999902    2    1    2    0    0  0.21053602791E-01  0.24062605592E-02  0.11067442038E-01  0.10200232530E+01  0.10197430579E+01 0.  0.
         14    1    1    2    0    0 -0.21053602791E-01 -0.24062605592E-02 -0.11067442038E-01  0.23906747031E-01  0.00000000000E+00 0. -1.
     999901    1    3    3    0    0  0.14779175084E-01 -0.11022193233E+00  0.75232156938E-01  0.89018378766E+00  0.88000000000E+00 0.  1.
        -11    1    3    3    0    0 -0.17309071668E-03  0.25105285674E-01 -0.13811535264E-01  0.28658767533E-01  0.51100000000E-03 0. -1.
         11    1    3    3    0    0  0.64475184231E-02  0.87522907214E-01 -0.50353179636E-01  0.10118069777E+00  0.51100000000E-03 0.  1.
</event>
<event>
 8    1  0.1044719E+005  0.1043930E+01  0.7957747E-01            NaN
         13   -1    0    0    0    0  0.00000000000E+00  0.00000000000E+00  0.74505805969E-08  0.10566000000E+00  0.10566000000E+00 0. -1.
     999900   -1    0    0    0    0 -0.00000000000E+00 -0.00000000000E+00 -0.74505805969E-08  0.93827000000E+00  0.93827000000E+00 0.  1.
     999902    2    1    2    0    0  0.11766807011E-01  0.16015441015E-01  0.11524220211E-01  0.10209569778E+01  0.10206984818E+01 0.  0.
     999903    2    3    3    0    0  0.93646114971E-01 -0.62690889826E-02  0.92087276268E-01  0.13321195395E+00  0.21364968956E-01 0.  0.
         14    1    1    2    0    0 -0.11766807011E-01 -0.16015441015E-01 -0.11524220211E-01  0.22973022213E-01  0.00000000000E+00 0.  1.
     999901    1    3    3    0    0 -0.81879307960E-01  0.22284529997E-01 -0.80563056057E-01  0.88774502384E+00  0.88000000000E+00 0.  1.
        -11    1    4    4    0    0  0.49736306662E-01  0.73488314478E-02  0.48528411125E-01  0.69878275103E-01  0.51100000000E-03 0.  1.
         11    1    4    4    0    0  0.43909808309E-01 -0.13617920430E-01  0.43558865143E-01  0.63333678845E-01  0.51100000000E-03 0. -1.
</event>
<event>
 8    1  0.1044719E+005  0.1043930E+01  0.7957747E-01            NaN
         13   -1    0    0    0    0  0.00000000000E+00  0.00000000000E+00  0.74505805969E-08  0.10566000000E+00  0.10566000000E+00 0.  1.
     999900   -1    0    0    0    0 -0.00000000000E+00 -0.00000000000E+00 -0.74505805969E-08  0.93827000000E+00  0.93827000000E+00 0.  1.
     999902    2    1    2    0    0 -0.43912163386E-02  0.15690848595E-01  0.16879947257E-01  0.10204690083E+01  0.10201992839E+01 0.  0.
     999903    2    3    3    0    0  0.54127183345E-01  0.46444802939E-01  0.11066256445E+00  0.13302019961E+00  0.19007857278E-01 0.  0.
         14    1    1    2    0    0  0.43912163386E-02 -0.15690848595E-01 -0.16879947257E-01  0.23460991667E-01  0.00000000000E+00 0. -1.
     999901    1    3    3    0    0 -0.58518399683E-01 -0.30753954344E-01 -0.93782617191E-01  0.88744880872E+00  0.88000000000E+00 0.  1.
        -11    1    4    4    0    0  0.22111362610E-01  0.31410809815E-01  0.55997546773E-01  0.67908303581E-01  0.51100000000E-03 0. -1.
         11    1    4    4    0    0  0.32015820735E-01  0.15033993124E-01  0.54665017676E-01  0.65111896034E-01  0.51100000000E-03 0.  1.
</event>
<event>
 7    1  0.1044719E+005  0.1043930E+01  0.7957747E-01            NaN
         13   -1    0    0    0    0  0.00000000000E+00  0.00000000000E+00  0.74505805969E-08  0.10566000000E+00  0.10566000000E+00 0. -1.
     999900   -1    0    0    0    0 -0.00000000000E+00 -0.00000000000E+00 -0.74505805969E-08  0.93827000000E+00  0.93827000000E+00 0. -1.
     999903    2    1    2    0    0  0.68461467651E-01 -0.66518065011E-01 -0.60111007765E-01  0.11494573094E+00  0.22080812518E-01 0.  0.
         14    1    1    2    0    0  0.53447356189E-03 -0.38082333353E-01  0.48164904852E-02  0.38389430267E-01  0.00000000000E+00 0. -1.
     999901    1    1    2    0    0 -0.68995941213E-01  0.10460039836E+00  0.55294517280E-01  0.89059483879E+00  0.88000000000E+00 0.  1.
        -11    1    3    3    0    0  0.24483483659E-01 -0.12743967307E-01 -0.10305049440E-01  0.29467012739E-01  0.51100000000E-03 0.  1.
         11    1    3    3    0    0  0.43977983992E-01 -0.53774097704E-01 -0.49805958326E-01  0.85478718203E-01  0.51100000000E-03 0. -1.
</event>
<event>
 8    1  0.1044719E+005  0.1043930E+01  0.7957747E-01            NaN
         13   -1    0    0    0    0  0.00000000000E+00  0.00000000000E+00  0.74505805969E-08  0.10566000000E+00  0.10566000000E+00 0.  1.
     999900   -1    0    0    0    0 -0.00000000000E+00 -0.00000000000E+00 -0.74505805969E-08  0.93827000000E+00  0.93827000000E+00 0.  1.
     999902    2    1    2    0    0 -0.22872305377E-01 -0.17213616605E-03  0.68055688892E-02  0.10200660575E+01  0.10197868767E+01 0.  0.
     999903    2    3    3    0    0  0.49499267355E-01 -0.10514435608E+00 -0.51927652789E-01  0.12893957779E+00  0.20577184277E-01 0.  0.
         14    1    1    2    0    0  0.22872305377E-01  0.17213616605E-03 -0.68055688892E-02  0.23863942508E-01  0.00000000000E+00 0. -1.
     999901    1    3    3    0    0 -0.72371572732E-01  0.10497221991E+00  0.58733221678E-01  0.89112647970E+00  0.88000000000E+00 0. -1.
        -11    1    4    4    0    0  0.30273054039E-01 -0.84640156505E-01 -0.38662677352E-01  0.97854369524E-01  0.51100000000E-03 0.  1.
         11    1    4    4    0    0  0.19226213316E-01 -0.20504199576E-01 -0.13264975437E-01  0.31085208268E-01  0.51100000000E-03 0. -1.
</event>
<event>
 8    1  0.1044719E+005  0.1043930E+01  0.7957747E-01            NaN
         13   -1    0    0    0    0  0.00000000000E+00  0.00000000000E+00  0.74505805969E-08  0.10566000000E+00  0.10566000000E+00 0. -1.
     999900   -1    0    0    0    0 -0.00000000000E+00 -0.00000000000E+00 -0.74505805969E-08  0.93827000000E+00  0.93827000000E+00 0.  1.
     999902    2    1    2    0    0 -0.22028868872E-01  0.23417236780E-02 -0.56313901585E-02  0.10210724566E+01  0.10208165822E+01 0.  0.
     999903    2    3    3    0    0 -0.38103552409E-01  0.50797081281E-01 -0.11501962984E+00  0.13283143973E+00  0.19556378987E-01 0.  0.
         14    1    1    2    0    0  0.22028868872E-01 -0.23417236780E-02  0.56313901585E-02  0.22857543365E-01  0.00000000000E+00 0. -1.
     999901    1    3    3    0    0  0.16074683537E-01 -0.48455357603E-01  0.10938823968E+00  0.88824101690E+00  0.88000000000E+00 0. -1.
        -11    1    4    4    0    0 -0.29431312914E-01  0.23469617613E-01 -0.69232664948E-01  0.78806396615E-01  0.51100000000E-03 0. -1.
         11    1    4    4    0    0 -0.86722394954E-02  0.27327463668E-01 -0.45786964894E-01  0.54025043115E-01  0.51100000000E-03 0.  1.
</event>
<event>
 8    1  0.1044719E+005  0.1043930E+01  0.7957747E-01            NaN
         13   -1    0    0    0    0  0.00000000000E+00  0.00000000000E+00  0.74505805969E-08  0.10566000000E+00  0.10566000000E+00 0. -1.
     999900   -1    0    0    0    0 -0.00000000000E+00 -0.00000000000E+00 -0.74505805969E-08  0.93827000000E+00  0.93827000000E+00 0.  1.
     999902    2    1    2    0    0 -0.13965693090E-01 -0.15296482042E-01  0.10277814359E-01  0.10208073614E+01  0.10205454486E+01 0.  0.
     999903    2    3    3    0    0 -0.31627556114E-01 -0.71322223994E-01 -0.10339304401E+00  0.13155380411E+00  0.23002606031E-01 0.  0.
         14    1    1    2    0    0  0.13965693090E-01  0.15296482042E-01 -0.10277814359E-01  0.23122638568E-01  0.00000000000E+00 0.  1.
     999901    1    3    3    0    0  0.17661863023E-01  0.56025741952E-01  0.11367085837E+00  0.88925355732E+00  0.88000000000E+00 0. -1.
        -11    1    4    4    0    0 -0.99015926925E-02 -0.35492120935E-01 -0.32170148889E-01  0.48917397588E-01  0.51100000000E-03 0. -1.
         11    1    4    4    0    0 -0.21725963421E-01 -0.35830103059E-01 -0.71222895125E-01  0.82636406522E-01  0.51100000000E-03 0.  1.
</event>
<event>
 8    1  0.1044719E+005  0.1043930E+01  0.7957747E-01            NaN
         13   -1    0    0    0    0  0.00000000000E+00  0.00000000000E+00  0.74505805969E-08  0.10566000000E+00  0.10566000000E+00 0.  1.
     999900   -1    0    0    0    0 -0.00000000000E+00 -0.00000000000E+00 -0.74505805969E-08  0.93827000000E+00  0.93827000000E+00 0.  1.
     999902    2    1    2    0    0 -0.17303478907E-01  0.14269448274E-01 -0.57982138302E-02  0.10207643612E+01  0.10205014622E+01 0.  0.
     999903    2    3    3    0    0 -0.71965507424E-01 -0.57864292459E-01 -0.92100935781E-01  0.13192277031E+00  0.19842488627E-01 0.  0.
         14    1    1    2    0    0  0.17303478907E-01 -0.14269448274E-01  0.57982138302E-02  0.23165638777E-01  0.00000000000E+00 0.  1.
     999901    1    3    3    0    0  0.54662028518E-01  0.72133740733E-01  0.86302721951E-01  0.88884159091E+00  0.88000000000E+00 0. -1.
        -11    1    4    4    0    0 -0.50485008986E-01 -0.30122974212E-01 -0.64546528792E-01  0.87307761440E-01  0.51100000000E-03 0. -1.
         11    1    4    4    0    0 -0.21480498439E-01 -0.27741318247E-01 -0.27554406989E-01  0.44615008873E-01  0.51100000000E-03 0.  1.
</event>
<event>
 8    1  0.1044719E+005  0.1043930E+01  0.7957747E-01            NaN
         13   -1    0    0    0    0  0.00000000000E+00  0.00000000000E+00  0.74505805969E-08  0.10566000000E+00  0.10566000000E+00 0.  1.
     999900   -1    0    0    0    0 -0.00000000000E+00 -0.00000000000E+00 -0.74505805969E-08  0.93827000000E+00  0.93827000000E+00 0.  1.
     999902    2    1    2    0    0  0.10160036228E-01 -0.18053537556E-01  0.81433553099E-02  0.10216708268E+01  0.10214283174E+01 0.  0.
     999903    2    3    3    0    0  0.89834092125E-01 -0.19367148411E-01 -0.93098488766E-01  0.13228924857E+00  0.19694317237E-01 0.  0.
         14    1    1    2    0    0 -0.10160036228E-01  0.18053537556E-01 -0.81433553099E-02  0.22259173168E-01  0.00000000000E+00 0. -1.
     999901    1    3    3    0    0 -0.79674055897E-01  0.13136108550E-02  0.10124184408E+00  0.88938157826E+00  0.88000000000E+00 0. -1.
        -11    1    4    4    0    0  0.19875926042E-01 -0.19068252809E-02 -0.32276996665E-01  0.37957266148E-01  0.51100000000E-03 0.  1.
         11    1    4    4    0    0  0.69958166083E-01 -0.17460323130E-01 -0.60821492101E-01  0.94331982424E-01  0.51100000000E-03 0. -1.
</event>
<event>
 8    1  0.1044719E+005  0.1043930E+01  0.7957747E-01            NaN
         13   -1    0    0    0    0  0.00000000000E+00  0.00000000000E+00  0.74505805969E-08  0.10566000000E+00  0.10566000000E+00 0. -1.
     999900   -1    0    0    0    0 -0.00000000000E+00 -0.00000000000E+00 -0.74505805969E-08  0.93827000000E+00  0.93827000000E+00 0.  1.
     999902    2    1    2    0    0 -0.14968122572E-01 -0.11886592123E-03 -0.18677514267E-01  0.10199944958E+01  0.10197136182E+01 0.  0.
     999903    2    3    3    0    0  0.11597449361E+00 -0.27290673846E-01  0.42119204451E-01  0.12781709365E+00  0.19191612718E-01 0.  0.
         14    1    1    2    0    0  0.14968122572E-01  0.11886592123E-03  0.18677514267E-01  0.23935504207E-01  0.00000000000E+00 0. -1.
     999901    1    3    3    0    0 -0.13094261619E+00  0.27171807925E-01 -0.60796718718E-01  0.89217740214E+00  0.88000000000E+00 0. -1.
        -11    1    4    4    0    0  0.96143582194E-01 -0.21806695050E-01  0.26813504612E-01  0.10216822156E+00  0.51100000000E-03 0.  1.
         11    1    4    4    0    0  0.19830911420E-01 -0.54839787958E-02  0.15305699839E-01  0.25648872095E-01  0.51100000000E-03 0. -1.
</event>
<event>
 8    1  0.1044719E+005  0.1043930E+01  0.7957747E-01            NaN
         13   -1    0    0    0    0  0.00000000000E+00  0.00000000000E+00  0.74505805969E-08  0.10566000000E+00  0.10566000000E+00 0.  1.
     999900   -1    0    0    0    0 -0.00000000000E+00 -0.00000000000E+00 -0.74505805969E-08  0.93827000000E+00  0.93827000000E+00 0.  1.
     999902    2    1    2    0    0  0.10055457648E-01  0.20032582011E-01 -0.10267867023E-01  0.10192754738E+01  0.10189772548E+01 0.  0.
     999903    2    3    3    0    0 -0.44622508615E-01 -0.10541003379E-01 -0.12021981232E+00  0.13022325123E+00  0.20075130382E-01 0.  0.
         14    1    1    2    0    0 -0.10055457648E-01 -0.20032582011E-01  0.10267867023E-01  0.24654526232E-01  0.00000000000E+00 0.  1.
     999901    1    3    3    0    0  0.54677966263E-01  0.30573585390E-01  0.10995194530E+00  0.88905222253E+00  0.88000000000E+00 0. -1.
        -11    1    4    4    0    0 -0.19884793523E-01 -0.88723258573E-02 -0.32947286985E-01  0.39495670905E-01  0.51100000000E-03 0.  1.
         11    1    4    4    0    0 -0.24737715092E-01 -0.16686775216E-02 -0.87272525337E-01  0.90727580329E-01  0.51100000000E-03 0. -1.
</event>
<event>
 8    1  0.1044719E+005  0.1043930E+01  0.7957747E-01            NaN
         13   -1    0    0    0    0  0.00000000000E+00  0.00000000000E+00  0.74505805969E-08  0.10566000000E+00  0.10566000000E+00 0.  1.
     999900   -1    0    0    0    0 -0.00000000000E+00 -0.00000000000E+00 -0.74505805969E-08  0.93827000000E+00  0.93827000000E+00 0.  1.
     999902    2    1    2    0    0 -0.16256249105E-01 -0.11422288480E-01  0.15181601367E-01  0.10189256938E+01  0.10186188463E+01 0.  0.
     999903    2    3    3    0    0  0.57400959886E-01 -0.11181861242E+00 -0.22691569006E-01  0.12935322157E+00  0.20471354295E-01 0.  0.
         14    1    1    2    0    0  0.16256249105E-01  0.11422288480E-01 -0.15181601367E-01  0.25004306212E-01  0.00000000000E+00 0.  1.
     999901    1    3    3    0    0 -0.73657208991E-01  0.10039632394E+00  0.37873170373E-01  0.88957247222E+00  0.88000000000E+00 0.  1.
        -11    1    4    4    0    0  0.46447714478E-01 -0.74154892258E-01 -0.21514627211E-01  0.90108149083E-01  0.51100000000E-03 0.  1.
         11    1    4    4    0    0  0.10953245408E-01 -0.37663720162E-01 -0.11769417949E-02  0.39245072486E-01  0.51100000000E-03 0. -1.
</event>
<event>
 8    1  0.1044719E+005  0.1043930E+01  0.7957747E-01            NaN
         13   -1    0    0    0    0  0.00000000000E+00  0.00000000000E+00  0.74505805969E-08  0.10566000000E+00  0.10566000000E+00 0. -1.
     999900   -1    0    0    0    0 -0.00000000000E+00 -0.00000000000E+00 -0.74505805969E-08  0.93827000000E+00  0.93827000000E+00 0. -1.
     999902    2    1    2    0    0 -0.14829609388E-01  0.17004761248E-01  0.91413918574E-02  0.10195857139E+01  0.10192950425E+01 0.  0.
     999903    2    3    3    0    0  0.63645677572E-02 -0.95021810672E-01 -0.83276954530E-01  0.12743085252E+00  0.15294403979E-01 0.  0.
         14    1    1    2    0    0  0.14829609388E-01 -0.17004761248E-01 -0.91413918574E-02  0.24344286081E-01  0.00000000000E+00 0. -1.
     999901    1    3    3    0    0 -0.21194177145E-01  0.11202657192E+00  0.92418346388E-01  0.89215486139E+00  0.88000000000E+00 0. -1.
        -11    1    4    4    0    0  0.91758333623E-02 -0.38169895180E-01 -0.38724543054E-01  0.55145155468E-01  0.51100000000E-03 0.  1.
         11    1    4    4    0    0 -0.28112656051E-02 -0.56851915493E-01 -0.44552411477E-01  0.72285697056E-01  0.51100000000E-03 0. -1.
</event>
<event>
 8    1  0.1044719E+005  0.1043930E+01  0.7957747E-01            NaN
         13   -1    0    0    0    0  0.00000000000E+00  0.00000000000E+00  0.74505805969E-08  0.10566000000E+00  0.10566000000E+00 0.  1.
     999900   -1    0    0    0    0 -0.00000000000E+00 -0.00000000000E+00 -0.74505805969E-08  0.93827000000E+00  0.93827000000E+00 0.  1.
     999902    2    1    2    0    0 -0.39625706107E-02  0.17377760227E-01  0.15414393873E-01  0.10203653643E+01  0.10200932235E+01 0.  0.
     999903    2    3    3    0    0  0.21562138423E-01  0.10576683520E+00  0.76198607084E-01  0.13348382774E+00  0.18977758174E-01 0.  0.
         14    1    1    2    0    0  0.39625706107E-02 -0.17377760227E-01 -0.15414393873E-01  0.23564635682E-01  0.00000000000E+00 0. -1.
     999901    1    3    3    0    0 -0.25524709033E-01 -0.88389074972E-01 -0.60784213210E-01  0.88688153658E+00  0.88000000000E+00 0.  1.
        -11    1    4    4    0    0  0.86934979954E-02  0.48466417999E-01  0.23441122090E-01  0.54537307477E-01  0.51100000000E-03 0. -1.
         11    1    4    4    0    0  0.12868640427E-01  0.57300417201E-01  0.52757484994E-01  0.78946520263E-01  0.51100000000E-03 0.  1.
</event>
<event>
 8    1  0.1044719E+005  0.1043930E+01  0.7957747E-01            NaN
         13   -1    0    0    0    0  0.00000000000E+00  0.00000000000E+00  0.74505805969E-08  0.10566000000E+00  0.10566000000E+00 0. -1.
     999900   -1    0    0    0    0 -0.00000000000E+00 -0.00000000000E+00 -0.74505805969E-08  0.93827000000E+00  0.93827000000E+00 0.  1.
     999902    2    1    2    0    0  0.21320826579E-01  0.28907450317E-02 -0.95465909574E-02  0.10203912776E+01  0.10201197420E+01 0.  0.
     999903    2    3    3    0    0 -0.10310477970E+00  0.56333680588E-01 -0.50287028977E-01  0.12910139090E+00  0.18284000751E-01 0.  0.
         14    1    1    2    0    0 -0.21320826579E-01 -0.28907450317E-02  0.95465909574E-02  0.23538722390E-01  0.00000000000E+00 0. -1.
     999901    1    3    3    0    0  0.12442560628E+00 -0.53442935556E-01  0.40740438020E-01  0.89128988671E+00  0.88000000000E+00 0. -1.
        -11    1    4    4    0    0 -0.22192301653E-01  0.20581216446E-01 -0.15890803433E-01  0.34188645451E-01  0.51100000000E-03 0.  1.
         11    1    4    4    0    0 -0.80912478048E-01  0.35752464142E-01 -0.34396225544E-01  0.94912745450E-01  0.51100000000E-03 0. -1.
</event>
<event>
 8    1  0.1044719E+005  0.1043930E+01  0.7957747E-01            NaN
         13   -1    0    0    0    0  0.00000000000E+00  0.00000000000E+00  0.74505805969E-08  0.10566000000E+00  0.10566000000E+00 0.  1.
     999900   -1    0    0    0    0 -0.00000000000E+00 -0.00000000000E+00 -0.74505805969E-08  0.93827000000E+00  0.93827000000E+00 0. -1.
     999902    2    1    2    0    0 -0.10605637454E-01 -0.48620270346E-02  0.14973086892E-01  0.10249481091E+01  0.10247723230E+01 0.  0.
     999903    2    3    3    0    0 -0.86783382218E-01 -0.90237638067E-02 -0.99886144462E-01  0.13421076737E+00  0.20554913764E-01 0.  0.
         14    1    1    2    0    0  0.10605637454E-01  0.48620270346E-02 -0.14973086892E-01  0.18981890943E-01  0.00000000000E+00 0. -1.
     999901    1    3    3    0    0  0.76177744764E-01  0.41617367720E-02  0.11485923135E+00  0.89073734169E+00  0.88000000000E+00 0.  1.
        -11    1    4    4    0    0 -0.29078238779E-01 -0.83185784093E-03 -0.19934193197E-01  0.35268528993E-01  0.51100000000E-03 0. -1.
         11    1    4    4    0    0 -0.57705143439E-01 -0.81919059657E-02 -0.79951951265E-01  0.98942238375E-01  0.51100000000E-03 0.  1.
</event>
<event>
 8    1  0.1044719E+005  0.1043930E+01  0.7957747E-01            NaN
         13   -1    0    0    0    0  0.00000000000E+00  0.00000000000E+00  0.74505805969E-08  0.10566000000E+00  0.10566000000E+00 0.  1.
     999900   -1    0    0    0    0 -0.00000000000E+00 -0.00000000000E+00 -0.74505805969E-08  0.93827000000E+00  0.93827000000E+00 0. -1.
     999902    2    1    2    0    0  0.13980193425E-01  0.30670593774E-02  0.18198968730E-01  0.10207771357E+01  0.10205145299E+01 0.  0.
     999903    2    3    3    0    0 -0.85252577755E-01  0.79946869745E-01  0.55787821765E-01  0.13107461803E+00  0.20218072074E-01 0.  0.
         14    1    1    2    0    0 -0.13980193425E-01 -0.30670593774E-02 -0.18198968730E-01  0.23152864277E-01  0.00000000000E+00 0.  1.
     999901    1    3    3    0    0  0.99232771179E-01 -0.76879810367E-01 -0.37588853035E-01  0.88970251769E+00  0.88000000000E+00 0. -1.
        -11    1    4    4    0    0 -0.51614592486E-01  0.34676012404E-01  0.27931459936E-01  0.68168317926E-01  0.51100000000E-03 0.  1.
         11    1    4    4    0    0 -0.33637985269E-01  0.45270857340E-01  0.27856361829E-01  0.62906300103E-01  0.51100000000E-03 0. -1.
</event>
<event>
 8    1  0.1044719E+005  0.1043930E+01  0.7957747E-01            NaN
         13   -1    0    0    0    0  0.00000000000E+00  0.00000000000E+00  0.74505805969E-08  0.10566000000E+00  0.10566000000E+00 0. -1.
     999900   -1    0    0    0    0 -0.00000000000E+00 -0.00000000000E+00 -0.74505805969E-08  0.93827000000E+00  0.93827000000E+00 0.  1.
     999902    2    1    2    0    0  0.18919024528E-01 -0.14367375235E-01 -0.78190121182E-02  0.10189202437E+01  0.10186132608E+01 0.  0.
     999903    2    3    3    0    0 -0.52194105408E-01  0.11084131721E+00 -0.29355144147E-01  0.12695718453E+00  0.15696495723E-01 0.  0.
         14    1    1    2    0    0 -0.18919024528E-01  0.14367375235E-01  0.78190121182E-02  0.25009756311E-01  0.00000000000E+00 0. -1.
     999901    1    3    3    0    0  0.71113129937E-01 -0.12520869244E+00  0.21536132029E-01  0.89196305915E+00  0.88000000000E+00 0. -1.
        -11    1    4    4    0    0 -0.30702745242E-01  0.79894988929E-01 -0.16687263998E-01  0.87204321694E-01  0.51100000000E-03 0. -1.
         11    1    4    4    0    0 -0.21491360167E-01  0.30946328276E-01 -0.12667880149E-01  0.39752862841E-01  0.51100000000E-03 0.  1.
</event>
<event>
 8    1  0.1044719E+005  0.1043930E+01  0.7957747E-01            NaN
         13   -1    0    0    0    0  0.00000000000E+00  0.00000000000E+00  0.74505805969E-08  0.10566000000E+00  0.10566000000E+00 0. -1.
     999900   -1    0    0    0    0 -0.00000000000E+00 -0.00000000000E+00 -0.74505805969E-08  0.93827000000E+00  0.93827000000E+00 0. -1.
     999902    2    1    2    0    0 -0.21724050934E-01 -0.55760898601E-02 -0.15290681205E-02  0.10214496705E+01  0.10212022640E+01 0.  0.
     999903    2    3    3    0    0 -0.85025314527E-01 -0.96008300542E-01  0.33685052304E-01  0.13385456627E+00  0.18315683951E-01 0.  0.
         14    1    1    2    0    0  0.21724050934E-01  0.55760898601E-02  0.15290681205E-02  0.22480329545E-01  0.00000000000E+00 0. -1.
     999901    1    3    3    0    0  0.63301263592E-01  0.90432210682E-01 -0.35214120424E-01  0.88759510419E+00  0.88000000000E+00 0.  1.
        -11    1    4    4    0    0 -0.41670418127E-01 -0.36389521206E-01  0.86237975568E-02  0.55993321082E-01  0.51100000000E-03 0.  1.
         11    1    4    4    0    0 -0.43354896399E-01 -0.59618779336E-01  0.25061254747E-01  0.77861245185E-01  0.51100000000E-03 0. -1.
</event>
<event>
 8    1  0.1044719E+005  0.1043930E+01  0.7957747E-01            NaN
         13   -1    0    0    0    0  0.00000000000E+00  0.00000000000E+00  0.74505805969E-08  0.10566000000E+00  0.10566000000E+00 0. -1.
     999900   -1    0    0    0    0 -0.00000000000E+00 -0.00000000000E+00 -0.74505805969E-08  0.93827000000E+00  0.93827000000E+00 0. -1.
     999902    2    1    2    0    0  0.89645242211E-02 -0.19501630288E-01 -0.67617253106E-02  0.10214267290E+01  0.10211788117E+01 0.  0.
     999903    2    3    3    0    0  0.90874648726E-01 -0.88796512083E-01  0.36589891622E-01  0.13385114805E+00  0.20839561546E-01 0.  0.
         14    1    1    2    0    0 -0.89645242211E-02  0.19501630288E-01  0.67617253106E-02  0.22503271042E-01  0.00000000000E+00 0. -1.
     999901    1    3    3    0    0 -0.81910124505E-01  0.69294881794E-01 -0.43351616933E-01  0.88757558091E+00  0.88000000000E+00 0.  1.
        -11    1    4    4    0    0  0.73379014499E-01 -0.69208447634E-01  0.20149411468E-01  0.10286179512E+00  0.51100000000E-03 0.  1.
         11    1    4    4    0    0  0.17495634227E-01 -0.19588064449E-01  0.16440480154E-01  0.30989352923E-01  0.51100000000E-03 0. -1.
</event>
<event>
 8    1  0.1044719E+005  0.1043930E+01  0.7957747E-01            NaN
         13   -1    0    0    0    0  0.00000000000E+00  0.00000000000E+00  0.74505805969E-08  0.10566000000E+00  0.10566000000E+00 0. -1.
     999900   -1    0    0    0    0 -0.00000000000E+00 -0.00000000000E+00 -0.74505805969E-08  0.93827000000E+00  0.93827000000E+00 0.  1.
     999902    2    1    2    0    0 -0.12313873852E-01  0.17670557887E-01 -0.87138490713E-02  0.10206961611E+01  0.10204316939E+01 0.  0.
     999903    2    3    3    0    0  0.99770920597E-01 -0.18242604342E-01 -0.79273070454E-01  0.13006079232E+00  0.18562348709E-01 0.  0.
         14    1    1    2    0    0  0.12313873852E-01 -0.17670557887E-01  0.87138490713E-02  0.23233838919E-01  0.00000000000E+00 0. -1.
     999901    1    3    3    0    0 -0.11208479445E+00  0.35913162229E-01  0.70559221382E-01  0.89063536876E+00  0.88000000000E+00 0. -1.
        -11    1    4    4    0    0  0.39116346099E-01  0.67613562057E-03 -0.36158948636E-01  0.53275476337E-01  0.51100000000E-03 0. -1.
         11    1    4    4    0    0  0.60654574498E-01 -0.18918739963E-01 -0.43114121818E-01  0.76785315982E-01  0.51100000000E-03 0.  1.
</event>
<event>
 7    1  0.1044719E+005  0.1043930E+01  0.7957747E-01            NaN
         13   -1    0    0    0    0  0.00000000000E+00  0.00000000000E+00  0.74505805969E-08  0.10566000000E+00  0.10566000000E+00 0.  1.
     999900   -1    0    0    0    0 -0.00000000000E+00 -0.00000000000E+00 -0.74505805969E-08  0.93827000000E+00  0.93827000000E+00 0. -1.
     999903    2    1    2    0    0 -0.48812381370E-01  0.88104297778E-01 -0.52856992357E-01  0.11539851030E+00  0.19440644940E-01 0.  0.
         14    1    1    2    0    0  0.35407986706E-01 -0.18090858301E-01 -0.16237277800E-01  0.42949433838E-01  0.00000000000E+00 0. -1.
     999901    1    1    2    0    0  0.13404394664E-01 -0.70013439476E-01  0.69094270156E-01  0.88558205587E+00  0.88000000000E+00 0.  1.
        -11    1    3    3    0    0 -0.18472383731E-02  0.18455540096E-01 -0.86686753187E-02  0.20479899966E-01  0.51100000000E-03 0.  1.
         11    1    3    3    0    0 -0.46965142997E-01  0.69648757681E-01 -0.44188317038E-01  0.94918610330E-01  0.51100000000E-03 0. -1.
</event>
<event>
 8    1  0.1044719E+005  0.1043930E+01  0.7957747E-01            NaN
         13   -1    0    0    0    0  0.00000000000E+00  0.00000000000E+00  0.74505805969E-08  0.10566000000E+00  0.10566000000E+00 0. -1.
     999900   -1    0    0    0    0 -0.00000000000E+00 -0.00000000000E+00 -0.74505805969E-08  0.93827000000E+00  0.93827000000E+00 0.  1.
     999902    2    1    2    0    0  0.19629871480E-01 -0.78677482609E-02 -0.11435499305E-01  0.10198882871E+01  0.10196048814E+01 0.  0.
     999903    2    3    3    0    0 -0.11569800174E+00  0.47820136638E-01  0.12526900142E-01  0.12748200605E+00  0.20541313569E-01 0.  0.
         14    1    1    2    0    0 -0.19629871480E-01  0.78677482609E-02  0.11435499305E-01  0.24041712946E-01  0.00000000000E+00 0. -1.
     999901    1    3    3    0    0  0.13532787322E+00 -0.55687884899E-01 -0.23962399448E-01  0.89240628101E+00  0.88000000000E+00 0.  1.
        -11    1    4    4    0    0 -0.59319867533E-01  0.16281113831E-01 -0.79275994807E-03  0.61520817136E-01  0.51100000000E-03 0.  1.
         11    1    4    4    0    0 -0.56378134209E-01  0.31539022807E-01  0.13319660090E-01  0.65961188910E-01  0.51100000000E-03 0. -1.
</event>
<event>
 8    1  0.1044719E+005  0.1043930E+01  0.7957747E-01            NaN
         13   -1    0    0    0    0  0.00000000000E+00  0.00000000000E+00  0.74505805969E-08  0.10566000000E+00  0.10566000000E+00 0.  1.
     999900   -1    0    0    0    0 -0.00000000000E+00 -0.00000000000E+00 -0.74505805969E-08  0.93827000000E+00  0.93827000000E+00 0.  1.
     999902    2    1    2    0    0  0.25335180070E-02 -0.94796017691E-02 -0.22495710618E-01  0.10193874134E+01  0.10190919291E+01 0.  0.
     999903    2    3    3    0    0  0.50700090266E-01 -0.55577053198E-01  0.10175670319E+00  0.12816148462E+00  0.20288703758E-01 0.  0.
         14    1    1    2    0    0 -0.25335180070E-02  0.94796017691E-02  0.22495710618E-01  0.24542586648E-01  0.00000000000E+00 0.  1.
     999901    1    3    3    0    0 -0.48166572259E-01  0.46097451429E-01 -0.12425241381E+00  0.89122592873E+00  0.88000000000E+00 0.  1.
        -11    1    4    4    0    0  0.10079873373E-01 -0.24150827660E-01  0.40503394015E-01  0.48225018109E-01  0.51100000000E-03 0.  1.
         11    1    4    4    0    0  0.40620216893E-01 -0.31426225537E-01  0.61253309174E-01  0.79936466508E-01  0.51100000000E-03 0. -1.
</event>
<event>
 8    1  0.1044719E+005  0.1043930E+01  0.7957747E-01            NaN
         13   -1    0    0    0    0  0.00000000000E+00  0.00000000000E+00  0.74505805969E-08  0.10566000000E+00  0.10566000000E+00 0. -1.
     999900   -1    0    0    0    0 -0.00000000000E+00 -0.00000000000E+00 -0.74505805969E-08  0.93827000000E+00  0.93827000000E+00 0. -1.
     999902    2    1    2    0    0 -0.55303130334E-02  0.76722525488E-02  0.21417205981E-01  0.10205175133E+01  0.10202489159E+01 0.  0.
     999903    2    3    3    0    0  0.40075356505E-01 -0.79050877074E-01 -0.90226776706E-01  0.12806854715E+00  0.20139666591E-01 0.  0.
         14    1    1    2    0    0  0.55303130334E-02 -0.76722525488E-02 -0.21417205981E-01  0.23412486699E-01  0.00000000000E+00 0.  1.
     999901    1    3    3    0    0 -0.45605669538E-01  0.86723129623E-01  0.11164398269E+00  0.89244896615E+00  0.88000000000E+00 0.  1.
        -11    1    4    4    0    0  0.25784608880E-01 -0.30081301123E-01 -0.44187183793E-01  0.59350645025E-01  0.51100000000E-03 0.  1.
         11    1    4    4    0    0  0.14290747625E-01 -0.48969575951E-01 -0.46039592913E-01  0.68717902129E-01  0.51100000000E-03 0. -1.
</event>
<event>
 8    1  0.1044719E+005  0.1043930E+01  0.7957747E-01            NaN
         13   -1    0    0    0    0  0.00000000000E+00  0.00000000000E+00  0.74505805969E-08  0.10566000000E+00  0.10566000000E+00 0. -1.
     999900   -1    0    0    0    0 -0.00000000000E+00 -0.00000000000E+00 -0.74505805969E-08  0.93827000000E+00  0.93827000000E+00 0. -1.
     999902    2    1    2    0    0 -0.56449171418E-02 -0.14311071854E-01 -0.17851199541E-01  0.10203644066E+01  0.10200922434E+01 0.  0.
     999903    2    3    3    0    0  0.56296167576E-01  0.11309143172E+00  0.16293190502E-01  0.12838125919E+00  0.16042108457E-01 0.  0.
         14    1    1    2    0    0  0.56449171418E-02  0.14311071854E-01  0.17851199541E-01  0.23565593398E-01  0.00000000000E+00 0. -1.
     999901    1    3    3    0    0 -0.61941084717E-01 -0.12740250357E+00 -0.34144390043E-01  0.89198314741E+00  0.88000000000E+00 0. -1.
        -11    1    4    4    0    0  0.32510695887E-01  0.81604369321E-01  0.98449687513E-02  0.88393455471E-01  0.51100000000E-03 0.  1.
         11    1    4    4    0    0  0.23785471688E-01  0.31487062395E-01  0.64482217508E-02  0.39987803721E-01  0.51100000000E-03 0. -1.
</event>
<event>
 8    1  0.1166463E+005  0.1043930E+01  0.7957747E-01            NaN
         13   -1    0    0    0    0  0.00000000000E+00  0.00000000000E+00  0.74505805969E-08  0.10566000000E+00  0.10566000000E+00 0. -1.
     999900   -1    0    0    0    0 -0.00000000000E+00 -0.00000000000E+00 -0.74505805969E-08  0.93827000000E+00  0.93827000000E+00 0.  1.
     999902    2    1    2    0    0 -0.12273273135E-02  0.22509088002E-02 -0.23306479819E-01  0.10204829336E+01  0.10202135329E+01 0.  0.
     999903    2    3    3    0    0 -0.91736167530E-01  0.89194794144E-01  0.17316821066E-01  0.13065073482E+00  0.19962627104E-01 0.  0.
         14    1    1    2    0    0  0.12273273135E-02 -0.22509088002E-02  0.23306479819E-01  0.23447066433E-01  0.00000000000E+00 0. -1.
     999901    1    3    3    0    0  0.90508840217E-01 -0.86943885344E-01 -0.40623300886E-01  0.88983219875E+00  0.88000000000E+00 0.  1.
        -11    1    4    4    0    0 -0.36422359521E-01  0.49164381323E-01  0.95596902369E-02  0.61930392074E-01  0.51100000000E-03 0. -1.
         11    1    4    4    0    0 -0.55313808009E-01  0.40030412821E-01  0.77571308294E-02  0.68720342744E-01  0.51100000000E-03 0.  1.
</event>
<event>
 8    1  0.1044719E+005  0.1043930E+01  0.7957747E-01            NaN
         13   -1    0    0    0    0  0.00000000000E+00  0.00000000000E+00  0.74505805969E-08  0.10566000000E+00  0.10566000000E+00 0. -1.
     999900   -1    0    0    0    0 -0.00000000000E+00 -0.00000000000E+00 -0.74505805969E-08  0.93827000000E+00  0.93827000000E+00 0.  1.
     999902    2    1    2    0    0 -0.96583062424E-02 -0.81439322611E-02 -0.19942057380E-01  0.10203229637E+01  0.10200498311E+01 0.  0.
     999903    2    3    3    0    0  0.12390148543E+00 -0.23456360404E-01 -0.24364777699E-01  0.13010262641E+00  0.20767091059E-01 0.  0.
         14    1    1    2    0    0  0.96583062424E-02  0.81439322611E-02  0.19942057380E-01  0.23607036338E-01  0.00000000000E+00 0. -1.
     999901    1    3    3    0    0 -0.13355979167E+00  0.15312428143E-01  0.44227203196E-02  0.89022033725E+00  0.88000000000E+00 0. -1.
        -11    1    4    4    0    0  0.31961170901E-01 -0.13911122526E-01 -0.15640295330E-02  0.34896175789E-01  0.51100000000E-03 0.  1.
         11    1    4    4    0    0  0.91940314527E-01 -0.95452378783E-02 -0.22800748166E-01  0.95206450618E-01  0.51100000000E-03 0. -1.
</event>
<event>
 8    1  0.1044719E+005  0.1043930E+01  0.7957747E-01            NaN
         13   -1    0    0    0    0  0.00000000000E+00  0.00000000000E+00  0.74505805969E-08  0.10566000000E+00  0.10566000000E+00 0. -1.
     999900   -1    0    0    0    0 -0.00000000000E+00 -0.00000000000E+00 -0.74505805969E-08  0.93827000000E+00  0.93827000000E+00 0. -1.
     999902    2    1    2    0    0  0.49623314040E-02  0.11333990964E-01 -0.20826282081E-01  0.10197056711E+01  0.10194178916E+01 0.  0.
     999903    2    3    3    0    0  0.21088489494E-01  0.11483473686E+00  0.54114373562E-01  0.13033029523E+00  0.20636842054E-01 0.  0.
         14    1    1    2    0    0 -0.49623314040E-02 -0.11333990964E-01  0.20826282081E-01  0.24224328875E-01  0.00000000000E+00 0.  1.
     999901    1    3    3    0    0 -0.16126158090E-01 -0.10350074590E+00 -0.74940655643E-01  0.88937537589E+00  0.88000000000E+00 0. -1.
        -11    1    4    4    0    0  0.93375038338E-02  0.44205779595E-01  0.10155207739E-01  0.46311222103E-01  0.51100000000E-03 0.  1.
         11    1    4    4    0    0  0.11750985660E-01  0.70628957267E-01  0.43959165823E-01  0.84019073129E-01  0.51100000000E-03 0. -1.
</event>
<event>
 8    1  0.1044719E+005  0.1043930E+01  0.7957747E-01            NaN
         13   -1    0    0    0    0  0.00000000000E+00  0.00000000000E+00  0.74505805969E-08  0.10566000000E+00  0.10566000000E+00 0.  1.
     999900   -1    0    0    0    0 -0.00000000000E+00 -0.00000000000E+00 -0.74505805969E-08  0.93827000000E+00  0.93827000000E+00 0.  1.
     999902    2    1    2    0    0  0.58317196172E-02  0.25299916039E-01  0.32467633561E-02  0.10177644467E+01  0.10174280480E+01 0.  0.
     999903    2    3    3    0    0 -0.37000252443E-01 -0.50455051075E-01 -0.10822799602E+00  0.12647324020E+00  0.19168998504E-01 0.  0.
         14    1    1    2    0    0 -0.58317196172E-02 -0.25299916039E-01 -0.32467633561E-02  0.26165553264E-01  0.00000000000E+00 0. -1.
     999901    1    3    3    0    0  0.42831972060E-01  0.75754967114E-01  0.11147475938E+00  0.89129120654E+00  0.88000000000E+00 0. -1.
        -11    1    4    4    0    0 -0.36102340875E-01 -0.39391685527E-01 -0.80703130143E-01  0.96790186699E-01  0.51100000000E-03 0.  1.
         11    1    4    4    0    0 -0.89791156815E-03 -0.11063365547E-01 -0.27524865879E-01  0.29683053500E-01  0.51100000000E-03 0. -1.
</event>
<event>
 8    1  0.1044719E+005  0.1043930E+01  0.7957747E-01            NaN
         13   -1    0    0    0    0  0.00000000000E+00  0.00000000000E+00  0.74505805969E-08  0.10566000000E+00  0.10566000000E+00 0. -1.
     999900   -1    0    0    0    0 -0.00000000000E+00 -0.00000000000E+00 -0.74505805969E-08  0.93827000000E+00  0.93827000000E+00 0.  1.
     999902    2    1    2    0    0  0.18229822980E-01  0.89581205884E-03 -0.16433377474E-01  0.10193701787E+01  0.10190742743E+01 0.  0.
     999903    2    3    3    0    0 -0.85053883325E-01  0.89837338773E-01 -0.29744001950E-01  0.12877751546E+00  0.19850247599E-01 0.  0.
         14    1    1    2    0    0 -0.18229822980E-01 -0.89581205884E-03  0.16433377474E-01  0.24559821260E-01  0.00000000000E+00 0. -1.
     999901    1    3    3    0    0  0.10328370631E+00 -0.88941526714E-01  0.13310624477E-01  0.89059266328E+00  0.88000000000E+00 0.  1.
        -11    1    4    4    0    0 -0.13736702586E-01  0.17716262936E-01 -0.13164221871E-01  0.26002323527E-01  0.51100000000E-03 0. -1.
         11    1    4    4    0    0 -0.71317180740E-01  0.72121075837E-01 -0.16579780080E-01  0.10277519193E+00  0.51100000000E-03 0.  1.
</event>
<event>
 8    1  0.1044719E+005  0.1043930E+01  0.7957747E-01            NaN
         13   -1    0    0    0    0  0.00000000000E+00  0.00000000000E+00  0.74505805969E-08  0.10566000000E+00  0.10566000000E+00 0.  1.
     999900   -1    0    0    0    0 -0.00000000000E+00 -0.00000000000E+00 -0.74505805969E-08  0.93827000000E+00  0.93827000000E+00 0.  1.
     999902    2    1    2    0    0 -0.17876814970E-01  0.13302410885E-01 -0.10930407235E-01  0.10191104825E+01  0.10188082091E+01 0.  0.
     999903    2    3    3    0    0  0.11556427639E+00  0.48723844115E-01  0.16055435674E-01  0.12793741368E+00  0.19521522518E-01 0.  0.
         14    1    1    2    0    0  0.17876814970E-01 -0.13302410885E-01  0.10930407235E-01  0.24819517544E-01  0.00000000000E+00 0.  1.
     999901    1    3    3    0    0 -0.13344109136E+00 -0.35421433230E-01 -0.26985842909E-01  0.89117306878E+00  0.88000000000E+00 0.  1.
        -11    1    4    4    0    0  0.93706113511E-01  0.45724202008E-01  0.85117127900E-02  0.10461476346E+00  0.51100000000E-03 0. -1.
         11    1    4    4    0    0  0.21858162879E-01  0.29996421075E-02  0.75437228841E-02  0.23322650217E-01  0.51100000000E-03 0.  1.
</event>
<event>
 8    1  0.1044719E+005  0.1043930E+01  0.7957747E-01            NaN
         13   -1    0    0    0    0  0.00000000000E+00  0.00000000000E+00  0.74505805969E-08  0.10566000000E+00  0.10566000000E+00 0.  1.
     999900   -1    0    0    0    0 -0.00000000000E+00 -0.00000000000E+00 -0.74505805969E-08  0.93827000000E+00  0.93827000000E+00 0.  1.
     999902    2    1    2    0    0  0.11881840093E-01 -0.14077939534E-01  0.16078679740E-01  0.10194782015E+01  0.10191849258E+01 0.  0.
     999903    2    3    3    0    0  0.83930172230E-01  0.15169831002E-01  0.98958035040E-01  0.13217026076E+00  0.20047133142E-01 0.  0.
         14    1    1    2    0    0 -0.11881840093E-01  0.14077939534E-01 -0.16078679740E-01  0.24451798455E-01  0.00000000000E+00 0. -1.
     999901    1    3    3    0    0 -0.72048332136E-01 -0.29247770536E-01 -0.82879355300E-01  0.88730794078E+00  0.88000000000E+00 0.  1.
        -11    1    4    4    0    0  0.46710256556E-01  0.12521068690E-01  0.69279847091E-01  0.84490138849E-01  0.51100000000E-03 0.  1.
         11    1    4    4    0    0  0.37219915674E-01  0.26487623120E-02  0.29678187949E-01  0.47680121911E-01  0.51100000000E-03 0. -1.
</event>
<event>
 8    1  0.1044719E+005  0.1043930E+01  0.7957747E-01            NaN
         13   -1    0    0    0    0  0.00000000000E+00  0.00000000000E+00  0.74505805969E-08  0.10566000000E+00  0.10566000000E+00 0.  1.
     999900   -1    0    0    0    0 -0.00000000000E+00 -0.00000000000E+00 -0.74505805969E-08  0.93827000000E+00  0.93827000000E+00 0.  1.
     999902    2    1    2    0    0 -0.27638380111E-01 -0.31196994554E-03 -0.17039785864E-01  0.10114595260E+01  0.10109381984E+01 0.  0.
     999903    2    3    3    0    0  0.38359554860E-01 -0.11267284495E+00  0.12432379691E-01  0.12137565230E+00  0.20269668676E-01 0.  0.
         14    1    1    2    0    0  0.27638380111E-01  0.31196994554E-03  0.17039785864E-01  0.32470474014E-01  0.00000000000E+00 0. -1.
     999901    1    3    3    0    0 -0.65997934971E-01  0.11236087501E+00 -0.29472165555E-01  0.89008387369E+00  0.88000000000E+00 0.  1.
        -11    1    4    4    0    0  0.11883148951E-01 -0.55511022544E-01 -0.17625220005E-02  0.56798331469E-01  0.51100000000E-03 0.  1.
         11    1    4    4    0    0  0.26476405909E-01 -0.57161822406E-01  0.14194901692E-01  0.64577320831E-01  0.51100000000E-03 0. -1.
</event>
<event>
 8    1  0.1044719E+005  0.1043930E+01  0.7957747E-01            NaN
         13   -1    0    0    0    0  0.00000000000E+00  0.00000000000E+00  0.74505805969E-08  0.10566000000E+00  0.10566000000E+00 0. -1.
     999900   -1    0    0    0    0 -0.00000000000E+00 -0.00000000000E+00 -0.74505805969E-08  0.93827000000E+00  0.93827000000E+00 0.  1.
     999902    2    1    2    0    0 -0.21288143659E-01 -0.10097190939E-01  0.25677883388E-02  0.10202291168E+01  0.10199537828E+01 0.  0.
     999903    2    3    3    0    0 -0.45742259057E-01 -0.12252064591E+00 -0.92419551770E-02  0.13266136899E+00  0.20247522056E-01 0.  0.
         14    1    1    2    0    0  0.21288143659E-01  0.10097190939E-01 -0.25677883388E-02  0.23700883154E-01  0.00000000000E+00 0.  1.
     999901    1    3    3    0    0  0.24454115398E-01  0.11242345497E+00  0.11809743516E-01  0.88756774785E+00  0.88000000000E+00 0.  1.
        -11    1    4    4    0    0 -0.46476774474E-01 -0.11946609996E+00 -0.63269856377E-02  0.12834536016E+00  0.51100000000E-03 0. -1.
         11    1    4    4    0    0  0.73451541726E-03 -0.30545459499E-02 -0.29149695394E-02  0.43160088361E-02  0.51100000000E-03 0.  1.
</event>
<event>
 8    1  0.1044719E+005  0.1043930E+01  0.7957747E-01            NaN
         13   -1    0    0    0    0  0.00000000000E+00  0.00000000000E+00  0.74505805969E-08  0.10566000000E+00  0.10566000000E+00 0. -1.
     999900   -1    0    0    0    0 -0.00000000000E+00 -0.00000000000E+00 -0.74505805969E-08  0.93827000000E+00  0.93827000000E+00 0.  1.
     999902    2    1    2    0    0 -0.14503445795E-02 -0.79983807250E-02 -0.21343255374E-01  0.10210911703E+01  0.10208357193E+01 0.  0.
     999903    2    3    3    0    0  0.48034249703E-01  0.78563710985E-01 -0.93375191283E-01  0.13253598313E+00  0.19165454583E-01 0.  0.
         14    1    1    2    0    0  0.14503445795E-02  0.79983807250E-02  0.21343255374E-01  0.22838829734E-01  0.00000000000E+00 0. -1.
     999901    1    3    3    0    0 -0.49484594283E-01 -0.86562091710E-01  0.72031935908E-01  0.88855518713E+00  0.88000000000E+00 0. -1.
        -11    1    4    4    0    0  0.45800672217E-01  0.62629038166E-01 -0.72658534604E-01  0.10629967906E+00  0.51100000000E-03 0. -1.
         11    1    4    4    0    0  0.22335774860E-02  0.15934672819E-01 -0.20716656679E-01  0.26236304069E-01  0.51100000000E-03 0.  1.
</event>
<event>
 8    1  0.1044719E+005  0.1043930E+01  0.7957747E-01            NaN
         13   -1    0    0    0    0  0.00000000000E+00  0.00000000000E+00  0.74505805969E-08  0.10566000000E+00  0.10566000000E+00 0. -1.
     999900   -1    0    0    0    0 -0.00000000000E+00 -0.00000000000E+00 -0.74505805969E-08  0.93827000000E+00  0.93827000000E+00 0. -1.
     999902    2    1    2    0    0  0.22467645864E-01  0.33851973627E-02  0.88410513726E-02  0.10195492933E+01  0.10192577410E+01 0.  0.
     999903    2    3    3    0    0  0.90967826583E-01  0.62862405890E-01 -0.68580300646E-01  0.13150431757E+00  0.19060439551E-01 0.  0.
         14    1    1    2    0    0 -0.22467645864E-01 -0.33851973627E-02 -0.88410513726E-02  0.24380706741E-01  0.00000000000E+00 0.  1.
     999901    1    3    3    0    0 -0.68500180720E-01 -0.59477208528E-01  0.77421352019E-01  0.88804497569E+00  0.88000000000E+00 0. -1.
        -11    1    4    4    0    0  0.28947046536E-01  0.23751972524E-01 -0.33392797503E-01  0.50173974808E-01  0.51100000000E-03 0. -1.
         11    1    4    4    0    0  0.62020780047E-01  0.39110433366E-01 -0.35187503144E-01  0.81330342765E-01  0.51100000000E-03 0.  1.
</event>
<event>
 8    1  0.1044719E+005  0.1043930E+01  0.7957747E-01            NaN
         13   -1    0    0    0    0  0.00000000000E+00  0.00000000000E+00  0.74505805969E-08  0.10566000000E+00  0.10566000000E+00 0. -1.
     999900   -1    0    0    0    0 -0.00000000000E+00 -0.00000000000E+00 -0.74505805969E-08  0.93827000000E+00  0.93827000000E+00 0.  1.
     999902    2    1    2    0    0 -0.12608158448E-01 -0.32538917176E-02 -0.19907822226E-01  0.10201418757E+01  0.10198644870E+01 0.  0.
     999903    2    3    3    0    0  0.77874582511E-01 -0.20069507980E-01 -0.10223518582E+00  0.13152064812E+00  0.19452812376E-01 0.  0.
         14    1    1    2    0    0  0.12608158448E-01  0.32538917176E-02  0.19907822226E-01  0.23788124275E-01  0.00000000000E+00 0. -1.
     999901    1    3    3    0    0 -0.90482740959E-01  0.16815616263E-01  0.82327363594E-01  0.88862122761E+00  0.88000000000E+00 0. -1.
        -11    1    4    4    0    0  0.63038479377E-01 -0.88479420024E-02 -0.72914627219E-01  0.96793284598E-01  0.51100000000E-03 0. -1.
         11    1    4    4    0    0  0.14836103134E-01 -0.11221565978E-01 -0.29320558601E-01  0.34727363518E-01  0.51100000000E-03 0.  1.
</event>
<event>
 8    1  0.1044719E+005  0.1043930E+01  0.7957747E-01            NaN
         13   -1    0    0    0    0  0.00000000000E+00  0.00000000000E+00  0.74505805969E-08  0.10566000000E+00  0.10566000000E+00 0. -1.
     999900   -1    0    0    0    0 -0.00000000000E+00 -0.00000000000E+00 -0.74505805969E-08  0.93827000000E+00  0.93827000000E+00 0.  1.
     999902    2    1    2    0    0 -0.90922475880E-02  0.14533271049E-01 -0.14838620121E-01  0.10212568974E+01  0.10210051816E+01 0.  0.
     999903    2    3    3    0    0  0.65306923568E-01  0.11034636265E-01  0.10934486721E+00  0.12942226272E+00  0.20175842951E-01 0.  0.
         14    1    1    2    0    0  0.90922475880E-02 -0.14533271049E-01  0.14838620121E-01  0.22673102582E-01  0.00000000000E+00 0. -1.
     999901    1    3    3    0    0 -0.74399171156E-01  0.34986347841E-02 -0.12418348734E+00  0.89183463469E+00  0.88000000000E+00 0.  1.
        -11    1    4    4    0    0  0.42528263473E-01  0.16248957907E-01  0.66064859064E-01  0.80234085969E-01  0.51100000000E-03 0.  1.
         11    1    4    4    0    0  0.22778660096E-01 -0.52143216421E-02  0.43280008150E-01  0.49188176755E-01  0.51100000000E-03 0. -1.
</event>
<event>
 8    1  0.1044719E+005  0.1043930E+01  0.7957747E-01            NaN
         13   -1    0    0    0    0  0.00000000000E+00  0.00000000000E+00  0.74505805969E-08  0.10566000000E+00  0.10566000000E+00 0.  1.
     999900   -1    0    0    0    0 -0.00000000000E+00 -0.00000000000E+00 -0.74505805969E-08  0.93827000000E+00  0.93827000000E+00 0.  1.
     999902    2    1    2    0    0  0.14234584271E-02 -0.13861682459E-01  0.18382541007E-01  0.10208629176E+01  0.10206022763E+01 0.  0.
     999903    2    3    3    0    0  0.23832347817E-01  0.38782943283E-01 -0.11874820676E+00  0.12840650026E+00  0.17748104388E-01 0.  0.
         14    1    1    2    0    0 -0.14234584271E-02  0.13861682459E-01 -0.18382541007E-01  0.23067082355E-01  0.00000000000E+00 0. -1.
     999901    1    3    3    0    0 -0.22408889390E-01 -0.52644625742E-01  0.13713074777E+00  0.89245641738E+00  0.88000000000E+00 0. -1.
        -11    1    4    4    0    0  0.14368812089E-01  0.34651475075E-01 -0.80966489070E-01  0.89235760539E-01  0.51100000000E-03 0.  1.
         11    1    4    4    0    0  0.94635357282E-02  0.41314682081E-02 -0.37781717689E-01  0.39170739724E-01  0.51100000000E-03 0. -1.
</event>
<event>
 8    1  0.1044719E+005  0.1043930E+01  0.7957747E-01            NaN
         13   -1    0    0    0    0  0.00000000000E+00  0.00000000000E+00  0.74505805969E-08  0.10566000000E+00  0.10566000000E+00 0.  1.
     999900   -1    0    0    0    0 -0.00000000000E+00 -0.00000000000E+00 -0.74505805969E-08  0.93827000000E+00  0.93827000000E+00 0.  1.
     999902    2    1    2    0    0  0.87601529721E-03 -0.23746491851E-01 -0.34454134385E-02  0.10199188744E+01  0.10196361980E+01 0.  0.
     999903    2    3    3    0    0  0.94038367151E-01 -0.87283536665E-01 -0.27484736924E-01  0.13239756823E+00  0.17665645741E-01 0.  0.
         14    1    1    2    0    0 -0.87601529721E-03  0.23746491851E-01  0.34454134385E-02  0.24011125584E-01  0.00000000000E+00 0. -1.
     999901    1    3    3    0    0 -0.93162351854E-01  0.63537044814E-01  0.24039323485E-01  0.88752130619E+00  0.88000000000E+00 0. -1.
        -11    1    4    4    0    0  0.25003706358E-01 -0.15312339463E-01 -0.16199751603E-02  0.29369005976E-01  0.51100000000E-03 0.  1.
         11    1    4    4    0    0  0.69034660793E-01 -0.71971197202E-01 -0.25864761763E-01  0.10302856225E+00  0.51100000000E-03 0. -1.
</event>
<event>
 8    1  0.1044719E+005  0.1043930E+01  0.7957747E-01            NaN
         13   -1    0    0    0    0  0.00000000000E+00  0.00000000000E+00  0.74505805969E-08  0.10566000000E+00  0.10566000000E+00 0. -1.
     999900   -1    0    0    0    0 -0.00000000000E+00 -0.00000000000E+00 -0.74505805969E-08  0.93827000000E+00  0.93827000000E+00 0.  1.
     999902    2    1    2    0    0 -0.10681089271E-01  0.13762247185E-01 -0.15153464999E-01  0.10208407684E+01  0.10205796205E+01 0.  0.
     999903    2    3    3    0    0  0.82333049066E-02  0.78728661227E-01 -0.10583311693E+00  0.13359717807E+00  0.19533764121E-01 0.  0.
         14    1    1    2    0    0  0.10681089271E-01 -0.13762247185E-01  0.15153464999E-01  0.23089231626E-01  0.00000000000E+00 0. -1.
     999901    1    3    3    0    0 -0.18914394178E-01 -0.64966414042E-01  0.90679651931E-01  0.88724359030E+00  0.88000000000E+00 0. -1.
        -11    1    4    4    0    0 -0.59004225027E-02  0.35681950356E-01 -0.44619569086E-01  0.57438520466E-01  0.51100000000E-03 0. -1.
         11    1    4    4    0    0  0.14133727409E-01  0.43046710871E-01 -0.61213547845E-01  0.76158657604E-01  0.51100000000E-03 0.  1.
</event>
<event>
 8    1  0.1044719E+005  0.1043930E+01  0.7957747E-01            NaN
         13   -1    0    0    0    0  0.00000000000E+00  0.00000000000E+00  0.74505805969E-08  0.10566000000E+00  0.10566000000E+00 0. -1.
     999900   -1    0    0    0    0 -0.00000000000E+00 -0.00000000000E+00 -0.74505805969E-08  0.93827000000E+00  0.93827000000E+00 0.  1.
     999902    2    1    2    0    0 -0.27501659397E-01  0.98339032253E-02  0.15223484072E-03  0.10147226362E+01  0.10143022027E+01 0.  0.
     999903    2    3    3    0    0  0.63486986952E-01 -0.84598543948E-01  0.59073487473E-01  0.12305670392E+00  0.21581573349E-01 0.  0.
         14    1    1    2    0    0  0.27501659397E-01 -0.98339032253E-02 -0.15223484072E-03  0.29207363758E-01  0.00000000000E+00 0.  1.
     999901    1    3    3    0    0 -0.90988646349E-01  0.94432447174E-01 -0.58921252632E-01  0.89166593232E+00  0.88000000000E+00 0.  1.
        -11    1    4    4    0    0  0.28283206546E-01 -0.44335743038E-01  0.17882724102E-01  0.55548634777E-01  0.51100000000E-03 0.  1.
         11    1    4    4    0    0  0.35203780406E-01 -0.40262800910E-01  0.41190763371E-01  0.67508069148E-01  0.51100000000E-03 0. -1.
</event>
<event>
 8    1  0.1044719E+005  0.1043930E+01  0.7957747E-01            NaN
         13   -1    0    0    0    0  0.00000000000E+00  0.00000000000E+00  0.74505805969E-08  0.10566000000E+00  0.10566000000E+00 0. -1.
     999900   -1    0    0    0    0 -0.00000000000E+00 -0.00000000000E+00 -0.74505805969E-08  0.93827000000E+00  0.93827000000E+00 0.  1.
     999902    2    1    2    0    0 -0.20328758061E-02 -0.16888979293E-01 -0.72975827630E-02  0.10254198698E+01  0.10252527905E+01 0.  0.
     999903    2    3    3    0    0  0.48337527766E-01  0.12234878665E+00 -0.25035447240E-02  0.13303692744E+00  0.19667591160E-01 0.  0.
         14    1    1    2    0    0  0.20328758061E-02  0.16888979293E-01  0.72975827630E-02  0.18510130194E-01  0.00000000000E+00 0. -1.
     999901    1    3    3    0    0 -0.50370403572E-01 -0.13923776594E+00 -0.47940380390E-02  0.89238294236E+00  0.88000000000E+00 0.  1.
        -11    1    4    4    0    0  0.20796767773E-01  0.47768938728E-01 -0.10439279416E-01  0.53137714786E-01  0.51100000000E-03 0.  1.
         11    1    4    4    0    0  0.27540759993E-01  0.74579847922E-01  0.79357346916E-02  0.79899212656E-01  0.51100000000E-03 0. -1.
</event>
<event>
 7    1  0.1044719E+005  0.1043930E+01  0.7957747E-01            NaN
         13   -1    0    0    0    0  0.00000000000E+00  0.00000000000E+00  0.74505805969E-08  0.10566000000E+00  0.10566000000E+00 0. -1.
     999900   -1    0    0    0    0 -0.00000000000E+00 -0.00000000000E+00 -0.74505805969E-08  0.93827000000E+00  0.93827000000E+00 0.  1.
     999903    2    1    2    0    0 -0.98948761149E-01 -0.76490971508E-02 -0.29186346188E-01  0.10528739183E+00  0.19601685001E-01 0.  0.
         14    1    1    2    0    0 -0.11405138137E-01 -0.19009226326E-01 -0.43041461854E-01  0.48414825208E-01  0.00000000000E+00 0.  1.
     999901    1    1    2    0    0  0.11035389929E+00  0.26658323476E-01  0.72227808042E-01  0.89022778296E+00  0.88000000000E+00 0. -1.
        -11    1    3    3    0    0 -0.69143446338E-01  0.34144687205E-02 -0.17459340360E-01  0.71397230023E-01  0.51100000000E-03 0. -1.
         11    1    3    3    0    0 -0.29805314812E-01 -0.11063565871E-01 -0.11727005828E-01  0.33890161810E-01  0.51100000000E-03 0.  1.
</event>
<event>
 8    1  0.1044719E+005  0.1043930E+01  0.7957747E-01            NaN
         13   -1    0    0    0    0  0.00000000000E+00  0.00000000000E+00  0.74505805969E-08  0.10566000000E+00  0.10566000000E+00 0. -1.
     999900   -1    0    0    0    0 -0.00000000000E+00 -0.00000000000E+00 -0.74505805969E-08  0.93827000000E+00  0.93827000000E+00 0.  1.
     999902    2    1    2    0    0  0.77392374881E-02  0.14177659950E-01  0.16452726287E-01  0.10208736768E+01  0.10206132813E+01 0.  0.
     999903    2    3    3    0    0  0.12888709921E+00  0.22755658063E-01  0.20409444926E-04  0.13238034113E+00  0.19870832491E-01 0.  0.
         14    1    1    2    0    0 -0.77392374881E-02 -0.14177659950E-01 -0.16452726287E-01  0.23056323229E-01  0.00000000000E+00 0.  1.
     999901    1    3    3    0    0 -0.12114786172E+00 -0.85779981137E-02  0.16432316842E-01  0.88849333565E+00  0.88000000000E+00 0. -1.
        -11    1    4    4    0    0  0.10292281904E+00  0.22545147397E-01 -0.66281397254E-02  0.10557264659E+00  0.51100000000E-03 0.  1.
         11    1    4    4    0    0  0.25964280165E-01  0.21051066626E-03  0.66485491703E-02  0.26807694536E-01  0.51100000000E-03 0. -1.
</event>
<event>
 8    1  0.1044719E+005  0.1043930E+01  0.7957747E-01            NaN
         13   -1    0    0    0    0  0.00000000000E+00  0.00000000000E+00  0.74505805969E-08  0.10566000000E+00  0.10566000000E+00 0.  1.
     999900   -1    0    0    0    0 -0.00000000000E+00 -0.00000000000E+00 -0.74505805969E-08  0.93827000000E+00  0.93827000000E+00 0. -1.
     999902    2    1    2    0    0  0.44607388075E-02 -0.20112011633E-01  0.10976452441E-01  0.10205874699E+01  0.10203204938E+01 0.  0.
     999903    2    3    3    0    0 -0.88868776993E-01 -0.93081423549E-01  0.25468556985E-01  0.13253062788E+00  0.18812469169E-01 0.  0.
         14    1    1    2    0    0 -0.44607388075E-02  0.20112011633E-01 -0.10976452441E-01  0.23342530086E-01  0.00000000000E+00 0. -1.
     999901    1    3    3    0    0  0.93329515801E-01  0.72969411916E-01 -0.14492104544E-01  0.88805684204E+00  0.88000000000E+00 0. -1.
        -11    1    4    4    0    0 -0.17502587081E-01 -0.27849876721E-01  0.15779436619E-02  0.32934893580E-01  0.51100000000E-03 0.  1.
         11    1    4    4    0    0 -0.71366189912E-01 -0.65231546828E-01  0.23890613323E-01  0.99595734297E-01  0.51100000000E-03 0. -1.
</event>
<event>
 8    1  0.1044719E+005  0.1043930E+01  0.7957747E-01            NaN
         13   -1    0    0    0    0  0.00000000000E+00  0.00000000000E+00  0.74505805969E-08  0.10566000000E+00  0.10566000000E+00 0.  1.
     999900   -1    0    0    0    0 -0.00000000000E+00 -0.00000000000E+00 -0.74505805969E-08  0.93827000000E+00  0.93827000000E+00 0.  1.
     999902    2    1    2    0    0 -0.65445491464E-02 -0.12540950994E-01 -0.18883254495E-01  0.10203358508E+01  0.10200630199E+01 0.  0.
     999903    2    3    3    0    0  0.74510141566E-02  0.12455440778E+00  0.23532537087E-01  0.12860152235E+00  0.20377760893E-01 0.  0.
         14    1    1    2    0    0  0.65445491464E-02  0.12540950994E-01  0.18883254495E-01  0.23594149183E-01  0.00000000000E+00 0.  1.
     999901    1    3    3    0    0 -0.13995563303E-01 -0.13709535878E+00 -0.42415791582E-01  0.89173432847E+00  0.88000000000E+00 0.  1.
        -11    1    4    4    0    0  0.72959520851E-02  0.80113814759E-01  0.24665309199E-01  0.84143287497E-01  0.51100000000E-03 0. -1.
         11    1    4    4    0    0  0.15506207158E-03  0.44440593024E-01 -0.11327721116E-02  0.44458234853E-01  0.51100000000E-03 0.  1.
</event>
<event>
 8    1  0.1044719E+005  0.1043930E+01  0.7957747E-01            NaN
         13   -1    0    0    0    0  0.00000000000E+00  0.00000000000E+00  0.74505805969E-08  0.10566000000E+00  0.10566000000E+00 0.  1.
     999900   -1    0    0    0    0 -0.00000000000E+00 -0.00000000000E+00 -0.74505805969E-08  0.93827000000E+00  0.93827000000E+00 0.  1.
     999902    2    1    2    0    0 -0.21943831935E-01 -0.15537041211E-02  0.81835601277E-02  0.10204583913E+01  0.10201884199E+01 0.  0.
     999903    2    3    3    0    0 -0.59666147271E-01 -0.25528601811E-01 -0.11230673625E+00  0.13112398837E+00  0.19207776535E-01 0.  0.
         14    1    1    2    0    0  0.21943831935E-01  0.15537041211E-02 -0.81835601277E-02  0.23471608655E-01  0.00000000000E+00 0. -1.
     999901    1    3    3    0    0  0.37722315336E-01  0.23974897690E-01  0.12049029637E+00  0.88933440297E+00  0.88000000000E+00 0. -1.
        -11    1    4    4    0    0 -0.10473877770E-01  0.22363996951E-02 -0.24123577582E-01  0.26399085505E-01  0.51100000000E-03 0. -1.
         11    1    4    4    0    0 -0.49192269501E-01 -0.27765001506E-01 -0.88183158664E-01  0.10472490287E+00  0.51100000000E-03 0.  1.
</event>
<event>
 8    1  0.1044719E+005  0.1043930E+01  0.7957747E-01            NaN
         13   -1    0    0    0    0  0.00000000000E+00  0.00000000000E+00  0.74505805969E-08  0.10566000000E+00  0.10566000000E+00 0. -1.
     999900   -1    0    0    0    0 -0.00000000000E+00 -0.00000000000E+00 -0.74505805969E-08  0.93827000000E+00  0.93827000000E+00 0. -1.
     999902    2    1    2    0    0 -0.69791818718E-02 -0.12753385304E-01  0.19038919117E-01  0.10199750786E+01  0.10196937397E+01 0.  0.
     999903    2    3    3    0    0  0.96766848840E-01  0.76567381991E-01 -0.28839147233E-01  0.12810415323E+00  0.18777397085E-01 0.  0.
         14    1    1    2    0    0  0.69791818718E-02  0.12753385304E-01 -0.19038919117E-01  0.23954921362E-01  0.00000000000E+00 0. -1.
     999901    1    3    3    0    0 -0.10374603071E+00 -0.89320767295E-01  0.47878066350E-01  0.89187092541E+00  0.88000000000E+00 0.  1.
        -11    1    4    4    0    0  0.22094216463E-01  0.10821406403E-01 -0.11298005056E-01  0.27076987959E-01  0.51100000000E-03 0. -1.
         11    1    4    4    0    0  0.74672632376E-01  0.65745975588E-01 -0.17541142177E-01  0.10102716527E+00  0.51100000000E-03 0.  1.
</event>
<event>
 8    1  0.1044719E+005  0.1043930E+01  0.7957747E-01            NaN
         13   -1    0    0    0    0  0.00000000000E+00  0.00000000000E+00  0.74505805969E-08  0.10566000000E+00  0.10566000000E+00 0. -1.
     999900   -1    0    0    0    0 -0.00000000000E+00 -0.00000000000E+00 -0.74505805969E-08  0.93827000000E+00  0.93827000000E+00 0.  1.
     999902    2    1    2    0    0 -0.11578516984E-01 -0.14674358322E-01  0.12069431529E-01  0.10216798309E+01  0.10214375198E+01 0.  0.
     999903    2    3    3    0    0  0.32694291722E-01  0.80027818598E-01  0.96931537577E-01  0.13143820024E+00  0.20171986649E-01 0.  0.
         14    1    1    2    0    0  0.11578516984E-01  0.14674358322E-01 -0.12069431529E-01  0.22250169104E-01  0.00000000000E+00 0.  1.
     999901    1    3    3    0    0 -0.44272808706E-01 -0.94702176920E-01 -0.84862106048E-01  0.89024163065E+00  0.88000000000E+00 0.  1.
        -11    1    4    4    0    0  0.12617343695E-01  0.42577770117E-01  0.36093225448E-01  0.57228016865E-01  0.51100000000E-03 0.  1.
         11    1    4    4    0    0  0.20076948027E-01  0.37450048481E-01  0.60838312129E-01  0.74210183379E-01  0.51100000000E-03 0. -1.
</event>
<event>
 8    1  0.1044719E+005  0.1043930E+01  0.7957747E-01            NaN
         13   -1    0    0    0    0  0.00000000000E+00  0.00000000000E+00  0.74505805969E-08  0.10566000000E+00  0.10566000000E+00 0.  1.
     999900   -1    0    0    0    0 -0.00000000000E+00 -0.00000000000E+00 -0.74505805969E-08  0.93827000000E+00  0.93827000000E+00 0. -1.
     999902    2    1    2    0    0  0.11209624998E-01  0.19315968006E-01 -0.38969919586E-02  0.10212595598E+01  0.10210079038E+01 0.  0.
     999903    2    3    3    0    0  0.57120816534E-01  0.39390431055E-01  0.11102100476E+00  0.13237432112E+00  0.19567924106E-01 0.  0.
         14    1    1    2    0    0 -0.11209624998E-01 -0.19315968006E-01  0.38969919586E-02  0.22670440201E-01  0.00000000000E+00 0. -1.
     999901    1    3    3    0    0 -0.45911191535E-01 -0.20074463050E-01 -0.11491799672E+00  0.88888523868E+00  0.88000000000E+00 0.  1.
        -11    1    4    4    0    0  0.29298063007E-01  0.22476589875E-01  0.76325751124E-01  0.84790653931E-01  0.51100000000E-03 0.  1.
         11    1    4    4    0    0  0.27822753527E-01  0.16913841180E-01  0.34695253634E-01  0.47583667188E-01  0.51100000000E-03 0. -1.
</event>
<event>
 8    1  0.1044719E+005  0.1043930E+01  0.7957747E-01            NaN
         13   -1    0    0    0    0  0.00000000000E+00  0.00000000000E+00  0.74505805969E-08  0.10566000000E+00  0.10566000000E+00 0.  1.
     999900   -1    0    0    0    0 -0.00000000000E+00 -0.00000000000E+00 -0.74505805969E-08  0.93827000000E+00  0.93827000000E+00 0. -1.
     999902    2    1    2    0    0  0.13556111382E-01 -0.18468396525E-01  0.67281868258E-02  0.10200528493E+01  0.10197733558E+01 0.  0.
     999903    2    3    3    0    0  0.21840869486E-01 -0.37426393815E-01  0.12322378363E+00  0.13213434691E+00  0.19940567839E-01 0.  0.
         14    1    1    2    0    0 -0.13556111382E-01  0.18468396525E-01 -0.67281868258E-02  0.23877150666E-01  0.00000000000E+00 0. -1.
     999901    1    3    3    0    0 -0.82847581043E-02  0.18957997290E-01 -0.11649559681E+00  0.88791850243E+00  0.88000000000E+00 0. -1.
        -11    1    4    4    0    0  0.25314211323E-01 -0.31018808863E-01  0.97732548709E-01  0.10561670321E+00  0.51100000000E-03 0. -1.
         11    1    4    4    0    0 -0.34733418368E-02 -0.64075849517E-02  0.25491234923E-01  0.26517643699E-01  0.51100000000E-03 0.  1.
</event>
<event>
 8    1  0.1044719E+005  0.1043930E+01  0.7957747E-01            NaN
         13   -1    0    0    0    0  0.00000000000E+00  0.00000000000E+00  0.74505805969E-08  0.10566000000E+00  0.10566000000E+00 0.  1.
     999900   -1    0    0    0    0 -0.00000000000E+00 -0.00000000000E+00 -0.74505805969E-08  0.93827000000E+00  0.93827000000E+00 0.  1.
     999902    2    1    2    0    0 -0.15186865915E-01 -0.16715091600E-01  0.86445216853E-02  0.10197481279E+01  0.10194613683E+01 0.  0.
     999903    2    3    3    0    0  0.45376485956E-01  0.87303778279E-01 -0.78473854190E-01  0.12729227111E+00  0.19084059169E-01 0.  0.
         14    1    1    2    0    0  0.15186865915E-01  0.16715091600E-01 -0.86445216853E-02  0.24181872109E-01  0.00000000000E+00 0. -1.
     999901    1    3    3    0    0 -0.60563351871E-01 -0.10401886988E+00  0.87118375876E-01  0.89245585678E+00  0.88000000000E+00 0. -1.
        -11    1    4    4    0    0  0.22396397487E-01  0.46348286192E-01 -0.29034830724E-01  0.59101986172E-01  0.51100000000E-03 0.  1.
         11    1    4    4    0    0  0.22980088469E-01  0.40955492087E-01 -0.49439023466E-01  0.68190284942E-01  0.51100000000E-03 0. -1.
</event>
<event>
 7    1  0.1044719E+005  0.1043930E+01  0.7957747E-01            NaN
         13   -1    0    0    0    0  0.00000000000E+00  0.00000000000E+00  0.74505805969E-08  0.10566000000E+00  0.10566000000E+00 0. -1.
     999900   -1    0    0    0    0 -0.00000000000E+00 -0.00000000000E+00 -0.74505805969E-08  0.93827000000E+00  0.93827000000E+00 0. -1.
     999903    2    1    2    0    0  0.34521318646E-01  0.99953705898E-01  0.22106794881E-01  0.10992359598E+00  0.20298320381E-01 0.  0.
         14    1    1    2    0    0 -0.28095784011E-01 -0.43531483935E-01  0.19570404543E-02  0.51847788575E-01  0.00000000000E+00 0.  1.
     999901    1    1    2    0    0 -0.64255346344E-02 -0.56422221963E-01 -0.24063835336E-01  0.88215861544E+00  0.88000000000E+00 0. -1.
        -11    1    3    3    0    0  0.20280446991E-01  0.38162854747E-01  0.14973417816E-02  0.43245845650E-01  0.51100000000E-03 0. -1.
         11    1    3    3    0    0  0.14240871655E-01  0.61790851151E-01  0.20609453100E-01  0.66677750333E-01  0.51100000000E-03 0.  1.
</event>
<event>
 8    1  0.1044719E+005  0.1043930E+01  0.7957747E-01            NaN
         13   -1    0    0    0    0  0.00000000000E+00  0.00000000000E+00  0.74505805969E-08  0.10566000000E+00  0.10566000000E+00 0. -1.
     999900   -1    0    0    0    0 -0.00000000000E+00 -0.00000000000E+00 -0.74505805969E-08  0.93827000000E+00  0.93827000000E+00 0.  1.
     999902    2    1    2    0    0  0.21584267875E-01 -0.13964950203E-02  0.11716012332E-01  0.10193313057E+01  0.10190344523E+01 0.  0.
     999903    2    3    3    0    0 -0.83405671701E-01  0.82385119424E-01 -0.45283875384E-01  0.12731604036E+00  0.20369850008E-01 0.  0.
         14    1    1    2    0    0 -0.21584267875E-01  0.13964950203E-02 -0.11716012332E-01  0.24598694336E-01  0.00000000000E+00 0.  1.
     999901    1    3    3    0    0  0.10498993958E+00 -0.83781614445E-01  0.56999887717E-01  0.89201526530E+00  0.88000000000E+00 0.  1.
        -11    1    4    4    0    0 -0.31970216196E-01  0.25123465502E-01 -0.24931675676E-01  0.47698352335E-01  0.51100000000E-03 0. -1.
         11    1    4    4    0    0 -0.51435455505E-01  0.57261653923E-01 -0.20352199709E-01  0.79617688028E-01  0.51100000000E-03 0.  1.
</event>
<event>
 8    1  0.1044719E+005  0.1043930E+01  0.7957747E-01            NaN
         13   -1    0    0    0    0  0.00000000000E+00  0.00000000000E+00  0.74505805969E-08  0.10566000000E+00  0.10566000000E+00 0. -1.
     999900   -1    0    0    0    0 -0.00000000000E+00 -0.00000000000E+00 -0.74505805969E-08  0.93827000000E+00  0.93827000000E+00 0. -1.
     999902    2    1    2    0    0  0.36907513096E-02  0.20061839537E-01  0.11676230025E-01  0.10204260982E+01  0.10201553747E+01 0.  0.
     999903    2    3    3    0    0 -0.79662564632E-01  0.90291913941E-01 -0.52336178671E-01  0.13139425004E+00  0.51594009903E-02 0.  0.
         14    1    1    2    0    0 -0.36907513096E-02 -0.20061839537E-01 -0.11676230025E-01  0.23503901770E-01  0.00000000000E+00 0.  1.
     999901    1    3    3    0    0  0.83353315942E-01 -0.70230074404E-01  0.64012408696E-01  0.88903184819E+00  0.88000000000E+00 0.  1.
        -11    1    4    4    0    0 -0.14306681558E-01  0.19082161982E-01 -0.97039296112E-02  0.25753396164E-01  0.51100000000E-03 0.  1.
         11    1    4    4    0    0 -0.65355883075E-01  0.71209751959E-01 -0.42632249060E-01  0.10564085388E+00  0.51100000000E-03 0. -1.
</event>
<event>
 8    1  0.1044719E+005  0.1043930E+01  0.7957747E-01            NaN
         13   -1    0    0    0    0  0.00000000000E+00  0.00000000000E+00  0.74505805969E-08  0.10566000000E+00  0.10566000000E+00 0.  1.
     999900   -1    0    0    0    0 -0.00000000000E+00 -0.00000000000E+00 -0.74505805969E-08  0.93827000000E+00  0.93827000000E+00 0.  1.
     999902    2    1    2    0    0  0.11470490389E-01  0.13365090961E-01  0.13093293603E-01  0.10219838809E+01  0.10217482178E+01 0.  0.
     999903    2    3    3    0    0 -0.34677074396E-01 -0.63281566681E-01 -0.10554152961E+00  0.12952742306E+00  0.20767346530E-01 0.  0.
         14    1    1    2    0    0 -0.11470490389E-01 -0.13365090961E-01 -0.13093293603E-01  0.21946119100E-01  0.00000000000E+00 0. -1.
     999901    1    3    3    0    0  0.46147564786E-01  0.76646657642E-01  0.11863482321E+00  0.89245645784E+00  0.88000000000E+00 0. -1.
        -11    1    4    4    0    0 -0.25211531446E-01 -0.59710673052E-01 -0.93861396812E-01  0.11406668544E+00  0.51100000000E-03 0. -1.
         11    1    4    4    0    0 -0.94655429504E-02 -0.35708936284E-02 -0.11680132797E-01  0.15460737622E-01  0.51100000000E-03 0.  1.
</event>
<event>
 8    1  0.1044719E+005  0.1043930E+01  0.7957747E-01            NaN
         13   -1    0    0    0    0  0.00000000000E+00  0.00000000000E+00  0.74505805969E-08  0.10566000000E+00  0.10566000000E+00 0.  1.
     999900   -1    0    0    0    0 -0.00000000000E+00 -0.00000000000E+00 -0.74505805969E-08  0.93827000000E+00  0.93827000000E+00 0.  1.
     999902    2    1    2    0    0 -0.21658423281E-01 -0.27052675772E-02 -0.98606884422E-02  0.10199792391E+01  0.10196979990E+01 0.  0.
     999903    2    3    3    0    0  0.10269469240E+00 -0.12507747090E-01 -0.74243219815E-01  0.12885360466E+00  0.19711726531E-01 0.  0.
         14    1    1    2    0    0  0.21658423281E-01  0.27052675772E-02  0.98606884422E-02  0.23950760911E-01  0.00000000000E+00 0.  1.
     999901    1    3    3    0    0 -0.12435311568E+00  0.98024795126E-02  0.64382531372E-01  0.89112563442E+00  0.88000000000E+00 0.  1.
        -11    1    4    4    0    0  0.15261119510E-01  0.49318621695E-02 -0.13507282683E-01  0.20974576030E-01  0.51100000000E-03 0. -1.
         11    1    4    4    0    0  0.87433572886E-01 -0.17439609259E-01 -0.60735937131E-01  0.10787902863E+00  0.51100000000E-03 0.  1.
</event>
<event>
 8    1  0.1044719E+005  0.1043930E+01  0.7957747E-01            NaN
         13   -1    0    0    0    0  0.00000000000E+00  0.00000000000E+00  0.74505805969E-08  0.10566000000E+00  0.10566000000E+00 0.  1.
     999900   -1    0    0    0    0 -0.00000000000E+00 -0.00000000000E+00 -0.74505805969E-08  0.93827000000E+00  0.93827000000E+00 0.  1.
     999902    2    1    2    0    0 -0.83078109140E-02 -0.70743904619E-02  0.20770436455E-01  0.10204677377E+01  0.10201979837E+01 0.  0.
     999903    2    3    3    0    0  0.26666932585E-01  0.12496860826E+00 -0.64927364678E-02  0.12951214575E+00  0.20073911604E-01 0.  0.
         14    1    1    2    0    0  0.83078109140E-02  0.70743904619E-02 -0.20770436455E-01  0.23462262319E-01  0.00000000000E+00 0. -1.
     999901    1    3    3    0    0 -0.34974743499E-01 -0.13204299872E+00  0.27263172923E-01  0.89095559193E+00  0.88000000000E+00 0. -1.
        -11    1    4    4    0    0  0.65217158784E-02  0.31541321791E-01  0.70684683601E-02  0.32978964876E-01  0.51100000000E-03 0. -1.
         11    1    4    4    0    0  0.20145216706E-01  0.93427286466E-01 -0.13561204828E-01  0.96533180875E-01  0.51100000000E-03 0.  1.
</event>
<event>
 8    1  0.1044719E+005  0.1043930E+01  0.7957747E-01            NaN
         13   -1    0    0    0    0  0.00000000000E+00  0.00000000000E+00  0.74505805969E-08  0.10566000000E+00  0.10566000000E+00 0.  1.
     999900   -1    0    0    0    0 -0.00000000000E+00 -0.00000000000E+00 -0.74505805969E-08  0.93827000000E+00  0.93827000000E+00 0. -1.
     999902    2    1    2    0    0  0.38874900478E-02  0.15889060596E-01 -0.14479945517E-01  0.10220840931E+01  0.10218506005E+01 0.  0.
     999903    2    3    3    0    0 -0.11018813975E+00  0.24782595072E-01 -0.65399816858E-01  0.13321673655E+00  0.26720024187E-01 0.  0.
         14    1    1    2    0    0 -0.38874900478E-02 -0.15889060596E-01  0.14479945517E-01  0.21845906886E-01  0.00000000000E+00 0.  1.
     999901    1    3    3    0    0  0.11407562979E+00 -0.88935344761E-02  0.50919871341E-01  0.88886735656E+00  0.88000000000E+00 0.  1.
        -11    1    4    4    0    0 -0.13109770768E-01  0.12362886155E-01 -0.12777181434E-01  0.22095803449E-01  0.51100000000E-03 0.  1.
         11    1    4    4    0    0 -0.97078368978E-01  0.12419708917E-01 -0.52622635424E-01  0.11112093310E+00  0.51100000000E-03 0. -1.
</event>
<event>
 8    1  0.1044719E+005  0.1043930E+01  0.7957747E-01            NaN
         13   -1    0    0    0    0  0.00000000000E+00  0.00000000000E+00  0.74505805969E-08  0.10566000000E+00  0.10566000000E+00 0. -1.
     999900   -1    0    0    0    0 -0.00000000000E+00 -0.00000000000E+00 -0.74505805969E-08  0.93827000000E+00  0.93827000000E+00 0.  1.
     999902    2    1    2    0    0  0.58154767118E-02  0.21942456837E-01  0.58890789475E-02  0.10204785090E+01  0.10202090055E+01 0.  0.
     999903    2    3    3    0    0  0.74804838292E-01 -0.86941679610E-01 -0.55320021587E-01  0.12898434679E+00  0.20543549924E-01 0.  0.
         14    1    1    2    0    0 -0.58154767118E-02 -0.21942456837E-01 -0.58890789475E-02  0.23451491046E-01  0.00000000000E+00 0.  1.
     999901    1    3    3    0    0 -0.68989361581E-01  0.10888413645E+00  0.61209100534E-01  0.89149416216E+00  0.88000000000E+00 0. -1.
        -11    1    4    4    0    0  0.94696463266E-02 -0.62803560824E-02 -0.30967393975E-04  0.11374495771E-01  0.51100000000E-03 0.  1.
         11    1    4    4    0    0  0.65335191966E-01 -0.80661323528E-01 -0.55289054193E-01  0.11760985102E+00  0.51100000000E-03 0. -1.
</event>
<event>
 8    1  0.1044719E+005  0.1043930E+01  0.7957747E-01            NaN
         13   -1    0    0    0    0  0.00000000000E+00  0.00000000000E+00  0.74505805969E-08  0.10566000000E+00  0.10566000000E+00 0.  1.
     999900   -1    0    0    0    0 -0.00000000000E+00 -0.00000000000E+00 -0.74505805969E-08  0.93827000000E+00  0.93827000000E+00 0. -1.
     999902    2    1    2    0    0  0.20525902595E-01  0.11878163036E-01 -0.32883007969E-02  0.10199880628E+01  0.10197070324E+01 0.  0.
     999903    2    3    3    0    0  0.41107055626E-01  0.12380311929E+00  0.14155186202E-01  0.13248873609E+00  0.18327398240E-01 0.  0.
         14    1    1    2    0    0 -0.20525902595E-01 -0.11878163036E-01  0.32883007969E-02  0.23941937193E-01  0.00000000000E+00 0. -1.
     999901    1    3    3    0    0 -0.20581153031E-01 -0.11192495625E+00 -0.17443486999E-01  0.88749932672E+00  0.88000000000E+00 0. -1.
        -11    1    4    4    0    0  0.13518765597E-01  0.62731672059E-01  0.12921206132E-01  0.65461732268E-01  0.51100000000E-03 0. -1.
         11    1    4    4    0    0  0.27588290029E-01  0.61071447226E-01  0.12339800693E-02  0.67027003818E-01  0.51100000000E-03 0.  1.
</event>
<event>
 8    1  0.1044719E+005  0.1043930E+01  0.7957747E-01            NaN
         13   -1    0    0    0    0  0.00000000000E+00  0.00000000000E+00  0.74505805969E-08  0.10566000000E+00  0.10566000000E+00 0. -1.
     999900   -1    0    0    0    0 -0.00000000000E+00 -0.00000000000E+00 -0.74505805969E-08  0.93827000000E+00  0.93827000000E+00 0.  1.
     999902    2    1    2    0    0 -0.58722499885E-02  0.22012634518E-01  0.79259105967E-02  0.10198082369E+01  0.10195229181E+01 0.  0.
     999903    2    3    3    0    0 -0.25013198229E-01  0.11006300166E+00 -0.65658247388E-01  0.13215184424E+00  0.20336667965E-01 0.  0.
         14    1    1    2    0    0  0.58722499885E-02 -0.22012634518E-01 -0.79259105967E-02  0.24121763143E-01  0.00000000000E+00 0. -1.
     999901    1    3    3    0    0  0.19140948240E-01 -0.88050367147E-01  0.73584157985E-01  0.88765639262E+00  0.88000000000E+00 0. -1.
        -11    1    4    4    0    0 -0.24304154810E-01  0.62431554131E-01 -0.36442744674E-01  0.76267461296E-01  0.51100000000E-03 0.  1.
         11    1    4    4    0    0 -0.70904341864E-03  0.47631447534E-01 -0.29215502714E-01  0.55884382940E-01  0.51100000000E-03 0. -1.
</event>
<event>
 8    1  0.1044719E+005  0.1043930E+01  0.7957747E-01            NaN
         13   -1    0    0    0    0  0.00000000000E+00  0.00000000000E+00  0.74505805969E-08  0.10566000000E+00  0.10566000000E+00 0.  1.
     999900   -1    0    0    0    0 -0.00000000000E+00 -0.00000000000E+00 -0.74505805969E-08  0.93827000000E+00  0.93827000000E+00 0. -1.
     999902    2    1    2    0    0  0.21116262766E-01 -0.98746335943E-02  0.39103522375E-02  0.10202932533E+01  0.10200194247E+01 0.  0.
     999903    2    3    3    0    0 -0.10682210111E+00  0.30583890905E-01  0.60547159651E-01  0.12832192799E+00  0.21312507873E-01 0.  0.
         14    1    1    2    0    0 -0.21116262766E-01  0.98746335943E-02 -0.39103522375E-02  0.23636746740E-01  0.00000000000E+00 0. -1.
     999901    1    3    3    0    0  0.12793836388E+00 -0.40458524499E-01 -0.56636807414E-01  0.89197132527E+00  0.88000000000E+00 0. -1.
        -11    1    4    4    0    0 -0.41037287973E-01  0.11751728787E-01  0.35264313938E-01  0.55371428483E-01  0.51100000000E-03 0.  1.
         11    1    4    4    0    0 -0.65784813137E-01  0.18832162118E-01  0.25282845713E-01  0.72950499504E-01  0.51100000000E-03 0. -1.
</event>
<event>
 8    1  0.1044719E+005  0.1043930E+01  0.7957747E-01            NaN
         13   -1    0    0    0    0  0.00000000000E+00  0.00000000000E+00  0.74505805969E-08  0.10566000000E+00  0.10566000000E+00 0.  1.
     999900   -1    0    0    0    0 -0.00000000000E+00 -0.00000000000E+00 -0.74505805969E-08  0.93827000000E+00  0.93827000000E+00 0. -1.
     999902    2    1    2    0    0  0.61289463452E-02 -0.62533050250E-02  0.19064057554E-01  0.10229512942E+01  0.10227361557E+01 0.  0.
     999903    2    3    3    0    0  0.69732321261E-01 -0.18750617426E-01 -0.10820400229E+00  0.13143644228E+00  0.18794945244E-01 0.  0.
         14    1    1    2    0    0 -0.61289463452E-02  0.62533050250E-02 -0.19064057554E-01  0.20978705810E-01  0.00000000000E+00 0. -1.
     999901    1    3    3    0    0 -0.63603374916E-01  0.12497312401E-01  0.12726805984E+00  0.89151485191E+00  0.88000000000E+00 0.  1.
        -11    1    4    4    0    0  0.98841421822E-02  0.38777972576E-02 -0.15342824033E-01  0.18665394412E-01  0.51100000000E-03 0. -1.
         11    1    4    4    0    0  0.59848179079E-01 -0.22628414684E-01 -0.92861178252E-01  0.11277104787E+00  0.51100000000E-03 0.  1.
</event>
<event>
 8    1  0.1044719E+005  0.1043930E+01  0.7957747E-01            NaN
         13   -1    0    0    0    0  0.00000000000E+00  0.00000000000E+00  0.74505805969E-08  0.10566000000E+00  0.10566000000E+00 0.  1.
     999900   -1    0    0    0    0 -0.00000000000E+00 -0.00000000000E+00 -0.74505805969E-08  0.93827000000E+00  0.93827000000E+00 0.  1.
     999902    2    1    2    0    0  0.38238021114E-02  0.23087299707E-01  0.41505862401E-02  0.10201629590E+01  0.10198860675E+01 0.  0.
     999903    2    3    3    0    0 -0.40935077184E-01 -0.11067087118E+00  0.45318938302E-01  0.12798055685E+00  0.20037327388E-01 0.  0.
         14    1    1    2    0    0 -0.38238021114E-02 -0.23087299707E-01 -0.41505862401E-02  0.23767040970E-01  0.00000000000E+00 0. -1.
     999901    1    3    3    0    0  0.44758879295E-01  0.13375817089E+00 -0.41168352062E-01  0.89218240218E+00  0.88000000000E+00 0. -1.
        -11    1    4    4    0    0 -0.19327738333E-01 -0.60561934727E-01  0.34555319556E-01  0.72357726869E-01  0.51100000000E-03 0.  1.
         11    1    4    4    0    0 -0.21607338851E-01 -0.50108936457E-01  0.10763618745E-01  0.55622829977E-01  0.51100000000E-03 0. -1.
</event>
<event>
 8    1  0.1044719E+005  0.1043930E+01  0.7957747E-01            NaN
         13   -1    0    0    0    0  0.00000000000E+00  0.00000000000E+00  0.74505805969E-08  0.10566000000E+00  0.10566000000E+00 0.  1.
     999900   -1    0    0    0    0 -0.00000000000E+00 -0.00000000000E+00 -0.74505805969E-08  0.93827000000E+00  0.93827000000E+00 0. -1.
     999902    2    1    2    0    0 -0.15523799305E-01 -0.21912383544E-01  0.16561872423E-01  0.10123794609E+01  0.10118877094E+01 0.  0.
     999903    2    3    3    0    0  0.13484014402E-01  0.99120101036E-01 -0.63516621494E-01  0.12002141577E+00  0.19083132940E-01 0.  0.
         14    1    1    2    0    0  0.15523799305E-01  0.21912383544E-01 -0.16561872423E-01  0.31550539070E-01  0.00000000000E+00 0. -1.
     999901    1    3    3    0    0 -0.29007813707E-01 -0.12103248458E+00  0.80078493917E-01  0.89235804516E+00  0.88000000000E+00 0.  1.
        -11    1    4    4    0    0 -0.40652820623E-02  0.23547204263E-01 -0.19301858222E-01  0.30721656835E-01  0.51100000000E-03 0.  1.
         11    1    4    4    0    0  0.17549296464E-01  0.75572896773E-01 -0.44214763272E-01  0.89299758932E-01  0.51100000000E-03 0. -1.
</event>
<event>
 8    1  0.1044719E+005  0.1043930E+01  0.7957747E-01            NaN
         13   -1    0    0    0    0  0.00000000000E+00  0.00000000000E+00  0.74505805969E-08  0.10566000000E+00  0.10566000000E+00 0. -1.
     999900   -1    0    0    0    0 -0.00000000000E+00 -0.00000000000E+00 -0.74505805969E-08  0.93827000000E+00  0.93827000000E+00 0. -1.
     999902    2    1    2    0    0  0.21574343681E-01 -0.58603461466E-02 -0.58742553539E-02  0.10208150084E+01  0.10205532708E+01 0.  0.
     999903    2    3    3    0    0 -0.11287624187E+00  0.56584957272E-01 -0.10626753033E-01  0.12840312918E+00  0.20773356411E-01 0.  0.
         14    1    1    2    0    0 -0.21574343681E-01  0.58603461466E-02  0.58742553539E-02  0.23114991633E-01  0.00000000000E+00 0.  1.
     999901    1    3    3    0    0  0.13445058555E+00 -0.62445303419E-01  0.47524976791E-02  0.89241187918E+00  0.88000000000E+00 0.  1.
        -11    1    4    4    0    0 -0.65019493011E-01  0.25920651929E-01 -0.14302777826E-01  0.71444000744E-01  0.51100000000E-03 0.  1.
         11    1    4    4    0    0 -0.47856748857E-01  0.30664305344E-01  0.36760247934E-02  0.56959128440E-01  0.51100000000E-03 0. -1.
</event>
<event>
 8    1  0.1044719E+005  0.1043930E+01  0.7957747E-01            NaN
         13   -1    0    0    0    0  0.00000000000E+00  0.00000000000E+00  0.74505805969E-08  0.10566000000E+00  0.10566000000E+00 0. -1.
     999900   -1    0    0    0    0 -0.00000000000E+00 -0.00000000000E+00 -0.74505805969E-08  0.93827000000E+00  0.93827000000E+00 0. -1.
     999902    2    1    2    0    0 -0.13449212754E-01 -0.88899277781E-02 -0.18889080695E-01  0.10190963634E+01  0.10187937418E+01 0.  0.
     999903    2    3    3    0    0 -0.26673453144E-01 -0.12377854042E+00  0.23964054595E-01  0.13049596663E+00  0.20550455547E-01 0.  0.
         14    1    1    2    0    0  0.13449212754E-01  0.88899277781E-02  0.18889080695E-01  0.24833636647E-01  0.00000000000E+00 0. -1.
     999901    1    3    3    0    0  0.13224240390E-01  0.11488861264E+00 -0.42853135290E-01  0.88860039672E+00  0.88000000000E+00 0.  1.
        -11    1    4    4    0    0 -0.23296265063E-01 -0.76429720698E-01  0.22462949695E-01  0.83000381938E-01  0.51100000000E-03 0. -1.
         11    1    4    4    0    0 -0.33771880810E-02 -0.47348819723E-01  0.15011049005E-02  0.47495584694E-01  0.51100000000E-03 0.  1.
</event>
<event>
 8    1  0.1044719E+005  0.1043930E+01  0.7957747E-01            NaN
         13   -1    0    0    0    0  0.00000000000E+00  0.00000000000E+00  0.74505805969E-08  0.10566000000E+00  0.10566000000E+00 0.  1.
     999900   -1    0    0    0    0 -0.00000000000E+00 -0.00000000000E+00 -0.74505805969E-08  0.93827000000E+00  0.93827000000E+00 0.  1.
     999902    2    1    2    0    0  0.39452717922E-02  0.62047583947E-02 -0.22271833943E-01  0.10204758152E+01  0.10202062491E+01 0.  0.
     999903    2    3    3    0    0 -0.69543084263E-01  0.75206551057E-01 -0.81993555414E-01  0.13270981572E+00  0.19916981892E-01 0.  0.
         14    1    1    2    0    0 -0.39452717922E-02 -0.62047583947E-02  0.22271833943E-01  0.23454184775E-01  0.00000000000E+00 0.  1.
     999901    1    3    3    0    0  0.73488356055E-01 -0.69001792662E-01  0.59721721471E-01  0.88776599951E+00  0.88000000000E+00 0. -1.
        -11    1    4    4    0    0 -0.68883376487E-01  0.68889913681E-01 -0.73232978581E-01  0.12187727449E+00  0.51100000000E-03 0. -1.
         11    1    4    4    0    0 -0.65970777561E-03  0.63166373760E-02 -0.87605768331E-02  0.10832541232E-01  0.51100000000E-03 0.  1.
</event>
<event>
 8    1  0.1044719E+005  0.1043930E+01  0.7957747E-01            NaN
         13   -1    0    0    0    0  0.00000000000E+00  0.00000000000E+00  0.74505805969E-08  0.10566000000E+00  0.10566000000E+00 0.  1.
     999900   -1    0    0    0    0 -0.00000000000E+00 -0.00000000000E+00 -0.74505805969E-08  0.93827000000E+00  0.93827000000E+00 0. -1.
     999902    2    1    2    0    0 -0.17334744351E-01 -0.99444585852E-02 -0.11450370481E-01  0.10208974881E+01  0.10206376363E+01 0.  0.
     999903    2    3    3    0    0 -0.99908727325E-01 -0.86999842099E-01  0.25759979047E-02  0.13356849966E+00  0.16828012814E-01 0.  0.
         14    1    1    2    0    0  0.17334744351E-01  0.99444585852E-02  0.11450370481E-01  0.23032511856E-01  0.00000000000E+00 0.  1.
     999901    1    3    3    0    0  0.82573982974E-01  0.77055383514E-01 -0.14026368385E-01  0.88732898848E+00  0.88000000000E+00 0.  1.
        -11    1    4    4    0    0 -0.58615901421E-01 -0.57327638369E-01  0.82359856199E-02  0.82403729287E-01  0.51100000000E-03 0.  1.
         11    1    4    4    0    0 -0.41292825905E-01 -0.29672203730E-01 -0.56599877152E-02  0.51164770373E-01  0.51100000000E-03 0. -1.
</event>
<event>
 8    1  0.1044719E+005  0.1043930E+01  0.7957747E-01            NaN
         13   -1    0    0    0    0  0.00000000000E+00  0.00000000000E+00  0.74505805969E-08  0.10566000000E+00  0.10566000000E+00 0.  1.
     999900   -1    0    0    0    0 -0.00000000000E+00 -0.00000000000E+00 -0.74505805969E-08  0.93827000000E+00  0.93827000000E+00 0. -1.
     999902    2    1    2    0    0 -0.20457349262E-01  0.52538838110E-02 -0.10106951470E-01  0.10205151137E+01  0.10202464606E+01 0.  0.
     999903    2    3    3    0    0 -0.46108895674E-01  0.27506301900E-02 -0.12345465275E+00  0.13287105804E+00  0.16735308564E-01 0.  0.
         14    1    1    2    0    0  0.20457349262E-01 -0.52538838110E-02  0.10106951470E-01  0.23414886331E-01  0.00000000000E+00 0.  1.
     999901    1    3    3    0    0  0.25651546412E-01  0.25032536210E-02  0.11334770128E+00  0.88764405563E+00  0.88000000000E+00 0.  1.
        -11    1    4    4    0    0 -0.17638643204E-01  0.90229838945E-02 -0.55165705696E-01  0.58617848633E-01  0.51100000000E-03 0. -1.
         11    1    4    4    0    0 -0.28470252469E-01 -0.62723537045E-02 -0.68288947051E-01  0.74253209405E-01  0.51100000000E-03 0.  1.
</event>
<event>
 8    1  0.1044719E+005  0.1043930E+01  0.7957747E-01            NaN
         13   -1    0    0    0    0  0.00000000000E+00  0.00000000000E+00  0.74505805969E-08  0.10566000000E+00  0.10566000000E+00 0.  1.
     999900   -1    0    0    0    0 -0.00000000000E+00 -0.00000000000E+00 -0.74505805969E-08  0.93827000000E+00  0.93827000000E+00 0.  1.
     999902    2    1    2    0    0 -0.80404795670E-02 -0.14656206717E-01 -0.16289126400E-01  0.10205892771E+01  0.10203223428E+01 0.  0.
     999903    2    3    3    0    0  0.10171584870E+00  0.51505735242E-01 -0.59357426281E-01  0.13026420578E+00  0.21130655767E-01 0.  0.
         14    1    1    2    0    0  0.80404795670E-02  0.14656206717E-01  0.16289126400E-01  0.23340722908E-01  0.00000000000E+00 0.  1.
     999901    1    3    3    0    0 -0.10975632826E+00 -0.66161941959E-01  0.43068299882E-01  0.89032507132E+00  0.88000000000E+00 0.  1.
        -11    1    4    4    0    0  0.41196907779E-01  0.32597631437E-01 -0.25949733418E-01  0.58595567847E-01  0.51100000000E-03 0.  1.
         11    1    4    4    0    0  0.60518940917E-01  0.18908103805E-01 -0.33407692864E-01  0.71668637930E-01  0.51100000000E-03 0. -1.
</event>
<event>
 8    1  0.1044719E+005  0.1043930E+01  0.7957747E-01            NaN
         13   -1    0    0    0    0  0.00000000000E+00  0.00000000000E+00  0.74505805969E-08  0.10566000000E+00  0.10566000000E+00 0.  1.
     999900   -1    0    0    0    0 -0.00000000000E+00 -0.00000000000E+00 -0.74505805969E-08  0.93827000000E+00  0.93827000000E+00 0.  1.
     999902    2    1    2    0    0 -0.18319529304E-01  0.72122739882E-02  0.13329905008E-01  0.10201537846E+01  0.10198766768E+01 0.  0.
     999903    2    3    3    0    0  0.20405744429E-01  0.48106975678E-01 -0.11612979435E+00  0.12890082547E+00  0.19965424010E-01 0.  0.
         14    1    1    2    0    0  0.18319529304E-01 -0.72122739882E-02 -0.13329905008E-01  0.23776215375E-01  0.00000000000E+00 0.  1.
     999901    1    3    3    0    0 -0.38725273734E-01 -0.40894701690E-01  0.12945969936E+00  0.89125295916E+00  0.88000000000E+00 0. -1.
        -11    1    4    4    0    0  0.18840638055E-01  0.49282496853E-01 -0.10416473156E+00  0.11676594778E+00  0.51100000000E-03 0.  1.
         11    1    4    4    0    0  0.15651063749E-02 -0.11755211751E-02 -0.11965062788E-01  0.12134877689E-01  0.51100000000E-03 0. -1.
</event>
<event>
 8    1  0.1044719E+005  0.1043930E+01  0.7957747E-01            NaN
         13   -1    0    0    0    0  0.00000000000E+00  0.00000000000E+00  0.74505805969E-08  0.10566000000E+00  0.10566000000E+00 0. -1.
     999900   -1    0    0    0    0 -0.00000000000E+00 -0.00000000000E+00 -0.74505805969E-08  0.93827000000E+00  0.93827000000E+00 0. -1.
     999902    2    1    2    0    0 -0.13136690390E-01 -0.11915998575E-01  0.14373882044E-01  0.10211008051E+01  0.10208455720E+01 0.  0.
     999903    2    3    3    0    0 -0.23683268028E-01 -0.10182616553E+00 -0.77454415815E-01  0.13170353460E+00  0.20424723415E-01 0.  0.
         14    1    1    2    0    0  0.13136690390E-01  0.11915998575E-01 -0.14373882044E-01  0.22829194937E-01  0.00000000000E+00 0.  1.
     999901    1    3    3    0    0  0.10546577637E-01  0.89910166951E-01  0.91828297859E-01  0.88939727046E+00  0.88000000000E+00 0.  1.
        -11    1    4    4    0    0 -0.95097843451E-02 -0.17378198894E-01 -0.22372471658E-01  0.29886893518E-01  0.51100000000E-03 0.  1.
         11    1    4    4    0    0 -0.14173483683E-01 -0.84447966632E-01 -0.55081944157E-01  0.10181664108E+00  0.51100000000E-03 0. -1.
</event>
<event>
 8    1  0.1044719E+005  0.1043930E+01  0.7957747E-01            NaN
         13   -1    0    0    0    0  0.00000000000E+00  0.00000000000E+00  0.74505805969E-08  0.10566000000E+00  0.10566000000E+00 0. -1.
     999900   -1    0    0    0    0 -0.00000000000E+00 -0.00000000000E+00 -0.74505805969E-08  0.93827000000E+00  0.93827000000E+00 0. -1.
     999902    2    1    2    0    0 -0.18532955277E-01 -0.13622611126E-01  0.54359433860E-02  0.10202953761E+01  0.10200215974E+01 0.  0.
     999903    2    3    3    0    0 -0.11495581943E+00 -0.62636996747E-01 -0.10635550718E-01  0.13352704581E+00  0.24044193499E-01 0.  0.
         14    1    1    2    0    0  0.18532955277E-01  0.13622611126E-01 -0.54359433860E-02  0.23634623874E-01  0.00000000000E+00 0.  1.
     999901    1    3    3    0    0  0.96422864153E-01  0.49014385621E-01  0.16071494104E-01  0.88676833032E+00  0.88000000000E+00 0.  1.
        -11    1    4    4    0    0 -0.49517993056E-01 -0.13793536822E-01 -0.56806694271E-02  0.51718704745E-01  0.51100000000E-03 0. -1.
         11    1    4    4    0    0 -0.65437826375E-01 -0.48843459925E-01 -0.49548812909E-02  0.81808341065E-01  0.51100000000E-03 0.  1.
</event>
<event>
 8    1  0.1044719E+005  0.1043930E+01  0.7957747E-01            NaN
         13   -1    0    0    0    0  0.00000000000E+00  0.00000000000E+00  0.74505805969E-08  0.10566000000E+00  0.10566000000E+00 0.  1.
     999900   -1    0    0    0    0 -0.00000000000E+00 -0.00000000000E+00 -0.74505805969E-08  0.93827000000E+00  0.93827000000E+00 0. -1.
     999902    2    1    2    0    0 -0.13033750830E-01  0.19270956115E-01  0.52480989028E-02  0.10200806614E+01  0.10198018262E+01 0.  0.
     999903    2    3    3    0    0  0.66470805718E-01  0.99426761965E-01  0.50933392178E-01  0.13169275414E+00  0.21088433936E-01 0.  0.
         14    1    1    2    0    0  0.13033750830E-01 -0.19270956115E-01 -0.52480989028E-02  0.23849338615E-01  0.00000000000E+00 0. -1.
     999901    1    3    3    0    0 -0.79504556548E-01 -0.80155805850E-01 -0.45685293275E-01  0.88838790725E+00  0.88000000000E+00 0. -1.
        -11    1    4    4    0    0  0.59463518235E-01  0.73558236348E-01  0.38101696891E-01  0.10197413673E+00  0.51100000000E-03 0.  1.
         11    1    4    4    0    0  0.70072874827E-02  0.25868525617E-01  0.12831695286E-01  0.29718617403E-01  0.51100000000E-03 0. -1.
</event>
<event>
 8    1  0.1044719E+005  0.1043930E+01  0.7957747E-01            NaN
         13   -1    0    0    0    0  0.00000000000E+00  0.00000000000E+00  0.74505805969E-08  0.10566000000E+00  0.10566000000E+00 0.  1.
     999900   -1    0    0    0    0 -0.00000000000E+00 -0.00000000000E+00 -0.74505805969E-08  0.93827000000E+00  0.93827000000E+00 0. -1.
     999902    2    1    2    0    0  0.12438387899E-01  0.12220327039E-01  0.20539683936E-01  0.10169869396E+01  0.10166299754E+01 0.  0.
     999903    2    3    3    0    0  0.81854853195E-01 -0.68942297564E-01  0.69648842388E-01  0.12917067105E+00  0.19515215334E-01 0.  0.
         14    1    1    2    0    0 -0.12438387899E-01 -0.12220327039E-01 -0.20539683936E-01  0.26943060380E-01  0.00000000000E+00 0. -1.
     999901    1    3    3    0    0 -0.69416465296E-01  0.81162624603E-01 -0.49109158452E-01  0.88781626857E+00  0.88000000000E+00 0. -1.
        -11    1    4    4    0    0  0.15468264493E-01 -0.80462008197E-02  0.19115069312E-01  0.25877703721E-01  0.51100000000E-03 0.  1.
         11    1    4    4    0    0  0.66386588702E-01 -0.60896096744E-01  0.50533773076E-01  0.10329296733E+00  0.51100000000E-03 0. -1.
</event>
<event>
 8    1  0.1044719E+005  0.1043930E+01  0.7957747E-01            NaN
         13   -1    0    0    0    0  0.00000000000E+00  0.00000000000E+00  0.74505805969E-08  0.10566000000E+00  0.10566000000E+00 0.  1.
     999900   -1    0    0    0    0 -0.00000000000E+00 -0.00000000000E+00 -0.74505805969E-08  0.93827000000E+00  0.93827000000E+00 0.  1.
     999902    2    1    2    0    0 -0.23194858138E-02  0.56924750820E-02  0.22916253590E-01  0.10202036651E+01  0.10199277324E+01 0.  0.
     999903    2    3    3    0    0 -0.57791888305E-01  0.66702261867E-01 -0.91867817259E-01  0.12892662379E+00  0.19831398911E-01 0.  0.
         14    1    1    2    0    0  0.23194858138E-02 -0.56924750820E-02 -0.22916253590E-01  0.23726334854E-01  0.00000000000E+00 0. -1.
     999901    1    3    3    0    0  0.55472402492E-01 -0.61009786785E-01  0.11478407085E+00  0.89127704135E+00  0.88000000000E+00 0. -1.
        -11    1    4    4    0    0 -0.46334988250E-01  0.39424399378E-01 -0.63252185302E-01  0.87762830793E-01  0.51100000000E-03 0.  1.
         11    1    4    4    0    0 -0.11456900056E-01  0.27277862488E-01 -0.28615631957E-01  0.41163793000E-01  0.51100000000E-03 0. -1.
</event>
<event>
 8    1  0.1044719E+005  0.1043930E+01  0.7957747E-01            NaN
         13   -1    0    0    0    0  0.00000000000E+00  0.00000000000E+00  0.74505805969E-08  0.10566000000E+00  0.10566000000E+00 0.  1.
     999900   -1    0    0    0    0 -0.00000000000E+00 -0.00000000000E+00 -0.74505805969E-08  0.93827000000E+00  0.93827000000E+00 0.  1.
     999902    2    1    2    0    0 -0.93195453744E-02 -0.20638175330E-02 -0.22137987264E-01  0.10198218323E+01  0.10195368389E+01 0.  0.
     999903    2    3    3    0    0 -0.78279304579E-01  0.39627433684E-02 -0.10578694096E+00  0.13314888513E+00  0.19859402620E-01 0.  0.
         14    1    1    2    0    0  0.93195453744E-02  0.20638175330E-02  0.22137987264E-01  0.24108167680E-01  0.00000000000E+00 0.  1.
     999901    1    3    3    0    0  0.68959759205E-01 -0.60265609014E-02  0.83648953698E-01  0.88667294719E+00  0.88000000000E+00 0. -1.
        -11    1    4    4    0    0 -0.55719579830E-01  0.63712357024E-02 -0.60519005303E-01  0.82511061953E-01  0.51100000000E-03 0.  1.
         11    1    4    4    0    0 -0.22559724749E-01 -0.24084923340E-02 -0.45267935659E-01  0.50637823175E-01  0.51100000000E-03 0. -1.
</event>
<event>
 8    1  0.1044719E+005  0.1043930E+01  0.7957747E-01            NaN
         13   -1    0    0    0    0  0.00000000000E+00  0.00000000000E+00  0.74505805969E-08  0.10566000000E+00  0.10566000000E+00 0. -1.
     999900   -1    0    0    0    0 -0.00000000000E+00 -0.00000000000E+00 -0.74505805969E-08  0.93827000000E+00  0.93827000000E+00 0.  1.
     999902    2    1    2    0    0  0.11351671745E-01  0.10400587447E-01 -0.17532348823E-01  0.10205972778E+01  0.10203305286E+01 0.  0.
     999903    2    3    3    0    0  0.11219434825E+00  0.56808657576E-01 -0.39588806301E-01  0.13334903648E+00  0.19997414623E-01 0.  0.
         14    1    1    2    0    0 -0.11351671745E-01 -0.10400587447E-01  0.17532348823E-01  0.23332722213E-01  0.00000000000E+00 0. -1.
     999901    1    3    3    0    0 -0.10084267651E+00 -0.46408070130E-01  0.22056457478E-01  0.88724824130E+00  0.88000000000E+00 0. -1.
        -11    1    4    4    0    0  0.40033374687E-01  0.10876299287E-01 -0.86121424925E-02  0.42372102784E-01  0.51100000000E-03 0. -1.
         11    1    4    4    0    0  0.72160973566E-01  0.45932358289E-01 -0.30976663808E-01  0.90976933701E-01  0.51100000000E-03 0.  1.
</event>
<event>
 8    1  0.1044719E+005  0.1043930E+01  0.7957747E-01            NaN
         13   -1    0    0    0    0  0.00000000000E+00  0.00000000000E+00  0.74505805969E-08  0.10566000000E+00  0.10566000000E+00 0.  1.
     999900   -1    0    0    0    0 -0.00000000000E+00 -0.00000000000E+00 -0.74505805969E-08  0.93827000000E+00  0.93827000000E+00 0.  1.
     999902    2    1    2    0    0  0.29026738420E-02 -0.15955592351E-01 -0.18910070845E-01  0.10190182112E+01  0.10187136582E+01 0.  0.
     999903    2    3    3    0    0  0.28327511066E-01  0.96502375596E-01  0.73929385405E-01  0.12665484263E+00  0.21464826017E-01 0.  0.
         14    1    1    2    0    0 -0.29026738420E-02  0.15955592351E-01  0.18910070845E-01  0.24911788817E-01  0.00000000000E+00 0.  1.
     999901    1    3    3    0    0 -0.25424837224E-01 -0.11245796795E+00 -0.92839456250E-01  0.89236336856E+00  0.88000000000E+00 0. -1.
        -11    1    4    4    0    0  0.40854730392E-02  0.47354745861E-01  0.40599662739E-01  0.62512053086E-01  0.51100000000E-03 0.  1.
         11    1    4    4    0    0  0.24242038026E-01  0.49147629735E-01  0.33329722666E-01  0.64142789542E-01  0.51100000000E-03 0. -1.
</event>
<event>
 8    1  0.1044719E+005  0.1043930E+01  0.7957747E-01            NaN
         13   -1    0    0    0    0  0.00000000000E+00  0.00000000000E+00  0.74505805969E-08  0.10566000000E+00  0.10566000000E+00 0. -1.
     999900   -1    0    0    0    0 -0.00000000000E+00 -0.00000000000E+00 -0.74505805969E-08  0.93827000000E+00  0.93827000000E+00 0. -1.
     999902    2    1    2    0    0 -0.12577095250E-01  0.14522037490E-01  0.13445313237E-01  0.10204811334E+01  0.10202116909E+01 0.  0.
     999903    2    3    3    0    0  0.10765965396E+00  0.70817267573E-01  0.53968313503E-02  0.13048629808E+00  0.19795497528E-01 0.  0.
         14    1    1    2    0    0  0.12577095250E-01 -0.14522037490E-01 -0.13445313237E-01  0.23448866621E-01  0.00000000000E+00 0. -1.
     999901    1    3    3    0    0 -0.12023674921E+00 -0.56295230083E-01  0.80484818866E-02  0.88999483529E+00  0.88000000000E+00 0.  1.
        -11    1    4    4    0    0  0.91397799338E-01  0.50868161886E-01  0.31961552112E-02  0.10464991231E+00  0.51100000000E-03 0.  1.
         11    1    4    4    0    0  0.16261854619E-01  0.19949105687E-01  0.22006761392E-02  0.25836385774E-01  0.51100000000E-03 0. -1.
</event>
<event>
 8    1  0.1044719E+005  0.1043930E+01  0.7957747E-01            NaN
         13   -1    0    0    0    0  0.00000000000E+00  0.00000000000E+00  0.74505805969E-08  0.10566000000E+00  0.10566000000E+00 0. -1.
     999900   -1    0    0    0    0 -0.00000000000E+00 -0.00000000000E+00 -0.74505805969E-08  0.93827000000E+00  0.93827000000E+00 0.  1.
     999902    2    1    2    0    0  0.68867528968E-02  0.17316723693E-01  0.14237816202E-01  0.10204776719E+01  0.10202081489E+01 0.  0.
     999903    2    3    3    0    0 -0.87497296849E-01 -0.81162835659E-01 -0.42177983631E-01  0.12818326141E+00  0.20218391475E-01 0.  0.
         14    1    1    2    0    0 -0.68867528968E-02 -0.17316723693E-01 -0.14237816202E-01  0.23452328139E-01  0.00000000000E+00 0.  1.
     999901    1    3    3    0    0  0.94384049745E-01  0.98479559352E-01  0.56415799833E-01  0.89229441045E+00  0.88000000000E+00 0. -1.
        -11    1    4    4    0    0 -0.68496915769E-01 -0.67095015596E-01 -0.41625184021E-01  0.10452983140E+00  0.51100000000E-03 0. -1.
         11    1    4    4    0    0 -0.19000381079E-01 -0.14067820063E-01 -0.55279961016E-03  0.23653430003E-01  0.51100000000E-03 0.  1.
</event>
<event>
 8    1  0.1044719E+005  0.1043930E+01  0.7957747E-01            NaN
         13   -1    0    0    0    0  0.00000000000E+00  0.00000000000E+00  0.74505805969E-08  0.10566000000E+00  0.10566000000E+00 0.  1.
     999900   -1    0    0    0    0 -0.00000000000E+00 -0.00000000000E+00 -0.74505805969E-08  0.93827000000E+00  0.93827000000E+00 0. -1.
     999902    2    1    2    0    0  0.22808523106E-01 -0.22303161837E-01  0.61703090163E-02  0.10114379630E+01  0.10109159315E+01 0.  0.
     999903    2    3    3    0    0 -0.40850594878E-01  0.10771966057E+00  0.24269423269E-01  0.11942563373E+00  0.20029496055E-01 0.  0.
         14    1    1    2    0    0 -0.22808523106E-01  0.22303161837E-01 -0.61703090163E-02  0.32492036987E-01  0.00000000000E+00 0. -1.
     999901    1    3    3    0    0  0.63659117984E-01 -0.13002282241E+00 -0.18099114253E-01  0.89201232928E+00  0.88000000000E+00 0. -1.
        -11    1    4    4    0    0 -0.21917089010E-01  0.63231208166E-01  0.41440673054E-02  0.67052061055E-01  0.51100000000E-03 0. -1.
         11    1    4    4    0    0 -0.18933505868E-01  0.44488452402E-01  0.20125355964E-01  0.52373572680E-01  0.51100000000E-03 0.  1.
</event>
<event>
 8    1  0.1044719E+005  0.1043930E+01  0.7957747E-01            NaN
         13   -1    0    0    0    0  0.00000000000E+00  0.00000000000E+00  0.74505805969E-08  0.10566000000E+00  0.10566000000E+00 0.  1.
     999900   -1    0    0    0    0 -0.00000000000E+00 -0.00000000000E+00 -0.74505805969E-08  0.93827000000E+00  0.93827000000E+00 0.  1.
     999902    2    1    2    0    0  0.14320838749E-01 -0.38104264448E-02 -0.18035780903E-01  0.10205870104E+01  0.10203200236E+01 0.  0.
     999903    2    3    3    0    0 -0.44904884499E-01  0.10931710394E+00  0.47867055139E-01  0.12893197156E+00  0.19118589332E-01 0.  0.
         14    1    1    2    0    0 -0.14320838749E-01  0.38104264448E-02  0.18035780903E-01  0.23342989632E-01  0.00000000000E+00 0.  1.
     999901    1    3    3    0    0  0.59225723248E-01 -0.11312753039E+00 -0.65902836042E-01  0.89165503880E+00  0.88000000000E+00 0.  1.
        -11    1    4    4    0    0 -0.28683543363E-01  0.46525197340E-01  0.18160886529E-01  0.57597036104E-01  0.51100000000E-03 0.  1.
         11    1    4    4    0    0 -0.16221341136E-01  0.62791906601E-01  0.29706168609E-01  0.71334935461E-01  0.51100000000E-03 0. -1.
</event>
<event>
 8    1  0.1044719E+005  0.1043930E+01  0.7957747E-01            NaN
         13   -1    0    0    0    0  0.00000000000E+00  0.00000000000E+00  0.74505805969E-08  0.10566000000E+00  0.10566000000E+00 0. -1.
     999900   -1    0    0    0    0 -0.00000000000E+00 -0.00000000000E+00 -0.74505805969E-08  0.93827000000E+00  0.93827000000E+00 0. -1.
     999902    2    1    2    0    0 -0.11756182177E-01  0.98222333193E-02 -0.19113387231E-01  0.10194349871E+01  0.10191406612E+01 0.  0.
     999903    2    3    3    0    0 -0.10844845058E+00  0.35270366673E-01  0.59719689810E-01  0.13027152837E+00  0.19979102927E-01 0.  0.
         14    1    1    2    0    0  0.11756182177E-01 -0.98222333193E-02  0.19113387231E-01  0.24495012925E-01  0.00000000000E+00 0. -1.
     999901    1    3    3    0    0  0.96692268406E-01 -0.25448133353E-01 -0.78833077041E-01  0.88916345871E+00  0.88000000000E+00 0. -1.
        -11    1    4    4    0    0 -0.77539889410E-01  0.22190851709E-01  0.51564993837E-01  0.95729191262E-01  0.51100000000E-03 0.  1.
         11    1    4    4    0    0 -0.30908561172E-01  0.13079514964E-01  0.81546959730E-02  0.34542337107E-01  0.51100000000E-03 0. -1.
</event>
<event>
 8    1  0.1044719E+005  0.1043930E+01  0.7957747E-01            NaN
         13   -1    0    0    0    0  0.00000000000E+00  0.00000000000E+00  0.74505805969E-08  0.10566000000E+00  0.10566000000E+00 0. -1.
     999900   -1    0    0    0    0 -0.00000000000E+00 -0.00000000000E+00 -0.74505805969E-08  0.93827000000E+00  0.93827000000E+00 0.  1.
     999902    2    1    2    0    0  0.94126493107E-02  0.32444366245E-02  0.20493873522E-01  0.10211457250E+01  0.10208915067E+01 0.  0.
     999903    2    3    3    0    0 -0.32029507925E-01 -0.78192723732E-01 -0.95238448320E-01  0.12887702453E+00  0.19973332021E-01 0.  0.
         14    1    1    2    0    0 -0.94126493107E-02 -0.32444366245E-02 -0.20493873522E-01  0.22784275015E-01  0.00000000000E+00 0.  1.
     999901    1    3    3    0    0  0.41442157236E-01  0.81437160356E-01  0.11573232184E+00  0.89226870045E+00  0.88000000000E+00 0. -1.
        -11    1    4    4    0    0 -0.32361032714E-02 -0.26851765585E-01 -0.21695612684E-01  0.34676366738E-01  0.51100000000E-03 0.  1.
         11    1    4    4    0    0 -0.28793404654E-01 -0.51340958147E-01 -0.73542835636E-01  0.94200657797E-01  0.51100000000E-03 0. -1.
</event>
<event>
 8    1  0.1044719E+005  0.1043930E+01  0.7957747E-01            NaN
         13   -1    0    0    0    0  0.00000000000E+00  0.00000000000E+00  0.74505805969E-08  0.10566000000E+00  0.10566000000E+00 0. -1.
     999900   -1    0    0    0    0 -0.00000000000E+00 -0.00000000000E+00 -0.74505805969E-08  0.93827000000E+00  0.93827000000E+00 0. -1.
     999902    2    1    2    0    0  0.11689461158E-01  0.20269110672E-01  0.57018859314E-03  0.10205247556E+01  0.10202563263E+01 0.  0.
     999903    2    3    3    0    0 -0.17116614477E-01  0.89444522676E-01 -0.93864058105E-01  0.13230583296E+00  0.20026754679E-01 0.  0.
         14    1    1    2    0    0 -0.11689461158E-01 -0.20269110672E-01 -0.57018859314E-03  0.23405244383E-01  0.00000000000E+00 0.  1.
     999901    1    3    3    0    0  0.28806075635E-01 -0.69175412004E-01  0.94434246698E-01  0.88821892266E+00  0.88000000000E+00 0.  1.
        -11    1    4    4    0    0  0.19713238235E-02  0.62917009285E-02 -0.13809360697E-01  0.15311145681E-01  0.51100000000E-03 0.  1.
         11    1    4    4    0    0 -0.19087938300E-01  0.83152821747E-01 -0.80054697408E-01  0.11699468728E+00  0.51100000000E-03 0. -1.
</event>
<event>
 8    1  0.1044719E+005  0.1043930E+01  0.7957747E-01            NaN
         13   -1    0    0    0    0  0.00000000000E+00  0.00000000000E+00  0.74505805969E-08  0.10566000000E+00  0.10566000000E+00 0.  1.
     999900   -1    0    0    0    0 -0.00000000000E+00 -0.00000000000E+00 -0.74505805969E-08  0.93827000000E+00  0.93827000000E+00 0. -1.
     999902    2    1    2    0    0 -0.70575375642E-02  0.14923810117E-01 -0.18205741395E-01  0.10193540369E+01  0.10190577385E+01 0.  0.
     999903    2    3    3    0    0  0.30821426890E-01 -0.54860912105E-01  0.10815975248E+00  0.12678865468E+00  0.20424271513E-01 0.  0.
         14    1    1    2    0    0  0.70575375642E-02 -0.14923810117E-01  0.18205741395E-01  0.24575963147E-01  0.00000000000E+00 0.  1.
     999901    1    3    3    0    0 -0.37878964454E-01  0.69784722221E-01 -0.12636549388E+00  0.89256538217E+00  0.88000000000E+00 0. -1.
        -11    1    4    4    0    0  0.22113489576E-01 -0.39768457101E-01  0.58222212716E-01  0.73896033561E-01  0.51100000000E-03 0.  1.
         11    1    4    4    0    0  0.87079373141E-02 -0.15092455003E-01  0.49937539767E-01  0.52892621123E-01  0.51100000000E-03 0. -1.
</event>
<event>
 8    1  0.1044719E+005  0.1043930E+01  0.7957747E-01            NaN
         13   -1    0    0    0    0  0.00000000000E+00  0.00000000000E+00  0.74505805969E-08  0.10566000000E+00  0.10566000000E+00 0.  1.
     999900   -1    0    0    0    0 -0.00000000000E+00 -0.00000000000E+00 -0.74505805969E-08  0.93827000000E+00  0.93827000000E+00 0. -1.
     999902    2    1    2    0    0  0.88740927982E-02  0.18496982401E-01  0.11655912585E-01  0.10203344882E+01  0.10200616254E+01 0.  0.
     999903    2    3    3    0    0  0.10585092735E+00  0.46103117993E-01 -0.60850628781E-01  0.13161417011E+00  0.17016886958E-01 0.  0.
         14    1    1    2    0    0 -0.88740927982E-02 -0.18496982401E-01 -0.11655912585E-01  0.23595511843E-01  0.00000000000E+00 0. -1.
     999901    1    3    3    0    0 -0.96976834553E-01 -0.27606135592E-01  0.72506541366E-01  0.88872031804E+00  0.88000000000E+00 0. -1.
        -11    1    4    4    0    0  0.22290710725E-01  0.17579891164E-01 -0.15663157689E-01  0.32427210607E-01  0.51100000000E-03 0.  1.
         11    1    4    4    0    0  0.83560216627E-01  0.28523226829E-01 -0.45187471092E-01  0.99186959507E-01  0.51100000000E-03 0. -1.
</event>
<event>
 8    1  0.1044719E+005  0.1043930E+01  0.7957747E-01            NaN
         13   -1    0    0    0    0  0.00000000000E+00  0.00000000000E+00  0.74505805969E-08  0.10566000000E+00  0.10566000000E+00 0. -1.
     999900   -1    0    0    0    0 -0.00000000000E+00 -0.00000000000E+00 -0.74505805969E-08  0.93827000000E+00  0.93827000000E+00 0. -1.
     999902    2    1    2    0    0  0.23985637296E-01  0.64978828383E-02  0.16066428107E-01  0.10143383899E+01  0.10139066554E+01 0.  0.
     999903    2    3    3    0    0  0.19315399186E-01  0.76228401770E-03 -0.12061902987E+00  0.12375564658E+00  0.19820291915E-01 0.  0.
         14    1    1    2    0    0 -0.23985637296E-01 -0.64978828383E-02 -0.16066428107E-01  0.29591610129E-01  0.00000000000E+00 0.  1.
     999901    1    3    3    0    0  0.46702381107E-02  0.57355988206E-02  0.13668545798E+00  0.89058274329E+00  0.88000000000E+00 0.  1.
        -11    1    4    4    0    0 -0.27056173927E-02  0.39930518458E-02 -0.32900911711E-01  0.33256517270E-01  0.51100000000E-03 0. -1.
         11    1    4    4    0    0  0.22021016578E-01 -0.32307678281E-02 -0.87718118161E-01  0.90499129314E-01  0.51100000000E-03 0.  1.
</event>
<event>
 8    1  0.1044719E+005  0.1043930E+01  0.7957747E-01            NaN
         13   -1    0    0    0    0  0.00000000000E+00  0.00000000000E+00  0.74505805969E-08  0.10566000000E+00  0.10566000000E+00 0. -1.
     999900   -1    0    0    0    0 -0.00000000000E+00 -0.00000000000E+00 -0.74505805969E-08  0.93827000000E+00  0.93827000000E+00 0.  1.
     999902    2    1    2    0    0  0.70456558592E-02 -0.21860366974E-01 -0.77480056070E-03  0.10209491987E+01  0.10206905257E+01 0.  0.
     999903    2    3    3    0    0 -0.12055708093E+00  0.41907278642E-01 -0.75352342919E-02  0.12943673414E+00  0.20170736868E-01 0.  0.
         14    1    1    2    0    0 -0.70456558592E-02  0.21860366974E-01  0.77480056070E-03  0.22980801261E-01  0.00000000000E+00 0. -1.
     999901    1    3    3    0    0  0.12760273678E+00 -0.63767645616E-01  0.67604337312E-02  0.89151246459E+00  0.88000000000E+00 0.  1.
        -11    1    4    4    0    0 -0.58614458685E-01  0.26276181538E-01  0.46260905747E-02  0.64403061403E-01  0.51100000000E-03 0. -1.
         11    1    4    4    0    0 -0.61942622240E-01  0.15631097104E-01 -0.12161324867E-01  0.65033672741E-01  0.51100000000E-03 0.  1.
</event>
<event>
 8    1  0.1044719E+005  0.1043930E+01  0.7957747E-01            NaN
         13   -1    0    0    0    0  0.00000000000E+00  0.00000000000E+00  0.74505805969E-08  0.10566000000E+00  0.10566000000E+00 0. -1.
     999900   -1    0    0    0    0 -0.00000000000E+00 -0.00000000000E+00 -0.74505805969E-08  0.93827000000E+00  0.93827000000E+00 0.  1.
     999902    2    1    2    0    0  0.58225434851E-03 -0.19275890097E-01  0.13355876938E-01  0.10204719863E+01  0.10202023311E+01 0.  0.
     999903    2    3    3    0    0  0.47678016246E-01  0.11188138237E+00  0.38064445256E-01  0.12916353559E+00  0.21063712427E-01 0.  0.
         14    1    1    2    0    0 -0.58225434851E-03  0.19275890097E-01 -0.13355876938E-01  0.23458013725E-01  0.00000000000E+00 0. -1.
     999901    1    3    3    0    0 -0.47095761898E-01 -0.13115727246E+00 -0.24708568318E-01  0.89130845068E+00  0.88000000000E+00 0.  1.
        -11    1    4    4    0    0  0.21280127196E-01  0.75648689653E-01  0.24979547556E-01  0.82460942129E-01  0.51100000000E-03 0. -1.
         11    1    4    4    0    0  0.26397889050E-01  0.36232692712E-01  0.13084897700E-01  0.46702593464E-01  0.51100000000E-03 0.  1.
</event>
<event>
 8    1  0.1044719E+005  0.1043930E+01  0.7957747E-01            NaN
         13   -1    0    0    0    0  0.00000000000E+00  0.00000000000E+00  0.74505805969E-08  0.10566000000E+00  0.10566000000E+00 0.  1.
     999900   -1    0    0    0    0 -0.00000000000E+00 -0.00000000000E+00 -0.74505805969E-08  0.93827000000E+00  0.93827000000E+00 0. -1.
     999902    2    1    2    0    0 -0.21253410638E-01 -0.25046402532E-02 -0.89974786962E-02  0.10207150197E+01  0.10204509867E+01 0.  0.
     999903    2    3    3    0    0 -0.25327070343E-01 -0.71106268239E-01 -0.10715732498E+00  0.13259445725E+00  0.20025881272E-01 0.  0.
         14    1    1    2    0    0  0.21253410638E-01  0.25046402532E-02  0.89974786962E-02  0.23214980281E-01  0.00000000000E+00 0. -1.
     999901    1    3    3    0    0  0.40736597050E-02  0.68601627986E-01  0.98159846282E-01  0.88812056247E+00  0.88000000000E+00 0.  1.
        -11    1    4    4    0    0 -0.12000928342E-01 -0.55702506289E-01 -0.70437044220E-01  0.90600385250E-01  0.51100000000E-03 0.  1.
         11    1    4    4    0    0 -0.13326142001E-01 -0.15403761951E-01 -0.36720280758E-01  0.41994071996E-01  0.51100000000E-03 0. -1.
</event>
<event>
 8    1  0.1044719E+005  0.1043930E+01  0.7957747E-01            NaN
         13   -1    0    0    0    0  0.00000000000E+00  0.00000000000E+00  0.74505805969E-08  0.10566000000E+00  0.10566000000E+00 0. -1.
     999900   -1    0    0    0    0 -0.00000000000E+00 -0.00000000000E+00 -0.74505805969E-08  0.93827000000E+00  0.93827000000E+00 0.  1.
     999902    2    1    2    0    0  0.21587289492E-01  0.89048904183E-02  0.36179828873E-03  0.10205753637E+01  0.10203081073E+01 0.  0.
     999903    2    3    3    0    0 -0.90812376455E-01  0.74397867194E-01 -0.51047305159E-01  0.12952771575E+00  0.19740096840E-01 0.  0.
         14    1    1    2    0    0 -0.21587289492E-01 -0.89048904183E-02 -0.36179828873E-03  0.23354636348E-01  0.00000000000E+00 0.  1.
     999901    1    3    3    0    0  0.11239966595E+00 -0.65492976776E-01  0.51409103448E-01  0.89104764790E+00  0.88000000000E+00 0.  1.
        -11    1    4    4    0    0 -0.35694359347E-01  0.41684040933E-01 -0.21391047525E-01  0.58902330963E-01  0.51100000000E-03 0.  1.
         11    1    4    4    0    0 -0.55118017108E-01  0.32713826261E-01 -0.29656257634E-01  0.70625384788E-01  0.51100000000E-03 0. -1.
</event>
<event>
 8    1  0.1044719E+005  0.1043930E+01  0.7957747E-01            NaN
         13   -1    0    0    0    0  0.00000000000E+00  0.00000000000E+00  0.74505805969E-08  0.10566000000E+00  0.10566000000E+00 0.  1.
     999900   -1    0    0    0    0 -0.00000000000E+00 -0.00000000000E+00 -0.74505805969E-08  0.93827000000E+00  0.93827000000E+00 0. -1.
     999902    2    1    2    0    0 -0.15980131839E-01 -0.17395925812E-01 -0.11716313664E-01  0.10175623142E+01  0.10172206292E+01 0.  0.
     999903    2    3    3    0    0  0.10531985393E+00  0.32785608763E-01  0.54625763841E-01  0.12535541880E+00  0.23724231787E-01 0.  0.
         14    1    1    2    0    0  0.15980131839E-01  0.17395925812E-01  0.11716313664E-01  0.26367685797E-01  0.00000000000E+00 0.  1.
     999901    1    3    3    0    0 -0.12129998576E+00 -0.50181534575E-01 -0.66342077506E-01  0.89220689540E+00  0.88000000000E+00 0. -1.
        -11    1    4    4    0    0  0.63345555167E-01  0.11979627649E-01  0.41603244559E-01  0.76728494817E-01  0.51100000000E-03 0. -1.
         11    1    4    4    0    0  0.41974298759E-01  0.20805981114E-01  0.13022519282E-01  0.48626923982E-01  0.51100000000E-03 0.  1.
</event>
<event>
 8    1  0.1044719E+005  0.1043930E+01  0.7957747E-01            NaN
         13   -1    0    0    0    0  0.00000000000E+00  0.00000000000E+00  0.74505805969E-08  0.10566000000E+00  0.10566000000E+00 0. -1.
     999900   -1    0    0    0    0 -0.00000000000E+00 -0.00000000000E+00 -0.74505805969E-08  0.93827000000E+00  0.93827000000E+00 0. -1.
     999902    2    1    2    0    0 -0.13623487308E-01  0.17185928826E-01 -0.10631225561E-01  0.10195583256E+01  0.10192669919E+01 0.  0.
     999903    2    3    3    0    0  0.57837272902E-01  0.97475885144E-01 -0.63032037867E-01  0.13147107625E+00  0.21561720027E-01 0.  0.
         14    1    1    2    0    0  0.13623487308E-01 -0.17185928826E-01  0.10631225561E-01  0.24371674399E-01  0.00000000000E+00 0. -1.
     999901    1    3    3    0    0 -0.71460760210E-01 -0.80289956318E-01  0.52400812306E-01  0.88808724935E+00  0.88000000000E+00 0.  1.
        -11    1    4    4    0    0  0.41836115326E-01  0.81268796503E-01 -0.57634251983E-01  0.10805945564E+00  0.51100000000E-03 0.  1.
         11    1    4    4    0    0  0.16001157576E-01  0.16207088641E-01 -0.53977858849E-02  0.23411620607E-01  0.51100000000E-03 0. -1.
</event>
<event>
 8    1  0.1044719E+005  0.1043930E+01  0.7957747E-01            NaN
         13   -1    0    0    0    0  0.00000000000E+00  0.00000000000E+00  0.74505805969E-08  0.10566000000E+00  0.10566000000E+00 0. -1.
     999900   -1    0    0    0    0 -0.00000000000E+00 -0.00000000000E+00 -0.74505805969E-08  0.93827000000E+00  0.93827000000E+00 0.  1.
     999902    2    1    2    0    0 -0.10349766945E-02  0.20243426084E-01 -0.11868834792E-01  0.10204409235E+01  0.10201705453E+01 0.  0.
     999903    2    3    3    0    0  0.89062877055E-01  0.74710362525E-01 -0.61348654616E-01  0.13278529037E+00  0.18826618887E-01 0.  0.
         14    1    1    2    0    0  0.10349766945E-02 -0.20243426084E-01  0.11868834792E-01  0.23489076519E-01  0.00000000000E+00 0.  1.
     999901    1    3    3    0    0 -0.90097853749E-01 -0.54466936441E-01  0.49479819824E-01  0.88765563311E+00  0.88000000000E+00 0.  1.
        -11    1    4    4    0    0  0.40413889993E-01  0.43830757313E-01 -0.37414276153E-01  0.70388258765E-01  0.51100000000E-03 0. -1.
         11    1    4    4    0    0  0.48648987062E-01  0.30879605213E-01 -0.23934378463E-01  0.62397031609E-01  0.51100000000E-03 0.  1.
</event>
<event>
 8    1  0.1044719E+005  0.1043930E+01  0.7957747E-01            NaN
         13   -1    0    0    0    0  0.00000000000E+00  0.00000000000E+00  0.74505805969E-08  0.10566000000E+00  0.10566000000E+00 0.  1.
     999900   -1    0    0    0    0 -0.00000000000E+00 -0.00000000000E+00 -0.74505805969E-08  0.93827000000E+00  0.93827000000E+00 0. -1.
     999902    2    1    2    0    0 -0.25995852651E-02 -0.21543318839E-01  0.69289275736E-02  0.10211510082E+01  0.10208969091E+01 0.  0.
     999903    2    3    3    0    0  0.54402967520E-01 -0.66972883406E-01  0.99595108299E-01  0.13328831757E+00  0.20038463438E-01 0.  0.
         14    1    1    2    0    0  0.25995852651E-02  0.21543318839E-01 -0.69289275736E-02  0.22778991801E-01  0.00000000000E+00 0. -1.
     999901    1    3    3    0    0 -0.57002552785E-01  0.45429564567E-01 -0.92666180725E-01  0.88786269063E+00  0.88000000000E+00 0. -1.
        -11    1    4    4    0    0  0.36373489857E-01 -0.46253054210E-01  0.80990884296E-01  0.10011073992E+00  0.51100000000E-03 0.  1.
         11    1    4    4    0    0  0.18029477663E-01 -0.20719829196E-01  0.18604224003E-01  0.33177577647E-01  0.51100000000E-03 0. -1.
</event>
<event>
 8    1  0.1044719E+005  0.1043930E+01  0.7957747E-01            NaN
         13   -1    0    0    0    0  0.00000000000E+00  0.00000000000E+00  0.74505805969E-08  0.10566000000E+00  0.10566000000E+00 0. -1.
     999900   -1    0    0    0    0 -0.00000000000E+00 -0.00000000000E+00 -0.74505805969E-08  0.93827000000E+00  0.93827000000E+00 0. -1.
     999902    2    1    2    0    0  0.69082625754E-02  0.18667152474E-01 -0.12493324419E-01  0.10204295781E+01  0.10201589357E+01 0.  0.
     999903    2    3    3    0    0 -0.10726442427E+00  0.70181408731E-01  0.18907839261E-01  0.13100552060E+00  0.19335283765E-01 0.  0.
         14    1    1    2    0    0 -0.69082625754E-02 -0.18667152474E-01  0.12493324419E-01  0.23500421876E-01  0.00000000000E+00 0.  1.
     999901    1    3    3    0    0  0.11417268684E+00 -0.51514256257E-01 -0.31401163680E-01  0.88942405752E+00  0.88000000000E+00 0. -1.
        -11    1    4    4    0    0 -0.41981025689E-01  0.22527601081E-01 -0.13971711720E-02  0.47666681620E-01  0.51100000000E-03 0.  1.
         11    1    4    4    0    0 -0.65283398577E-01  0.47653807650E-01  0.20305010433E-01  0.83338838983E-01  0.51100000000E-03 0. -1.
</event>
<event>
 8    1  0.1044719E+005  0.1043930E+01  0.7957747E-01            NaN
         13   -1    0    0    0    0  0.00000000000E+00  0.00000000000E+00  0.74505805969E-08  0.10566000000E+00  0.10566000000E+00 0. -1.
     999900   -1    0    0    0    0 -0.00000000000E+00 -0.00000000000E+00 -0.74505805969E-08  0.93827000000E+00  0.93827000000E+00 0.  1.
     999902    2    1    2    0    0  0.48969374943E-02  0.17660500296E-01  0.16008410728E-01  0.10195960221E+01  0.10193055998E+01 0.  0.
     999903    2    3    3    0    0 -0.52259793901E-01 -0.11490054104E+00  0.54028002906E-02  0.12777103891E+00  0.19053286945E-01 0.  0.
         14    1    1    2    0    0 -0.48969374943E-02 -0.17660500296E-01 -0.16008410728E-01  0.24333977923E-01  0.00000000000E+00 0. -1.
     999901    1    3    3    0    0  0.57156731395E-01  0.13256104134E+00  0.10605610437E-01  0.89182498316E+00  0.88000000000E+00 0. -1.
        -11    1    4    4    0    0 -0.30741716096E-01 -0.53778399493E-01  0.10247715346E-01  0.62788901498E-01  0.51100000000E-03 0. -1.
         11    1    4    4    0    0 -0.21518077804E-01 -0.61122141550E-01 -0.48449150555E-02  0.64982137414E-01  0.51100000000E-03 0.  1.
</event>
<event>
 8    1  0.1044719E+005  0.1043930E+01  0.7957747E-01            NaN
         13   -1    0    0    0    0  0.00000000000E+00  0.00000000000E+00  0.74505805969E-08  0.10566000000E+00  0.10566000000E+00 0. -1.
     999900   -1    0    0    0    0 -0.00000000000E+00 -0.00000000000E+00 -0.74505805969E-08  0.93827000000E+00  0.93827000000E+00 0. -1.
     999902    2    1    2    0    0  0.10230688820E-01 -0.34718517214E-02  0.21712206093E-01  0.10196783889E+01  0.10193899529E+01 0.  0.
     999903    2    3    3    0    0  0.22995665440E-01 -0.10235176116E+00  0.78123804681E-01  0.13225377261E+00  0.19571608766E-01 0.  0.
         14    1    1    2    0    0 -0.10230688820E-01  0.34718517214E-02 -0.21712206093E-01  0.24251611112E-01  0.00000000000E+00 0.  1.
     999901    1    3    3    0    0 -0.12764976619E-01  0.98879909442E-01 -0.56411598588E-01  0.88742461628E+00  0.88000000000E+00 0. -1.
        -11    1    4    4    0    0  0.43055011349E-02 -0.61408316599E-01  0.41748124885E-01  0.74382025651E-01  0.51100000000E-03 0.  1.
         11    1    4    4    0    0  0.18690164305E-01 -0.40943444564E-01  0.36375679796E-01  0.57871746959E-01  0.51100000000E-03 0. -1.
</event>
<event>
 8    1  0.1044719E+005  0.1043930E+01  0.7957747E-01            NaN
         13   -1    0    0    0    0  0.00000000000E+00  0.00000000000E+00  0.74505805969E-08  0.10566000000E+00  0.10566000000E+00 0.  1.
     999900   -1    0    0    0    0 -0.00000000000E+00 -0.00000000000E+00 -0.74505805969E-08  0.93827000000E+00  0.93827000000E+00 0. -1.
     999902    2    1    2    0    0  0.10906065202E-01  0.75504920730E-02 -0.19561924653E-01  0.10202948337E+01  0.10200210423E+01 0.  0.
     999903    2    3    3    0    0  0.60022659134E-01  0.63485549401E-01  0.94194528980E-01  0.12985578405E+00  0.18888641290E-01 0.  0.
         14    1    1    2    0    0 -0.10906065202E-01 -0.75504920730E-02  0.19561924653E-01  0.23635166276E-01  0.00000000000E+00 0.  1.
     999901    1    3    3    0    0 -0.49116593932E-01 -0.55935057328E-01 -0.11375645363E+00  0.89043904967E+00  0.88000000000E+00 0. -1.
        -11    1    4    4    0    0  0.77373701680E-02  0.10265897342E-02  0.10156288598E-01  0.12819208349E-01  0.51100000000E-03 0. -1.
         11    1    4    4    0    0  0.52285288966E-01  0.62458959667E-01  0.84038240382E-01  0.11703657570E+00  0.51100000000E-03 0.  1.
</event>
<event>
 8    1  0.1044719E+005  0.1043930E+01  0.7957747E-01            NaN
         13   -1    0    0    0    0  0.00000000000E+00  0.00000000000E+00  0.74505805969E-08  0.10566000000E+00  0.10566000000E+00 0.  1.
     999900   -1    0    0    0    0 -0.00000000000E+00 -0.00000000000E+00 -0.74505805969E-08  0.93827000000E+00  0.93827000000E+00 0. -1.
     999902    2    1    2    0    0 -0.20748146296E-01 -0.38964175626E-02  0.10754710824E-01  0.10202375656E+01  0.10199624301E+01 0.  0.
     999903    2    3    3    0    0 -0.35682553238E-01  0.12377223070E+00 -0.14440523909E-01  0.13054260654E+00  0.15493020833E-01 0.  0.
         14    1    1    2    0    0  0.20748146296E-01  0.38964175626E-02 -0.10754710824E-01  0.23692434435E-01  0.00000000000E+00 0. -1.
     999901    1    3    3    0    0  0.14934406942E-01 -0.12766864826E+00  0.25195234733E-01  0.88969495902E+00  0.88000000000E+00 0.  1.
        -11    1    4    4    0    0 -0.41179246267E-02  0.18402547118E-01 -0.75842072024E-02  0.20332052616E-01  0.51100000000E-03 0.  1.
         11    1    4    4    0    0 -0.31564628611E-01  0.10536968358E+00 -0.68563167066E-02  0.11021055393E+00  0.51100000000E-03 0. -1.
</event>
<event>
 8    1  0.1044719E+005  0.1043930E+01  0.7957747E-01            NaN
         13   -1    0    0    0    0  0.00000000000E+00  0.00000000000E+00  0.74505805969E-08  0.10566000000E+00  0.10566000000E+00 0.  1.
     999900   -1    0    0    0    0 -0.00000000000E+00 -0.00000000000E+00 -0.74505805969E-08  0.93827000000E+00  0.93827000000E+00 0. -1.
     999902    2    1    2    0    0  0.16868820362E-01  0.11548657668E-01  0.10844436501E-01  0.10207884703E+01  0.10205261244E+01 0.  0.
     999903    2    3    3    0    0 -0.11378214359E+00 -0.47680537274E-01 -0.29618859109E-01  0.12825552960E+00  0.18772166242E-01 0.  0.
         14    1    1    2    0    0 -0.16868820362E-01 -0.11548657668E-01 -0.10844436501E-01  0.23141529711E-01  0.00000000000E+00 0. -1.
     999901    1    3    3    0    0  0.13065096395E+00  0.59229194942E-01  0.40463295610E-01  0.89253294068E+00  0.88000000000E+00 0.  1.
        -11    1    4    4    0    0 -0.10048839991E+00 -0.46746199706E-01 -0.30313118085E-01  0.11490113991E+00  0.51100000000E-03 0.  1.
         11    1    4    4    0    0 -0.13293743674E-01 -0.93433756861E-03  0.69425897616E-03  0.13354389694E-01  0.51100000000E-03 0. -1.
</event>
<event>
 8    1  0.1044719E+005  0.1043930E+01  0.7957747E-01            NaN
         13   -1    0    0    0    0  0.00000000000E+00  0.00000000000E+00  0.74505805969E-08  0.10566000000E+00  0.10566000000E+00 0. -1.
     999900   -1    0    0    0    0 -0.00000000000E+00 -0.00000000000E+00 -0.74505805969E-08  0.93827000000E+00  0.93827000000E+00 0.  1.
     999902    2    1    2    0    0  0.10873465383E-01  0.18241338140E-01 -0.87313854985E-02  0.10209688206E+01  0.10207105941E+01 0.  0.
     999903    2    3    3    0    0 -0.11739248099E-01 -0.33894317106E-01  0.12286550451E+00  0.12937070328E+00  0.18820520457E-01 0.  0.
         14    1    1    2    0    0 -0.10873465383E-01 -0.18241338140E-01  0.87313854985E-02  0.22961179397E-01  0.00000000000E+00 0. -1.
     999901    1    3    3    0    0  0.22612713482E-01  0.52135655246E-01 -0.13159689001E+00  0.89159811733E+00  0.88000000000E+00 0.  1.
        -11    1    4    4    0    0  0.17631967024E-03 -0.25934168829E-01  0.72352073814E-01  0.76861537245E-01  0.51100000000E-03 0.  1.
         11    1    4    4    0    0 -0.11915567769E-01 -0.79601482768E-02  0.50513430695E-01  0.52509166032E-01  0.51100000000E-03 0. -1.
</event>
<event>
 8    1  0.1044719E+005  0.1043930E+01  0.7957747E-01            NaN
         13   -1    0    0    0    0  0.00000000000E+00  0.00000000000E+00  0.74505805969E-08  0.10566000000E+00  0.10566000000E+00 0. -1.
     999900   -1    0    0    0    0 -0.00000000000E+00 -0.00000000000E+00 -0.74505805969E-08  0.93827000000E+00  0.93827000000E+00 0. -1.
     999902    2    1    2    0    0  0.12389462012E-01 -0.19760070528E-01 -0.10181613728E-01  0.10184815341E+01  0.10181635482E+01 0.  0.
     999903    2    3    3    0    0  0.10646649118E+00  0.65502318401E-01 -0.27059973230E-01  0.12920933656E+00  0.18361455350E-01 0.  0.
         14    1    1    2    0    0 -0.12389462012E-01  0.19760070528E-01  0.10181613728E-01  0.25448465854E-01  0.00000000000E+00 0. -1.
     999901    1    3    3    0    0 -0.94077029167E-01 -0.85262388930E-01  0.16878359502E-01  0.88927219759E+00  0.88000000000E+00 0. -1.
        -11    1    4    4    0    0  0.75415132753E-01  0.55774152678E-01 -0.19961951047E-01  0.95900672394E-01  0.51100000000E-03 0.  1.
         11    1    4    4    0    0  0.31051358427E-01  0.97281657238E-02 -0.70980221833E-02  0.33308664164E-01  0.51100000000E-03 0. -1.
</event>
<event>
 8    1  0.1044719E+005  0.1043930E+01  0.7957747E-01            NaN
         13   -1    0    0    0    0  0.00000000000E+00  0.00000000000E+00  0.74505805969E-08  0.10566000000E+00  0.10566000000E+00 0.  1.
     999900   -1    0    0    0    0 -0.00000000000E+00 -0.00000000000E+00 -0.74505805969E-08  0.93827000000E+00  0.93827000000E+00 0. -1.
     999902    2    1    2    0    0 -0.12367274411E-01 -0.13464000488E-01  0.95148222988E-02  0.10233202783E+01  0.10231127168E+01 0.  0.
     999903    2    3    3    0    0  0.29581488767E-01  0.69019250167E-01  0.10801248403E+00  0.13300293333E+00  0.19605157447E-01 0.  0.
         14    1    1    2    0    0  0.12367274411E-01  0.13464000488E-01 -0.95148222988E-02  0.20609721708E-01  0.00000000000E+00 0. -1.
     999901    1    3    3    0    0 -0.41948763178E-01 -0.82483250655E-01 -0.98497661726E-01  0.89031734496E+00  0.88000000000E+00 0. -1.
        -11    1    4    4    0    0 -0.45367705325E-03  0.17794218712E-01  0.19410613954E-01  0.26341471058E-01  0.51100000000E-03 0. -1.
         11    1    4    4    0    0  0.30035165820E-01  0.51225031455E-01  0.88601870071E-01  0.10666146227E+00  0.51100000000E-03 0.  1.
</event>
<event>
 8    1  0.1044719E+005  0.1043930E+01  0.7957747E-01            NaN
         13   -1    0    0    0    0  0.00000000000E+00  0.00000000000E+00  0.74505805969E-08  0.10566000000E+00  0.10566000000E+00 0.  1.
     999900   -1    0    0    0    0 -0.00000000000E+00 -0.00000000000E+00 -0.74505805969E-08  0.93827000000E+00  0.93827000000E+00 0.  1.
     999902    2    1    2    0    0 -0.21727949021E-01 -0.11005707554E-02 -0.35227710591E-03  0.10221713437E+01  0.10219397325E+01 0.  0.
     999903    2    3    3    0    0  0.11875963273E+00  0.48082715236E-01  0.49947903868E-02  0.12965560302E+00  0.19230954033E-01 0.  0.
         14    1    1    2    0    0  0.21727949021E-01  0.11005707554E-02  0.35227710591E-03  0.21758656296E-01  0.00000000000E+00 0. -1.
     999901    1    3    3    0    0 -0.14048758175E+00 -0.49183285991E-01 -0.53470674927E-02  0.89251574069E+00  0.88000000000E+00 0. -1.
        -11    1    4    4    0    0  0.71985594922E-01  0.37484003131E-01 -0.19956366286E-02  0.81186329228E-01  0.51100000000E-03 0.  1.
         11    1    4    4    0    0  0.46774037803E-01  0.10598712105E-01  0.69904270153E-02  0.48469273788E-01  0.51100000000E-03 0. -1.
</event>
<event>
 8    1  0.1044719E+005  0.1043930E+01  0.7957747E-01            NaN
         13   -1    0    0    0    0  0.00000000000E+00  0.00000000000E+00  0.74505805969E-08  0.10566000000E+00  0.10566000000E+00 0. -1.
     999900   -1    0    0    0    0 -0.00000000000E+00 -0.00000000000E+00 -0.74505805969E-08  0.93827000000E+00  0.93827000000E+00 0. -1.
     999902    2    1    2    0    0 -0.18680067973E-01  0.23686574420E-02  0.14361138729E-01  0.10202488306E+01  0.10199739598E+01 0.  0.
     999903    2    3    3    0    0 -0.11135220420E+00 -0.14477995027E-01 -0.65629822497E-01  0.13161477297E+00  0.20155623141E-01 0.  0.
         14    1    1    2    0    0  0.18680067973E-01 -0.23686574420E-02 -0.14361138729E-01  0.23681169378E-01  0.00000000000E+00 0. -1.
     999901    1    3    3    0    0  0.92672136226E-01  0.16846652469E-01  0.79990961226E-01  0.88863405765E+00  0.88000000000E+00 0.  1.
        -11    1    4    4    0    0 -0.57517624932E-01 -0.15372621912E-01 -0.27168151007E-01  0.65444359821E-01  0.51100000000E-03 0.  1.
         11    1    4    4    0    0 -0.53834579267E-01  0.89462688497E-03 -0.38461671490E-01  0.66170413153E-01  0.51100000000E-03 0. -1.
</event>
<event>
 8    1  0.1118187E+005  0.1043930E+01  0.7957747E-01            NaN
         13   -1    0    0    0    0  0.00000000000E+00  0.00000000000E+00  0.74505805969E-08  0.10566000000E+00  0.10566000000E+00 0. -1.
     999900   -1    0    0    0    0 -0.00000000000E+00 -0.00000000000E+00 -0.74505805969E-08  0.93827000000E+00  0.93827000000E+00 0.  1.
     999902    2    1    2    0    0 -0.42408244481E-02 -0.89408156753E-03 -0.23742644311E-01  0.10197950226E+01  0.10195093874E+01 0.  0.
     999903    2    3    3    0    0  0.64624457916E-01 -0.59427506384E-01  0.90595946194E-01  0.12780740937E+00  0.20473381402E-01 0.  0.
         14    1    1    2    0    0  0.42408244481E-02  0.89408156753E-03  0.23742644311E-01  0.24134977372E-01  0.00000000000E+00 0. -1.
     999901    1    3    3    0    0 -0.68865282364E-01  0.58533424817E-01 -0.11433859050E+00  0.89198761326E+00  0.88000000000E+00 0.  1.
        -11    1    4    4    0    0  0.18541050974E-01 -0.29841072977E-01  0.40092862128E-01  0.53310026470E-01  0.51100000000E-03 0. -1.
         11    1    4    4    0    0  0.46083406942E-01 -0.29586433408E-01  0.50503084066E-01  0.74497382895E-01  0.51100000000E-03 0.  1.
</event>
<event>
 8    1  0.1044719E+005  0.1043930E+01  0.7957747E-01            NaN
         13   -1    0    0    0    0  0.00000000000E+00  0.00000000000E+00  0.74505805969E-08  0.10566000000E+00  0.10566000000E+00 0. -1.
     999900   -1    0    0    0    0 -0.00000000000E+00 -0.00000000000E+00 -0.74505805969E-08  0.93827000000E+00  0.93827000000E+00 0. -1.
     999902    2    1    2    0    0 -0.11343610387E-01  0.10434137792E-01  0.17692229853E-01  0.10204659056E+01  0.10201961090E+01 0.  0.
     999903    2    3    3    0    0  0.96523886356E-01 -0.43810460356E-01  0.72726035540E-01  0.13051838298E+00  0.22577754005E-01 0.  0.
         14    1    1    2    0    0  0.11343610387E-01 -0.10434137792E-01 -0.17692229853E-01  0.23464094384E-01  0.00000000000E+00 0. -1.
     999901    1    3    3    0    0 -0.10786749674E+00  0.54244598149E-01 -0.55033805686E-01  0.88994752264E+00  0.88000000000E+00 0.  1.
        -11    1    4    4    0    0  0.58075058623E-01 -0.30909086684E-01  0.32444358294E-01  0.73355174186E-01  0.51100000000E-03 0.  1.
         11    1    4    4    0    0  0.38448827733E-01 -0.12901373672E-01  0.40281677246E-01  0.57163208792E-01  0.51100000000E-03 0. -1.
</event>
<event>
 8    1  0.1044719E+005  0.1043930E+01  0.7957747E-01            NaN
         13   -1    0    0    0    0  0.00000000000E+00  0.00000000000E+00  0.74505805969E-08  0.10566000000E+00  0.10566000000E+00 0. -1.
     999900   -1    0    0    0    0 -0.00000000000E+00 -0.00000000000E+00 -0.74505805969E-08  0.93827000000E+00  0.93827000000E+00 0. -1.
     999902    2    1    2    0    0 -0.27583506343E-03  0.15536385325E-01 -0.18453705687E-01  0.10198054356E+01  0.10195200498E+01 0.  0.
     999903    2    3    3    0    0  0.12682633257E-01  0.26094005069E-03  0.12560535747E+00  0.12786694287E+00  0.20305959213E-01 0.  0.
         14    1    1    2    0    0  0.27583506343E-03 -0.15536385325E-01  0.18453705687E-01  0.24124564401E-01  0.00000000000E+00 0. -1.
     999901    1    3    3    0    0 -0.12958468320E-01  0.15275445274E-01 -0.14405906315E+00  0.89193849273E+00  0.88000000000E+00 0. -1.
        -11    1    4    4    0    0 -0.47121956467E-02  0.59574567408E-03  0.11672363319E-01  0.12612092894E-01  0.51100000000E-03 0. -1.
         11    1    4    4    0    0  0.17394828903E-01 -0.33480562339E-03  0.11393299415E+00  0.11525484998E+00  0.51100000000E-03 0.  1.
</event>
<event>
 8    1  0.1044719E+005  0.1043930E+01  0.7957747E-01            NaN
         13   -1    0    0    0    0  0.00000000000E+00  0.00000000000E+00  0.74505805969E-08  0.10566000000E+00  0.10566000000E+00 0.  1.
     999900   -1    0    0    0    0 -0.00000000000E+00 -0.00000000000E+00 -0.74505805969E-08  0.93827000000E+00  0.93827000000E+00 0. -1.
     999902    2    1    2    0    0 -0.18048405108E-01 -0.14630889536E-01 -0.51695897656E-03  0.10206904840E+01  0.10204258861E+01 0.  0.
     999903    2    3    3    0    0 -0.73018940106E-01 -0.25119893102E-01 -0.10634165980E+00  0.13258539667E+00  0.17537507154E-01 0.  0.
         14    1    1    2    0    0  0.18048405108E-01  0.14630889536E-01  0.51695897656E-03  0.23239515962E-01  0.00000000000E+00 0. -1.
     999901    1    3    3    0    0  0.54970534998E-01  0.10489003565E-01  0.10582470082E+00  0.88810508737E+00  0.88000000000E+00 0.  1.
        -11    1    4    4    0    0 -0.37703152085E-01 -0.37684103401E-02 -0.52367142844E-01  0.64639828003E-01  0.51100000000E-03 0. -1.
         11    1    4    4    0    0 -0.35315788021E-01 -0.21351482762E-01 -0.53974516951E-01  0.67945568662E-01  0.51100000000E-03 0.  1.
</event>
<event>
 8    1  0.1044719E+005  0.1043930E+01  0.7957747E-01            NaN
         13   -1    0    0    0    0  0.00000000000E+00  0.00000000000E+00  0.74505805969E-08  0.10566000000E+00  0.10566000000E+00 0. -1.
     999900   -1    0    0    0    0 -0.00000000000E+00 -0.00000000000E+00 -0.74505805969E-08  0.93827000000E+00  0.93827000000E+00 0.  1.
     999902    2    1    2    0    0 -0.18463005866E-01 -0.16049673722E-01  0.21119955953E-02  0.10193752624E+01  0.10190794819E+01 0.  0.
     999903    2    3    3    0    0  0.76607957332E-02 -0.82872440044E-01  0.99299961540E-01  0.13112235033E+00  0.20150912750E-01 0.  0.
         14    1    1    2    0    0  0.18463005866E-01  0.16049673722E-01 -0.21119955953E-02  0.24554737579E-01  0.00000000000E+00 0. -1.
     999901    1    3    3    0    0 -0.26123801599E-01  0.66822766322E-01 -0.97187965945E-01  0.88825291209E+00  0.88000000000E+00 0.  1.
        -11    1    4    4    0    0  0.46531549092E-02 -0.24679524593E-01  0.17199575649E-01  0.30443674355E-01  0.51100000000E-03 0. -1.
         11    1    4    4    0    0  0.30076408240E-02 -0.58192915452E-01  0.82100385891E-01  0.10067867598E+00  0.51100000000E-03 0.  1.
</event>
<event>
 8    1  0.1044719E+005  0.1043930E+01  0.7957747E-01            NaN
         13   -1    0    0    0    0  0.00000000000E+00  0.00000000000E+00  0.74505805969E-08  0.10566000000E+00  0.10566000000E+00 0.  1.
     999900   -1    0    0    0    0 -0.00000000000E+00 -0.00000000000E+00 -0.74505805969E-08  0.93827000000E+00  0.93827000000E+00 0.  1.
     999902    2    1    2    0    0 -0.20722858558E-01  0.29590101884E-02  0.10436504935E-01  0.10205395480E+01  0.10202714618E+01 0.  0.
     999903    2    3    3    0    0 -0.52144336680E-01  0.76573585110E-01  0.93482062000E-01  0.13301322195E+00  0.19263320446E-01 0.  0.
         14    1    1    2    0    0  0.20722858558E-01 -0.29590101884E-02 -0.10436504935E-01  0.23390451970E-01  0.00000000000E+00 0. -1.
     999901    1    3    3    0    0  0.31421478122E-01 -0.73614574922E-01 -0.83045557065E-01  0.88752632608E+00  0.88000000000E+00 0.  1.
        -11    1    4    4    0    0 -0.10814491587E-01  0.22664492427E-01  0.36721128958E-01  0.44489716545E-01  0.51100000000E-03 0.  1.
         11    1    4    4    0    0 -0.41329845093E-01  0.53909092683E-01  0.56760933042E-01  0.88523505410E-01  0.51100000000E-03 0. -1.
</event>
<event>
 8    1  0.1044719E+005  0.1043930E+01  0.7957747E-01            NaN
         13   -1    0    0    0    0  0.00000000000E+00  0.00000000000E+00  0.74505805969E-08  0.10566000000E+00  0.10566000000E+00 0.  1.
     999900   -1    0    0    0    0 -0.00000000000E+00 -0.00000000000E+00 -0.74505805969E-08  0.93827000000E+00  0.93827000000E+00 0.  1.
     999902    2    1    2    0    0 -0.17910214757E-01 -0.14442680254E-01 -0.80815223657E-03  0.10209078386E+01  0.10206482229E+01 0.  0.
     999903    2    3    3    0    0 -0.42327997463E-01  0.45340169171E-01 -0.11394203153E+00  0.13131833111E+00  0.20355029476E-01 0.  0.
         14    1    1    2    0    0  0.17910214757E-01  0.14442680254E-01  0.80815223657E-03  0.23022161401E-01  0.00000000000E+00 0. -1.
     999901    1    3    3    0    0  0.24417782707E-01 -0.59782849425E-01  0.11313387930E+00  0.88958950749E+00  0.88000000000E+00 0. -1.
        -11    1    4    4    0    0 -0.79978326321E-02  0.21986938276E-01 -0.47825588271E-01  0.53244143303E-01  0.51100000000E-03 0.  1.
         11    1    4    4    0    0 -0.34330164831E-01  0.23353230895E-01 -0.66116443261E-01  0.78074187803E-01  0.51100000000E-03 0. -1.
</event>
<event>
 8    1  0.1044719E+005  0.1043930E+01  0.7957747E-01            NaN
         13   -1    0    0    0    0  0.00000000000E+00  0.00000000000E+00  0.74505805969E-08  0.10566000000E+00  0.10566000000E+00 0. -1.
     999900   -1    0    0    0    0 -0.00000000000E+00 -0.00000000000E+00 -0.74505805969E-08  0.93827000000E+00  0.93827000000E+00 0. -1.
     999902    2    1    2    0    0  0.40012171251E-02  0.17312542403E-01 -0.20684601205E-01  0.10166612158E+01  0.10162954498E+01 0.  0.
     999903    2    3    3    0    0  0.61653619877E-01  0.55619034288E-01 -0.98629246300E-01  0.13050854582E+00  0.20251086106E-01 0.  0.
         14    1    1    2    0    0 -0.40012171251E-02 -0.17312542403E-01  0.20684601205E-01  0.27268784167E-01  0.00000000000E+00 0. -1.
     999901    1    3    3    0    0 -0.57652402752E-01 -0.38306491885E-01  0.77944645095E-01  0.88615267001E+00  0.88000000000E+00 0.  1.
        -11    1    4    4    0    0  0.34038655445E-01  0.30439760288E-01 -0.69329424862E-01  0.83018307280E-01  0.51100000000E-03 0. -1.
         11    1    4    4    0    0  0.27614964432E-01  0.25179274000E-01 -0.29299821438E-01  0.47490238545E-01  0.51100000000E-03 0.  1.
</event>
<event>
 8    1  0.1044719E+005  0.1043930E+01  0.7957747E-01            NaN
         13   -1    0    0    0    0  0.00000000000E+00  0.00000000000E+00  0.74505805969E-08  0.10566000000E+00  0.10566000000E+00 0. -1.
     999900   -1    0    0    0    0 -0.00000000000E+00 -0.00000000000E+00 -0.74505805969E-08  0.93827000000E+00  0.93827000000E+00 0. -1.
     999902    2    1    2    0    0 -0.21362376330E-01  0.81996030642E-02 -0.15723198486E-02  0.10209940718E+01  0.10207364194E+01 0.  0.
     999903    2    3    3    0    0 -0.90454189065E-01  0.95625663885E-01 -0.14171397211E-01  0.13387754538E+00  0.19903284754E-01 0.  0.
         14    1    1    2    0    0  0.21362376330E-01 -0.81996030642E-02  0.15723198486E-02  0.22935928204E-01  0.00000000000E+00 0. -1.
     999901    1    3    3    0    0  0.69091812735E-01 -0.87426060821E-01  0.12599077363E-01  0.88711652642E+00  0.88000000000E+00 0. -1.
        -11    1    4    4    0    0 -0.31204300980E-01  0.46933893990E-01 -0.38530918452E-02  0.56494302744E-01  0.51100000000E-03 0. -1.
         11    1    4    4    0    0 -0.59249888085E-01  0.48691769895E-01 -0.10318305366E-01  0.77383242631E-01  0.51100000000E-03 0.  1.
</event>
<event>
 8    1  0.1044719E+005  0.1043930E+01  0.7957747E-01            NaN
         13   -1    0    0    0    0  0.00000000000E+00  0.00000000000E+00  0.74505805969E-08  0.10566000000E+00  0.10566000000E+00 0.  1.
     999900   -1    0    0    0    0 -0.00000000000E+00 -0.00000000000E+00 -0.74505805969E-08  0.93827000000E+00  0.93827000000E+00 0. -1.
     999902    2    1    2    0    0 -0.83433407166E-02  0.12330073862E-01 -0.17770687904E-01  0.10207472606E+01  0.10204839689E+01 0.  0.
     999903    2    3    3    0    0  0.11653223564E+00  0.49011007411E-02 -0.56545509834E-01  0.13105484973E+00  0.19344152212E-01 0.  0.
         14    1    1    2    0    0  0.83433407166E-02 -0.12330073862E-01  0.17770687904E-01  0.23182739362E-01  0.00000000000E+00 0.  1.
     999901    1    3    3    0    0 -0.12487557635E+00  0.74289731211E-02  0.38774821930E-01  0.88969241091E+00  0.88000000000E+00 0. -1.
        -11    1    4    4    0    0  0.47261122373E-01 -0.19782156243E-03 -0.12799546408E-01  0.48966747192E-01  0.51100000000E-03 0.  1.
         11    1    4    4    0    0  0.69271113263E-01  0.50989223035E-02 -0.43745963426E-01  0.82088102538E-01  0.51100000000E-03 0. -1.
</event>
<event>
 8    1  0.1044719E+005  0.1043930E+01  0.7957747E-01            NaN
         13   -1    0    0    0    0  0.00000000000E+00  0.00000000000E+00  0.74505805969E-08  0.10566000000E+00  0.10566000000E+00 0. -1.
     999900   -1    0    0    0    0 -0.00000000000E+00 -0.00000000000E+00 -0.74505805969E-08  0.93827000000E+00  0.93827000000E+00 0. -1.
     999902    2    1    2    0    0  0.10249976182E-01  0.15766369415E-01 -0.14155413998E-01  0.10203924521E+01  0.10201209439E+01 0.  0.
     999903    2    3    3    0    0  0.84532937089E-01  0.59505376382E-01 -0.82277990875E-01  0.13356003021E+00  0.19542431176E-01 0.  0.
         14    1    1    2    0    0 -0.10249976182E-01 -0.15766369415E-01  0.14155413998E-01  0.23537547912E-01  0.00000000000E+00 0. -1.
     999901    1    3    3    0    0 -0.74282960907E-01 -0.43739006968E-01  0.68122576877E-01  0.88683242188E+00  0.88000000000E+00 0.  1.
        -11    1    4    4    0    0  0.23120604038E-01  0.17729826632E-01 -0.12707428246E-01  0.31790705200E-01  0.51100000000E-03 0. -1.
         11    1    4    4    0    0  0.61412333051E-01  0.41775549750E-01 -0.69570562629E-01  0.10176932501E+00  0.51100000000E-03 0.  1.
</event>
<event>
 8    1  0.1044719E+005  0.1043930E+01  0.7957747E-01            NaN
         13   -1    0    0    0    0  0.00000000000E+00  0.00000000000E+00  0.74505805969E-08  0.10566000000E+00  0.10566000000E+00 0.  1.
     999900   -1    0    0    0    0 -0.00000000000E+00 -0.00000000000E+00 -0.74505805969E-08  0.93827000000E+00  0.93827000000E+00 0. -1.
     999902    2    1    2    0    0  0.47272336624E-02  0.79817062033E-02 -0.10090849205E-01  0.10302230817E+01  0.10301318937E+01 0.  0.
     999903    2    3    3    0    0 -0.10690836743E+00  0.34790726650E-02  0.84047245523E-01  0.13817781264E+00  0.24241812096E-01 0.  0.
         14    1    1    2    0    0 -0.47272336624E-02 -0.79817062033E-02  0.10090849205E-01  0.13706918315E-01  0.00000000000E+00 0.  1.
     999901    1    3    3    0    0  0.11163560109E+00  0.45026335382E-02 -0.94138094728E-01  0.89204526904E+00  0.88000000000E+00 0. -1.
        -11    1    4    4    0    0 -0.57850354428E-01 -0.87060157772E-02  0.52383654579E-01  0.78528762923E-01  0.51100000000E-03 0. -1.
         11    1    4    4    0    0 -0.49058013003E-01  0.12185088442E-01  0.31663590944E-01  0.59649049721E-01  0.51100000000E-03 0.  1.
</event>
<event>
 8    1  0.1044719E+005  0.1043930E+01  0.7957747E-01            NaN
         13   -1    0    0    0    0  0.00000000000E+00  0.00000000000E+00  0.74505805969E-08  0.10566000000E+00  0.10566000000E+00 0. -1.
     999900   -1    0    0    0    0 -0.00000000000E+00 -0.00000000000E+00 -0.74505805969E-08  0.93827000000E+00  0.93827000000E+00 0. -1.
     999902    2    1    2    0    0 -0.16328673798E-01  0.76534655083E-02  0.17321109942E-01  0.10189255610E+01  0.10186187102E+01 0.  0.
     999903    2    3    3    0    0 -0.43349194923E-01  0.27303285120E-01 -0.11585859549E+00  0.12827801119E+00  0.20184447638E-01 0.  0.
         14    1    1    2    0    0  0.16328673798E-01 -0.76534655083E-02 -0.17321109942E-01  0.25004439044E-01  0.00000000000E+00 0.  1.
     999901    1    3    3    0    0  0.27020521126E-01 -0.19649819611E-01  0.13317970543E+00  0.89064754977E+00  0.88000000000E+00 0.  1.
        -11    1    4    4    0    0 -0.27008645942E-01  0.80852290145E-02 -0.76449968544E-01  0.81484334047E-01  0.51100000000E-03 0. -1.
         11    1    4    4    0    0 -0.16340548982E-01  0.19218056105E-01 -0.39408626945E-01  0.46793677139E-01  0.51100000000E-03 0.  1.
</event>
<event>
 8    1  0.1077753E+005  0.1043930E+01  0.7957747E-01            NaN
         13   -1    0    0    0    0  0.00000000000E+00  0.00000000000E+00  0.74505805969E-08  0.10566000000E+00  0.10566000000E+00 0. -1.
     999900   -1    0    0    0    0 -0.00000000000E+00 -0.00000000000E+00 -0.74505805969E-08  0.93827000000E+00  0.93827000000E+00 0.  1.
     999902    2    1    2    0    0  0.18751519676E-01  0.27190633599E-02  0.13616739623E-01  0.10205970106E+01  0.10203302552E+01 0.  0.
     999903    2    3    3    0    0  0.50885261058E-01 -0.10772612072E-01  0.12131316351E+00  0.13334669511E+00  0.18949894267E-01 0.  0.
         14    1    1    2    0    0 -0.18751519676E-01 -0.27190633599E-02 -0.13616739623E-01  0.23332989386E-01  0.00000000000E+00 0.  1.
     999901    1    3    3    0    0 -0.32133741382E-01  0.13491675432E-01 -0.10769642389E+00  0.88725031550E+00  0.88000000000E+00 0.  1.
        -11    1    4    4    0    0  0.19571680105E-01 -0.12473268566E-01  0.62880736499E-01  0.67028958179E-01  0.51100000000E-03 0. -1.
         11    1    4    4    0    0  0.31313580952E-01  0.17006564934E-02  0.58432427010E-01  0.66317736933E-01  0.51100000000E-03 0.  1.
</event>
<event>
 8    1  0.1044719E+005  0.1043930E+01  0.7957747E-01            NaN
         13   -1    0    0    0    0  0.00000000000E+00  0.00000000000E+00  0.74505805969E-08  0.10566000000E+00  0.10566000000E+00 0.  1.
     999900   -1    0    0    0    0 -0.00000000000E+00 -0.00000000000E+00 -0.74505805969E-08  0.93827000000E+00  0.93827000000E+00 0.  1.
     999902    2    1    2    0    0 -0.22548917694E-01 -0.82671255949E-02 -0.36385443187E-02  0.10196393010E+01  0.10193499232E+01 0.  0.
     999903    2    3    3    0    0 -0.80138886111E-02  0.10817251186E+00 -0.67813139649E-01  0.12953378198E+00  0.20368211331E-01 0.  0.
         14    1    1    2    0    0  0.22548917694E-01  0.82671255949E-02  0.36385443187E-02  0.24290699034E-01  0.00000000000E+00 0. -1.
     999901    1    3    3    0    0 -0.14535029083E-01 -0.11643963745E+00  0.64174595330E-01  0.89010551898E+00  0.88000000000E+00 0. -1.
        -11    1    4    4    0    0  0.28852291509E-02  0.78629018466E-01 -0.51788262237E-01  0.94197305262E-01  0.51100000000E-03 0.  1.
         11    1    4    4    0    0 -0.10899117762E-01  0.29543493394E-01 -0.16024877412E-01  0.35336476720E-01  0.51100000000E-03 0. -1.
</event>
<event>
 7    1  0.1044719E+005  0.1043930E+01  0.7957747E-01            NaN
         13   -1    0    0    0    0  0.00000000000E+00  0.00000000000E+00  0.74505805969E-08  0.10566000000E+00  0.10566000000E+00 0.  1.
     999900   -1    0    0    0    0 -0.00000000000E+00 -0.00000000000E+00 -0.74505805969E-08  0.93827000000E+00  0.93827000000E+00 0.  1.
     999902    2    1    2    0    0  0.14461164412E-01 -0.13262345899E-01 -0.14025294753E-01  0.10198110451E+01  0.10195257935E+01 0.  0.
         14    1    1    2    0    0 -0.14461164412E-01  0.13262345899E-01  0.14025294753E-01  0.24118954948E-01  0.00000000000E+00 0.  1.
     999901    1    3    3    0    0 -0.76878163410E-01 -0.88640945342E-01 -0.49604892947E-01  0.88917271360E+00  0.88000000000E+00 0.  1.
        -11    1    3    3    0    0  0.36519881518E-01  0.55201211797E-01  0.10303096504E-01  0.66987240939E-01  0.51100000000E-03 0. -1.
         11    1    3    3    0    0  0.54819446304E-01  0.20177387646E-01  0.25276501690E-01  0.63651090516E-01  0.51100000000E-03 0.  1.
</event>
<event>
 8    1  0.1044719E+005  0.1043930E+01  0.7957747E-01            NaN
         13   -1    0    0    0    0  0.00000000000E+00  0.00000000000E+00  0.74505805969E-08  0.10566000000E+00  0.10566000000E+00 0.  1.
     999900   -1    0    0    0    0 -0.00000000000E+00 -0.00000000000E+00 -0.74505805969E-08  0.93827000000E+00  0.93827000000E+00 0.  1.
     999902    2    1    2    0    0  0.92395058710E-02 -0.21326536516E-01  0.87831413570E-03  0.10206714303E+01  0.10204063933E+01 0.  0.
     999903    2    3    3    0    0  0.71883623209E-01 -0.10657232604E+00 -0.30501356698E-01  0.13378033563E+00  0.21022118767E-01 0.  0.
         14    1    1    2    0    0 -0.92395058710E-02  0.21326536516E-01 -0.87831413570E-03  0.23258569695E-01  0.00000000000E+00 0. -1.
     999901    1    3    3    0    0 -0.62644117338E-01  0.85245789527E-01  0.31379670834E-01  0.88689109467E+00  0.88000000000E+00 0. -1.
        -11    1    4    4    0    0  0.39469892399E-01 -0.41226635158E-01 -0.94099394306E-02  0.57847350272E-01  0.51100000000E-03 0. -1.
         11    1    4    4    0    0  0.32413730811E-01 -0.65345690885E-01 -0.21091417267E-01  0.75932985360E-01  0.51100000000E-03 0.  1.
</event>
<event>
 8    1  0.1044719E+005  0.1043930E+01  0.7957747E-01            NaN
         13   -1    0    0    0    0  0.00000000000E+00  0.00000000000E+00  0.74505805969E-08  0.10566000000E+00  0.10566000000E+00 0.  1.
     999900   -1    0    0    0    0 -0.00000000000E+00 -0.00000000000E+00 -0.74505805969E-08  0.93827000000E+00  0.93827000000E+00 0. -1.
     999902    2    1    2    0    0  0.48729338778E-02 -0.48782162596E-02  0.21784716499E-01  0.10210801345E+01  0.10208244339E+01 0.  0.
     999903    2    3    3    0    0 -0.11069282635E+00  0.33610309743E-01 -0.54368034246E-01  0.12943219224E+00  0.20353243296E-01 0.  0.
         14    1    1    2    0    0 -0.48729338778E-02  0.48782162596E-02 -0.21784716499E-01  0.22849865456E-01  0.00000000000E+00 0. -1.
     999901    1    3    3    0    0  0.11556576023E+00 -0.38488526002E-01  0.76152750744E-01  0.89164794231E+00  0.88000000000E+00 0.  1.
        -11    1    4    4    0    0 -0.68913293201E-01  0.13817375277E-01 -0.40701666692E-01  0.81220986400E-01  0.51100000000E-03 0. -1.
         11    1    4    4    0    0 -0.41779533153E-01  0.19792934466E-01 -0.13666367554E-01  0.48211205838E-01  0.51100000000E-03 0.  1.
</event>
<event>
 8    1  0.1044719E+005  0.1043930E+01  0.7957747E-01            NaN
         13   -1    0    0    0    0  0.00000000000E+00  0.00000000000E+00  0.74505805969E-08  0.10566000000E+00  0.10566000000E+00 0. -1.
     999900   -1    0    0    0    0 -0.00000000000E+00 -0.00000000000E+00 -0.74505805969E-08  0.93827000000E+00  0.93827000000E+00 0.  1.
     999902    2    1    2    0    0 -0.13233407545E-01 -0.96500006988E-02 -0.18227488464E-01  0.10194251653E+01  0.10191306004E+01 0.  0.
     999903    2    3    3    0    0  0.90502315137E-01  0.81183679281E-01 -0.36194319653E-01  0.12850728770E+00  0.20558097912E-01 0.  0.
         14    1    1    2    0    0  0.13233407545E-01  0.96500006988E-02  0.18227488464E-01  0.24504834716E-01  0.00000000000E+00 0. -1.
     999901    1    3    3    0    0 -0.10373572268E+00 -0.90833679980E-01  0.17966831189E-01  0.89091787759E+00  0.88000000000E+00 0. -1.
        -11    1    4    4    0    0  0.29802172139E-01  0.38458746360E-01 -0.19522894648E-01  0.52427561189E-01  0.51100000000E-03 0. -1.
         11    1    4    4    0    0  0.60700142998E-01  0.42724932921E-01 -0.16671425005E-01  0.76079726509E-01  0.51100000000E-03 0.  1.
</event>
<event>
 8    1  0.1044719E+005  0.1043930E+01  0.7957747E-01            NaN
         13   -1    0    0    0    0  0.00000000000E+00  0.00000000000E+00  0.74505805969E-08  0.10566000000E+00  0.10566000000E+00 0.  1.
     999900   -1    0    0    0    0 -0.00000000000E+00 -0.00000000000E+00 -0.74505805969E-08  0.93827000000E+00  0.93827000000E+00 0.  1.
     999902    2    1    2    0    0 -0.73328895959E-02  0.22450624211E-01  0.37672086427E-02  0.10200136111E+01  0.10197331872E+01 0.  0.
     999903    2    3    3    0    0 -0.36226889400E-01  0.71939725046E-01 -0.10196156526E+00  0.13183423284E+00  0.22279869921E-01 0.  0.
         14    1    1    2    0    0  0.73328895959E-02 -0.22450624211E-01 -0.37672086427E-02  0.23916388905E-01  0.00000000000E+00 0. -1.
     999901    1    3    3    0    0  0.28893999804E-01 -0.49489100835E-01  0.10572877390E+00  0.88817937825E+00  0.88000000000E+00 0. -1.
        -11    1    4    4    0    0 -0.18059712311E-01  0.47455991658E-01 -0.48116298495E-01  0.69954725750E-01  0.51100000000E-03 0.  1.
         11    1    4    4    0    0 -0.18167177089E-01  0.24483733388E-01 -0.53845266763E-01  0.61879507091E-01  0.51100000000E-03 0. -1.
</event>
<event>
 8    1  0.1044719E+005  0.1043930E+01  0.7957747E-01            NaN
         13   -1    0    0    0    0  0.00000000000E+00  0.00000000000E+00  0.74505805969E-08  0.10566000000E+00  0.10566000000E+00 0.  1.
     999900   -1    0    0    0    0 -0.00000000000E+00 -0.00000000000E+00 -0.74505805969E-08  0.93827000000E+00  0.93827000000E+00 0. -1.
     999902    2    1    2    0    0  0.12270168741E-01  0.18340697045E-01  0.72153134130E-02  0.10207136489E+01  0.10204495843E+01 0.  0.
     999903    2    3    3    0    0  0.78852055709E-02  0.88979662678E-01 -0.95131981709E-01  0.13195943084E+00  0.19586745679E-01 0.  0.
         14    1    1    2    0    0 -0.12270168741E-01 -0.18340697045E-01 -0.72153134130E-02  0.23216351063E-01  0.00000000000E+00 0. -1.
     999901    1    3    3    0    0  0.43849631704E-02 -0.70638965633E-01  0.10234729512E+00  0.88875421810E+00  0.88000000000E+00 0.  1.
        -11    1    4    4    0    0  0.25848499916E-02  0.24885988350E-01 -0.14874741846E-01  0.29112075358E-01  0.51100000000E-03 0.  1.
         11    1    4    4    0    0  0.53003555793E-02  0.64093674328E-01 -0.80257239863E-01  0.10284735548E+00  0.51100000000E-03 0. -1.
</event>
<event>
 8    1  0.1044719E+005  0.1043930E+01  0.7957747E-01            NaN
         13   -1    0    0    0    0  0.00000000000E+00  0.00000000000E+00  0.74505805969E-08  0.10566000000E+00  0.10566000000E+00 0. -1.
     999900   -1    0    0    0    0 -0.00000000000E+00 -0.00000000000E+00 -0.74505805969E-08  0.93827000000E+00  0.93827000000E+00 0.  1.
     999902    2    1    2    0    0 -0.16339878401E-01 -0.40473979446E-02  0.16781151196E-01  0.10201606901E+01  0.10198837451E+01 0.  0.
     999903    2    3    3    0    0 -0.78699104459E-01 -0.10028028273E+00 -0.26287354173E-01  0.13167639801E+00  0.19949051494E-01 0.  0.
         14    1    1    2    0    0  0.16339878401E-01  0.40473979446E-02 -0.16781151196E-01  0.23769309871E-01  0.00000000000E+00 0.  1.
     999901    1    3    3    0    0  0.62359226059E-01  0.96232884788E-01  0.43068505369E-01  0.88848429212E+00  0.88000000000E+00 0. -1.
        -11    1    4    4    0    0 -0.52734533066E-01 -0.51580202466E-01 -0.12948599125E-01  0.74895764930E-01  0.51100000000E-03 0. -1.
         11    1    4    4    0    0 -0.25964571394E-01 -0.48700080267E-01 -0.13338755048E-01  0.56780633079E-01  0.51100000000E-03 0.  1.
</event>
<event>
 8    1  0.1044719E+005  0.1043930E+01  0.7957747E-01            NaN
         13   -1    0    0    0    0  0.00000000000E+00  0.00000000000E+00  0.74505805969E-08  0.10566000000E+00  0.10566000000E+00 0. -1.
     999900   -1    0    0    0    0 -0.00000000000E+00 -0.00000000000E+00 -0.74505805969E-08  0.93827000000E+00  0.93827000000E+00 0.  1.
     999902    2    1    2    0    0 -0.99883635325E-02  0.17030761040E-01  0.14776883008E-01  0.10192688869E+01  0.10189705066E+01 0.  0.
     999903    2    3    3    0    0  0.60012875437E-01  0.11545250256E+00 -0.73782895841E-02  0.13074321798E+00  0.10417500897E-01 0.  0.
         14    1    1    2    0    0  0.99883635325E-02 -0.17030761040E-01 -0.14776883008E-01  0.24661113096E-01  0.00000000000E+00 0.  1.
     999901    1    3    3    0    0 -0.70001238969E-01 -0.98421741522E-01  0.22155172593E-01  0.88852566892E+00  0.88000000000E+00 0. -1.
        -11    1    4    4    0    0  0.55124328101E-01  0.10709268231E+00 -0.94785386899E-02  0.12082068519E+00  0.51100000000E-03 0. -1.
         11    1    4    4    0    0  0.48885473351E-02  0.83598202478E-02  0.21002491058E-02  0.99225327880E-02  0.51100000000E-03 0.  1.
</event>
<event>
 8    1  0.1044719E+005  0.1043930E+01  0.7957747E-01            NaN
         13   -1    0    0    0    0  0.00000000000E+00  0.00000000000E+00  0.74505805969E-08  0.10566000000E+00  0.10566000000E+00 0.  1.
     999900   -1    0    0    0    0 -0.00000000000E+00 -0.00000000000E+00 -0.74505805969E-08  0.93827000000E+00  0.93827000000E+00 0.  1.
     999902    2    1    2    0    0 -0.10615763404E-01  0.20514918307E-01  0.56684127961E-02  0.10201458202E+01  0.10198685245E+01 0.  0.
     999903    2    3    3    0    0  0.68210393243E-01 -0.10513484319E+00 -0.94752812351E-02  0.12760408054E+00  0.22068697676E-01 0.  0.
         14    1    1    2    0    0  0.10615763404E-01 -0.20514918307E-01 -0.56684127961E-02  0.23784179814E-01  0.00000000000E+00 0.  1.
     999901    1    3    3    0    0 -0.78826156647E-01  0.12564976150E+00  0.15143694031E-01  0.89254173964E+00  0.88000000000E+00 0. -1.
        -11    1    4    4    0    0  0.59882978168E-01 -0.85022380121E-01 -0.15173709915E-01  0.10509652130E+00  0.51100000000E-03 0. -1.
         11    1    4    4    0    0  0.83274150747E-02 -0.20112463072E-01  0.56984286802E-02  0.22507559243E-01  0.51100000000E-03 0.  1.
</event>
<event>
 8    1  0.1044719E+005  0.1043930E+01  0.7957747E-01            NaN
         13   -1    0    0    0    0  0.00000000000E+00  0.00000000000E+00  0.74505805969E-08  0.10566000000E+00  0.10566000000E+00 0. -1.
     999900   -1    0    0    0    0 -0.00000000000E+00 -0.00000000000E+00 -0.74505805969E-08  0.93827000000E+00  0.93827000000E+00 0. -1.
     999902    2    1    2    0    0  0.13949491418E-01  0.78253528505E-02  0.17298841996E-01  0.10203699832E+01  0.10200979503E+01 0.  0.
     999903    2    3    3    0    0  0.76886454954E-01  0.52283959143E-01 -0.90524179247E-01  0.13044670954E+00  0.13288252832E-01 0.  0.
         14    1    1    2    0    0 -0.13949491418E-01 -0.78253528505E-02 -0.17298841996E-01  0.23560016818E-01  0.00000000000E+00 0.  1.
     999901    1    3    3    0    0 -0.62936963535E-01 -0.44458606293E-01  0.10782302124E+00  0.88992327364E+00  0.88000000000E+00 0.  1.
        -11    1    4    4    0    0  0.41332934960E-01  0.20866157372E-01 -0.40777035425E-01  0.61699560574E-01  0.51100000000E-03 0.  1.
         11    1    4    4    0    0  0.35553519993E-01  0.31417801771E-01 -0.49747143822E-01  0.68747148970E-01  0.51100000000E-03 0. -1.
</event>
<event>
 8    1  0.1044719E+005  0.1043930E+01  0.7957747E-01            NaN
         13   -1    0    0    0    0  0.00000000000E+00  0.00000000000E+00  0.74505805969E-08  0.10566000000E+00  0.10566000000E+00 0. -1.
     999900   -1    0    0    0    0 -0.00000000000E+00 -0.00000000000E+00 -0.74505805969E-08  0.93827000000E+00  0.93827000000E+00 0.  1.
     999902    2    1    2    0    0 -0.14458434757E-01  0.92098626242E-02  0.17245203154E-01  0.10196140600E+01  0.10193240733E+01 0.  0.
     999903    2    3    3    0    0 -0.75484975580E-01  0.76367346536E-01  0.75904941147E-01  0.13300516587E+00  0.19971502247E-01 0.  0.
         14    1    1    2    0    0  0.14458434757E-01 -0.92098626242E-02 -0.17245203154E-01  0.24315939978E-01  0.00000000000E+00 0.  1.
     999901    1    3    3    0    0  0.61026540824E-01 -0.67157483912E-01 -0.58659737993E-01  0.88660889415E+00  0.88000000000E+00 0. -1.
        -11    1    4    4    0    0 -0.25105537248E-01  0.38821755739E-01  0.28739753796E-01  0.54439427701E-01  0.51100000000E-03 0.  1.
         11    1    4    4    0    0 -0.50379438333E-01  0.37545590796E-01  0.47165187352E-01  0.78565738168E-01  0.51100000000E-03 0. -1.
</event>
<event>
 8    1  0.1044719E+005  0.1043930E+01  0.7957747E-01            NaN
         13   -1    0    0    0    0  0.00000000000E+00  0.00000000000E+00  0.74505805969E-08  0.10566000000E+00  0.10566000000E+00 0.  1.
     999900   -1    0    0    0    0 -0.00000000000E+00 -0.00000000000E+00 -0.74505805969E-08  0.93827000000E+00  0.93827000000E+00 0. -1.
     999902    2    1    2    0    0  0.81448905307E-02 -0.30490855133E-02  0.22181073759E-01  0.10201048831E+01  0.10198266207E+01 0.  0.
     999903    2    3    3    0    0  0.76624231935E-02  0.67800259356E-01  0.11204102014E+00  0.13269591736E+00  0.19985704648E-01 0.  0.
         14    1    1    2    0    0 -0.81448905307E-02  0.30490855133E-02 -0.22181073759E-01  0.23825116942E-01  0.00000000000E+00 0. -1.
     999901    1    3    3    0    0  0.48246733729E-03 -0.70849344869E-01 -0.89859946385E-01  0.88740896570E+00  0.88000000000E+00 0. -1.
        -11    1    4    4    0    0  0.20687450287E-02  0.92930902919E-02  0.32014228597E-01  0.33403790007E-01  0.51100000000E-03 0.  1.
         11    1    4    4    0    0  0.55936781647E-02  0.58507169064E-01  0.80026791546E-01  0.99292127349E-01  0.51100000000E-03 0. -1.
</event>
<event>
 8    1  0.1044719E+005  0.1043930E+01  0.7957747E-01            NaN
         13   -1    0    0    0    0  0.00000000000E+00  0.00000000000E+00  0.74505805969E-08  0.10566000000E+00  0.10566000000E+00 0.  1.
     999900   -1    0    0    0    0 -0.00000000000E+00 -0.00000000000E+00 -0.74505805969E-08  0.93827000000E+00  0.93827000000E+00 0.  1.
     999902    2    1    2    0    0  0.13271054431E-01 -0.58383259176E-03 -0.20320109755E-01  0.10196530849E+01  0.10193640395E+01 0.  0.
     999903    2    3    3    0    0 -0.54689277044E-01  0.33860790974E-01  0.10776738336E+00  0.12712216407E+00  0.20217949789E-01 0.  0.
         14    1    1    2    0    0 -0.13271054431E-01  0.58383259176E-03  0.20320109755E-01  0.24276915097E-01  0.00000000000E+00 0.  1.
     999901    1    3    3    0    0  0.67960331474E-01 -0.34444623566E-01 -0.12808749311E+00  0.89253092083E+00  0.88000000000E+00 0.  1.
        -11    1    4    4    0    0 -0.68761989131E-02  0.23818614648E-02  0.28021943512E-01  0.28955928835E-01  0.51100000000E-03 0.  1.
         11    1    4    4    0    0 -0.47813078131E-01  0.31478929509E-01  0.79745439846E-01  0.98166235237E-01  0.51100000000E-03 0. -1.
</event>
<event>
 8    1  0.1044719E+005  0.1043930E+01  0.7957747E-01            NaN
         13   -1    0    0    0    0  0.00000000000E+00  0.00000000000E+00  0.74505805969E-08  0.10566000000E+00  0.10566000000E+00 0. -1.
     999900   -1    0    0    0    0 -0.00000000000E+00 -0.00000000000E+00 -0.74505805969E-08  0.93827000000E+00  0.93827000000E+00 0.  1.
     999902    2    1    2    0    0  0.11322453651E-01  0.62097422594E-02  0.19830105955E-01  0.10202658508E+01  0.10199913795E+01 0.  0.
     999903    2    3    3    0    0 -0.59779783809E-01 -0.74377278239E-01 -0.82780057484E-01  0.12780932990E+00  0.19418671971E-01 0.  0.
         14    1    1    2    0    0 -0.11322453651E-01 -0.62097422594E-02 -0.19830105955E-01  0.23664149210E-01  0.00000000000E+00 0.  1.
     999901    1    3    3    0    0  0.71102237460E-01  0.80587020498E-01  0.10261016344E+00  0.89245652089E+00  0.88000000000E+00 0.  1.
        -11    1    4    4    0    0 -0.55680432433E-01 -0.57819579374E-01 -0.69660250552E-01  0.10628370497E+00  0.51100000000E-03 0. -1.
         11    1    4    4    0    0 -0.40993513755E-02 -0.16557698865E-01 -0.13119806932E-01  0.21525624923E-01  0.51100000000E-03 0.  1.
</event>
<event>
 8    1  0.1044719E+005  0.1043930E+01  0.7957747E-01            NaN
         13   -1    0    0    0    0  0.00000000000E+00  0.00000000000E+00  0.74505805969E-08  0.10566000000E+00  0.10566000000E+00 0.  1.
     999900   -1    0    0    0    0 -0.00000000000E+00 -0.00000000000E+00 -0.74505805969E-08  0.93827000000E+00  0.93827000000E+00 0. -1.
     999902    2    1    2    0    0 -0.99014193023E-02 -0.20305915599E-01  0.37839174859E-02  0.10210239671E+01  0.10207669935E+01 0.  0.
     999903    2    3    3    0    0  0.81831877907E-01 -0.10102778994E+00 -0.18218153090E-01  0.13230854023E+00  0.16449259367E-01 0.  0.
         14    1    1    2    0    0  0.99014193023E-02  0.20305915599E-01 -0.37839174859E-02  0.22906032918E-01  0.00000000000E+00 0.  1.
     999901    1    3    3    0    0 -0.91733297209E-01  0.80721874342E-01  0.22002070576E-01  0.88871542685E+00  0.88000000000E+00 0.  1.
        -11    1    4    4    0    0  0.11537039535E-01 -0.12176900379E-01  0.29834547648E-02  0.17045301623E-01  0.51100000000E-03 0. -1.
         11    1    4    4    0    0  0.70294838372E-01 -0.88850889562E-01 -0.21201607855E-01  0.11526323861E+00  0.51100000000E-03 0.  1.
</event>
<event>
 8    1  0.1044719E+005  0.1043930E+01  0.7957747E-01            NaN
         13   -1    0    0    0    0  0.00000000000E+00  0.00000000000E+00  0.74505805969E-08  0.10566000000E+00  0.10566000000E+00 0.  1.
     999900   -1    0    0    0    0 -0.00000000000E+00 -0.00000000000E+00 -0.74505805969E-08  0.93827000000E+00  0.93827000000E+00 0.  1.
     999902    2    1    2    0    0 -0.20851532969E-01 -0.51051453887E-02  0.81663306922E-02  0.10209618069E+01  0.10207034208E+01 0.  0.
     999903    2    3    3    0    0 -0.77120261104E-03  0.11288322227E+00 -0.61731039542E-01  0.13011383058E+00  0.19382235204E-01 0.  0.
         14    1    1    2    0    0  0.20851532969E-01  0.51051453887E-02 -0.81663306922E-02  0.22968193085E-01  0.00000000000E+00 0. -1.
     999901    1    3    3    0    0 -0.20080330358E-01 -0.11798836766E+00  0.69897370234E-01  0.89084797633E+00  0.88000000000E+00 0.  1.
        -11    1    4    4    0    0  0.69867916493E-02  0.76508266487E-01 -0.35728136602E-01  0.84729516489E-01  0.51100000000E-03 0.  1.
         11    1    4    4    0    0 -0.77579942603E-02  0.36374955787E-01 -0.26002902940E-01  0.45384314094E-01  0.51100000000E-03 0. -1.
</event>
<event>
 8    1  0.1044719E+005  0.1043930E+01  0.7957747E-01            NaN
         13   -1    0    0    0    0  0.00000000000E+00  0.00000000000E+00  0.74505805969E-08  0.10566000000E+00  0.10566000000E+00 0. -1.
     999900   -1    0    0    0    0 -0.00000000000E+00 -0.00000000000E+00 -0.74505805969E-08  0.93827000000E+00  0.93827000000E+00 0.  1.
     999902    2    1    2    0    0  0.97337666733E-02  0.15453407496E-01 -0.20103278936E-01  0.10167694433E+01  0.10164066140E+01 0.  0.
     999903    2    3    3    0    0  0.54766449767E-01 -0.18515844953E-01  0.10956634707E+00  0.12548045280E+00  0.19958935123E-01 0.  0.
         14    1    1    2    0    0 -0.97337666733E-02 -0.15453407496E-01  0.20103278936E-01  0.27160556711E-01  0.00000000000E+00 0. -1.
     999901    1    3    3    0    0 -0.45032683094E-01  0.33969252449E-01 -0.12966962600E+00  0.89128899049E+00  0.88000000000E+00 0.  1.
        -11    1    4    4    0    0  0.37581010156E-01 -0.25135649199E-02  0.66791371227E-01  0.76681149733E-01  0.51100000000E-03 0. -1.
         11    1    4    4    0    0  0.17185439611E-01 -0.16002280033E-01  0.42774975838E-01  0.48799303067E-01  0.51100000000E-03 0.  1.
</event>
<event>
 8    1  0.1044719E+005  0.1043930E+01  0.7957747E-01            NaN
         13   -1    0    0    0    0  0.00000000000E+00  0.00000000000E+00  0.74505805969E-08  0.10566000000E+00  0.10566000000E+00 0. -1.
     999900   -1    0    0    0    0 -0.00000000000E+00 -0.00000000000E+00 -0.74505805969E-08  0.93827000000E+00  0.93827000000E+00 0.  1.
     999902    2    1    2    0    0 -0.80812302494E-02  0.61804534986E-02 -0.21356211928E-01  0.10202743014E+01  0.10200000285E+01 0.  0.
     999903    2    3    3    0    0 -0.12380151175E+00 -0.36475639807E-01 -0.14822807717E-01  0.13164985249E+00  0.21323260125E-01 0.  0.
         14    1    1    2    0    0  0.80812302494E-02 -0.61804534986E-02  0.21356211928E-01  0.23655698588E-01  0.00000000000E+00 0. -1.
     999901    1    3    3    0    0  0.11572028150E+00  0.42656093306E-01 -0.65334042107E-02  0.88862444892E+00  0.88000000000E+00 0. -1.
        -11    1    4    4    0    0 -0.25911562984E-01  0.10753467262E-02 -0.18679444846E-02  0.26006072454E-01  0.51100000000E-03 0.  1.
         11    1    4    4    0    0 -0.97889948764E-01 -0.37550986534E-01 -0.12954863232E-01  0.10564378004E+00  0.51100000000E-03 0. -1.
</event>
<event>
 8    1  0.1044719E+005  0.1043930E+01  0.7957747E-01            NaN
         13   -1    0    0    0    0  0.00000000000E+00  0.00000000000E+00  0.74505805969E-08  0.10566000000E+00  0.10566000000E+00 0. -1.
     999900   -1    0    0    0    0 -0.00000000000E+00 -0.00000000000E+00 -0.74505805969E-08  0.93827000000E+00  0.93827000000E+00 0. -1.
     999902    2    1    2    0    0 -0.11354852005E-01  0.51983497067E-02 -0.19604470424E-01  0.10206858445E+01  0.10204211397E+01 0.  0.
     999903    2    3    3    0    0 -0.75398453912E-01  0.10593462283E+00 -0.16931697742E-01  0.13262248901E+00  0.19873878251E-01 0.  0.
         14    1    1    2    0    0  0.11354852005E-01 -0.51983497067E-02  0.19604470424E-01  0.23244155487E-01  0.00000000000E+00 0. -1.
     999901    1    3    3    0    0  0.64043601907E-01 -0.10073627312E+00 -0.26727726814E-02  0.88806335550E+00  0.88000000000E+00 0. -1.
        -11    1    4    4    0    0 -0.40075183982E-01  0.67806447652E-01 -0.17299317497E-01  0.80642806382E-01  0.51100000000E-03 0.  1.
         11    1    4    4    0    0 -0.35323269930E-01  0.38128175179E-01  0.36761975465E-03  0.51979682630E-01  0.51100000000E-03 0. -1.
</event>
<event>
 8    1  0.1044719E+005  0.1043930E+01  0.7957747E-01            NaN
         13   -1    0    0    0    0  0.00000000000E+00  0.00000000000E+00  0.74505805969E-08  0.10566000000E+00  0.10566000000E+00 0.  1.
     999900   -1    0    0    0    0 -0.00000000000E+00 -0.00000000000E+00 -0.74505805969E-08  0.93827000000E+00  0.93827000000E+00 0.  1.
     999902    2    1    2    0    0  0.21714242915E-01 -0.67676043239E-02  0.53201317059E-02  0.10205716479E+01  0.10203043055E+01 0.  0.
     999903    2    3    3    0    0  0.12169866999E+00 -0.25128078124E-01 -0.44087288880E-01  0.13334276765E+00  0.19864995763E-01 0.  0.
         14    1    1    2    0    0 -0.21714242915E-01  0.67676043239E-02 -0.53201317059E-02  0.23358352147E-01  0.00000000000E+00 0. -1.
     999901    1    3    3    0    0 -0.99984427075E-01  0.18360473800E-01  0.49407420585E-01  0.88722888020E+00  0.88000000000E+00 0.  1.
        -11    1    4    4    0    0  0.63975373855E-01 -0.18566089885E-01 -0.32414212421E-01  0.74084346804E-01  0.51100000000E-03 0.  1.
         11    1    4    4    0    0  0.57723296134E-01 -0.65619882397E-02 -0.11673076458E-01  0.59258420847E-01  0.51100000000E-03 0. -1.
</event>
<event>
 8    1  0.1044719E+005  0.1043930E+01  0.7957747E-01            NaN
         13   -1    0    0    0    0  0.00000000000E+00  0.00000000000E+00  0.74505805969E-08  0.10566000000E+00  0.10566000000E+00 0. -1.
     999900   -1    0    0    0    0 -0.00000000000E+00 -0.00000000000E+00 -0.74505805969E-08  0.93827000000E+00  0.93827000000E+00 0. -1.
     999902    2    1    2    0    0 -0.25276465641E-02  0.11452956020E-02  0.22799390046E-01  0.10209623513E+01  0.10207039776E+01 0.  0.
     999903    2    3    3    0    0 -0.71914497672E-01 -0.10760091651E+00  0.12979066142E-01  0.13150368870E+00  0.19367802538E-01 0.  0.
         14    1    1    2    0    0  0.25276465641E-02 -0.11452956020E-02 -0.22799390046E-01  0.22967648674E-01  0.00000000000E+00 0.  1.
     999901    1    3    3    0    0  0.69386851108E-01  0.10874621211E+00  0.98203239038E-02  0.88945866262E+00  0.88000000000E+00 0. -1.
        -11    1    4    4    0    0 -0.45333875225E-01 -0.61772114126E-01 -0.12876394967E-02  0.76634675331E-01  0.51100000000E-03 0.  1.
         11    1    4    4    0    0 -0.26580622447E-01 -0.45828802383E-01  0.14266705638E-01  0.54869013371E-01  0.51100000000E-03 0. -1.
</event>
<event>
 8    1  0.1044719E+005  0.1043930E+01  0.7957747E-01            NaN
         13   -1    0    0    0    0  0.00000000000E+00  0.00000000000E+00  0.74505805969E-08  0.10566000000E+00  0.10566000000E+00 0.  1.
     999900   -1    0    0    0    0 -0.00000000000E+00 -0.00000000000E+00 -0.74505805969E-08  0.93827000000E+00  0.93827000000E+00 0.  1.
     999902    2    1    2    0    0 -0.11552097357E-01 -0.20731683665E-01  0.62279304244E-03  0.10201888641E+01  0.10199125830E+01 0.  0.
     999903    2    3    3    0    0 -0.61046215548E-01 -0.34613066760E-01 -0.10992569137E+00  0.13178392947E+00  0.18937835680E-01 0.  0.
         14    1    1    2    0    0  0.11552097357E-01  0.20731683665E-01 -0.62279304244E-03  0.23741135864E-01  0.00000000000E+00 0.  1.
     999901    1    3    3    0    0  0.49494118191E-01  0.13881383095E-01  0.11054848441E+00  0.88840493467E+00  0.88000000000E+00 0. -1.
        -11    1    4    4    0    0 -0.16907198186E-01 -0.27189319196E-02 -0.36944417033E-01  0.40723420929E-01  0.51100000000E-03 0.  1.
         11    1    4    4    0    0 -0.44139017362E-01 -0.31894134840E-01 -0.72981274337E-01  0.91060508541E-01  0.51100000000E-03 0. -1.
</event>
<event>
 8    1  0.1044719E+005  0.1043930E+01  0.7957747E-01            NaN
         13   -1    0    0    0    0  0.00000000000E+00  0.00000000000E+00  0.74505805969E-08  0.10566000000E+00  0.10566000000E+00 0. -1.
     999900   -1    0    0    0    0 -0.00000000000E+00 -0.00000000000E+00 -0.74505805969E-08  0.93827000000E+00  0.93827000000E+00 0.  1.
     999902    2    1    2    0    0  0.23465407091E-01  0.61078726610E-02 -0.24901794948E-02  0.10195551681E+01  0.10192637580E+01 0.  0.
     999903    2    3    3    0    0 -0.86845841294E-01 -0.23590666097E-01 -0.88735041558E-01  0.12798983060E+00  0.20218047864E-01 0.  0.
         14    1    1    2    0    0 -0.23465407091E-01 -0.61078726610E-02  0.24901794948E-02  0.24374831944E-01  0.00000000000E+00 0.  1.
     999901    1    3    3    0    0  0.11031124838E+00  0.29698538758E-01  0.86244862063E-01  0.89156533746E+00  0.88000000000E+00 0.  1.
        -11    1    4    4    0    0 -0.23723957515E-01 -0.39516834435E-02 -0.12590821209E-01  0.27152013957E-01  0.51100000000E-03 0.  1.
         11    1    4    4    0    0 -0.63121883779E-01 -0.19638982653E-01 -0.76144220349E-01  0.10083781664E+00  0.51100000000E-03 0. -1.
</event>
<event>
 8    1  0.1044719E+005  0.1043930E+01  0.7957747E-01            NaN
         13   -1    0    0    0    0  0.00000000000E+00  0.00000000000E+00  0.74505805969E-08  0.10566000000E+00  0.10566000000E+00 0. -1.
     999900   -1    0    0    0    0 -0.00000000000E+00 -0.00000000000E+00 -0.74505805969E-08  0.93827000000E+00  0.93827000000E+00 0.  1.
     999902    2    1    2    0    0 -0.23976470995E-02 -0.47485485170E-02  0.22314255867E-01  0.10209904394E+01  0.10207327045E+01 0.  0.
     999903    2    3    3    0    0  0.10533349371E+00  0.49309342457E-01 -0.53540841710E-01  0.12954091752E+00  0.19689373508E-01 0.  0.
         14    1    1    2    0    0  0.23976470995E-02  0.47485485170E-02 -0.22314255867E-01  0.22939560578E-01  0.00000000000E+00 0.  1.
     999901    1    3    3    0    0 -0.10773114081E+00 -0.54057890974E-01  0.75855097577E-01  0.89144952191E+00  0.88000000000E+00 0. -1.
        -11    1    4    4    0    0  0.53878805749E-01  0.27479119322E-01 -0.38350013082E-01  0.71617123177E-01  0.51100000000E-03 0. -1.
         11    1    4    4    0    0  0.51454687961E-01  0.21830223135E-01 -0.15190828628E-01  0.57923794340E-01  0.51100000000E-03 0.  1.
</event>
<event>
 8    1  0.1044719E+005  0.1043930E+01  0.7957747E-01            NaN
         13   -1    0    0    0    0  0.00000000000E+00  0.00000000000E+00  0.74505805969E-08  0.10566000000E+00  0.10566000000E+00 0. -1.
     999900   -1    0    0    0    0 -0.00000000000E+00 -0.00000000000E+00 -0.74505805969E-08  0.93827000000E+00  0.93827000000E+00 0.  1.
     999902    2    1    2    0    0  0.11884460703E-01  0.18286990861E-01  0.12948234504E-01  0.10185664195E+01  0.10182505780E+01 0.  0.
     999903    2    3    3    0    0 -0.11900783032E+00 -0.24797776422E-01  0.33069962446E-01  0.12761525752E+00  0.20352841179E-01 0.  0.
         14    1    1    2    0    0 -0.11884460703E-01 -0.18286990861E-01 -0.12948234504E-01  0.25363580538E-01  0.00000000000E+00 0. -1.
     999901    1    3    3    0    0  0.13089229102E+00  0.43084767283E-01 -0.20121727942E-01  0.89095116194E+00  0.88000000000E+00 0.  1.
        -11    1    4    4    0    0 -0.85702900718E-01 -0.11616161736E-01  0.30471250466E-01  0.91698858395E-01  0.51100000000E-03 0.  1.
         11    1    4    4    0    0 -0.33304929602E-01 -0.13181614686E-01  0.25987119795E-02  0.35916399130E-01  0.51100000000E-03 0. -1.
</event>
<event>
 8    1  0.1044719E+005  0.1043930E+01  0.7957747E-01            NaN
         13   -1    0    0    0    0  0.00000000000E+00  0.00000000000E+00  0.74505805969E-08  0.10566000000E+00  0.10566000000E+00 0. -1.
     999900   -1    0    0    0    0 -0.00000000000E+00 -0.00000000000E+00 -0.74505805969E-08  0.93827000000E+00  0.93827000000E+00 0. -1.
     999902    2    1    2    0    0  0.22936761238E-01  0.87491814163E-02 -0.20964910246E-02  0.10192918494E+01  0.10189940313E+01 0.  0.
     999903    2    3    3    0    0 -0.16280951915E-01 -0.10581770966E-01 -0.12652432371E+00  0.12946377593E+00  0.19375797200E-01 0.  0.
         14    1    1    2    0    0 -0.22936761238E-01 -0.87491814163E-02  0.20964910246E-02  0.24638150624E-01  0.00000000000E+00 0. -1.
     999901    1    3    3    0    0  0.39217713153E-01  0.19330952382E-01  0.12442783268E+00  0.88982807344E+00  0.88000000000E+00 0.  1.
        -11    1    4    4    0    0 -0.11971234745E-01  0.14587496641E-02 -0.89044450793E-01  0.89858854600E-01  0.51100000000E-03 0.  1.
         11    1    4    4    0    0 -0.43097171703E-02 -0.12040520630E-01 -0.37479872912E-01  0.39604921331E-01  0.51100000000E-03 0. -1.
</event>
<event>
 8    1  0.1044719E+005  0.1043930E+01  0.7957747E-01            NaN
         13   -1    0    0    0    0  0.00000000000E+00  0.00000000000E+00  0.74505805969E-08  0.10566000000E+00  0.10566000000E+00 0. -1.
     999900   -1    0    0    0    0 -0.00000000000E+00 -0.00000000000E+00 -0.74505805969E-08  0.93827000000E+00  0.93827000000E+00 0.  1.
     999902    2    1    2    0    0 -0.13147238291E-01  0.57573805338E-02  0.18901852235E-01  0.10201965358E+01  0.10199204353E+01 0.  0.
     999903    2    3    3    0    0 -0.32473690038E-02 -0.38917819928E-01 -0.12076037445E+00  0.12800854074E+00  0.16672622875E-01 0.  0.
         14    1    1    2    0    0  0.13147238291E-01 -0.57573805338E-02 -0.18901852235E-01  0.23733464206E-01  0.00000000000E+00 0.  1.
     999901    1    3    3    0    0 -0.98998692869E-02  0.44675200462E-01  0.13966222668E+00  0.89218799505E+00  0.88000000000E+00 0. -1.
        -11    1    4    4    0    0 -0.99403811945E-03 -0.29514379196E-01 -0.64761541892E-01  0.71178684452E-01  0.51100000000E-03 0.  1.
         11    1    4    4    0    0 -0.22533308844E-02 -0.94034407321E-02 -0.55998832555E-01  0.56829856293E-01  0.51100000000E-03 0. -1.
</event>
<event>
 8    1  0.1044719E+005  0.1043930E+01  0.7957747E-01            NaN
         13   -1    0    0    0    0  0.00000000000E+00  0.00000000000E+00  0.74505805969E-08  0.10566000000E+00  0.10566000000E+00 0. -1.
     999900   -1    0    0    0    0 -0.00000000000E+00 -0.00000000000E+00 -0.74505805969E-08  0.93827000000E+00  0.93827000000E+00 0.  1.
     999902    2    1    2    0    0 -0.15263705200E-01  0.79349638352E-02 -0.16334001719E-01  0.10202077750E+01  0.10199319390E+01 0.  0.
     999903    2    3    3    0    0  0.34267583712E-01 -0.20198262753E-01  0.11990300932E+00  0.12790437916E+00  0.20014031398E-01 0.  0.
         14    1    1    2    0    0  0.15263705200E-01 -0.79349638352E-02  0.16334001719E-01  0.23722225014E-01  0.00000000000E+00 0. -1.
     999901    1    3    3    0    0 -0.49531288911E-01  0.28133226588E-01 -0.13623701104E+00  0.89230339582E+00  0.88000000000E+00 0.  1.
        -11    1    4    4    0    0  0.36929757114E-01 -0.19124080997E-01  0.11100156516E+00  0.11853753002E+00  0.51100000000E-03 0. -1.
         11    1    4    4    0    0 -0.26621734028E-02 -0.10741817558E-02  0.89014441610E-02  0.93668491406E-02  0.51100000000E-03 0.  1.
</event>
<event>
 8    1  0.1044719E+005  0.1043930E+01  0.7957747E-01            NaN
         13   -1    0    0    0    0  0.00000000000E+00  0.00000000000E+00  0.74505805969E-08  0.10566000000E+00  0.10566000000E+00 0.  1.
     999900   -1    0    0    0    0 -0.00000000000E+00 -0.00000000000E+00 -0.74505805969E-08  0.93827000000E+00  0.93827000000E+00 0.  1.
     999902    2    1    2    0    0  0.26922731189E-02 -0.13146052471E-01 -0.19812596181E-01  0.10200008129E+01  0.10197200852E+01 0.  0.
     999903    2    3    3    0    0  0.70178152419E-01  0.10557634672E+00 -0.17200081753E-01  0.12946379666E+00  0.19841717935E-01 0.  0.
         14    1    1    2    0    0 -0.26922731189E-02  0.13146052471E-01  0.19812596181E-01  0.23929187147E-01  0.00000000000E+00 0.  1.
     999901    1    3    3    0    0 -0.67485879300E-01 -0.11872239919E+00 -0.26125144279E-02  0.89053701619E+00  0.88000000000E+00 0.  1.
        -11    1    4    4    0    0  0.31343896912E-01  0.48232721399E-01 -0.17759113669E-01  0.60203675358E-01  0.51100000000E-03 0.  1.
         11    1    4    4    0    0  0.38834255507E-01  0.57343625318E-01  0.55903191663E-03  0.69260121304E-01  0.51100000000E-03 0. -1.
</event>
<event>
 8    1  0.1044719E+005  0.1043930E+01  0.7957747E-01            NaN
         13   -1    0    0    0    0  0.00000000000E+00  0.00000000000E+00  0.74505805969E-08  0.10566000000E+00  0.10566000000E+00 0. -1.
     999900   -1    0    0    0    0 -0.00000000000E+00 -0.00000000000E+00 -0.74505805969E-08  0.93827000000E+00  0.93827000000E+00 0.  1.
     999902    2    1    2    0    0  0.78188760512E-02 -0.22149760277E-01 -0.35335968005E-02  0.10201764106E+01  0.10198998361E+01 0.  0.
     999903    2    3    3    0    0 -0.80875815816E-01 -0.44154828654E-01 -0.90989523161E-01  0.13113225509E+00  0.20640458361E-01 0.  0.
         14    1    1    2    0    0 -0.78188760512E-02  0.22149760277E-01  0.35335968005E-02  0.23753589400E-01  0.00000000000E+00 0. -1.
     999901    1    3    3    0    0  0.88694691867E-01  0.22005068377E-01  0.87455926360E-01  0.88904415551E+00  0.88000000000E+00 0. -1.
        -11    1    4    4    0    0 -0.22665737448E-01 -0.48921903956E-02 -0.31413407063E-01  0.39047822542E-01  0.51100000000E-03 0. -1.
         11    1    4    4    0    0 -0.58210078367E-01 -0.39262638258E-01 -0.59576116098E-01  0.92084432543E-01  0.51100000000E-03 0.  1.
</event>
<event>
 8    1  0.1044719E+005  0.1043930E+01  0.7957747E-01            NaN
         13   -1    0    0    0    0  0.00000000000E+00  0.00000000000E+00  0.74505805969E-08  0.10566000000E+00  0.10566000000E+00 0.  1.
     999900   -1    0    0    0    0 -0.00000000000E+00 -0.00000000000E+00 -0.74505805969E-08  0.93827000000E+00  0.93827000000E+00 0. -1.
     999902    2    1    2    0    0  0.15173528349E-01 -0.17701482527E-01  0.48222016498E-02  0.10201217646E+01  0.10198439010E+01 0.  0.
     999903    2    3    3    0    0  0.10976919286E+00 -0.66940742554E-01  0.25549799255E-01  0.13344116943E+00  0.24968274709E-01 0.  0.
         14    1    1    2    0    0 -0.15173528349E-01  0.17701482527E-01 -0.48222016498E-02  0.23808235444E-01  0.00000000000E+00 0. -1.
     999901    1    3    3    0    0 -0.94595664510E-01  0.49239260028E-01 -0.20727597605E-01  0.88668059513E+00  0.88000000000E+00 0. -1.
        -11    1    4    4    0    0  0.45754705991E-01 -0.22364339139E-01  0.21635673393E-01  0.55335524481E-01  0.51100000000E-03 0. -1.
         11    1    4    4    0    0  0.64014486869E-01 -0.44576403415E-01  0.39141258619E-02  0.78105644948E-01  0.51100000000E-03 0.  1.
</event>
<event>
 8    1  0.1044719E+005  0.1043930E+01  0.7957747E-01            NaN
         13   -1    0    0    0    0  0.00000000000E+00  0.00000000000E+00  0.74505805969E-08  0.10566000000E+00  0.10566000000E+00 0.  1.
     999900   -1    0    0    0    0 -0.00000000000E+00 -0.00000000000E+00 -0.74505805969E-08  0.93827000000E+00  0.93827000000E+00 0.  1.
     999902    2    1    2    0    0  0.13617321954E-01  0.19033118051E-01  0.29900812257E-02  0.10203369581E+01  0.10200641531E+01 0.  0.
     999903    2    3    3    0    0 -0.64081663177E-01  0.52850017840E-01 -0.98592799835E-01  0.13044943897E+00  0.19923152515E-01 0.  0.
         14    1    1    2    0    0 -0.13617321954E-01 -0.19033118051E-01 -0.29900812257E-02  0.23593041891E-01  0.00000000000E+00 0.  1.
     999901    1    3    3    0    0  0.77698985130E-01 -0.33816899789E-01  0.10158288106E+00  0.88988751914E+00  0.88000000000E+00 0. -1.
        -11    1    4    4    0    0 -0.58491248428E-02 -0.21905983267E-03 -0.30801031719E-02  0.66338831152E-02  0.51100000000E-03 0.  1.
         11    1    4    4    0    0 -0.58232538334E-01  0.53069077672E-01 -0.95512696663E-01  0.12381555585E+00  0.51100000000E-03 0. -1.
</event>
<event>
 8    1  0.1044719E+005  0.1043930E+01  0.7957747E-01            NaN
         13   -1    0    0    0    0  0.00000000000E+00  0.00000000000E+00  0.74505805969E-08  0.10566000000E+00  0.10566000000E+00 0. -1.
     999900   -1    0    0    0    0 -0.00000000000E+00 -0.00000000000E+00 -0.74505805969E-08  0.93827000000E+00  0.93827000000E+00 0. -1.
     999902    2    1    2    0    0 -0.43919176900E-02  0.23116924433E-01  0.79012422808E-02  0.10191084214E+01  0.10188060972E+01 0.  0.
     999903    2    3    3    0    0  0.66450480434E-01  0.97164949264E-01 -0.53927501656E-01  0.13100676675E+00  0.19947525777E-01 0.  0.
         14    1    1    2    0    0  0.43919176900E-02 -0.23116924433E-01 -0.79012422808E-02  0.24821578633E-01  0.00000000000E+00 0.  1.
     999901    1    3    3    0    0 -0.70842398124E-01 -0.74048024831E-01  0.61828743936E-01  0.88810165462E+00  0.88000000000E+00 0.  1.
        -11    1    4    4    0    0  0.60574650597E-01  0.78527975200E-01 -0.49998949283E-01  0.11106793972E+00  0.51100000000E-03 0. -1.
         11    1    4    4    0    0  0.58758298368E-02  0.18636974064E-01 -0.39285523727E-02  0.19938827029E-01  0.51100000000E-03 0.  1.
</event>
<event>
 8    1  0.1044719E+005  0.1043930E+01  0.7957747E-01            NaN
         13   -1    0    0    0    0  0.00000000000E+00  0.00000000000E+00  0.74505805969E-08  0.10566000000E+00  0.10566000000E+00 0.  1.
     999900   -1    0    0    0    0 -0.00000000000E+00 -0.00000000000E+00 -0.74505805969E-08  0.93827000000E+00  0.93827000000E+00 0. -1.
     999902    2    1    2    0    0  0.99068954468E-02 -0.57114394020E-02  0.22108021675E-01  0.10190396055E+01  0.10187355819E+01 0.  0.
     999903    2    3    3    0    0 -0.65072579886E-01 -0.10007509361E+00  0.45397955606E-01  0.13051901371E+00  0.26921618711E-01 0.  0.
         14    1    1    2    0    0 -0.99068954468E-02  0.57114394020E-02 -0.22108021675E-01  0.24890394530E-01  0.00000000000E+00 0. -1.
     999901    1    3    3    0    0  0.74979475333E-01  0.94363654203E-01 -0.23289933931E-01  0.88852059176E+00  0.88000000000E+00 0. -1.
        -11    1    4    4    0    0 -0.20053150885E-01 -0.40452942814E-01  0.30074513120E-01  0.54252252516E-01  0.51100000000E-03 0. -1.
         11    1    4    4    0    0 -0.45019429002E-01 -0.59622150792E-01  0.15323442486E-01  0.76266761196E-01  0.51100000000E-03 0.  1.
</event>
<event>
 8    1  0.1044719E+005  0.1043930E+01  0.7957747E-01            NaN
         13   -1    0    0    0    0  0.00000000000E+00  0.00000000000E+00  0.74505805969E-08  0.10566000000E+00  0.10566000000E+00 0. -1.
     999900   -1    0    0    0    0 -0.00000000000E+00 -0.00000000000E+00 -0.74505805969E-08  0.93827000000E+00  0.93827000000E+00 0.  1.
     999902    2    1    2    0    0 -0.20294351722E-01 -0.11689185793E-01  0.48833600337E-02  0.10200062674E+01  0.10197256693E+01 0.  0.
     999903    2    3    3    0    0 -0.99301395876E-01  0.50507078325E-01  0.67973704265E-01  0.13203617791E+00  0.20034860152E-01 0.  0.
         14    1    1    2    0    0  0.20294351722E-01  0.11689185793E-01 -0.48833600337E-02  0.23923732601E-01  0.00000000000E+00 0.  1.
     999901    1    3    3    0    0  0.79007044154E-01 -0.62196264118E-01 -0.63090344231E-01  0.88797008949E+00  0.88000000000E+00 0.  1.
        -11    1    4    4    0    0 -0.17825155357E-01  0.17169915615E-01  0.19688040546E-01  0.31629451897E-01  0.51100000000E-03 0.  1.
         11    1    4    4    0    0 -0.81476240519E-01  0.33337162710E-01  0.48285663718E-01  0.10040672601E+00  0.51100000000E-03 0. -1.
</event>
<event>
 8    1  0.1044719E+005  0.1043930E+01  0.7957747E-01            NaN
         13   -1    0    0    0    0  0.00000000000E+00  0.00000000000E+00  0.74505805969E-08  0.10566000000E+00  0.10566000000E+00 0.  1.
     999900   -1    0    0    0    0 -0.00000000000E+00 -0.00000000000E+00 -0.74505805969E-08  0.93827000000E+00  0.93827000000E+00 0. -1.
     999902    2    1    2    0    0  0.14182218077E-02  0.17798192717E-01  0.13944004003E-01  0.10212755906E+01  0.10210242944E+01 0.  0.
     999903    2    3    3    0    0 -0.27516581033E-01  0.96869859185E-01  0.85686160803E-01  0.13435029031E+00  0.23810722439E-01 0.  0.
         14    1    1    2    0    0 -0.14182218077E-02 -0.17798192717E-01 -0.13944004003E-01  0.22654409388E-01  0.00000000000E+00 0. -1.
     999901    1    3    3    0    0  0.28934802841E-01 -0.79071666467E-01 -0.71742156800E-01  0.88692530030E+00  0.88000000000E+00 0.  1.
        -11    1    4    4    0    0 -0.64673414276E-02  0.55445920851E-01  0.36569517671E-01  0.66735802894E-01  0.51100000000E-03 0.  1.
         11    1    4    4    0    0 -0.21049239605E-01  0.41423938333E-01  0.49116643132E-01  0.67614487416E-01  0.51100000000E-03 0. -1.
</event>
<event>
 8    1  0.1044719E+005  0.1043930E+01  0.7957747E-01            NaN
         13   -1    0    0    0    0  0.00000000000E+00  0.00000000000E+00  0.74505805969E-08  0.10566000000E+00  0.10566000000E+00 0. -1.
     999900   -1    0    0    0    0 -0.00000000000E+00 -0.00000000000E+00 -0.74505805969E-08  0.93827000000E+00  0.93827000000E+00 0.  1.
     999902    2    1    2    0    0 -0.88659094046E-02 -0.19600682157E-01  0.10311006485E-01  0.10200740166E+01  0.10197950242E+01 0.  0.
     999903    2    3    3    0    0  0.11089756024E+00 -0.33019697282E-01 -0.54969009035E-01  0.12946476496E+00  0.18734036812E-01 0.  0.
         14    1    1    2    0    0  0.88659094046E-02  0.19600682157E-01 -0.10311006485E-01  0.23855983428E-01  0.00000000000E+00 0.  1.
     999901    1    3    3    0    0 -0.11976346965E+00  0.13419015125E-01  0.65280015520E-01  0.89060925161E+00  0.88000000000E+00 0. -1.
        -11    1    4    4    0    0  0.16612941472E-01  0.17487720508E-02 -0.84603168553E-02  0.18731954258E-01  0.51100000000E-03 0.  1.
         11    1    4    4    0    0  0.94284618773E-01 -0.34768469333E-01 -0.46508692180E-01  0.11073281070E+00  0.51100000000E-03 0. -1.
</event>
<event>
 8    1  0.1044719E+005  0.1043930E+01  0.7957747E-01            NaN
         13   -1    0    0    0    0  0.00000000000E+00  0.00000000000E+00  0.74505805969E-08  0.10566000000E+00  0.10566000000E+00 0.  1.
     999900   -1    0    0    0    0 -0.00000000000E+00 -0.00000000000E+00 -0.74505805969E-08  0.93827000000E+00  0.93827000000E+00 0. -1.
     999902    2    1    2    0    0 -0.11425667488E-01  0.74008829565E-02 -0.19527057111E-01  0.10201261157E+01  0.10198483550E+01 0.  0.
     999903    2    3    3    0    0 -0.70429129077E-01 -0.66236665941E-01 -0.88287750930E-01  0.13241449022E+00  0.19781610596E-01 0.  0.
         14    1    1    2    0    0  0.11425667488E-01 -0.74008829565E-02  0.19527057111E-01  0.23803884252E-01  0.00000000000E+00 0.  1.
     999901    1    3    3    0    0  0.59003461589E-01  0.73637548897E-01  0.68760693819E-01  0.88771162553E+00  0.88000000000E+00 0.  1.
        -11    1    4    4    0    0 -0.13287735431E-01 -0.24562309075E-01 -0.26452118414E-01  0.38468774734E-01  0.51100000000E-03 0.  1.
         11    1    4    4    0    0 -0.57141393646E-01 -0.41674356866E-01 -0.61835632516E-01  0.93945715483E-01  0.51100000000E-03 0. -1.
</event>
<event>
 8    1  0.1044719E+005  0.1043930E+01  0.7957747E-01            NaN
         13   -1    0    0    0    0  0.00000000000E+00  0.00000000000E+00  0.74505805969E-08  0.10566000000E+00  0.10566000000E+00 0. -1.
     999900   -1    0    0    0    0 -0.00000000000E+00 -0.00000000000E+00 -0.74505805969E-08  0.93827000000E+00  0.93827000000E+00 0.  1.
     999902    2    1    2    0    0 -0.17770787122E-01 -0.70894339563E-02  0.10587062310E-01  0.10220634311E+01  0.10218294918E+01 0.  0.
     999903    2    3    3    0    0 -0.12822268042E+00  0.12590008587E-01 -0.30205347084E-01  0.13400322936E+00  0.21093562911E-01 0.  0.
         14    1    1    2    0    0  0.17770787122E-01  0.70894339563E-02 -0.10587062310E-01  0.21866568938E-01  0.00000000000E+00 0. -1.
     999901    1    3    3    0    0  0.11045189329E+00 -0.19679442544E-01  0.40792409394E-01  0.88806020171E+00  0.88000000000E+00 0. -1.
        -11    1    4    4    0    0 -0.31289488513E-01  0.70126574414E-02  0.79480783597E-03  0.32079624317E-01  0.51100000000E-03 0.  1.
         11    1    4    4    0    0 -0.96933191902E-01  0.55773511460E-02 -0.31000154920E-01  0.10192360504E+00  0.51100000000E-03 0. -1.
</event>
<event>
 8    1  0.1044719E+005  0.1043930E+01  0.7957747E-01            NaN
         13   -1    0    0    0    0  0.00000000000E+00  0.00000000000E+00  0.74505805969E-08  0.10566000000E+00  0.10566000000E+00 0. -1.
     999900   -1    0    0    0    0 -0.00000000000E+00 -0.00000000000E+00 -0.74505805969E-08  0.93827000000E+00  0.93827000000E+00 0. -1.
     999902    2    1    2    0    0  0.12560825361E-01 -0.44696729190E-02  0.18549212003E-01  0.10210864982E+01  0.10208309415E+01 0.  0.
     999903    2    3    3    0    0 -0.11136434410E+00 -0.50159222146E-01  0.42503675277E-01  0.13090741572E+00  0.20303309473E-01 0.  0.
         14    1    1    2    0    0 -0.12560825361E-01  0.44696729190E-02 -0.18549212003E-01  0.22843501826E-01  0.00000000000E+00 0.  1.
     999901    1    3    3    0    0  0.12392516946E+00  0.45689549227E-01 -0.23954463274E-01  0.89017908246E+00  0.88000000000E+00 0. -1.
        -11    1    4    4    0    0 -0.46231416608E-01 -0.13904485520E-01  0.87059834283E-02  0.49058473963E-01  0.51100000000E-03 0. -1.
         11    1    4    4    0    0 -0.65132927488E-01 -0.36254736626E-01  0.33797691848E-01  0.81848941754E-01  0.51100000000E-03 0.  1.
</event>
<event>
 8    1  0.1044719E+005  0.1043930E+01  0.7957747E-01            NaN
         13   -1    0    0    0    0  0.00000000000E+00  0.00000000000E+00  0.74505805969E-08  0.10566000000E+00  0.10566000000E+00 0.  1.
     999900   -1    0    0    0    0 -0.00000000000E+00 -0.00000000000E+00 -0.74505805969E-08  0.93827000000E+00  0.93827000000E+00 0.  1.
     999902    2    1    2    0    0  0.19217136249E-01 -0.29942003905E-02 -0.11981662138E-01  0.10210865373E+01  0.10208309815E+01 0.  0.
     999903    2    3    3    0    0 -0.12331739573E-01  0.36625837454E-02  0.12731901456E+00  0.12954611594E+00  0.20163788523E-01 0.  0.
         14    1    1    2    0    0 -0.19217136249E-01  0.29942003905E-02  0.11981662138E-01  0.22843462723E-01  0.00000000000E+00 0.  1.
     999901    1    3    3    0    0  0.31548875822E-01 -0.66567841359E-02 -0.13930067670E+00  0.89154042133E+00  0.88000000000E+00 0. -1.
        -11    1    4    4    0    0 -0.42902465715E-02 -0.48436359653E-02  0.94058710115E-01  0.94282390161E-01  0.51100000000E-03 0. -1.
         11    1    4    4    0    0 -0.80414930013E-02  0.85062197107E-02  0.33260304443E-01  0.35263725783E-01  0.51100000000E-03 0.  1.
</event>
<event>
 8    1  0.1044719E+005  0.1043930E+01  0.7957747E-01            NaN
         13   -1    0    0    0    0  0.00000000000E+00  0.00000000000E+00  0.74505805969E-08  0.10566000000E+00  0.10566000000E+00 0. -1.
     999900   -1    0    0    0    0 -0.00000000000E+00 -0.00000000000E+00 -0.74505805969E-08  0.93827000000E+00  0.93827000000E+00 0. -1.
     999902    2    1    2    0    0  0.79368041458E-02 -0.16414986268E-01 -0.15564990508E-01  0.10199568157E+01  0.10196750426E+01 0.  0.
     999903    2    3    3    0    0  0.11797612653E-02  0.20410214103E-01  0.12480570088E+00  0.12804556230E+00  0.20030835630E-01 0.  0.
         14    1    1    2    0    0 -0.79368041458E-02  0.16414986268E-01  0.15564990508E-01  0.23973184264E-01  0.00000000000E+00 0. -1.
     999901    1    3    3    0    0  0.67570428805E-02 -0.36825200370E-01 -0.14037069139E+00  0.89191125344E+00  0.88000000000E+00 0. -1.
        -11    1    4    4    0    0 -0.92909478394E-02  0.11921226163E-01  0.64299501113E-01  0.66053949991E-01  0.51100000000E-03 0.  1.
         11    1    4    4    0    0  0.10470709105E-01  0.84889879404E-02  0.60506199765E-01  0.61991612307E-01  0.51100000000E-03 0. -1.
</event>
<event>
 8    1  0.1044719E+005  0.1043930E+01  0.7957747E-01            NaN
         13   -1    0    0    0    0  0.00000000000E+00  0.00000000000E+00  0.74505805969E-08  0.10566000000E+00  0.10566000000E+00 0.  1.
     999900   -1    0    0    0    0 -0.00000000000E+00 -0.00000000000E+00 -0.74505805969E-08  0.93827000000E+00  0.93827000000E+00 0. -1.
     999902    2    1    2    0    0 -0.11451239489E-01 -0.19725728839E-01 -0.52184723126E-02  0.10205319719E+01  0.10202637100E+01 0.  0.
     999903    2    3    3    0    0 -0.47786772582E-01 -0.85336703864E-03 -0.12088623739E+00  0.13201890569E+00  0.23047889276E-01 0.  0.
         14    1    1    2    0    0  0.11451239489E-01  0.19725728839E-01  0.52184723126E-02  0.23398028065E-01  0.00000000000E+00 0.  1.
     999901    1    3    3    0    0  0.36335533093E-01 -0.18872361800E-01  0.11566776508E+00  0.88851306624E+00  0.88000000000E+00 0.  1.
        -11    1    4    4    0    0 -0.33262018922E-01  0.28075533026E-02 -0.10499578929E+00  0.11017541081E+00  0.51100000000E-03 0. -1.
         11    1    4    4    0    0 -0.14524753660E-01 -0.36609203412E-02 -0.15890448105E-01  0.21843494881E-01  0.51100000000E-03 0.  1.
</event>
<event>
 8    1  0.1044719E+005  0.1043930E+01  0.7957747E-01            NaN
         13   -1    0    0    0    0  0.00000000000E+00  0.00000000000E+00  0.74505805969E-08  0.10566000000E+00  0.10566000000E+00 0.  1.
     999900   -1    0    0    0    0 -0.00000000000E+00 -0.00000000000E+00 -0.74505805969E-08  0.93827000000E+00  0.93827000000E+00 0. -1.
     999902    2    1    2    0    0 -0.49077743648E-02  0.99533798214E-02 -0.21756355437E-01  0.10195067524E+01  0.10192141695E+01 0.  0.
     999903    2    3    3    0    0 -0.12330138044E+00  0.23276546414E-01  0.29746483909E-01  0.12998604151E+00  0.16324510709E-01 0.  0.
         14    1    1    2    0    0  0.49077743648E-02 -0.99533798214E-02  0.21756355437E-01  0.24423247552E-01  0.00000000000E+00 0.  1.
     999901    1    3    3    0    0  0.11839360608E+00 -0.13323166592E-01 -0.51502839346E-01  0.88952071094E+00  0.88000000000E+00 0.  1.
        -11    1    4    4    0    0 -0.76264314501E-01  0.21990690950E-01  0.16096227094E-01  0.80988800475E-01  0.51100000000E-03 0. -1.
         11    1    4    4    0    0 -0.47037065944E-01  0.12858554640E-02  0.13650256815E-01  0.48997241034E-01  0.51100000000E-03 0.  1.
</event>
<event>
 8    1  0.1044719E+005  0.1043930E+01  0.7957747E-01            NaN
         13   -1    0    0    0    0  0.00000000000E+00  0.00000000000E+00  0.74505805969E-08  0.10566000000E+00  0.10566000000E+00 0.  1.
     999900   -1    0    0    0    0 -0.00000000000E+00 -0.00000000000E+00 -0.74505805969E-08  0.93827000000E+00  0.93827000000E+00 0.  1.
     999902    2    1    2    0    0  0.16055320885E-01  0.58148252261E-02  0.24093513966E-01  0.10143989496E+01  0.10139690065E+01 0.  0.
     999903    2    3    3    0    0 -0.18202707642E-01 -0.50607872576E-01 -0.10773041574E+00  0.12213515355E+00  0.20461132043E-01 0.  0.
         14    1    1    2    0    0 -0.16055320885E-01 -0.58148252261E-02 -0.24093513966E-01  0.29531050377E-01  0.00000000000E+00 0. -1.
     999901    1    3    3    0    0  0.34258028527E-01  0.56422697802E-01  0.13182392970E+00  0.89226379608E+00  0.88000000000E+00 0. -1.
        -11    1    4    4    0    0 -0.15628226185E-01 -0.14543620386E-01 -0.41866051072E-01  0.46997720168E-01  0.51100000000E-03 0.  1.
         11    1    4    4    0    0 -0.25744814565E-02 -0.36064252190E-01 -0.65864364667E-01  0.75137433378E-01  0.51100000000E-03 0. -1.
</event>
<event>
 8    1  0.1044719E+005  0.1043930E+01  0.7957747E-01            NaN
         13   -1    0    0    0    0  0.00000000000E+00  0.00000000000E+00  0.74505805969E-08  0.10566000000E+00  0.10566000000E+00 0. -1.
     999900   -1    0    0    0    0 -0.00000000000E+00 -0.00000000000E+00 -0.74505805969E-08  0.93827000000E+00  0.93827000000E+00 0. -1.
     999902    2    1    2    0    0  0.94661765623E-02 -0.44349208451E-02  0.21013563639E-01  0.10204598726E+01  0.10201899356E+01 0.  0.
     999903    2    3    3    0    0  0.98502187107E-01 -0.74320863841E-01  0.45239959923E-01  0.13287980612E+00  0.19598908994E-01 0.  0.
         14    1    1    2    0    0 -0.94661765623E-02  0.44349208451E-02 -0.21013563639E-01  0.23470127363E-01  0.00000000000E+00 0.  1.
     999901    1    3    3    0    0 -0.89036010544E-01  0.69885942995E-01 -0.24226396283E-01  0.88758006652E+00  0.88000000000E+00 0. -1.
        -11    1    4    4    0    0  0.90001982703E-01 -0.60856727499E-01  0.35961777300E-01  0.11444391080E+00  0.51100000000E-03 0. -1.
         11    1    4    4    0    0  0.85002044032E-02 -0.13464136342E-01  0.92781826226E-02  0.18435895316E-01  0.51100000000E-03 0.  1.
</event>
<event>
 8    1  0.1044719E+005  0.1043930E+01  0.7957747E-01            NaN
         13   -1    0    0    0    0  0.00000000000E+00  0.00000000000E+00  0.74505805969E-08  0.10566000000E+00  0.10566000000E+00 0.  1.
     999900   -1    0    0    0    0 -0.00000000000E+00 -0.00000000000E+00 -0.74505805969E-08  0.93827000000E+00  0.93827000000E+00 0.  1.
     999902    2    1    2    0    0 -0.16262517884E-01  0.51542027928E-02 -0.15939910686E-01  0.10205822796E+01  0.10203151834E+01 0.  0.
     999903    2    3    3    0    0 -0.77738796064E-01  0.23912414717E-01 -0.10429372590E+00  0.13382549224E+00  0.20419527954E-01 0.  0.
         14    1    1    2    0    0  0.16262517884E-01 -0.51542027928E-02  0.15939910686E-01  0.23347720382E-01  0.00000000000E+00 0.  1.
     999901    1    3    3    0    0  0.61476278181E-01 -0.18758211924E-01  0.88353815209E-01  0.88675678737E+00  0.88000000000E+00 0. -1.
        -11    1    4    4    0    0 -0.14372627166E-01  0.16226285509E-02 -0.83671380994E-02  0.16717519435E-01  0.51100000000E-03 0. -1.
         11    1    4    4    0    0 -0.63366168898E-01  0.22289786166E-01 -0.95926587796E-01  0.11710797281E+00  0.51100000000E-03 0.  1.
</event>
<event>
 8    1  0.1044719E+005  0.1043930E+01  0.7957747E-01            NaN
         13   -1    0    0    0    0  0.00000000000E+00  0.00000000000E+00  0.74505805969E-08  0.10566000000E+00  0.10566000000E+00 0. -1.
     999900   -1    0    0    0    0 -0.00000000000E+00 -0.00000000000E+00 -0.74505805969E-08  0.93827000000E+00  0.93827000000E+00 0. -1.
     999902    2    1    2    0    0  0.21339085587E-01  0.12852041911E-02 -0.12907754471E-01  0.10189576463E+01  0.10186515923E+01 0.  0.
     999903    2    3    3    0    0 -0.11761063618E+00 -0.40419108449E-01 -0.16150960822E-01  0.12707380115E+00  0.20516611103E-01 0.  0.
         14    1    1    2    0    0 -0.21339085587E-01 -0.12852041911E-02  0.12907754471E-01  0.24972353694E-01  0.00000000000E+00 0. -1.
     999901    1    3    3    0    0  0.13894972177E+00  0.41704312640E-01  0.32432063505E-02  0.89188384516E+00  0.88000000000E+00 0.  1.
        -11    1    4    4    0    0 -0.72437394668E-01 -0.34529182807E-01 -0.14038030106E-01  0.81466361290E-01  0.51100000000E-03 0. -1.
         11    1    4    4    0    0 -0.45173241514E-01 -0.58899256419E-02 -0.21129307161E-02  0.45607439855E-01  0.51100000000E-03 0.  1.
</event>
<event>
 8    1  0.1044719E+005  0.1043930E+01  0.7957747E-01            NaN
         13   -1    0    0    0    0  0.00000000000E+00  0.00000000000E+00  0.74505805969E-08  0.10566000000E+00  0.10566000000E+00 0.  1.
     999900   -1    0    0    0    0 -0.00000000000E+00 -0.00000000000E+00 -0.74505805969E-08  0.93827000000E+00  0.93827000000E+00 0. -1.
     999902    2    1    2    0    0  0.23187759348E-01  0.40679861759E-02 -0.20228884420E-02  0.10203013569E+01  0.10200277184E+01 0.  0.
     999903    2    3    3    0    0  0.12638988727E+00 -0.20813535459E-02 -0.37842054709E-01  0.13352545162E+00  0.20452126785E-01 0.  0.
         14    1    1    2    0    0 -0.23187759348E-01 -0.40679861759E-02  0.20228884420E-02  0.23628643058E-01  0.00000000000E+00 0.  1.
     999901    1    3    3    0    0 -0.10320212792E+00  0.61493397218E-02  0.35819166267E-01  0.88677590532E+00  0.88000000000E+00 0.  1.
        -11    1    4    4    0    0  0.71844361181E-01 -0.62557763305E-02 -0.30597753075E-01  0.78340478587E-01  0.51100000000E-03 0.  1.
         11    1    4    4    0    0  0.54545526086E-01  0.41744227846E-02 -0.72443016335E-02  0.55184973034E-01  0.51100000000E-03 0. -1.
</event>
<event>
 8    1  0.1044719E+005  0.1043930E+01  0.7957747E-01            NaN
         13   -1    0    0    0    0  0.00000000000E+00  0.00000000000E+00  0.74505805969E-08  0.10566000000E+00  0.10566000000E+00 0. -1.
     999900   -1    0    0    0    0 -0.00000000000E+00 -0.00000000000E+00 -0.74505805969E-08  0.93827000000E+00  0.93827000000E+00 0.  1.
     999902    2    1    2    0    0  0.13685881203E-01  0.20134913460E-01 -0.13955369808E-03  0.10195837978E+01  0.10192930802E+01 0.  0.
     999903    2    3    3    0    0  0.80645388891E-01  0.15300222759E-01  0.10046814180E+00  0.13131083400E+00  0.20270965475E-01 0.  0.
         14    1    1    2    0    0 -0.13685881203E-01 -0.20134913460E-01  0.13955369808E-03  0.24346202159E-01  0.00000000000E+00 0. -1.
     999901    1    3    3    0    0 -0.66959507688E-01  0.48346907014E-02 -0.10060769550E+00  0.88827296385E+00  0.88000000000E+00 0.  1.
        -11    1    4    4    0    0  0.14014701134E-01  0.90713132959E-02  0.28512209035E-01  0.33044027566E-01  0.51100000000E-03 0.  1.
         11    1    4    4    0    0  0.66630687757E-01  0.62289094628E-02  0.71955932769E-01  0.98266806429E-01  0.51100000000E-03 0. -1.
</event>
<event>
 8    1  0.1044719E+005  0.1043930E+01  0.7957747E-01            NaN
         13   -1    0    0    0    0  0.00000000000E+00  0.00000000000E+00  0.74505805969E-08  0.10566000000E+00  0.10566000000E+00 0.  1.
     999900   -1    0    0    0    0 -0.00000000000E+00 -0.00000000000E+00 -0.74505805969E-08  0.93827000000E+00  0.93827000000E+00 0. -1.
     999902    2    1    2    0    0 -0.15546654603E-01 -0.11326575278E-01 -0.10380700033E-01  0.10220725365E+01  0.10218387941E+01 0.  0.
     999903    2    3    3    0    0  0.12571055113E+00  0.20820801171E-01  0.14536065111E-01  0.12987978987E+00  0.20513756333E-01 0.  0.
         14    1    1    2    0    0  0.15546654603E-01  0.11326575278E-01  0.10380700033E-01  0.21857463486E-01  0.00000000000E+00 0.  1.
     999901    1    3    3    0    0 -0.14125720574E+00 -0.32147376450E-01 -0.24916765144E-01  0.89219274665E+00  0.88000000000E+00 0. -1.
        -11    1    4    4    0    0  0.46412253241E-01  0.16687417453E-01  0.10108315516E-01  0.50348846221E-01  0.51100000000E-03 0. -1.
         11    1    4    4    0    0  0.79298297893E-01  0.41333837184E-02  0.44277495947E-02  0.79530943646E-01  0.51100000000E-03 0.  1.
</event>
<event>
 8    1  0.1044719E+005  0.1043930E+01  0.7957747E-01            NaN
         13   -1    0    0    0    0  0.00000000000E+00  0.00000000000E+00  0.74505805969E-08  0.10566000000E+00  0.10566000000E+00 0. -1.
     999900   -1    0    0    0    0 -0.00000000000E+00 -0.00000000000E+00 -0.74505805969E-08  0.93827000000E+00  0.93827000000E+00 0. -1.
     999902    2    1    2    0    0  0.94756077675E-02 -0.20457813227E-01 -0.21210910630E-02  0.10212847291E+01  0.10210336379E+01 0.  0.
     999903    2    3    3    0    0  0.34828741371E-01 -0.65226419179E-01  0.10854914738E+00  0.13286201943E+00  0.20046741042E-01 0.  0.
         14    1    1    2    0    0 -0.94756077675E-02  0.20457813227E-01  0.21210910630E-02  0.22645270851E-01  0.00000000000E+00 0. -1.
     999901    1    3    3    0    0 -0.25353133603E-01  0.44768605952E-01 -0.11067023844E+00  0.88842270972E+00  0.88000000000E+00 0. -1.
        -11    1    4    4    0    0  0.19746734218E-01 -0.19263236419E-01  0.47944838649E-01  0.55317035926E-01  0.51100000000E-03 0.  1.
         11    1    4    4    0    0  0.15082007152E-01 -0.45963182761E-01  0.60604308731E-01  0.77544983507E-01  0.51100000000E-03 0. -1.
</event>
<event>
 8    1  0.1044719E+005  0.1043930E+01  0.7957747E-01            NaN
         13   -1    0    0    0    0  0.00000000000E+00  0.00000000000E+00  0.74505805969E-08  0.10566000000E+00  0.10566000000E+00 0.  1.
     999900   -1    0    0    0    0 -0.00000000000E+00 -0.00000000000E+00 -0.74505805969E-08  0.93827000000E+00  0.93827000000E+00 0.  1.
     999902    2    1    2    0    0  0.12962873190E-01  0.13476081638E-01 -0.14868076092E-01  0.10200406604E+01  0.10197608781E+01 0.  0.
     999903    2    3    3    0    0  0.22248844792E-01  0.76336913153E-02 -0.12902665927E+00  0.13259908777E+00  0.19528311177E-01 0.  0.
         14    1    1    2    0    0 -0.12962873190E-01 -0.13476081638E-01  0.14868076092E-01  0.23889339554E-01  0.00000000000E+00 0.  1.
     999901    1    3    3    0    0 -0.92859716020E-02  0.58423903231E-02  0.11415858318E+00  0.88744157267E+00  0.88000000000E+00 0. -1.
        -11    1    4    4    0    0  0.15993650954E-01 -0.25905450746E-02 -0.47392048787E-01  0.50087675169E-01  0.51100000000E-03 0.  1.
         11    1    4    4    0    0  0.62551938380E-02  0.10224236390E-01 -0.81634610487E-01  0.82511412605E-01  0.51100000000E-03 0. -1.
</event>
<event>
 8    1  0.1044719E+005  0.1043930E+01  0.7957747E-01            NaN
         13   -1    0    0    0    0  0.00000000000E+00  0.00000000000E+00  0.74505805969E-08  0.10566000000E+00  0.10566000000E+00 0.  1.
     999900   -1    0    0    0    0 -0.00000000000E+00 -0.00000000000E+00 -0.74505805969E-08  0.93827000000E+00  0.93827000000E+00 0.  1.
     999902    2    1    2    0    0 -0.23430077653E-01 -0.10872867217E-02 -0.29076233303E-02  0.10202951739E+01  0.10200213904E+01 0.  0.
     999903    2    3    3    0    0  0.12248656456E+00  0.23008621878E-01 -0.18145867933E-01  0.12782417528E+00  0.21849303959E-01 0.  0.
         14    1    1    2    0    0  0.23430077653E-01  0.10872867217E-02  0.29076233303E-02  0.23634826098E-01  0.00000000000E+00 0.  1.
     999901    1    3    3    0    0 -0.14591664222E+00 -0.24095908600E-01  0.15238244602E-01  0.89247099862E+00  0.88000000000E+00 0.  1.
        -11    1    4    4    0    0  0.57035479234E-01  0.85358962598E-03 -0.32552199040E-02  0.57136959005E-01  0.51100000000E-03 0.  1.
         11    1    4    4    0    0  0.65451085329E-01  0.22155032252E-01 -0.14890648029E-01  0.70687216273E-01  0.51100000000E-03 0. -1.
</event>
<event>
 8    1  0.1044719E+005  0.1043930E+01  0.7957747E-01            NaN
         13   -1    0    0    0    0  0.00000000000E+00  0.00000000000E+00  0.74505805969E-08  0.10566000000E+00  0.10566000000E+00 0. -1.
     999900   -1    0    0    0    0 -0.00000000000E+00 -0.00000000000E+00 -0.74505805969E-08  0.93827000000E+00  0.93827000000E+00 0. -1.
     999902    2    1    2    0    0  0.14922509971E-01 -0.12770701769E-01  0.13012469290E-01  0.10203695143E+01  0.10200974705E+01 0.  0.
     999903    2    3    3    0    0  0.84843452566E-01  0.87272793523E-01 -0.41802821498E-01  0.13025583887E+00  0.20103625061E-01 0.  0.
         14    1    1    2    0    0 -0.14922509971E-01  0.12770701769E-01 -0.13012469290E-01  0.23560485660E-01  0.00000000000E+00 0. -1.
     999901    1    3    3    0    0 -0.69920942595E-01 -0.10004349529E+00  0.54815290788E-01  0.89011367548E+00  0.88000000000E+00 0. -1.
        -11    1    4    4    0    0  0.31696205311E-01  0.23636063870E-01 -0.62118316107E-02  0.40027002378E-01  0.51100000000E-03 0.  1.
         11    1    4    4    0    0  0.53147247255E-01  0.63636729653E-01 -0.35590989888E-01  0.90228836488E-01  0.51100000000E-03 0. -1.
</event>
<event>
 8    1  0.1044719E+005  0.1043930E+01  0.7957747E-01            NaN
         13   -1    0    0    0    0  0.00000000000E+00  0.00000000000E+00  0.74505805969E-08  0.10566000000E+00  0.10566000000E+00 0. -1.
     999900   -1    0    0    0    0 -0.00000000000E+00 -0.00000000000E+00 -0.74505805969E-08  0.93827000000E+00  0.93827000000E+00 0.  1.
     999902    2    1    2    0    0  0.20859867167E-01 -0.92316373337E-02 -0.18662415120E-02  0.10210424478E+01  0.10207858935E+01 0.  0.
     999903    2    3    3    0    0  0.15622226637E-01  0.11208924430E+00  0.62887903831E-01  0.13034649044E+00  0.15075359680E-01 0.  0.
         14    1    1    2    0    0 -0.20859867167E-01  0.92316373337E-02  0.18662415120E-02  0.22887552151E-01  0.00000000000E+00 0.  1.
     999901    1    3    3    0    0  0.52376405298E-02 -0.12132088164E+00 -0.64754145343E-01  0.89069595741E+00  0.88000000000E+00 0.  1.
        -11    1    4    4    0    0  0.13546698711E-01  0.77816653016E-01  0.50931904045E-01  0.93985448359E-01  0.51100000000E-03 0. -1.
         11    1    4    4    0    0  0.20755279262E-02  0.34272591286E-01  0.11955999786E-01  0.36361042085E-01  0.51100000000E-03 0.  1.
</event>
<event>
 8    1  0.1044719E+005  0.1043930E+01  0.7957747E-01            NaN
         13   -1    0    0    0    0  0.00000000000E+00  0.00000000000E+00  0.74505805969E-08  0.10566000000E+00  0.10566000000E+00 0. -1.
     999900   -1    0    0    0    0 -0.00000000000E+00 -0.00000000000E+00 -0.74505805969E-08  0.93827000000E+00  0.93827000000E+00 0.  1.
     999902    2    1    2    0    0 -0.58299258067E-02 -0.21087500186E-01  0.84598095481E-02  0.10204728246E+01  0.10202031889E+01 0.  0.
     999903    2    3    3    0    0 -0.16999975933E-02  0.77582697474E-01 -0.10024388965E+00  0.12830167600E+00  0.19761521042E-01 0.  0.
         14    1    1    2    0    0  0.58299258067E-02  0.21087500186E-01 -0.84598095481E-02  0.23457175375E-01  0.00000000000E+00 0.  1.
     999901    1    3    3    0    0 -0.41299282133E-02 -0.98670197660E-01  0.10870369920E+00  0.89217114862E+00  0.88000000000E+00 0. -1.
        -11    1    4    4    0    0 -0.28029340665E-02  0.30023930930E-01 -0.24498884587E-01  0.38855492982E-01  0.51100000000E-03 0.  1.
         11    1    4    4    0    0  0.11029364732E-02  0.47558766544E-01 -0.75745005063E-01  0.89446183021E-01  0.51100000000E-03 0. -1.
</event>
<event>
 8    1  0.1044719E+005  0.1043930E+01  0.7957747E-01            NaN
         13   -1    0    0    0    0  0.00000000000E+00  0.00000000000E+00  0.74505805969E-08  0.10566000000E+00  0.10566000000E+00 0.  1.
     999900   -1    0    0    0    0 -0.00000000000E+00 -0.00000000000E+00 -0.74505805969E-08  0.93827000000E+00  0.93827000000E+00 0.  1.
     999902    2    1    2    0    0 -0.88626731734E-02  0.96675452372E-03 -0.21551507172E-01  0.10206072846E+01  0.10203407668E+01 0.  0.
     999903    2    3    3    0    0 -0.65995603677E-02  0.10932526299E+00 -0.72061439425E-01  0.13252061022E+00  0.19320811459E-01 0.  0.
         14    1    1    2    0    0  0.88626731734E-02 -0.96675452372E-03  0.21551507172E-01  0.23322715354E-01  0.00000000000E+00 0.  1.
     999901    1    3    3    0    0 -0.22631128056E-02 -0.10835850847E+00  0.50509932253E-01  0.88808667443E+00  0.88000000000E+00 0. -1.
        -11    1    4    4    0    0 -0.17092429002E-02  0.80436224397E-02 -0.12346079997E-01  0.14842782271E-01  0.51100000000E-03 0. -1.
         11    1    4    4    0    0 -0.48903174675E-02  0.10128164055E+00 -0.59715359428E-01  0.11767782795E+00  0.51100000000E-03 0.  1.
</event>
<event>
 8    1  0.1044719E+005  0.1043930E+01  0.7957747E-01            NaN
         13   -1    0    0    0    0  0.00000000000E+00  0.00000000000E+00  0.74505805969E-08  0.10566000000E+00  0.10566000000E+00 0.  1.
     999900   -1    0    0    0    0 -0.00000000000E+00 -0.00000000000E+00 -0.74505805969E-08  0.93827000000E+00  0.93827000000E+00 0. -1.
     999902    2    1    2    0    0 -0.18988350609E-01  0.11659185796E-01 -0.70828327123E-02  0.10205492260E+01  0.10202813642E+01 0.  0.
     999903    2    3    3    0    0 -0.89967211185E-01 -0.20353374724E-01 -0.93538296169E-01  0.13289087405E+00  0.20055238815E-01 0.  0.
         14    1    1    2    0    0  0.18988350609E-01 -0.11659185796E-01  0.70828327123E-02  0.23380773972E-01  0.00000000000E+00 0.  1.
     999901    1    3    3    0    0  0.70978860576E-01  0.32012560520E-01  0.86455463456E-01  0.88765835198E+00  0.88000000000E+00 0.  1.
        -11    1    4    4    0    0 -0.59099318112E-01 -0.21278715658E-01 -0.54901745008E-01  0.83426469824E-01  0.51100000000E-03 0. -1.
         11    1    4    4    0    0 -0.30867893073E-01  0.92534093387E-03 -0.38636551161E-01  0.49464404224E-01  0.51100000000E-03 0.  1.
</event>
<event>
 7    1  0.1044719E+005  0.1043930E+01  0.7957747E-01            NaN
         13   -1    0    0    0    0  0.00000000000E+00  0.00000000000E+00  0.74505805969E-08  0.10566000000E+00  0.10566000000E+00 0.  1.
     999900   -1    0    0    0    0 -0.00000000000E+00 -0.00000000000E+00 -0.74505805969E-08  0.93827000000E+00  0.93827000000E+00 0. -1.
     999902    2    1    2    0    0  0.23062793934E-01 -0.27984952903E-02 -0.35123306397E-02  0.10204340321E+01  0.10201634935E+01 0.  0.
         14    1    1    2    0    0 -0.23062793934E-01  0.27984952903E-02  0.35123306397E-02  0.23495967877E-01  0.00000000000E+00 0.  1.
     999901    1    3    3    0    0  0.11931819472E+00  0.70808817683E-01  0.24447836052E-02  0.89087411974E+00  0.88000000000E+00 0.  1.
        -11    1    3    3    0    0 -0.67512668637E-02 -0.13318181654E-01 -0.15118199726E-01  0.21254991198E-01  0.51100000000E-03 0. -1.
         11    1    3    3    0    0 -0.89504133926E-01 -0.60289131318E-01  0.91610854814E-02  0.10830492119E+00  0.51100000000E-03 0.  1.
</event>
<event>
 8    1  0.1044719E+005  0.1043930E+01  0.7957747E-01            NaN
         13   -1    0    0    0    0  0.00000000000E+00  0.00000000000E+00  0.74505805969E-08  0.10566000000E+00  0.10566000000E+00 0. -1.
     999900   -1    0    0    0    0 -0.00000000000E+00 -0.00000000000E+00 -0.74505805969E-08  0.93827000000E+00  0.93827000000E+00 0. -1.
     999902    2    1    2    0    0  0.21855620172E-01  0.10430870596E-01  0.53266704001E-02  0.10191339396E+01  0.10188322444E+01 0.  0.
     999903    2    3    3    0    0 -0.68356795793E-02  0.54352148744E-01  0.11678140402E+00  0.13055393362E+00  0.20138288695E-01 0.  0.
         14    1    1    2    0    0 -0.21855620172E-01 -0.10430870596E-01 -0.53266704001E-02  0.24796060414E-01  0.00000000000E+00 0.  1.
     999901    1    3    3    0    0  0.28691299751E-01 -0.43921278148E-01 -0.11145473362E+00  0.88858000597E+00  0.88000000000E+00 0. -1.
        -11    1    4    4    0    0 -0.62366757821E-02  0.19205080630E-01  0.64199869393E-01  0.67302418960E-01  0.51100000000E-03 0. -1.
         11    1    4    4    0    0 -0.59900379724E-03  0.35147068114E-01  0.52581534623E-01  0.63251514661E-01  0.51100000000E-03 0.  1.
</event>
<event>
 8    1  0.1044719E+005  0.1043930E+01  0.7957747E-01            NaN
         13   -1    0    0    0    0  0.00000000000E+00  0.00000000000E+00  0.74505805969E-08  0.10566000000E+00  0.10566000000E+00 0. -1.
     999900   -1    0    0    0    0 -0.00000000000E+00 -0.00000000000E+00 -0.74505805969E-08  0.93827000000E+00  0.93827000000E+00 0. -1.
     999902    2    1    2    0    0  0.14548270430E-02 -0.23862613770E-01 -0.23531053658E-02  0.10199075529E+01  0.10196246067E+01 0.  0.
     999903    2    3    3    0    0 -0.58327029611E-01  0.95955788241E-01 -0.57889836638E-01  0.12804733499E+00  0.20864590399E-01 0.  0.
         14    1    1    2    0    0 -0.14548270430E-02  0.23862613770E-01  0.23531053658E-02  0.24022447055E-01  0.00000000000E+00 0.  1.
     999901    1    3    3    0    0  0.59781856654E-01 -0.11981840201E+00  0.55536731272E-01  0.89186021795E+00  0.88000000000E+00 0.  1.
        -11    1    4    4    0    0 -0.53371442199E-01  0.72023417912E-01 -0.42998599181E-01  0.99423459116E-01  0.51100000000E-03 0. -1.
         11    1    4    4    0    0 -0.49555874115E-02  0.23932370329E-01 -0.14891237457E-01  0.28623875876E-01  0.51100000000E-03 0.  1.
</event>
<event>
 8    1  0.1044719E+005  0.1043930E+01  0.7957747E-01            NaN
         13   -1    0    0    0    0  0.00000000000E+00  0.00000000000E+00  0.74505805969E-08  0.10566000000E+00  0.10566000000E+00 0.  1.
     999900   -1    0    0    0    0 -0.00000000000E+00 -0.00000000000E+00 -0.74505805969E-08  0.93827000000E+00  0.93827000000E+00 0. -1.
     999902    2    1    2    0    0 -0.22095589331E-01  0.98324117669E-02  0.20758142700E-02  0.10196565496E+01  0.10193675877E+01 0.  0.
     999903    2    3    3    0    0 -0.62270288619E-01 -0.35891738895E-01 -0.10736121664E+00  0.13079144840E+00  0.20351077846E-01 0.  0.
         14    1    1    2    0    0  0.22095589331E-01 -0.98324117669E-02 -0.20758142700E-02  0.24273450392E-01  0.00000000000E+00 0.  1.
     999901    1    3    3    0    0  0.40174699288E-01  0.45724150662E-01  0.10943703091E+00  0.88886510121E+00  0.88000000000E+00 0.  1.
        -11    1    4    4    0    0 -0.37706652335E-01 -0.30684125941E-01 -0.60390411211E-01  0.77527866618E-01  0.51100000000E-03 0. -1.
         11    1    4    4    0    0 -0.24563636285E-01 -0.52076129537E-02 -0.46970805430E-01  0.53263581779E-01  0.51100000000E-03 0.  1.
</event>
<event>
 8    1  0.1044719E+005  0.1043930E+01  0.7957747E-01            NaN
         13   -1    0    0    0    0  0.00000000000E+00  0.00000000000E+00  0.74505805969E-08  0.10566000000E+00  0.10566000000E+00 0. -1.
     999900   -1    0    0    0    0 -0.00000000000E+00 -0.00000000000E+00 -0.74505805969E-08  0.93827000000E+00  0.93827000000E+00 0. -1.
     999902    2    1    2    0    0  0.18180500895E-01  0.12502655157E-01 -0.56529847157E-02  0.10211527474E+01  0.10208986876E+01 0.  0.
     999903    2    3    3    0    0 -0.85121106395E-01 -0.73734670450E-01  0.58485345260E-01  0.12861601217E+00  0.20955634014E-01 0.  0.
         14    1    1    2    0    0 -0.18180500895E-01 -0.12502655157E-01  0.56529847157E-02  0.22777252578E-01  0.00000000000E+00 0.  1.
     999901    1    3    3    0    0  0.10330160729E+00  0.86237325607E-01 -0.64138329975E-01  0.89253673525E+00  0.88000000000E+00 0.  1.
        -11    1    4    4    0    0 -0.29750599949E-01 -0.14915921904E-01  0.11802246558E-01  0.35314827883E-01  0.51100000000E-03 0. -1.
         11    1    4    4    0    0 -0.55370506446E-01 -0.58818748546E-01  0.46683098702E-01  0.93301184290E-01  0.51100000000E-03 0.  1.
</event>
<event>
 8    1  0.1044719E+005  0.1043930E+01  0.7957747E-01            NaN
         13   -1    0    0    0    0  0.00000000000E+00  0.00000000000E+00  0.74505805969E-08  0.10566000000E+00  0.10566000000E+00 0. -1.
     999900   -1    0    0    0    0 -0.00000000000E+00 -0.00000000000E+00 -0.74505805969E-08  0.93827000000E+00  0.93827000000E+00 0.  1.
     999902    2    1    2    0    0 -0.13139835690E-02 -0.63256294119E-02 -0.23445301587E-01  0.10196108243E+01  0.10193207595E+01 0.  0.
     999903    2    3    3    0    0  0.89031557836E-02 -0.55711970995E-01 -0.11810355892E+00  0.13309879034E+00  0.24160866413E-01 0.  0.
         14    1    1    2    0    0  0.13139835690E-02  0.63256294119E-02  0.23445301587E-01  0.24319175701E-01  0.00000000000E+00 0. -1.
     999901    1    3    3    0    0 -0.10217139353E-01  0.49386341584E-01  0.94658257332E-01  0.88651203396E+00  0.88000000000E+00 0. -1.
        -11    1    4    4    0    0 -0.73243303903E-02 -0.23409873241E-01 -0.38244010323E-01  0.45437137095E-01  0.51100000000E-03 0.  1.
         11    1    4    4    0    0  0.16227486174E-01 -0.32302097755E-01 -0.79859548595E-01  0.87661653245E-01  0.51100000000E-03 0. -1.
</event>
<event>
 8    1  0.1044719E+005  0.1043930E+01  0.7957747E-01            NaN
         13   -1    0    0    0    0  0.00000000000E+00  0.00000000000E+00  0.74505805969E-08  0.10566000000E+00  0.10566000000E+00 0. -1.
     999900   -1    0    0    0    0 -0.00000000000E+00 -0.00000000000E+00 -0.74505805969E-08  0.93827000000E+00  0.93827000000E+00 0. -1.
     999902    2    1    2    0    0 -0.65027580033E-02 -0.21721431288E-01 -0.72254513369E-02  0.10201326559E+01  0.10198550495E+01 0.  0.
     999903    2    3    3    0    0  0.33065325808E-01  0.12100029694E+00  0.12280160248E-01  0.12754339211E+00  0.19548066511E-01 0.  0.
         14    1    1    2    0    0  0.65027580033E-02  0.21721431288E-01  0.72254513369E-02  0.23797344093E-01  0.00000000000E+00 0. -1.
     999901    1    3    3    0    0 -0.39568083811E-01 -0.14272172823E+00 -0.19505611584E-01  0.89258926380E+00  0.88000000000E+00 0. -1.
        -11    1    4    4    0    0  0.18059996587E-01  0.69762714253E-01  0.16682883300E-01  0.73970125678E-01  0.51100000000E-03 0. -1.
         11    1    4    4    0    0  0.15005329220E-01  0.51237582688E-01 -0.44027230529E-02  0.53573266430E-01  0.51100000000E-03 0.  1.
</event>
<event>
 8    1  0.1044719E+005  0.1043930E+01  0.7957747E-01            NaN
         13   -1    0    0    0    0  0.00000000000E+00  0.00000000000E+00  0.74505805969E-08  0.10566000000E+00  0.10566000000E+00 0.  1.
     999900   -1    0    0    0    0 -0.00000000000E+00 -0.00000000000E+00 -0.74505805969E-08  0.93827000000E+00  0.93827000000E+00 0.  1.
     999902    2    1    2    0    0  0.21096894964E-01 -0.10723693254E-01  0.30293258664E-02  0.10200709684E+01  0.10197919039E+01 0.  0.
     999903    2    3    3    0    0  0.45926433252E-02  0.83582833975E-02 -0.12811227564E+00  0.12999533576E+00  0.19876591140E-01 0.  0.
         14    1    1    2    0    0 -0.21096894964E-01  0.10723693254E-01 -0.30293258664E-02  0.23859031609E-01  0.00000000000E+00 0.  1.
     999901    1    3    3    0    0  0.16504251639E-01 -0.19081976651E-01  0.13114160151E+00  0.89007563263E+00  0.88000000000E+00 0. -1.
        -11    1    4    4    0    0  0.78358176536E-02  0.51026876134E-03 -0.10617678089E+00  0.10646797797E+00  0.51100000000E-03 0.  1.
         11    1    4    4    0    0 -0.32431743284E-02  0.78480146361E-02 -0.21935494750E-01  0.23527357786E-01  0.51100000000E-03 0. -1.
</event>
<event>
 8    1  0.1044719E+005  0.1043930E+01  0.7957747E-01            NaN
         13   -1    0    0    0    0  0.00000000000E+00  0.00000000000E+00  0.74505805969E-08  0.10566000000E+00  0.10566000000E+00 0.  1.
     999900   -1    0    0    0    0 -0.00000000000E+00 -0.00000000000E+00 -0.74505805969E-08  0.93827000000E+00  0.93827000000E+00 0. -1.
     999902    2    1    2    0    0 -0.17466282335E-01 -0.93327416263E-03 -0.16295426128E-01  0.10200242908E+01  0.10197441203E+01 0.  0.
     999903    2    3    3    0    0  0.38683609172E-01 -0.15816545889E-02 -0.12450914013E+00  0.13161929386E+00  0.17949632023E-01 0.  0.
         14    1    1    2    0    0  0.17466282335E-01  0.93327416263E-03  0.16295426128E-01  0.23905709192E-01  0.00000000000E+00 0.  1.
     999901    1    3    3    0    0 -0.56149891507E-01  0.64838042624E-03  0.10821371400E+00  0.88840499695E+00  0.88000000000E+00 0.  1.
        -11    1    4    4    0    0  0.61150605637E-02  0.27715892818E-02 -0.46293036371E-01  0.46780145472E-01  0.51100000000E-03 0. -1.
         11    1    4    4    0    0  0.32568548608E-01 -0.43532438706E-02 -0.78216103756E-01  0.84839148384E-01  0.51100000000E-03 0.  1.
</event>
<event>
 8    1  0.1044719E+005  0.1043930E+01  0.7957747E-01            NaN
         13   -1    0    0    0    0  0.00000000000E+00  0.00000000000E+00  0.74505805969E-08  0.10566000000E+00  0.10566000000E+00 0. -1.
     999900   -1    0    0    0    0 -0.00000000000E+00 -0.00000000000E+00 -0.74505805969E-08  0.93827000000E+00  0.93827000000E+00 0. -1.
     999902    2    1    2    0    0 -0.45050137530E-02 -0.21113274444E-01  0.10332618104E-01  0.10199961640E+01  0.10197153260E+01 0.  0.
     999903    2    3    3    0    0  0.10098907200E+00 -0.81375811456E-01  0.80721221317E-02  0.13164618496E+00  0.21088942710E-01 0.  0.
         14    1    1    2    0    0  0.45050137530E-02  0.21113274444E-01 -0.10332618104E-01  0.23933835955E-01  0.00000000000E+00 0. -1.
     999901    1    3    3    0    0 -0.10549408576E+00  0.60262537013E-01  0.22604959727E-02  0.88834997908E+00  0.88000000000E+00 0. -1.
        -11    1    4    4    0    0  0.45519877886E-01 -0.49596749444E-01  0.10230848016E-02  0.67329077386E-01  0.51100000000E-03 0.  1.
         11    1    4    4    0    0  0.55469194118E-01 -0.31779062012E-01  0.70490373301E-02  0.64317107574E-01  0.51100000000E-03 0. -1.
</event>
<event>
 8    1  0.1044719E+005  0.1043930E+01  0.7957747E-01            NaN
         13   -1    0    0    0    0  0.00000000000E+00  0.00000000000E+00  0.74505805969E-08  0.10566000000E+00  0.10566000000E+00 0. -1.
     999900   -1    0    0    0    0 -0.00000000000E+00 -0.00000000000E+00 -0.74505805969E-08  0.93827000000E+00  0.93827000000E+00 0. -1.
     999902    2    1    2    0    0  0.57403518915E-02 -0.20245182301E-01  0.11366893520E-01  0.10200129493E+01  0.10197325097E+01 0.  0.
     999903    2    3    3    0    0  0.43489115325E-01  0.96346837914E-01 -0.69088082250E-01  0.12788533990E+00  0.20186151787E-01 0.  0.
         14    1    1    2    0    0 -0.57403518915E-02  0.20245182301E-01 -0.11366893520E-01  0.23917050707E-01  0.00000000000E+00 0.  1.
     999901    1    3    3    0    0 -0.37748763433E-01 -0.11659202022E+00  0.80454975770E-01  0.89212760939E+00  0.88000000000E+00 0.  1.
        -11    1    4    4    0    0  0.43013560585E-02  0.13201572057E-01 -0.18880538862E-02  0.14021734457E-01  0.51100000000E-03 0.  1.
         11    1    4    4    0    0  0.39187759266E-01  0.83145265858E-01 -0.67200028364E-01  0.11386360544E+00  0.51100000000E-03 0. -1.
</event>
<event>
 8    1  0.1044719E+005  0.1043930E+01  0.7957747E-01            NaN
         13   -1    0    0    0    0  0.00000000000E+00  0.00000000000E+00  0.74505805969E-08  0.10566000000E+00  0.10566000000E+00 0.  1.
     999900   -1    0    0    0    0 -0.00000000000E+00 -0.00000000000E+00 -0.74505805969E-08  0.93827000000E+00  0.93827000000E+00 0. -1.
     999902    2    1    2    0    0 -0.14221212696E-01 -0.11885640096E-01 -0.11242525940E-01  0.10222526911E+01  0.10220228269E+01 0.  0.
     999903    2    3    3    0    0 -0.13299728239E-01  0.47544213767E-01  0.11944605028E+00  0.13061809072E+00  0.18878338460E-01 0.  0.
         14    1    1    2    0    0  0.14221212696E-01  0.11885640096E-01  0.11242525940E-01  0.21677308886E-01  0.00000000000E+00 0.  1.
     999901    1    3    3    0    0 -0.92148445685E-03 -0.59429853863E-01 -0.13068857622E+00  0.89163460039E+00  0.88000000000E+00 0. -1.
        -11    1    4    4    0    0 -0.31608244140E-02  0.17493860547E-01  0.67056122963E-01  0.69374424074E-01  0.51100000000E-03 0.  1.
         11    1    4    4    0    0 -0.10138903825E-01  0.30050353220E-01  0.52389927314E-01  0.61243666647E-01  0.51100000000E-03 0. -1.
</event>
<event>
 8    1  0.1044719E+005  0.1043930E+01  0.7957747E-01            NaN
         13   -1    0    0    0    0  0.00000000000E+00  0.00000000000E+00  0.74505805969E-08  0.10566000000E+00  0.10566000000E+00 0.  1.
     999900   -1    0    0    0    0 -0.00000000000E+00 -0.00000000000E+00 -0.74505805969E-08  0.93827000000E+00  0.93827000000E+00 0.  1.
     999902    2    1    2    0    0  0.34166987984E-02  0.21899561847E-01  0.92972000925E-02  0.10198945560E+01  0.10196112998E+01 0.  0.
     999903    2    3    3    0    0 -0.71294852433E-01 -0.82151685278E-01 -0.63837094361E-01  0.12761819580E+00  0.19477523047E-01 0.  0.
         14    1    1    2    0    0 -0.34166987984E-02 -0.21899561847E-01 -0.92972000925E-02  0.24035444022E-01  0.00000000000E+00 0. -1.
     999901    1    3    3    0    0  0.74711551232E-01  0.10405124713E+00  0.73134294454E-01  0.89227636018E+00  0.88000000000E+00 0.  1.
        -11    1    4    4    0    0 -0.41915837548E-01 -0.52922997144E-01 -0.29006874696E-01  0.73480888431E-01  0.51100000000E-03 0.  1.
         11    1    4    4    0    0 -0.29379014885E-01 -0.29228688135E-01 -0.34830219666E-01  0.54137307364E-01  0.51100000000E-03 0. -1.
</event>
<event>
 8    1  0.1044719E+005  0.1043930E+01  0.7957747E-01            NaN
         13   -1    0    0    0    0  0.00000000000E+00  0.00000000000E+00  0.74505805969E-08  0.10566000000E+00  0.10566000000E+00 0. -1.
     999900   -1    0    0    0    0 -0.00000000000E+00 -0.00000000000E+00 -0.74505805969E-08  0.93827000000E+00  0.93827000000E+00 0. -1.
     999902    2    1    2    0    0 -0.88709438061E-02  0.18560571376E-01 -0.10398041412E-01  0.10208798868E+01  0.10206196331E+01 0.  0.
     999903    2    3    3    0    0 -0.13643711912E-02  0.11128152163E+00  0.67841084046E-01  0.13252473033E+00  0.23978175506E-01 0.  0.
         14    1    1    2    0    0  0.88709438061E-02 -0.18560571376E-01  0.10398041412E-01  0.23050113210E-01  0.00000000000E+00 0. -1.
     999901    1    3    3    0    0 -0.75065726150E-02 -0.92720950254E-01 -0.78239125458E-01  0.88835515646E+00  0.88000000000E+00 0. -1.
        -11    1    4    4    0    0  0.39975838391E-02  0.58250749133E-01  0.48211978819E-01  0.75721770144E-01  0.51100000000E-03 0. -1.
         11    1    4    4    0    0 -0.53619550303E-02  0.53030772497E-01  0.19629105227E-01  0.56802960191E-01  0.51100000000E-03 0.  1.
</event>
<event>
 8    1  0.1044719E+005  0.1043930E+01  0.7957747E-01            NaN
         13   -1    0    0    0    0  0.00000000000E+00  0.00000000000E+00  0.74505805969E-08  0.10566000000E+00  0.10566000000E+00 0.  1.
     999900   -1    0    0    0    0 -0.00000000000E+00 -0.00000000000E+00 -0.74505805969E-08  0.93827000000E+00  0.93827000000E+00 0. -1.
     999902    2    1    2    0    0 -0.98324748873E-02  0.20242140202E-01  0.29606925712E-02  0.10212322578E+01  0.10209799884E+01 0.  0.
     999903    2    3    3    0    0  0.11676388662E+00 -0.12406425760E-01  0.52501522932E-01  0.13019529922E+00  0.20166343527E-01 0.  0.
         14    1    1    2    0    0  0.98324748873E-02 -0.20242140202E-01 -0.29606925712E-02  0.22697742241E-01  0.00000000000E+00 0. -1.
     999901    1    3    3    0    0 -0.12659636150E+00  0.32648565962E-01 -0.49540830361E-01  0.89103695854E+00  0.88000000000E+00 0. -1.
        -11    1    4    4    0    0  0.59848887209E-01  0.22551282469E-02  0.20711198615E-01  0.63373415346E-01  0.51100000000E-03 0.  1.
         11    1    4    4    0    0  0.56914999408E-01 -0.14661554007E-01  0.31790324317E-01  0.66821883875E-01  0.51100000000E-03 0. -1.
</event>
<event>
 8    1  0.1044719E+005  0.1043930E+01  0.7957747E-01            NaN
         13   -1    0    0    0    0  0.00000000000E+00  0.00000000000E+00  0.74505805969E-08  0.10566000000E+00  0.10566000000E+00 0.  1.
     999900   -1    0    0    0    0 -0.00000000000E+00 -0.00000000000E+00 -0.74505805969E-08  0.93827000000E+00  0.93827000000E+00 0. -1.
     999902    2    1    2    0    0 -0.14037655279E-01 -0.20889107030E-01  0.67033875436E-02  0.10178849244E+01  0.10175516564E+01 0.  0.
     999903    2    3    3    0    0  0.90703706166E-01  0.56713447186E-01 -0.62544453540E-01  0.12559115399E+00  0.20438979648E-01 0.  0.
         14    1    1    2    0    0  0.14037655279E-01  0.20889107030E-01 -0.67033875436E-02  0.26045075596E-01  0.00000000000E+00 0. -1.
     999901    1    3    3    0    0 -0.10474136144E+00 -0.77602554216E-01  0.69247841083E-01  0.89229377041E+00  0.88000000000E+00 0.  1.
        -11    1    4    4    0    0  0.69467458724E-01  0.52645443779E-01 -0.52398835960E-01  0.10170137513E+00  0.51100000000E-03 0. -1.
         11    1    4    4    0    0  0.21236247441E-01  0.40680034067E-02 -0.10145617579E-01  0.23889778864E-01  0.51100000000E-03 0.  1.
</event>
<event>
 8    1  0.1044719E+005  0.1043930E+01  0.7957747E-01            NaN
         13   -1    0    0    0    0  0.00000000000E+00  0.00000000000E+00  0.74505805969E-08  0.10566000000E+00  0.10566000000E+00 0.  1.
     999900   -1    0    0    0    0 -0.00000000000E+00 -0.00000000000E+00 -0.74505805969E-08  0.93827000000E+00  0.93827000000E+00 0. -1.
     999902    2    1    2    0    0  0.18995338884E-01 -0.12196620960E-01 -0.49895592819E-02  0.10208112595E+01  0.10205494360E+01 0.  0.
     999903    2    3    3    0    0 -0.45416132118E-01 -0.11744095700E+00 -0.33399069763E-01  0.13174865866E+00  0.19677595339E-01 0.  0.
         14    1    1    2    0    0 -0.18995338884E-01  0.12196620960E-01  0.49895592819E-02  0.23118740536E-01  0.00000000000E+00 0.  1.
     999901    1    3    3    0    0  0.64411471002E-01  0.10524433605E+00  0.28409510481E-01  0.88906260081E+00  0.88000000000E+00 0. -1.
        -11    1    4    4    0    0 -0.14692847003E-01 -0.18999915929E-01 -0.98767303015E-02  0.25974746983E-01  0.51100000000E-03 0. -1.
         11    1    4    4    0    0 -0.30723285115E-01 -0.98441041076E-01 -0.23522339462E-01  0.10577391168E+00  0.51100000000E-03 0.  1.
</event>
<event>
 8    1  0.1044719E+005  0.1043930E+01  0.7957747E-01            NaN
         13   -1    0    0    0    0  0.00000000000E+00  0.00000000000E+00  0.74505805969E-08  0.10566000000E+00  0.10566000000E+00 0.  1.
     999900   -1    0    0    0    0 -0.00000000000E+00 -0.00000000000E+00 -0.74505805969E-08  0.93827000000E+00  0.93827000000E+00 0. -1.
     999902    2    1    2    0    0  0.21033834509E-01  0.76243373581E-02 -0.85345656847E-02  0.10199844049E+01  0.10197032876E+01 0.  0.
     999903    2    3    3    0    0 -0.88611034994E-01 -0.79004574631E-01  0.42161164782E-01  0.12751781005E+00  0.19738027465E-01 0.  0.
         14    1    1    2    0    0 -0.21033834509E-01 -0.76243373581E-02  0.85345656847E-02  0.23945595122E-01  0.00000000000E+00 0.  1.
     999901    1    3    3    0    0  0.10964486950E+00  0.86628911989E-01 -0.50695730467E-01  0.89246659483E+00  0.88000000000E+00 0. -1.
        -11    1    4    4    0    0 -0.11690068584E-01 -0.27328000138E-02  0.38853828575E-02  0.12628666611E-01  0.51100000000E-03 0. -1.
         11    1    4    4    0    0 -0.76920966410E-01 -0.76271774617E-01  0.38275781925E-01  0.11488914344E+00  0.51100000000E-03 0.  1.
</event>
<event>
 8    1  0.1044719E+005  0.1043930E+01  0.7957747E-01            NaN
         13   -1    0    0    0    0  0.00000000000E+00  0.00000000000E+00  0.74505805969E-08  0.10566000000E+00  0.10566000000E+00 0. -1.
     999900   -1    0    0    0    0 -0.00000000000E+00 -0.00000000000E+00 -0.74505805969E-08  0.93827000000E+00  0.93827000000E+00 0.  1.
     999902    2    1    2    0    0 -0.14704617904E-01 -0.72689708259E-02 -0.15038650890E-01  0.10216763543E+01  0.10214339667E+01 0.  0.
     999903    2    3    3    0    0  0.11286821061E+00 -0.60111017410E-01 -0.19001126632E-01  0.13089983373E+00  0.20522092391E-01 0.  0.
         14    1    1    2    0    0  0.14704617904E-01  0.72689708259E-02  0.15038650890E-01  0.22253645660E-01  0.00000000000E+00 0. -1.
     999901    1    3    3    0    0 -0.12757282851E+00  0.52842046584E-01  0.39624757419E-02  0.89077652061E+00  0.88000000000E+00 0.  1.
        -11    1    4    4    0    0  0.24833131976E-01 -0.10024876513E-01 -0.12060955142E-01  0.29375335790E-01  0.51100000000E-03 0. -1.
         11    1    4    4    0    0  0.88035078634E-01 -0.50086140897E-01 -0.69401714896E-02  0.10152449794E+00  0.51100000000E-03 0.  1.
</event>
<event>
 8    1  0.1044719E+005  0.1043930E+01  0.7957747E-01            NaN
         13   -1    0    0    0    0  0.00000000000E+00  0.00000000000E+00  0.74505805969E-08  0.10566000000E+00  0.10566000000E+00 0. -1.
     999900   -1    0    0    0    0 -0.00000000000E+00 -0.00000000000E+00 -0.74505805969E-08  0.93827000000E+00  0.93827000000E+00 0.  1.
     999902    2    1    2    0    0  0.34701002091E-02  0.22355588551E-01  0.75372333061E-02  0.10200841655E+01  0.10198054133E+01 0.  0.
     999903    2    3    3    0    0 -0.48496590891E-01  0.30420187288E-02 -0.11828028830E+00  0.12940824261E+00  0.19876957716E-01 0.  0.
         14    1    1    2    0    0 -0.34701002091E-02 -0.22355588551E-01 -0.75372333061E-02  0.23845834454E-01  0.00000000000E+00 0. -1.
     999901    1    3    3    0    0  0.51966691100E-01  0.19313569822E-01  0.12581752161E+00  0.89067592294E+00  0.88000000000E+00 0. -1.
        -11    1    4    4    0    0 -0.17315365062E-01 -0.73356864290E-02 -0.32571764874E-01  0.37614028641E-01  0.51100000000E-03 0.  1.
         11    1    4    4    0    0 -0.31181225829E-01  0.10377705158E-01 -0.85708523425E-01  0.91794213964E-01  0.51100000000E-03 0. -1.
</event>
<event>
 8    1  0.1044719E+005  0.1043930E+01  0.7957747E-01            NaN
         13   -1    0    0    0    0  0.00000000000E+00  0.00000000000E+00  0.74505805969E-08  0.10566000000E+00  0.10566000000E+00 0. -1.
     999900   -1    0    0    0    0 -0.00000000000E+00 -0.00000000000E+00 -0.74505805969E-08  0.93827000000E+00  0.93827000000E+00 0.  1.
     999902    2    1    2    0    0 -0.21646368478E-01 -0.87828470864E-02  0.23006459987E-02  0.10204566823E+01  0.10201866711E+01 0.  0.
     999903    2    3    3    0    0 -0.88857637330E-02  0.12290941286E+00 -0.35561827290E-01  0.12976074584E+00  0.19685706370E-01 0.  0.
         14    1    1    2    0    0  0.21646368478E-01  0.87828470864E-02 -0.23006459987E-02  0.23473317687E-01  0.00000000000E+00 0.  1.
     999901    1    3    3    0    0 -0.12760604745E-01 -0.13169225994E+00  0.37862473289E-01  0.89069593647E+00  0.88000000000E+00 0. -1.
        -11    1    4    4    0    0 -0.13411935965E-01  0.66766234811E-01 -0.14530046212E-01  0.69634714769E-01  0.51100000000E-03 0.  1.
         11    1    4    4    0    0  0.45261722316E-02  0.56143178046E-01 -0.21031781078E-01  0.60126031072E-01  0.51100000000E-03 0. -1.
</event>
<event>
 8    1  0.1044719E+005  0.1043930E+01  0.7957747E-01            NaN
         13   -1    0    0    0    0  0.00000000000E+00  0.00000000000E+00  0.74505805969E-08  0.10566000000E+00  0.10566000000E+00 0.  1.
     999900   -1    0    0    0    0 -0.00000000000E+00 -0.00000000000E+00 -0.74505805969E-08  0.93827000000E+00  0.93827000000E+00 0. -1.
     999902    2    1    2    0    0 -0.22664798044E-01  0.10136711484E-01  0.36849767469E-02  0.10188297003E+01  0.10185204628E+01 0.  0.
     999903    2    3    3    0    0 -0.88114661170E-01  0.93166990614E-01  0.25462345659E-01  0.13223398320E+00  0.19829614535E-01 0.  0.
         14    1    1    2    0    0  0.22664798044E-01 -0.10136711484E-01 -0.36849767469E-02  0.25100299673E-01  0.00000000000E+00 0. -1.
     999901    1    3    3    0    0  0.65449863126E-01 -0.83030279131E-01 -0.21777368912E-01  0.88659571713E+00  0.88000000000E+00 0.  1.
        -11    1    4    4    0    0 -0.62924474666E-01  0.68550590329E-01  0.94222035742E-02  0.93529203929E-01  0.51100000000E-03 0. -1.
         11    1    4    4    0    0 -0.25190186503E-01  0.24616400286E-01  0.16040142084E-01  0.38704779268E-01  0.51100000000E-03 0.  1.
</event>
<event>
 8    1  0.1044719E+005  0.1043930E+01  0.7957747E-01            NaN
         13   -1    0    0    0    0  0.00000000000E+00  0.00000000000E+00  0.74505805969E-08  0.10566000000E+00  0.10566000000E+00 0.  1.
     999900   -1    0    0    0    0 -0.00000000000E+00 -0.00000000000E+00 -0.74505805969E-08  0.93827000000E+00  0.93827000000E+00 0. -1.
     999902    2    1    2    0    0  0.28043480699E-02  0.21942596006E-01  0.85493193126E-02  0.10202143354E+01  0.10199386537E+01 0.  0.
     999903    2    3    3    0    0  0.11952989971E+00 -0.46272933835E-01 -0.37331348881E-02  0.12980483880E+00  0.20168751827E-01 0.  0.
         14    1    1    2    0    0 -0.28043480699E-02 -0.21942596006E-01 -0.85493193126E-02  0.23715664618E-01  0.00000000000E+00 0. -1.
     999901    1    3    3    0    0 -0.11672555164E+00  0.68215529841E-01  0.12282454201E-01  0.89040949658E+00  0.88000000000E+00 0. -1.
        -11    1    4    4    0    0  0.37860640722E-01 -0.17605900668E-01  0.78144318554E-02  0.42482023497E-01  0.51100000000E-03 0.  1.
         11    1    4    4    0    0  0.81669258987E-01 -0.28667033167E-01 -0.11547566743E-01  0.87322815305E-01  0.51100000000E-03 0. -1.
</event>
<event>
 8    1  0.1044719E+005  0.1043930E+01  0.7957747E-01            NaN
         13   -1    0    0    0    0  0.00000000000E+00  0.00000000000E+00  0.74505805969E-08  0.10566000000E+00  0.10566000000E+00 0.  1.
     999900   -1    0    0    0    0 -0.00000000000E+00 -0.00000000000E+00 -0.74505805969E-08  0.93827000000E+00  0.93827000000E+00 0. -1.
     999902    2    1    2    0    0 -0.13186520123E-01 -0.15330593853E-01 -0.11286219414E-01  0.10207720603E+01  0.10205093380E+01 0.  0.
     999903    2    3    3    0    0 -0.86891617629E-01  0.66917678741E-01  0.67477126091E-01  0.13037839215E+00  0.20426298072E-01 0.  0.
         14    1    1    2    0    0  0.13186520123E-01  0.15330593853E-01  0.11286219414E-01  0.23157939665E-01  0.00000000000E+00 0.  1.
     999901    1    3    3    0    0  0.73705097505E-01 -0.82248272594E-01 -0.78763345505E-01  0.89039366818E+00  0.88000000000E+00 0. -1.
        -11    1    4    4    0    0 -0.20411234386E-01  0.60645592840E-02  0.10454277101E-01  0.23726575800E-01  0.51100000000E-03 0.  1.
         11    1    4    4    0    0 -0.66480383243E-01  0.60853119457E-01  0.57022848990E-01  0.10665181635E+00  0.51100000000E-03 0. -1.
</event>
<event>
 8    1  0.1044719E+005  0.1043930E+01  0.7957747E-01            NaN
         13   -1    0    0    0    0  0.00000000000E+00  0.00000000000E+00  0.74505805969E-08  0.10566000000E+00  0.10566000000E+00 0.  1.
     999900   -1    0    0    0    0 -0.00000000000E+00 -0.00000000000E+00 -0.74505805969E-08  0.93827000000E+00  0.93827000000E+00 0.  1.
     999902    2    1    2    0    0 -0.16365366589E-01  0.34023310608E-02  0.15451257119E-01  0.10211672579E+01  0.10209135253E+01 0.  0.
     999903    2    3    3    0    0  0.10925473088E+00 -0.28944428713E-01  0.62448565986E-01  0.13041731052E+00  0.18288666330E-01 0.  0.
         14    1    1    2    0    0  0.16365366589E-01 -0.34023310608E-02 -0.15451257119E-01  0.22762742075E-01  0.00000000000E+00 0. -1.
     999901    1    3    3    0    0 -0.12562009747E+00  0.32346759774E-01 -0.46997308867E-01  0.89074994740E+00  0.88000000000E+00 0.  1.
        -11    1    4    4    0    0  0.99043142702E-01 -0.20408055141E-01  0.53931783215E-01  0.11460772746E+00  0.51100000000E-03 0.  1.
         11    1    4    4    0    0  0.10211588182E-01 -0.85363735717E-02  0.85167827717E-02  0.15809583066E-01  0.51100000000E-03 0. -1.
</event>
<event>
 8    1  0.1044719E+005  0.1043930E+01  0.7957747E-01            NaN
         13   -1    0    0    0    0  0.00000000000E+00  0.00000000000E+00  0.74505805969E-08  0.10566000000E+00  0.10566000000E+00 0. -1.
     999900   -1    0    0    0    0 -0.00000000000E+00 -0.00000000000E+00 -0.74505805969E-08  0.93827000000E+00  0.93827000000E+00 0.  1.
     999902    2    1    2    0    0 -0.13346943385E-01 -0.19255186468E-01 -0.12207223734E-02  0.10204695382E+01  0.10201998261E+01 0.  0.
     999903    2    3    3    0    0 -0.10674508798E+00 -0.21512641786E-01 -0.73141073085E-01  0.13260645961E+00  0.19430619985E-01 0.  0.
         14    1    1    2    0    0  0.13346943385E-01  0.19255186468E-01  0.12207223734E-02  0.23460461776E-01  0.00000000000E+00 0. -1.
     999901    1    3    3    0    0  0.93398144598E-01  0.22574553182E-02  0.71920350712E-01  0.88786307861E+00  0.88000000000E+00 0. -1.
        -11    1    4    4    0    0 -0.22618284194E-01  0.32797128436E-04 -0.23300931364E-01  0.32477413367E-01  0.51100000000E-03 0. -1.
         11    1    4    4    0    0 -0.84126803789E-01 -0.21545438915E-01 -0.49840141721E-01  0.10012904624E+00  0.51100000000E-03 0.  1.
</event>
<event>
 8    1  0.1044719E+005  0.1043930E+01  0.7957747E-01            NaN
         13   -1    0    0    0    0  0.00000000000E+00  0.00000000000E+00  0.74505805969E-08  0.10566000000E+00  0.10566000000E+00 0.  1.
     999900   -1    0    0    0    0 -0.00000000000E+00 -0.00000000000E+00 -0.74505805969E-08  0.93827000000E+00  0.93827000000E+00 0. -1.
     999902    2    1    2    0    0 -0.70328917357E-02 -0.94106027516E-02  0.15443927152E-01  0.10245254671E+01  0.10243416895E+01 0.  0.
     999903    2    3    3    0    0  0.38987644673E-01 -0.29490113193E-01  0.12554040223E+00  0.13624493129E+00  0.20312200686E-01 0.  0.
         14    1    1    2    0    0  0.70328917357E-02  0.94106027516E-02 -0.15443927152E-01  0.19404532877E-01  0.00000000000E+00 0. -1.
     999901    1    3    3    0    0 -0.46020536409E-01  0.20079510441E-01 -0.11009647508E+00  0.88828053583E+00  0.88000000000E+00 0. -1.
        -11    1    4    4    0    0  0.36081737076E-01 -0.29408294960E-01  0.97426337448E-01  0.10797634886E+00  0.51100000000E-03 0. -1.
         11    1    4    4    0    0  0.29059075970E-02 -0.81818232978E-04  0.28114064785E-01  0.28268582435E-01  0.51100000000E-03 0.  1.
</event>
<event>
 8    1  0.1044719E+005  0.1043930E+01  0.7957747E-01            NaN
         13   -1    0    0    0    0  0.00000000000E+00  0.00000000000E+00  0.74505805969E-08  0.10566000000E+00  0.10566000000E+00 0.  1.
     999900   -1    0    0    0    0 -0.00000000000E+00 -0.00000000000E+00 -0.74505805969E-08  0.93827000000E+00  0.93827000000E+00 0. -1.
     999902    2    1    2    0    0 -0.21084329252E-01  0.30255740302E-01  0.83497515187E-02  0.10061189287E+01  0.10054081866E+01 0.  0.
     999903    2    3    3    0    0 -0.28053286220E-01  0.10342110965E+00  0.54784163659E-01  0.12183509857E+00  0.18962433037E-01 0.  0.
         14    1    1    2    0    0  0.21084329252E-01 -0.30255740302E-01 -0.83497515187E-02  0.37811071284E-01  0.00000000000E+00 0. -1.
     999901    1    3    3    0    0  0.69689569682E-02 -0.73165369345E-01 -0.46434412140E-01  0.88428383015E+00  0.88000000000E+00 0. -1.
        -11    1    4    4    0    0 -0.99381063131E-02  0.45263587247E-01  0.33971781375E-01  0.57462173109E-01  0.51100000000E-03 0. -1.
         11    1    4    4    0    0 -0.18115179907E-01  0.58157522399E-01  0.20812382284E-01  0.64372925458E-01  0.51100000000E-03 0.  1.
</event>
<event>
 8    1  0.1044719E+005  0.1043930E+01  0.7957747E-01            NaN
         13   -1    0    0    0    0  0.00000000000E+00  0.00000000000E+00  0.74505805969E-08  0.10566000000E+00  0.10566000000E+00 0. -1.
     999900   -1    0    0    0    0 -0.00000000000E+00 -0.00000000000E+00 -0.74505805969E-08  0.93827000000E+00  0.93827000000E+00 0.  1.
     999902    2    1    2    0    0  0.14339408698E-02  0.53077844949E-03 -0.24853188850E-01  0.10190298211E+01  0.10187255555E+01 0.  0.
     999903    2    3    3    0    0  0.12658144267E+00  0.18699583311E-01 -0.10253192498E-01  0.12987001402E+00  0.19711837525E-01 0.  0.
         14    1    1    2    0    0 -0.14339408698E-02 -0.53077844949E-03  0.24853188850E-01  0.24900178879E-01  0.00000000000E+00 0. -1.
     999901    1    3    3    0    0 -0.12514750180E+00 -0.18168804862E-01 -0.14599996352E-01  0.88915980711E+00  0.88000000000E+00 0. -1.
        -11    1    4    4    0    0  0.19409764482E-01  0.15838547962E-02 -0.86809556732E-02  0.21327626818E-01  0.51100000000E-03 0.  1.
         11    1    4    4    0    0  0.10717167819E+00  0.17115728515E-01 -0.15722368253E-02  0.10854238720E+00  0.51100000000E-03 0. -1.
</event>
<event>
 8    1  0.1239538E+005  0.1043930E+01  0.7957747E-01            NaN
         13   -1    0    0    0    0  0.00000000000E+00  0.00000000000E+00  0.74505805969E-08  0.10566000000E+00  0.10566000000E+00 0. -1.
     999900   -1    0    0    0    0 -0.00000000000E+00 -0.00000000000E+00 -0.74505805969E-08  0.93827000000E+00  0.93827000000E+00 0.  1.
     999902    2    1    2    0    0  0.49065679146E-03 -0.79672655187E-02 -0.23307895667E-01  0.10192931158E+01  0.10189953286E+01 0.  0.
     999903    2    3    3    0    0  0.77963958942E-01  0.82162254625E-02  0.98421582298E-01  0.12739509261E+00  0.19920253591E-01 0.  0.
         14    1    1    2    0    0 -0.49065679146E-03  0.79672655187E-02  0.23307895667E-01  0.24636884226E-01  0.00000000000E+00 0. -1.
     999901    1    3    3    0    0 -0.77473302151E-01 -0.16183490981E-01 -0.12172947797E+00  0.89189802317E+00  0.88000000000E+00 0. -1.
        -11    1    4    4    0    0  0.65069978337E-01  0.13616149681E-01  0.76065931031E-01  0.10102370315E+00  0.51100000000E-03 0.  1.
         11    1    4    4    0    0  0.12893980605E-01 -0.53999242180E-02  0.22355651267E-01  0.26371389458E-01  0.51100000000E-03 0. -1.
</event>
<event>
 8    1  0.1044719E+005  0.1043930E+01  0.7957747E-01            NaN
         13   -1    0    0    0    0  0.00000000000E+00  0.00000000000E+00  0.74505805969E-08  0.10566000000E+00  0.10566000000E+00 0.  1.
     999900   -1    0    0    0    0 -0.00000000000E+00 -0.00000000000E+00 -0.74505805969E-08  0.93827000000E+00  0.93827000000E+00 0.  1.
     999902    2    1    2    0    0  0.20394776626E-01  0.56205829355E-02  0.93469160602E-02  0.10208020363E+01  0.10205400014E+01 0.  0.
     999903    2    3    3    0    0  0.16208680264E-01  0.31801543309E-01  0.12611786934E+00  0.13269257139E+00  0.20677090259E-01 0.  0.
         14    1    1    2    0    0 -0.20394776626E-01 -0.56205829355E-02 -0.93469160602E-02  0.23127963724E-01  0.00000000000E+00 0. -1.
     999901    1    3    3    0    0  0.41860963620E-02 -0.26180960373E-01 -0.11677095328E+00  0.88810946489E+00  0.88000000000E+00 0.  1.
        -11    1    4    4    0    0  0.50749697377E-02  0.17980391396E-01  0.33251307079E-01  0.38143942325E-01  0.51100000000E-03 0.  1.
         11    1    4    4    0    0  0.11133710527E-01  0.13821151912E-01  0.92866562265E-01  0.94548629065E-01  0.51100000000E-03 0. -1.
</event>
<event>
 8    1  0.1044719E+005  0.1043930E+01  0.7957747E-01            NaN
         13   -1    0    0    0    0  0.00000000000E+00  0.00000000000E+00  0.74505805969E-08  0.10566000000E+00  0.10566000000E+00 0. -1.
     999900   -1    0    0    0    0 -0.00000000000E+00 -0.00000000000E+00 -0.74505805969E-08  0.93827000000E+00  0.93827000000E+00 0.  1.
     999902    2    1    2    0    0 -0.15233605996E-01 -0.14777956241E-01  0.87623901851E-02  0.10209685056E+01  0.10207102719E+01 0.  0.
     999903    2    3    3    0    0  0.26917598613E-01 -0.72733051794E-01 -0.10357981506E+00  0.13093688358E+00  0.20025869662E-01 0.  0.
         14    1    1    2    0    0  0.15233605996E-01  0.14777956241E-01 -0.87623901851E-02  0.22961494378E-01  0.00000000000E+00 0.  1.
     999901    1    3    3    0    0 -0.42151204609E-01  0.57955095553E-01  0.11234220525E+00  0.89003162204E+00  0.88000000000E+00 0. -1.
        -11    1    4    4    0    0  0.19527983062E-01 -0.41535346118E-01 -0.45713804627E-01  0.64780708194E-01  0.51100000000E-03 0. -1.
         11    1    4    4    0    0  0.73896155512E-02 -0.31197705676E-01 -0.57866010435E-01  0.66156175389E-01  0.51100000000E-03 0.  1.
</event>
<event>
 8    1  0.1044719E+005  0.1043930E+01  0.7957747E-01            NaN
         13   -1    0    0    0    0  0.00000000000E+00  0.00000000000E+00  0.74505805969E-08  0.10566000000E+00  0.10566000000E+00 0.  1.
     999900   -1    0    0    0    0 -0.00000000000E+00 -0.00000000000E+00 -0.74505805969E-08  0.93827000000E+00  0.93827000000E+00 0. -1.
     999902    2    1    2    0    0  0.23814755449E-01 -0.11075354533E-02  0.36289832426E-03  0.10200867429E+01  0.10198080517E+01 0.  0.
     999903    2    3    3    0    0  0.99644486698E-01  0.34390111656E-01  0.78119965195E-01  0.13269934584E+00  0.19866653341E-01 0.  0.
         14    1    1    2    0    0 -0.23814755449E-01  0.11075354533E-02 -0.36289832426E-03  0.23843257056E-01  0.00000000000E+00 0. -1.
     999901    1    3    3    0    0 -0.75829731250E-01 -0.35497647110E-01 -0.77757066870E-01  0.88738739710E+00  0.88000000000E+00 0. -1.
        -11    1    4    4    0    0  0.33232524898E-01  0.35687154252E-02  0.31286761082E-01  0.45784920890E-01  0.51100000000E-03 0.  1.
         11    1    4    4    0    0  0.66411961800E-01  0.30821396231E-01  0.46833204113E-01  0.86914424949E-01  0.51100000000E-03 0. -1.
</event>
<event>
 8    1  0.1044719E+005  0.1043930E+01  0.7957747E-01            NaN
         13   -1    0    0    0    0  0.00000000000E+00  0.00000000000E+00  0.74505805969E-08  0.10566000000E+00  0.10566000000E+00 0.  1.
     999900   -1    0    0    0    0 -0.00000000000E+00 -0.00000000000E+00 -0.74505805969E-08  0.93827000000E+00  0.93827000000E+00 0.  1.
     999902    2    1    2    0    0  0.22717468668E-01  0.39159187387E-02 -0.58841744600E-02  0.10201383773E+01  0.10198609060E+01 0.  0.
     999903    2    3    3    0    0 -0.75809083018E-01 -0.52524062482E-01  0.86499874028E-01  0.12804658533E+00  0.20196672983E-01 0.  0.
         14    1    1    2    0    0 -0.22717468668E-01 -0.39159187387E-02  0.58841744600E-02  0.23791622713E-01  0.00000000000E+00 0. -1.
     999901    1    3    3    0    0  0.98526551685E-01  0.56439981220E-01 -0.92384048488E-01  0.89209179196E+00  0.88000000000E+00 0.  1.
        -11    1    4    4    0    0 -0.58234994067E-01 -0.39720400132E-01  0.76753256817E-01  0.10421299474E+00  0.51100000000E-03 0.  1.
         11    1    4    4    0    0 -0.17574088950E-01 -0.12803662349E-01  0.97466172111E-02  0.23833590583E-01  0.51100000000E-03 0. -1.
</event>
<event>
 8    1  0.1044719E+005  0.1043930E+01  0.7957747E-01            NaN
         13   -1    0    0    0    0  0.00000000000E+00  0.00000000000E+00  0.74505805969E-08  0.10566000000E+00  0.10566000000E+00 0.  1.
     999900   -1    0    0    0    0 -0.00000000000E+00 -0.00000000000E+00 -0.74505805969E-08  0.93827000000E+00  0.93827000000E+00 0.  1.
     999902    2    1    2    0    0  0.10351233045E-01  0.20835977006E-01 -0.39122944912E-02  0.10203377977E+01  0.10200650123E+01 0.  0.
     999903    2    3    3    0    0  0.68195471205E-01 -0.52598523023E-01 -0.96063378889E-01  0.13060165472E+00  0.20282813802E-01 0.  0.
         14    1    1    2    0    0 -0.10351233045E-01 -0.20835977006E-01  0.39122944912E-02  0.23592202346E-01  0.00000000000E+00 0. -1.
     999901    1    3    3    0    0 -0.57844238159E-01  0.73434500029E-01  0.92151084397E-01  0.88973614293E+00  0.88000000000E+00 0. -1.
        -11    1    4    4    0    0  0.35670049715E-01 -0.38097988041E-01 -0.64852300416E-01  0.83245967648E-01  0.51100000000E-03 0.  1.
         11    1    4    4    0    0  0.32525421490E-01 -0.14500534982E-01 -0.31211078472E-01  0.47355687074E-01  0.51100000000E-03 0. -1.
</event>
<event>
 8    1  0.1267422E+005  0.1043930E+01  0.7957747E-01            NaN
         13   -1    0    0    0    0  0.00000000000E+00  0.00000000000E+00  0.74505805969E-08  0.10566000000E+00  0.10566000000E+00 0. -1.
     999900   -1    0    0    0    0 -0.00000000000E+00 -0.00000000000E+00 -0.74505805969E-08  0.93827000000E+00  0.93827000000E+00 0. -1.
     999902    2    1    2    0    0  0.19542706716E-01  0.28228943328E-02  0.10061974107E-01  0.10217685596E+01  0.10215281983E+01 0.  0.
     999903    2    3    3    0    0 -0.39180518818E-01  0.57119344254E-01  0.11106445002E+00  0.13238786392E+00  0.19836882632E-01 0.  0.
         14    1    1    2    0    0 -0.19542706716E-01 -0.28228943328E-02 -0.10061974107E-01  0.22161440411E-01  0.00000000000E+00 0.  1.
     999901    1    3    3    0    0  0.58723225534E-01 -0.54296449921E-01 -0.10100247591E+00  0.88938069567E+00  0.88000000000E+00 0. -1.
        -11    1    4    4    0    0 -0.16747015721E-01  0.41053320760E-01  0.64833444251E-01  0.78546001142E-01  0.51100000000E-03 0. -1.
         11    1    4    4    0    0 -0.22433503097E-01  0.16066023494E-01  0.46231005765E-01  0.53841862776E-01  0.51100000000E-03 0.  1.
</event>
<event>
 8    1  0.1044719E+005  0.1043930E+01  0.7957747E-01            NaN
         13   -1    0    0    0    0  0.00000000000E+00  0.00000000000E+00  0.74505805969E-08  0.10566000000E+00  0.10566000000E+00 0. -1.
     999900   -1    0    0    0    0 -0.00000000000E+00 -0.00000000000E+00 -0.74505805969E-08  0.93827000000E+00  0.93827000000E+00 0.  1.
     999902    2    1    2    0    0  0.13740778310E-02  0.22311867861E-01 -0.73112503999E-02  0.10204106055E+01  0.10201395208E+01 0.  0.
     999903    2    3    3    0    0 -0.44636556527E-02  0.12611285480E+00  0.37529401930E-01  0.13315674769E+00  0.19947106974E-01 0.  0.
         14    1    1    2    0    0 -0.13740778310E-02 -0.22311867861E-01  0.73112503999E-02  0.23519394545E-01  0.00000000000E+00 0. -1.
     999901    1    3    3    0    0  0.58377334837E-02 -0.10380098694E+00 -0.44840652330E-01  0.88725385777E+00  0.88000000000E+00 0.  1.
        -11    1    4    4    0    0  0.89267892409E-03  0.94447810745E-01  0.19933914079E-01  0.96533972682E-01  0.51100000000E-03 0. -1.
         11    1    4    4    0    0 -0.53563345768E-02  0.31665044060E-01  0.17595487851E-01  0.36622775006E-01  0.51100000000E-03 0.  1.
</event>
<event>
 8    1  0.1044719E+005  0.1043930E+01  0.7957747E-01            NaN
         13   -1    0    0    0    0  0.00000000000E+00  0.00000000000E+00  0.74505805969E-08  0.10566000000E+00  0.10566000000E+00 0.  1.
     999900   -1    0    0    0    0 -0.00000000000E+00 -0.00000000000E+00 -0.74505805969E-08  0.93827000000E+00  0.93827000000E+00 0. -1.
     999902    2    1    2    0    0  0.11168429322E-01 -0.10433539610E-01  0.18471120329E-01  0.10199555376E+01  0.10196737340E+01 0.  0.
     999903    2    3    3    0    0 -0.57719763739E-01  0.10330431709E+00 -0.41345292709E-01  0.12795784338E+00  0.25698704179E-01 0.  0.
         14    1    1    2    0    0 -0.11168429322E-01  0.10433539610E-01 -0.18471120329E-01  0.23974462424E-01  0.00000000000E+00 0. -1.
     999901    1    3    3    0    0  0.68888193061E-01 -0.11373785670E+00  0.59816413038E-01  0.89199769420E+00  0.88000000000E+00 0.  1.
        -11    1    4    4    0    0 -0.37679313225E-01  0.68481279018E-01 -0.14140046460E-01  0.79433105541E-01  0.51100000000E-03 0.  1.
         11    1    4    4    0    0 -0.20040450514E-01  0.34823038073E-01 -0.27205246249E-01  0.48524737835E-01  0.51100000000E-03 0. -1.
</event>
<event>
 8    1  0.1044719E+005  0.1043930E+01  0.7957747E-01            NaN
         13   -1    0    0    0    0  0.00000000000E+00  0.00000000000E+00  0.74505805969E-08  0.10566000000E+00  0.10566000000E+00 0. -1.
     999900   -1    0    0    0    0 -0.00000000000E+00 -0.00000000000E+00 -0.74505805969E-08  0.93827000000E+00  0.93827000000E+00 0. -1.
     999902    2    1    2    0    0  0.15666291773E-01  0.18937679947E-01  0.56168424455E-02  0.10187185475E+01  0.10184065306E+01 0.  0.
     999903    2    3    3    0    0 -0.97701077886E-01 -0.42622721795E-01 -0.65072927569E-01  0.12650843368E+00  0.20191603598E-01 0.  0.
         14    1    1    2    0    0 -0.15666291773E-01 -0.18937679947E-01 -0.56168424455E-02  0.25211452531E-01  0.00000000000E+00 0. -1.
     999901    1    3    3    0    0  0.11336736966E+00  0.61560401743E-01  0.70689770015E-01  0.89221011379E+00  0.88000000000E+00 0.  1.
        -11    1    4    4    0    0 -0.34570953726E-01 -0.19881934576E-01 -0.34641561218E-01  0.52827464908E-01  0.51100000000E-03 0.  1.
         11    1    4    4    0    0 -0.63130124160E-01 -0.22740787220E-01 -0.30431366351E-01  0.73680968769E-01  0.51100000000E-03 0. -1.
</event>
<event>
 8    1  0.1044719E+005  0.1043930E+01  0.7957747E-01            NaN
         13   -1    0    0    0    0  0.00000000000E+00  0.00000000000E+00  0.74505805969E-08  0.10566000000E+00  0.10566000000E+00 0.  1.
     999900   -1    0    0    0    0 -0.00000000000E+00 -0.00000000000E+00 -0.74505805969E-08  0.93827000000E+00  0.93827000000E+00 0.  1.
     999902    2    1    2    0    0 -0.52600208680E-02 -0.26631942220E-01  0.41796671928E-02  0.10164636973E+01  0.10160925402E+01 0.  0.
     999903    2    3    3    0    0  0.41695930516E-02 -0.89426746815E-01  0.91817460737E-01  0.12983384897E+00  0.20294178713E-01 0.  0.
         14    1    1    2    0    0  0.52600208680E-02  0.26631942220E-01 -0.41796671928E-02  0.27466302696E-01  0.00000000000E+00 0. -1.
     999901    1    3    3    0    0 -0.94296139197E-02  0.62794804594E-01 -0.87637793544E-01  0.88662984834E+00  0.88000000000E+00 0.  1.
        -11    1    4    4    0    0 -0.11846735314E-02 -0.83961487926E-01  0.81902270358E-01  0.11729952224E+00  0.51100000000E-03 0.  1.
         11    1    4    4    0    0  0.53542665831E-02 -0.54652588884E-02  0.99151903793E-02  0.12534326732E-01  0.51100000000E-03 0. -1.
</event>
<event>
 8    1  0.1044719E+005  0.1043930E+01  0.7957747E-01            NaN
         13   -1    0    0    0    0  0.00000000000E+00  0.00000000000E+00  0.74505805969E-08  0.10566000000E+00  0.10566000000E+00 0. -1.
     999900   -1    0    0    0    0 -0.00000000000E+00 -0.00000000000E+00 -0.74505805969E-08  0.93827000000E+00  0.93827000000E+00 0. -1.
     999902    2    1    2    0    0 -0.91468097407E-02  0.14125829115E-01 -0.17289174752E-01  0.10198028630E+01  0.10195174156E+01 0.  0.
     999903    2    3    3    0    0  0.81377375330E-01  0.47941844538E-01 -0.89731933129E-01  0.13155396532E+00  0.18273704987E-01 0.  0.
         14    1    1    2    0    0  0.91468097407E-02 -0.14125829115E-01  0.17289174752E-01  0.24127137009E-01  0.00000000000E+00 0. -1.
     999901    1    3    3    0    0 -0.90524185070E-01 -0.33816015423E-01  0.72442758377E-01  0.88824889768E+00  0.88000000000E+00 0.  1.
        -11    1    4    4    0    0  0.35457395064E-01  0.15776194390E-01 -0.47618736009E-01  0.61432241651E-01  0.51100000000E-03 0.  1.
         11    1    4    4    0    0  0.45919980266E-01  0.32165650148E-01 -0.42113197119E-01  0.70121723664E-01  0.51100000000E-03 0. -1.
</event>
<event>
 8    1  0.1044719E+005  0.1043930E+01  0.7957747E-01            NaN
         13   -1    0    0    0    0  0.00000000000E+00  0.00000000000E+00  0.74505805969E-08  0.10566000000E+00  0.10566000000E+00 0. -1.
     999900   -1    0    0    0    0 -0.00000000000E+00 -0.00000000000E+00 -0.74505805969E-08  0.93827000000E+00  0.93827000000E+00 0. -1.
     999902    2    1    2    0    0 -0.11361675752E-01  0.18099299781E-01  0.94592306071E-02  0.10205601611E+01  0.10202925526E+01 0.  0.
     999903    2    3    3    0    0  0.82132912534E-02  0.13042747526E+00  0.15327480380E-01  0.13318468546E+00  0.20602046763E-01 0.  0.
         14    1    1    2    0    0  0.11361675752E-01 -0.18099299781E-01 -0.94592306071E-02  0.23369838941E-01  0.00000000000E+00 0.  1.
     999901    1    3    3    0    0 -0.19574967005E-01 -0.11232817548E+00 -0.58682497733E-02  0.88737547560E+00  0.88000000000E+00 0.  1.
        -11    1    4    4    0    0 -0.33236573409E-02  0.61085752740E-01 -0.26762000657E-03  0.61178824992E-01  0.51100000000E-03 0.  1.
         11    1    4    4    0    0  0.11536948594E-01  0.69341722518E-01  0.15595100387E-01  0.72005860468E-01  0.51100000000E-03 0. -1.
</event>
<event>
 8    1  0.1044719E+005  0.1043930E+01  0.7957747E-01            NaN
         13   -1    0    0    0    0  0.00000000000E+00  0.00000000000E+00  0.74505805969E-08  0.10566000000E+00  0.10566000000E+00 0.  1.
     999900   -1    0    0    0    0 -0.00000000000E+00 -0.00000000000E+00 -0.74505805969E-08  0.93827000000E+00  0.93827000000E+00 0. -1.
     999902    2    1    2    0    0  0.46364024960E-02 -0.69842299135E-02  0.22812813257E-01  0.10196256764E+01  0.10193359701E+01 0.  0.
     999903    2    3    3    0    0  0.10267362206E+00  0.72359451850E-01 -0.24317521541E-01  0.12938526805E+00  0.19272851272E-01 0.  0.
         14    1    1    2    0    0 -0.46364024960E-02  0.69842299135E-02 -0.22812813257E-01  0.24304323572E-01  0.00000000000E+00 0. -1.
     999901    1    3    3    0    0 -0.98037219559E-01 -0.79343681763E-01  0.47130334797E-01  0.89024040838E+00  0.88000000000E+00 0.  1.
        -11    1    4    4    0    0  0.45184184630E-01  0.21414617638E-01 -0.13634896778E-01  0.51830183488E-01  0.51100000000E-03 0. -1.
         11    1    4    4    0    0  0.57489437425E-01  0.50944834212E-01 -0.10682624762E-01  0.77555084560E-01  0.51100000000E-03 0.  1.
</event>
<event>
 8    1  0.1044719E+005  0.1043930E+01  0.7957747E-01            NaN
         13   -1    0    0    0    0  0.00000000000E+00  0.00000000000E+00  0.74505805969E-08  0.10566000000E+00  0.10566000000E+00 0. -1.
     999900   -1    0    0    0    0 -0.00000000000E+00 -0.00000000000E+00 -0.74505805969E-08  0.93827000000E+00  0.93827000000E+00 0.  1.
     999902    2    1    2    0    0  0.15376635297E-01 -0.15906711507E-01  0.10582005745E-01  0.10194056605E+01  0.10191106208E+01 0.  0.
     999903    2    3    3    0    0  0.81051829185E-01  0.98844012875E-01 -0.62606041837E-02  0.12936935034E+00  0.18912846066E-01 0.  0.
         14    1    1    2    0    0 -0.15376635297E-01  0.15906711507E-01 -0.10582005745E-01  0.24524339534E-01  0.00000000000E+00 0.  1.
     999901    1    3    3    0    0 -0.65675193888E-01 -0.11475072438E+00  0.16842609928E-01  0.89003631013E+00  0.88000000000E+00 0. -1.
        -11    1    4    4    0    0  0.36780036683E-01  0.51409950629E-01 -0.11577491336E-01  0.64265492675E-01  0.51100000000E-03 0.  1.
         11    1    4    4    0    0  0.44271792502E-01  0.47434062246E-01  0.53168871519E-02  0.65103857662E-01  0.51100000000E-03 0. -1.
</event>
<event>
 8    1  0.1044719E+005  0.1043930E+01  0.7957747E-01            NaN
         13   -1    0    0    0    0  0.00000000000E+00  0.00000000000E+00  0.74505805969E-08  0.10566000000E+00  0.10566000000E+00 0.  1.
     999900   -1    0    0    0    0 -0.00000000000E+00 -0.00000000000E+00 -0.74505805969E-08  0.93827000000E+00  0.93827000000E+00 0. -1.
     999902    2    1    2    0    0  0.15672116615E-01  0.10094856084E-02  0.18251280109E-01  0.10198521362E+01  0.10195678674E+01 0.  0.
     999903    2    3    3    0    0  0.10049495850E-01 -0.88939977002E-01  0.95042934480E-01  0.13192225276E+00  0.18947546107E-01 0.  0.
         14    1    1    2    0    0 -0.15672116615E-01 -0.10094856084E-02 -0.18251280109E-01  0.24077863817E-01  0.00000000000E+00 0. -1.
     999901    1    3    3    0    0  0.56226207657E-02  0.89949462611E-01 -0.76791654371E-01  0.88792988342E+00  0.88000000000E+00 0. -1.
        -11    1    4    4    0    0  0.84046117288E-02 -0.75169874160E-01  0.68861506460E-01  0.10229034985E+00  0.51100000000E-03 0. -1.
         11    1    4    4    0    0  0.16448841208E-02 -0.13770102842E-01  0.26181428020E-01  0.29631902913E-01  0.51100000000E-03 0.  1.
</event>
<event>
 8    1  0.1044719E+005  0.1043930E+01  0.7957747E-01            NaN
         13   -1    0    0    0    0  0.00000000000E+00  0.00000000000E+00  0.74505805969E-08  0.10566000000E+00  0.10566000000E+00 0.  1.
     999900   -1    0    0    0    0 -0.00000000000E+00 -0.00000000000E+00 -0.74505805969E-08  0.93827000000E+00  0.93827000000E+00 0.  1.
     999902    2    1    2    0    0  0.91324180170E-02 -0.18864700643E-01  0.74587444280E-02  0.10216834080E+01  0.10214411756E+01 0.  0.
     999903    2    3    3    0    0 -0.52257887469E-01 -0.10907059414E+00  0.53517096780E-01  0.13374915101E+00  0.19936761032E-01 0.  0.
         14    1    1    2    0    0 -0.91324180170E-02  0.18864700643E-01 -0.74587444280E-02  0.22246592045E-01  0.00000000000E+00 0. -1.
     999901    1    3    3    0    0  0.61390305486E-01  0.90205893496E-01 -0.46058352352E-01  0.88793425694E+00  0.88000000000E+00 0. -1.
        -11    1    4    4    0    0 -0.13390791548E-01 -0.39466278848E-01  0.97565049394E-02  0.42805968907E-01  0.51100000000E-03 0.  1.
         11    1    4    4    0    0 -0.38867095921E-01 -0.69604315291E-01  0.43760591840E-01  0.90943182107E-01  0.51100000000E-03 0. -1.
</event>
<event>
 8    1  0.1044719E+005  0.1043930E+01  0.7957747E-01            NaN
         13   -1    0    0    0    0  0.00000000000E+00  0.00000000000E+00  0.74505805969E-08  0.10566000000E+00  0.10566000000E+00 0. -1.
     999900   -1    0    0    0    0 -0.00000000000E+00 -0.00000000000E+00 -0.74505805969E-08  0.93827000000E+00  0.93827000000E+00 0. -1.
     999902    2    1    2    0    0 -0.20416789657E-01  0.90272779370E-02 -0.81452919245E-02  0.10201669441E+01  0.10198901465E+01 0.  0.
     999903    2    3    3    0    0 -0.10464907824E+00 -0.10714305781E-01 -0.78895547212E-01  0.13309850973E+00  0.20602912352E-01 0.  0.
         14    1    1    2    0    0  0.20416789657E-01 -0.90272779370E-02  0.81452919245E-02  0.23763055936E-01  0.00000000000E+00 0. -1.
     999901    1    3    3    0    0  0.84232288585E-01  0.19741583718E-01  0.70750255288E-01  0.88706843433E+00  0.88000000000E+00 0.  1.
        -11    1    4    4    0    0 -0.58963468540E-01 -0.15573990545E-01 -0.49563151406E-01  0.78587574731E-01  0.51100000000E-03 0.  1.
         11    1    4    4    0    0 -0.45685609702E-01  0.48596847644E-02 -0.29332395806E-01  0.54510935000E-01  0.51100000000E-03 0. -1.
</event>
<event>
 8    1  0.1044719E+005  0.1043930E+01  0.7957747E-01            NaN
         13   -1    0    0    0    0  0.00000000000E+00  0.00000000000E+00  0.74505805969E-08  0.10566000000E+00  0.10566000000E+00 0.  1.
     999900   -1    0    0    0    0 -0.00000000000E+00 -0.00000000000E+00 -0.74505805969E-08  0.93827000000E+00  0.93827000000E+00 0. -1.
     999902    2    1    2    0    0 -0.18628476402E-01 -0.17882021280E-01  0.19843444086E-02  0.10180316518E+01  0.10177021763E+01 0.  0.
     999903    2    3    3    0    0  0.85753471915E-01  0.18292855893E-01 -0.89043644357E-01  0.12646544133E+00  0.19402338186E-01 0.  0.
         14    1    1    2    0    0  0.18628476402E-01  0.17882021280E-01 -0.19843444086E-02  0.25898348227E-01  0.00000000000E+00 0. -1.
     999901    1    3    3    0    0 -0.10438194832E+00 -0.36174877173E-01  0.91027988766E-01  0.89156621045E+00  0.88000000000E+00 0.  1.
        -11    1    4    4    0    0  0.44154280231E-01  0.45406717247E-03 -0.49776232465E-01  0.66541273501E-01  0.51100000000E-03 0. -1.
         11    1    4    4    0    0  0.41599191684E-01  0.17838788720E-01 -0.39267411892E-01  0.59924167825E-01  0.51100000000E-03 0.  1.
</event>
<event>
 8    1  0.1044719E+005  0.1043930E+01  0.7957747E-01            NaN
         13   -1    0    0    0    0  0.00000000000E+00  0.00000000000E+00  0.74505805969E-08  0.10566000000E+00  0.10566000000E+00 0.  1.
     999900   -1    0    0    0    0 -0.00000000000E+00 -0.00000000000E+00 -0.74505805969E-08  0.93827000000E+00  0.93827000000E+00 0. -1.
     999902    2    1    2    0    0  0.10701008078E-01  0.17695370960E-01  0.10738845202E-01  0.10206284867E+01  0.10203624588E+01 0.  0.
     999903    2    3    3    0    0 -0.71577184202E-01 -0.10462872891E+00 -0.10323640999E-02  0.12828805404E+00  0.19654384290E-01 0.  0.
         14    1    1    2    0    0 -0.10701008078E-01 -0.17695370960E-01 -0.10738845202E-01  0.23301513332E-01  0.00000000000E+00 0. -1.
     999901    1    3    3    0    0  0.82278192281E-01  0.12232409987E+00  0.11771209302E-01  0.89234043263E+00  0.88000000000E+00 0.  1.
        -11    1    4    4    0    0 -0.34650233578E-01 -0.45867009203E-01  0.89221486518E-02  0.58174625721E-01  0.51100000000E-03 0.  1.
         11    1    4    4    0    0 -0.36926950624E-01 -0.58761719708E-01 -0.99545127518E-02  0.70113428319E-01  0.51100000000E-03 0. -1.
</event>
<event>
 8    1  0.1044719E+005  0.1043930E+01  0.7957747E-01            NaN
         13   -1    0    0    0    0  0.00000000000E+00  0.00000000000E+00  0.74505805969E-08  0.10566000000E+00  0.10566000000E+00 0.  1.
     999900   -1    0    0    0    0 -0.00000000000E+00 -0.00000000000E+00 -0.74505805969E-08  0.93827000000E+00  0.93827000000E+00 0. -1.
     999902    2    1    2    0    0  0.15419507838E-01  0.23126534512E-02  0.17461580436E-01  0.10205202503E+01  0.10202517165E+01 0.  0.
     999903    2    3    3    0    0 -0.64632492277E-01 -0.42691227890E-01  0.10547125586E+00  0.13137494442E+00  0.11631432148E-01 0.  0.
         14    1    1    2    0    0 -0.15419507838E-01 -0.23126534512E-02 -0.17461580436E-01  0.23409749663E-01  0.00000000000E+00 0. -1.
     999901    1    3    3    0    0  0.80052000115E-01  0.45003881341E-01 -0.88009675421E-01  0.88914530591E+00  0.88000000000E+00 0. -1.
        -11    1    4    4    0    0 -0.10083920020E-01 -0.25577382313E-02  0.11144398716E-01  0.15254055578E-01  0.51100000000E-03 0.  1.
         11    1    4    4    0    0 -0.54548572257E-01 -0.40133489658E-01  0.94326857141E-01  0.11612088885E+00  0.51100000000E-03 0. -1.
</event>
<event>
 8    1  0.1044719E+005  0.1043930E+01  0.7957747E-01            NaN
         13   -1    0    0    0    0  0.00000000000E+00  0.00000000000E+00  0.74505805969E-08  0.10566000000E+00  0.10566000000E+00 0.  1.
     999900   -1    0    0    0    0 -0.00000000000E+00 -0.00000000000E+00 -0.74505805969E-08  0.93827000000E+00  0.93827000000E+00 0. -1.
     999902    2    1    2    0    0  0.14148659770E-01  0.18308500936E-01 -0.28018370450E-02  0.10206225748E+01  0.10203564103E+01 0.  0.
     999903    2    3    3    0    0 -0.11395666184E+00  0.58816405829E-01  0.13182551953E-01  0.13028142416E+00  0.18814341155E-01 0.  0.
         14    1    1    2    0    0 -0.14148659770E-01 -0.18308500936E-01  0.28018370450E-02  0.23307425225E-01  0.00000000000E+00 0.  1.
     999901    1    3    3    0    0  0.12810532161E+00 -0.40507904893E-01 -0.15984388998E-01  0.89034115061E+00  0.88000000000E+00 0. -1.
        -11    1    4    4    0    0 -0.24770210018E-01  0.11410259677E-01  0.10541504485E-01  0.29242807116E-01  0.51100000000E-03 0.  1.
         11    1    4    4    0    0 -0.89186451823E-01  0.47406146152E-01  0.26410474681E-02  0.10103861705E+00  0.51100000000E-03 0. -1.
</event>
<event>
 8    1  0.1044719E+005  0.1043930E+01  0.7957747E-01            NaN
         13   -1    0    0    0    0  0.00000000000E+00  0.00000000000E+00  0.74505805969E-08  0.10566000000E+00  0.10566000000E+00 0.  1.
     999900   -1    0    0    0    0 -0.00000000000E+00 -0.00000000000E+00 -0.74505805969E-08  0.93827000000E+00  0.93827000000E+00 0. -1.
     999902    2    1    2    0    0  0.13177988382E-02 -0.17212620035E-01  0.13151121696E-01  0.10222283207E+01  0.10219979338E+01 0.  0.
     999903    2    3    3    0    0 -0.90120958804E-01 -0.91424293739E-01 -0.30867417417E-01  0.13329297396E+00  0.18276508074E-01 0.  0.
         14    1    1    2    0    0 -0.13177988382E-02  0.17212620035E-01 -0.13151121696E-01  0.21701679292E-01  0.00000000000E+00 0. -1.
     999901    1    3    3    0    0  0.91438757643E-01  0.74211673704E-01  0.44018539113E-01  0.88893534675E+00  0.88000000000E+00 0.  1.
        -11    1    4    4    0    0 -0.23673925317E-01 -0.15952371272E-01 -0.12056404703E-01  0.30992755677E-01  0.51100000000E-03 0.  1.
         11    1    4    4    0    0 -0.66447033487E-01 -0.75471922468E-01 -0.18811012714E-01  0.10230021828E+00  0.51100000000E-03 0. -1.
</event>
<event>
 8    1  0.1044719E+005  0.1043930E+01  0.7957747E-01            NaN
         13   -1    0    0    0    0  0.00000000000E+00  0.00000000000E+00  0.74505805969E-08  0.10566000000E+00  0.10566000000E+00 0. -1.
     999900   -1    0    0    0    0 -0.00000000000E+00 -0.00000000000E+00 -0.74505805969E-08  0.93827000000E+00  0.93827000000E+00 0.  1.
     999902    2    1    2    0    0 -0.18837307576E-01  0.14461124081E-01  0.64931441804E-02  0.10193103089E+01  0.10190129424E+01 0.  0.
     999903    2    3    3    0    0 -0.38252518961E-02 -0.22409669601E-01 -0.12413870971E+00  0.12877704258E+00  0.25617993770E-01 0.  0.
         14    1    1    2    0    0  0.18837307576E-01 -0.14461124081E-01 -0.64931441804E-02  0.24619691057E-01  0.00000000000E+00 0. -1.
     999901    1    3    3    0    0 -0.15012055680E-01  0.36870793682E-01  0.13063185389E+00  0.89053326636E+00  0.88000000000E+00 0. -1.
        -11    1    4    4    0    0  0.36996212809E-02 -0.22233741197E-01 -0.58298587906E-01  0.62506103047E-01  0.51100000000E-03 0. -1.
         11    1    4    4    0    0 -0.75248731770E-02 -0.17592840385E-03 -0.65840121802E-01  0.66270939536E-01  0.51100000000E-03 0.  1.
</event>
<event>
 8    1  0.1044719E+005  0.1043930E+01  0.7957747E-01            NaN
         13   -1    0    0    0    0  0.00000000000E+00  0.00000000000E+00  0.74505805969E-08  0.10566000000E+00  0.10566000000E+00 0. -1.
     999900   -1    0    0    0    0 -0.00000000000E+00 -0.00000000000E+00 -0.74505805969E-08  0.93827000000E+00  0.93827000000E+00 0.  1.
     999902    2    1    2    0    0  0.17718789857E-01  0.14825033827E-01 -0.11192327852E-01  0.10182589006E+01  0.10179352550E+01 0.  0.
     999903    2    3    3    0    0 -0.38168379146E-01 -0.23694539281E-01 -0.11936091332E+00  0.12904150532E+00  0.19657723891E-01 0.  0.
         14    1    1    2    0    0 -0.17718789857E-01 -0.14825033827E-01  0.11192327852E-01  0.25671099406E-01  0.00000000000E+00 0.  1.
     999901    1    3    3    0    0  0.55887169003E-01  0.38519573108E-01  0.10816858547E+00  0.88921739527E+00  0.88000000000E+00 0. -1.
        -11    1    4    4    0    0 -0.35362300276E-01 -0.20058293321E-01 -0.83377946561E-01  0.92762980253E-01  0.51100000000E-03 0. -1.
         11    1    4    4    0    0 -0.28060788701E-02 -0.36362459598E-02 -0.35982966760E-01  0.36278525069E-01  0.51100000000E-03 0.  1.
</event>
<event>
 8    1  0.1044719E+005  0.1043930E+01  0.7957747E-01            NaN
         13   -1    0    0    0    0  0.00000000000E+00  0.00000000000E+00  0.74505805969E-08  0.10566000000E+00  0.10566000000E+00 0.  1.
     999900   -1    0    0    0    0 -0.00000000000E+00 -0.00000000000E+00 -0.74505805969E-08  0.93827000000E+00  0.93827000000E+00 0. -1.
     999902    2    1    2    0    0  0.69276744424E-03  0.44896453297E-02 -0.22495585998E-01  0.10209803109E+01  0.10207223457E+01 0.  0.
     999903    2    3    3    0    0 -0.95920090725E-01 -0.75715034011E-02  0.83734157712E-01  0.12926047027E+00  0.20949189415E-01 0.  0.
         14    1    1    2    0    0 -0.69276744424E-03 -0.44896453297E-02  0.22495585998E-01  0.22949689133E-01  0.00000000000E+00 0.  1.
     999901    1    3    3    0    0  0.96612858170E-01  0.12061148731E-01 -0.10622974371E+00  0.89171984060E+00  0.88000000000E+00 0. -1.
        -11    1    4    4    0    0 -0.61821502797E-01 -0.46139575007E-02  0.66572402804E-01  0.90968855923E-01  0.51100000000E-03 0. -1.
         11    1    4    4    0    0 -0.34098587928E-01 -0.29575459004E-02  0.17161754909E-01  0.38291614343E-01  0.51100000000E-03 0.  1.
</event>
<event>
 8    1  0.1044719E+005  0.1043930E+01  0.7957747E-01            NaN
         13   -1    0    0    0    0  0.00000000000E+00  0.00000000000E+00  0.74505805969E-08  0.10566000000E+00  0.10566000000E+00 0.  1.
     999900   -1    0    0    0    0 -0.00000000000E+00 -0.00000000000E+00 -0.74505805969E-08  0.93827000000E+00  0.93827000000E+00 0.  1.
     999902    2    1    2    0    0  0.66481599685E-02 -0.18694422614E-01  0.17678624362E-01  0.10173553273E+01  0.10170081852E+01 0.  0.
     999903    2    3    3    0    0 -0.75042600366E-01 -0.87190936019E-01  0.58016392802E-01  0.13000405065E+00  0.17363759913E-01 0.  0.
         14    1    1    2    0    0 -0.66481599685E-02  0.18694422614E-01 -0.17678624362E-01  0.26574672663E-01  0.00000000000E+00 0. -1.
     999901    1    3    3    0    0  0.81690760335E-01  0.68496513405E-01 -0.40337768440E-01  0.88735127669E+00  0.88000000000E+00 0.  1.
        -11    1    4    4    0    0 -0.26380732623E-01 -0.35416318594E-01  0.13610949248E-01  0.46214475404E-01  0.51100000000E-03 0. -1.
         11    1    4    4    0    0 -0.48661867743E-01 -0.51774617426E-01  0.44405443554E-01  0.83789575247E-01  0.51100000000E-03 0.  1.
</event>
<event>
 8    1  0.1044719E+005  0.1043930E+01  0.7957747E-01            NaN
         13   -1    0    0    0    0  0.00000000000E+00  0.00000000000E+00  0.74505805969E-08  0.10566000000E+00  0.10566000000E+00 0.  1.
     999900   -1    0    0    0    0 -0.00000000000E+00 -0.00000000000E+00 -0.74505805969E-08  0.93827000000E+00  0.93827000000E+00 0.  1.
     999902    2    1    2    0    0  0.10469505544E-01  0.21411356655E-01  0.15707955912E-02  0.10200443529E+01  0.10197646580E+01 0.  0.
     999903    2    3    3    0    0  0.13180174733E-01  0.11133872688E+00 -0.67644390718E-01  0.13275352024E+00  0.21856450592E-01 0.  0.
         14    1    1    2    0    0 -0.10469505544E-01 -0.21411356655E-01 -0.15707955912E-02  0.23885647132E-01  0.00000000000E+00 0. -1.
     999901    1    3    3    0    0 -0.27106691888E-02 -0.89927370223E-01  0.69215186309E-01  0.88729083262E+00  0.88000000000E+00 0. -1.
        -11    1    4    4    0    0 -0.56900229637E-02  0.31198007112E-01 -0.22159170539E-01  0.38690851232E-01  0.51100000000E-03 0.  1.
         11    1    4    4    0    0  0.18870197696E-01  0.80140719767E-01 -0.45485220179E-01  0.94062669011E-01  0.51100000000E-03 0. -1.
</event>
<event>
 8    1  0.1044719E+005  0.1043930E+01  0.7957747E-01            NaN
         13   -1    0    0    0    0  0.00000000000E+00  0.00000000000E+00  0.74505805969E-08  0.10566000000E+00  0.10566000000E+00 0. -1.
     999900   -1    0    0    0    0 -0.00000000000E+00 -0.00000000000E+00 -0.74505805969E-08  0.93827000000E+00  0.93827000000E+00 0. -1.
     999902    2    1    2    0    0 -0.20550961413E-01 -0.58619274430E-02  0.10530174453E-01  0.10201058781E+01  0.10198276393E+01 0.  0.
     999903    2    3    3    0    0  0.89235308826E-01 -0.61256149705E-02  0.92410326274E-01  0.12951200104E+00  0.15271755363E-01 0.  0.
         14    1    1    2    0    0  0.20550961413E-01  0.58619274430E-02 -0.10530174453E-01  0.23824121859E-01  0.00000000000E+00 0.  1.
     999901    1    3    3    0    0 -0.10978627024E+00  0.26368752746E-03 -0.81880151821E-01  0.89059387710E+00  0.88000000000E+00 0.  1.
        -11    1    4    4    0    0  0.59980195214E-01 -0.27453037087E-02  0.71614960068E-01  0.93456536084E-01  0.51100000000E-03 0.  1.
         11    1    4    4    0    0  0.29255113612E-01 -0.33803112618E-02  0.20795366206E-01  0.36055464958E-01  0.51100000000E-03 0. -1.
</event>
<event>
 8    1  0.1044719E+005  0.1043930E+01  0.7957747E-01            NaN
         13   -1    0    0    0    0  0.00000000000E+00  0.00000000000E+00  0.74505805969E-08  0.10566000000E+00  0.10566000000E+00 0.  1.
     999900   -1    0    0    0    0 -0.00000000000E+00 -0.00000000000E+00 -0.74505805969E-08  0.93827000000E+00  0.93827000000E+00 0.  1.
     999902    2    1    2    0    0 -0.19884314429E-01  0.11413730585E-01  0.62356721122E-02  0.10201698903E+01  0.10198931622E+01 0.  0.
     999903    2    3    3    0    0  0.10347644941E+00 -0.56486321212E-01  0.45562103881E-01  0.12810774935E+00  0.20919131565E-01 0.  0.
         14    1    1    2    0    0  0.19884314429E-01 -0.11413730585E-01 -0.62356721122E-02  0.23760109698E-01  0.00000000000E+00 0. -1.
     999901    1    3    3    0    0 -0.12336076384E+00  0.67900051797E-01 -0.39326431769E-01  0.89206214096E+00  0.88000000000E+00 0.  1.
        -11    1    4    4    0    0  0.65406802988E-01 -0.24210141757E-01  0.28760125432E-01  0.75442605846E-01  0.51100000000E-03 0. -1.
         11    1    4    4    0    0  0.38069646425E-01 -0.32276179455E-01  0.16801978449E-01  0.52665143500E-01  0.51100000000E-03 0.  1.
</event>
<event>
 8    1  0.1044719E+005  0.1043930E+01  0.7957747E-01            NaN
         13   -1    0    0    0    0  0.00000000000E+00  0.00000000000E+00  0.74505805969E-08  0.10566000000E+00  0.10566000000E+00 0. -1.
     999900   -1    0    0    0    0 -0.00000000000E+00 -0.00000000000E+00 -0.74505805969E-08  0.93827000000E+00  0.93827000000E+00 0. -1.
     999902    2    1    2    0    0  0.16443021456E-01  0.11304319081E-01 -0.10772815968E-01  0.10212537096E+01  0.10210019222E+01 0.  0.
     999903    2    3    3    0    0  0.85312445939E-01  0.17673272940E-01 -0.99917883392E-01  0.13405001014E+00  0.19881242153E-01 0.  0.
         14    1    1    2    0    0 -0.16443021456E-01 -0.11304319081E-01  0.10772815968E-01  0.22676290446E-01  0.00000000000E+00 0. -1.
     999901    1    3    3    0    0 -0.68869424483E-01 -0.63689538595E-02  0.89145067424E-01  0.88720369941E+00  0.88000000000E+00 0.  1.
        -11    1    4    4    0    0  0.51440447550E-01  0.19829951127E-01 -0.66974801059E-01  0.86748093372E-01  0.51100000000E-03 0. -1.
         11    1    4    4    0    0  0.33871998389E-01 -0.21566781868E-02 -0.32943082333E-01  0.47301916772E-01  0.51100000000E-03 0.  1.
</event>
<event>
 8    1  0.1044719E+005  0.1043930E+01  0.7957747E-01            NaN
         13   -1    0    0    0    0  0.00000000000E+00  0.00000000000E+00  0.74505805969E-08  0.10566000000E+00  0.10566000000E+00 0.  1.
     999900   -1    0    0    0    0 -0.00000000000E+00 -0.00000000000E+00 -0.74505805969E-08  0.93827000000E+00  0.93827000000E+00 0. -1.
     999902    2    1    2    0    0 -0.20137004894E-01 -0.11348309297E-01 -0.29870276808E-02  0.10206232322E+01  0.10203570829E+01 0.  0.
     999903    2    3    3    0    0  0.53359382182E-01 -0.77279452418E-01 -0.88936841629E-01  0.13094013973E+00  0.20401494073E-01 0.  0.
         14    1    1    2    0    0  0.20137004894E-01  0.11348309297E-01  0.29870276808E-02  0.23306767781E-01  0.00000000000E+00 0. -1.
     999901    1    3    3    0    0 -0.73496387076E-01  0.65931143121E-01  0.85949813948E-01  0.88968309249E+00  0.88000000000E+00 0.  1.
        -11    1    4    4    0    0  0.10955483175E-02 -0.11554254804E-01 -0.15602338329E-01  0.19452380639E-01  0.51100000000E-03 0. -1.
         11    1    4    4    0    0  0.52263833864E-01 -0.65725197613E-01 -0.73334503300E-01  0.11148775909E+00  0.51100000000E-03 0.  1.
</event>
<event>
 8    1  0.1044719E+005  0.1043930E+01  0.7957747E-01            NaN
         13   -1    0    0    0    0  0.00000000000E+00  0.00000000000E+00  0.74505805969E-08  0.10566000000E+00  0.10566000000E+00 0.  1.
     999900   -1    0    0    0    0 -0.00000000000E+00 -0.00000000000E+00 -0.74505805969E-08  0.93827000000E+00  0.93827000000E+00 0.  1.
     999902    2    1    2    0    0 -0.23006329316E-01 -0.58690383127E-02  0.13492563489E-02  0.10201485515E+01  0.10198713202E+01 0.  0.
     999903    2    3    3    0    0  0.21600086486E-01  0.88422947898E-01 -0.89700594954E-01  0.12932265022E+00  0.19823462715E-01 0.  0.
         14    1    1    2    0    0  0.23006329316E-01  0.58690383127E-02 -0.13492563489E-02  0.23781448484E-01  0.00000000000E+00 0. -1.
     999901    1    3    3    0    0 -0.44606415802E-01 -0.94291986210E-01  0.91049851303E-01  0.89082590129E+00  0.88000000000E+00 0.  1.
        -11    1    4    4    0    0 -0.19375727944E-02  0.10068612816E-01 -0.17075034072E-01  0.19923580550E-01  0.51100000000E-03 0.  1.
         11    1    4    4    0    0  0.23537659281E-01  0.78354335082E-01 -0.72625560882E-01  0.10939906967E+00  0.51100000000E-03 0. -1.
</event>
<event>
 8    1  0.1044719E+005  0.1043930E+01  0.7957747E-01            NaN
         13   -1    0    0    0    0  0.00000000000E+00  0.00000000000E+00  0.74505805969E-08  0.10566000000E+00  0.10566000000E+00 0. -1.
     999900   -1    0    0    0    0 -0.00000000000E+00 -0.00000000000E+00 -0.74505805969E-08  0.93827000000E+00  0.93827000000E+00 0.  1.
     999902    2    1    2    0    0  0.54373758608E-02  0.55513976676E-02 -0.26533857933E-01  0.10162816965E+01  0.10159055359E+01 0.  0.
     999903    2    3    3    0    0 -0.66618696368E-01  0.44392639976E-01  0.93056530038E-01  0.12442824406E+00  0.20349765288E-01 0.  0.
         14    1    1    2    0    0 -0.54373758608E-02 -0.55513976676E-02  0.26533857933E-01  0.27648303548E-01  0.00000000000E+00 0. -1.
     999901    1    3    3    0    0  0.72056072229E-01 -0.38841242308E-01 -0.11959038797E+00  0.89185345239E+00  0.88000000000E+00 0.  1.
        -11    1    4    4    0    0 -0.66207824158E-01  0.46092897487E-01  0.89957404099E-01  0.12083305364E+00  0.51100000000E-03 0.  1.
         11    1    4    4    0    0 -0.41087221023E-03 -0.17002575111E-02  0.30991259388E-02  0.35951904208E-02  0.51100000000E-03 0. -1.
</event>
<event>
 8    1  0.1044719E+005  0.1043930E+01  0.7957747E-01            NaN
         13   -1    0    0    0    0  0.00000000000E+00  0.00000000000E+00  0.74505805969E-08  0.10566000000E+00  0.10566000000E+00 0. -1.
     999900   -1    0    0    0    0 -0.00000000000E+00 -0.00000000000E+00 -0.74505805969E-08  0.93827000000E+00  0.93827000000E+00 0. -1.
     999902    2    1    2    0    0 -0.36755522428E-02 -0.11645908570E-02  0.23406118050E-01  0.10202084419E+01  0.10199326216E+01 0.  0.
     999903    2    3    3    0    0 -0.51797962857E-01  0.18440710347E-01  0.12009833875E+00  0.13338855051E+00  0.18595851228E-01 0.  0.
         14    1    1    2    0    0  0.36755522428E-02  0.11645908570E-02 -0.23406118050E-01  0.23721558093E-01  0.00000000000E+00 0.  1.
     999901    1    3    3    0    0  0.48122410614E-01 -0.19605301205E-01 -0.96692220695E-01  0.88681989140E+00  0.88000000000E+00 0. -1.
        -11    1    4    4    0    0 -0.32467972018E-01  0.20541477892E-01  0.74830471489E-01  0.84118857014E-01  0.51100000000E-03 0. -1.
         11    1    4    4    0    0 -0.19329990838E-01 -0.21007675442E-02  0.45267867256E-01  0.49269693494E-01  0.51100000000E-03 0.  1.
</event>
<event>
 8    1  0.1044719E+005  0.1043930E+01  0.7957747E-01            NaN
         13   -1    0    0    0    0  0.00000000000E+00  0.00000000000E+00  0.74505805969E-08  0.10566000000E+00  0.10566000000E+00 0. -1.
     999900   -1    0    0    0    0 -0.00000000000E+00 -0.00000000000E+00 -0.74505805969E-08  0.93827000000E+00  0.93827000000E+00 0.  1.
     999902    2    1    2    0    0  0.16522740967E-01  0.80688400186E-02 -0.34802708212E-02  0.10252158494E+01  0.10250450324E+01 0.  0.
     999903    2    3    3    0    0 -0.20679303831E-01  0.13105057126E+00 -0.20782994073E-01  0.13571718014E+00  0.19629933998E-01 0.  0.
         14    1    1    2    0    0 -0.16522740967E-01 -0.80688400186E-02  0.34802708212E-02  0.18714150617E-01  0.00000000000E+00 0.  1.
     999901    1    3    3    0    0  0.37202044798E-01 -0.12298173124E+00  0.17302723252E-01  0.88949866924E+00  0.88000000000E+00 0. -1.
        -11    1    4    4    0    0 -0.16724635229E-01  0.47265124996E-01 -0.52856933628E-02  0.50417309922E-01  0.51100000000E-03 0.  1.
         11    1    4    4    0    0 -0.39546686016E-02  0.83785446260E-01 -0.15497300710E-01  0.85299870217E-01  0.51100000000E-03 0. -1.
</event>
<event>
 8    1  0.1044719E+005  0.1043930E+01  0.7957747E-01            NaN
         13   -1    0    0    0    0  0.00000000000E+00  0.00000000000E+00  0.74505805969E-08  0.10566000000E+00  0.10566000000E+00 0.  1.
     999900   -1    0    0    0    0 -0.00000000000E+00 -0.00000000000E+00 -0.74505805969E-08  0.93827000000E+00  0.93827000000E+00 0.  1.
     999902    2    1    2    0    0 -0.19887642902E-01 -0.44795617238E-02  0.14356028499E-01  0.10189964810E+01  0.10186913900E+01 0.  0.
     999903    2    3    3    0    0  0.45100456028E-01 -0.71789141620E-01  0.96827240374E-01  0.13020205411E+00  0.19731407160E-01 0.  0.
         14    1    1    2    0    0  0.19887642902E-01  0.44795617238E-02 -0.14356028499E-01  0.24933518959E-01  0.00000000000E+00 0. -1.
     999901    1    3    3    0    0 -0.64988098930E-01  0.67309579897E-01 -0.82471211875E-01  0.88879442693E+00  0.88000000000E+00 0.  1.
        -11    1    4    4    0    0  0.39788776585E-01 -0.56198769275E-01  0.87224976820E-01  0.11113013143E+00  0.51100000000E-03 0. -1.
         11    1    4    4    0    0  0.53116794431E-02 -0.15590372346E-01  0.96022635542E-02  0.19071922681E-01  0.51100000000E-03 0.  1.
</event>
<event>
 8    1  0.1044719E+005  0.1043930E+01  0.7957747E-01            NaN
         13   -1    0    0    0    0  0.00000000000E+00  0.00000000000E+00  0.74505805969E-08  0.10566000000E+00  0.10566000000E+00 0. -1.
     999900   -1    0    0    0    0 -0.00000000000E+00 -0.00000000000E+00 -0.74505805969E-08  0.93827000000E+00  0.93827000000E+00 0. -1.
     999902    2    1    2    0    0 -0.18417728938E-01 -0.21313015200E-01 -0.11897647388E-01  0.10133520444E+01  0.10128905935E+01 0.  0.
     999903    2    3    3    0    0 -0.76224943848E-01 -0.68215478478E-02  0.92749772478E-01  0.12515006330E+00  0.34687785595E-01 0.  0.
         14    1    1    2    0    0  0.18417728938E-01  0.21313015200E-01  0.11897647388E-01  0.30577955614E-01  0.00000000000E+00 0. -1.
     999901    1    3    3    0    0  0.57807214910E-01 -0.14491467352E-01 -0.10464741987E+00  0.88820198109E+00  0.88000000000E+00 0. -1.
        -11    1    4    4    0    0 -0.55219337587E-01  0.11406308161E-02  0.85023462559E-01  0.10138898653E+00  0.51100000000E-03 0. -1.
         11    1    4    4    0    0 -0.21005606261E-01 -0.79621786639E-02  0.77263099188E-02  0.23761076774E-01  0.51100000000E-03 0.  1.
</event>
<event>
 8    1  0.1044719E+005  0.1043930E+01  0.7957747E-01            NaN
         13   -1    0    0    0    0  0.00000000000E+00  0.00000000000E+00  0.74505805969E-08  0.10566000000E+00  0.10566000000E+00 0. -1.
     999900   -1    0    0    0    0 -0.00000000000E+00 -0.00000000000E+00 -0.74505805969E-08  0.93827000000E+00  0.93827000000E+00 0. -1.
     999902    2    1    2    0    0 -0.25515442778E-02 -0.20805015631E-01  0.11334771780E-01  0.10201006881E+01  0.10198223266E+01 0.  0.
     999903    2    3    3    0    0  0.86976446974E-01  0.78997389505E-01 -0.46940135108E-01  0.12804029438E+00  0.19632901602E-01 0.  0.
         14    1    1    2    0    0  0.25515442778E-02  0.20805015631E-01 -0.11334771780E-01  0.23829311885E-01  0.00000000000E+00 0.  1.
     999901    1    3    3    0    0 -0.89527991252E-01 -0.99802405137E-01  0.58274906888E-01  0.89206039373E+00  0.88000000000E+00 0.  1.
        -11    1    4    4    0    0  0.58395087277E-01  0.52426930414E-01 -0.41065434741E-01  0.88573135330E-01  0.51100000000E-03 0. -1.
         11    1    4    4    0    0  0.28581359697E-01  0.26570459092E-01 -0.58747003670E-02  0.39467159055E-01  0.51100000000E-03 0.  1.
</event>
<event>
 8    1  0.1044719E+005  0.1043930E+01  0.7957747E-01            NaN
         13   -1    0    0    0    0  0.00000000000E+00  0.00000000000E+00  0.74505805969E-08  0.10566000000E+00  0.10566000000E+00 0.  1.
     999900   -1    0    0    0    0 -0.00000000000E+00 -0.00000000000E+00 -0.74505805969E-08  0.93827000000E+00  0.93827000000E+00 0. -1.
     999902    2    1    2    0    0  0.95660421344E-03  0.23392962136E-01 -0.15092046978E-02  0.10204688946E+01  0.10201991675E+01 0.  0.
     999903    2    3    3    0    0 -0.70344272076E-01  0.11115699148E+00  0.94862783361E-02  0.13316554145E+00  0.18408655181E-01 0.  0.
         14    1    1    2    0    0 -0.95660421344E-03 -0.23392962136E-01  0.15092046978E-02  0.23461105429E-01  0.00000000000E+00 0.  1.
     999901    1    3    3    0    0  0.71300876289E-01 -0.87764029343E-01 -0.10995483034E-01  0.88730335312E+00  0.88000000000E+00 0. -1.
        -11    1    4    4    0    0 -0.40396014532E-01  0.53614623726E-01 -0.25828970737E-02  0.67181086219E-01  0.51100000000E-03 0. -1.
         11    1    4    4    0    0 -0.29948257544E-01  0.57542367753E-01  0.12069175410E-01  0.65984455235E-01  0.51100000000E-03 0.  1.
</event>
<event>
 8    1  0.1044719E+005  0.1043930E+01  0.7957747E-01            NaN
         13   -1    0    0    0    0  0.00000000000E+00  0.00000000000E+00  0.74505805969E-08  0.10566000000E+00  0.10566000000E+00 0.  1.
     999900   -1    0    0    0    0 -0.00000000000E+00 -0.00000000000E+00 -0.74505805969E-08  0.93827000000E+00  0.93827000000E+00 0.  1.
     999902    2    1    2    0    0  0.20947193131E-02 -0.23238390080E-01  0.19112347581E-02  0.10205192452E+01  0.10202506880E+01 0.  0.
     999903    2    3    3    0    0 -0.23519779636E-01 -0.63507640719E-01 -0.11148699229E+00  0.13196037094E+00  0.19944663082E-01 0.  0.
         14    1    1    2    0    0 -0.20947193131E-02  0.23238390080E-01 -0.19112347581E-02  0.23410754811E-01  0.00000000000E+00 0.  1.
     999901    1    3    3    0    0  0.25614498949E-01  0.40269250639E-01  0.11339822705E+00  0.88855887425E+00  0.88000000000E+00 0. -1.
        -11    1    4    4    0    0 -0.17426884685E-01 -0.59043592615E-01 -0.88877682894E-01  0.10811727788E+00  0.51100000000E-03 0. -1.
         11    1    4    4    0    0 -0.60928949509E-02 -0.44640481037E-02 -0.22609309398E-01  0.23843093063E-01  0.51100000000E-03 0.  1.
</event>
<event>
 8    1  0.1044719E+005  0.1043930E+01  0.7957747E-01            NaN
         13   -1    0    0    0    0  0.00000000000E+00  0.00000000000E+00  0.74505805969E-08  0.10566000000E+00  0.10566000000E+00 0.  1.
     999900   -1    0    0    0    0 -0.00000000000E+00 -0.00000000000E+00 -0.74505805969E-08  0.93827000000E+00  0.93827000000E+00 0. -1.
     999902    2    1    2    0    0  0.47040189953E-02  0.21775127741E-01 -0.43241493999E-02  0.10212367796E+01  0.10209846119E+01 0.  0.
     999903    2    3    3    0    0 -0.48299157424E-01  0.31671007930E-01 -0.11744207298E+00  0.13235943725E+00  0.19761547809E-01 0.  0.
         14    1    1    2    0    0 -0.47040189953E-02 -0.21775127741E-01  0.43241493999E-02  0.22693220372E-01  0.00000000000E+00 0.  1.
     999901    1    3    3    0    0  0.53003176419E-01 -0.98958801888E-02  0.11311792358E+00  0.88887734238E+00  0.88000000000E+00 0.  1.
        -11    1    4    4    0    0 -0.38523777863E-01  0.14305836433E-01 -0.80333172147E-01  0.90235348313E-01  0.51100000000E-03 0.  1.
         11    1    4    4    0    0 -0.97753795607E-02  0.17365171497E-01 -0.37108900835E-01  0.42124088938E-01  0.51100000000E-03 0. -1.
</event>
<event>
 8    1  0.1044719E+005  0.1043930E+01  0.7957747E-01            NaN
         13   -1    0    0    0    0  0.00000000000E+00  0.00000000000E+00  0.74505805969E-08  0.10566000000E+00  0.10566000000E+00 0.  1.
     999900   -1    0    0    0    0 -0.00000000000E+00 -0.00000000000E+00 -0.74505805969E-08  0.93827000000E+00  0.93827000000E+00 0. -1.
     999902    2    1    2    0    0  0.87561825304E-03  0.20262460350E-01 -0.13632595997E-01  0.10194926990E+01  0.10191997751E+01 0.  0.
     999903    2    3    3    0    0 -0.27963925333E-01  0.11668539663E+00 -0.55690001106E-01  0.13275828146E+00  0.11221504708E-01 0.  0.
         14    1    1    2    0    0 -0.87561825304E-03 -0.20262460350E-01  0.13632595997E-01  0.24437301004E-01  0.00000000000E+00 0.  1.
     999901    1    3    3    0    0  0.28839543586E-01 -0.96422936275E-01  0.42057405109E-01  0.88673441753E+00  0.88000000000E+00 0.  1.
        -11    1    4    4    0    0 -0.42328737376E-02  0.10403430583E-01 -0.83934846682E-02  0.14030691139E-01  0.51100000000E-03 0.  1.
         11    1    4    4    0    0 -0.23731051595E-01  0.10628196604E+00 -0.47296516438E-01  0.11872759032E+00  0.51100000000E-03 0. -1.
</event>
<event>
 8    1  0.1044719E+005  0.1043930E+01  0.7957747E-01            NaN
         13   -1    0    0    0    0  0.00000000000E+00  0.00000000000E+00  0.74505805969E-08  0.10566000000E+00  0.10566000000E+00 0.  1.
     999900   -1    0    0    0    0 -0.00000000000E+00 -0.00000000000E+00 -0.74505805969E-08  0.93827000000E+00  0.93827000000E+00 0. -1.
     999902    2    1    2    0    0  0.10394618593E-01  0.14479637988E-02 -0.21393875798E-01  0.10201005515E+01  0.10198221867E+01 0.  0.
     999903    2    3    3    0    0 -0.84374562386E-01  0.55531752400E-01 -0.81373136811E-01  0.13133524748E+00  0.20603823273E-01 0.  0.
         14    1    1    2    0    0 -0.10394618593E-01 -0.14479637988E-02  0.21393875798E-01  0.23829448514E-01  0.00000000000E+00 0.  1.
     999901    1    3    3    0    0  0.94769180979E-01 -0.54083788601E-01  0.59979261014E-01  0.88876530401E+00  0.88000000000E+00 0.  1.
        -11    1    4    4    0    0 -0.60507993109E-01  0.47760911448E-01 -0.53564523138E-01  0.93870874889E-01  0.51100000000E-03 0.  1.
         11    1    4    4    0    0 -0.23866569278E-01  0.77708409524E-02 -0.27808613673E-01  0.37464372591E-01  0.51100000000E-03 0. -1.
</event>
<event>
 8    1  0.1044719E+005  0.1043930E+01  0.7957747E-01            NaN
         13   -1    0    0    0    0  0.00000000000E+00  0.00000000000E+00  0.74505805969E-08  0.10566000000E+00  0.10566000000E+00 0.  1.
     999900   -1    0    0    0    0 -0.00000000000E+00 -0.00000000000E+00 -0.74505805969E-08  0.93827000000E+00  0.93827000000E+00 0.  1.
     999902    2    1    2    0    0  0.14426739206E-01  0.10677118329E-01  0.15161484623E-01  0.10204352713E+01  0.10201647615E+01 0.  0.
     999903    2    3    3    0    0 -0.99782269573E-01 -0.52144376031E-01 -0.57316808790E-01  0.12788648225E+00  0.19854432775E-01 0.  0.
         14    1    1    2    0    0 -0.14426739206E-01 -0.10677118329E-01 -0.15161484623E-01  0.23494728684E-01  0.00000000000E+00 0. -1.
     999901    1    3    3    0    0  0.11420900878E+00  0.62821494360E-01  0.72478293413E-01  0.89254878906E+00  0.88000000000E+00 0. -1.
        -11    1    4    4    0    0 -0.73261622871E-01 -0.28255988453E-01 -0.41897374056E-01  0.89001782807E-01  0.51100000000E-03 0.  1.
         11    1    4    4    0    0 -0.26520646702E-01 -0.23888387578E-01 -0.15419434734E-01  0.38884699447E-01  0.51100000000E-03 0. -1.
</event>
<event>
 8    1  0.1044719E+005  0.1043930E+01  0.7957747E-01            NaN
         13   -1    0    0    0    0  0.00000000000E+00  0.00000000000E+00  0.74505805969E-08  0.10566000000E+00  0.10566000000E+00 0.  1.
     999900   -1    0    0    0    0 -0.00000000000E+00 -0.00000000000E+00 -0.74505805969E-08  0.93827000000E+00  0.93827000000E+00 0. -1.
     999902    2    1    2    0    0  0.18417883741E-01  0.42072425933E-02  0.14205363763E-01  0.10202929170E+01  0.10200190806E+01 0.  0.
     999903    2    3    3    0    0  0.42873920857E-01 -0.11074290884E+00 -0.49415882269E-01  0.13020342826E+00  0.20219751797E-01 0.  0.
         14    1    1    2    0    0 -0.18417883741E-01 -0.42072425933E-02 -0.14205363763E-01  0.23637082970E-01  0.00000000000E+00 0. -1.
     999901    1    3    3    0    0 -0.24456037116E-01  0.11495015143E+00  0.63621246032E-01  0.89008948877E+00  0.88000000000E+00 0.  1.
        -11    1    4    4    0    0  0.14500262205E-01 -0.17649027081E-01 -0.59145933574E-02  0.23600620680E-01  0.51100000000E-03 0. -1.
         11    1    4    4    0    0  0.28373658652E-01 -0.93093881760E-01 -0.43501288912E-01  0.10660280758E+00  0.51100000000E-03 0.  1.
</event>
<event>
 8    1  0.1044719E+005  0.1043930E+01  0.7957747E-01            NaN
         13   -1    0    0    0    0  0.00000000000E+00  0.00000000000E+00  0.74505805969E-08  0.10566000000E+00  0.10566000000E+00 0.  1.
     999900   -1    0    0    0    0 -0.00000000000E+00 -0.00000000000E+00 -0.74505805969E-08  0.93827000000E+00  0.93827000000E+00 0.  1.
     999902    2    1    2    0    0  0.10006122891E-01 -0.17484355215E-01  0.13073335418E-01  0.10199146451E+01  0.10196318679E+01 0.  0.
     999903    2    3    3    0    0 -0.67354938764E-01 -0.71369841190E-01 -0.82413826981E-01  0.12974265180E+00  0.20267580266E-01 0.  0.
         14    1    1    2    0    0 -0.10006122891E-01  0.17484355215E-01 -0.13073335418E-01  0.24015354912E-01  0.00000000000E+00 0.  1.
     999901    1    3    3    0    0  0.77361061655E-01  0.53885485975E-01  0.95487162399E-01  0.89017199329E+00  0.88000000000E+00 0. -1.
        -11    1    4    4    0    0 -0.52897225300E-01 -0.49741753379E-01 -0.49932591598E-01  0.88124249208E-01  0.51100000000E-03 0. -1.
         11    1    4    4    0    0 -0.14457713464E-01 -0.21628087811E-01 -0.32481235383E-01  0.41618402588E-01  0.51100000000E-03 0.  1.
</event>
<event>
 8    1  0.1044719E+005  0.1043930E+01  0.7957747E-01            NaN
         13   -1    0    0    0    0  0.00000000000E+00  0.00000000000E+00  0.74505805969E-08  0.10566000000E+00  0.10566000000E+00 0.  1.
     999900   -1    0    0    0    0 -0.00000000000E+00 -0.00000000000E+00 -0.74505805969E-08  0.93827000000E+00  0.93827000000E+00 0.  1.
     999902    2    1    2    0    0 -0.49092427879E-02 -0.30605848262E-01  0.10298710788E-01  0.10112668395E+01  0.10107392040E+01 0.  0.
     999903    2    3    3    0    0  0.66591021721E-01  0.96080828857E-01 -0.10500824001E-01  0.11908164420E+00  0.20106736035E-01 0.  0.
         14    1    1    2    0    0  0.49092427879E-02  0.30605848262E-01 -0.10298710788E-01  0.32663160541E-01  0.00000000000E+00 0. -1.
     999901    1    3    3    0    0 -0.71500264509E-01 -0.12668667712E+00  0.20799534789E-01  0.89218519525E+00  0.88000000000E+00 0.  1.
        -11    1    4    4    0    0  0.25135555132E-01  0.21041650726E-01 -0.68771771671E-03  0.32791481725E-01  0.51100000000E-03 0.  1.
         11    1    4    4    0    0  0.41455466589E-01  0.75039178132E-01 -0.98131062843E-02  0.86290162479E-01  0.51100000000E-03 0. -1.
</event>
<event>
 8    1  0.1044719E+005  0.1043930E+01  0.7957747E-01            NaN
         13   -1    0    0    0    0  0.00000000000E+00  0.00000000000E+00  0.74505805969E-08  0.10566000000E+00  0.10566000000E+00 0. -1.
     999900   -1    0    0    0    0 -0.00000000000E+00 -0.00000000000E+00 -0.74505805969E-08  0.93827000000E+00  0.93827000000E+00 0. -1.
     999902    2    1    2    0    0 -0.16742373606E-01  0.15952469055E-01 -0.41773911531E-02  0.10204302353E+01  0.10201596082E+01 0.  0.
     999903    2    3    3    0    0  0.10867893864E+00  0.24662133328E-01  0.62161888436E-01  0.12902277303E+00  0.19064182724E-01 0.  0.
         14    1    1    2    0    0  0.16742373606E-01 -0.15952469055E-01  0.41773911531E-02  0.23499764675E-01  0.00000000000E+00 0.  1.
     999901    1    3    3    0    0 -0.12542131224E+00 -0.87096642732E-02 -0.66339279589E-01  0.89140746229E+00  0.88000000000E+00 0. -1.
        -11    1    4    4    0    0  0.25547201615E-01  0.11772685087E-02  0.22076464101E-01  0.33788709056E-01  0.51100000000E-03 0. -1.
         11    1    4    4    0    0  0.83131737023E-01  0.23484864820E-01  0.40085424336E-01  0.95234063975E-01  0.51100000000E-03 0.  1.
</event>
<event>
 8    1  0.1044719E+005  0.1043930E+01  0.7957747E-01            NaN
         13   -1    0    0    0    0  0.00000000000E+00  0.00000000000E+00  0.74505805969E-08  0.10566000000E+00  0.10566000000E+00 0.  1.
     999900   -1    0    0    0    0 -0.00000000000E+00 -0.00000000000E+00 -0.74505805969E-08  0.93827000000E+00  0.93827000000E+00 0. -1.
     999902    2    1    2    0    0  0.85914587126E-02 -0.16630577325E-01 -0.15776111388E-01  0.10194499070E+01  0.10191559438E+01 0.  0.
     999903    2    3    3    0    0 -0.23660327576E-01 -0.11036663526E+00 -0.66609951423E-01  0.13242639793E+00  0.18954154148E-01 0.  0.
         14    1    1    2    0    0 -0.85914587126E-02  0.16630577325E-01  0.15776111388E-01  0.24480093045E-01  0.00000000000E+00 0.  1.
     999901    1    3    3    0    0  0.32251786289E-01  0.93736057936E-01  0.50833840035E-01  0.88702350903E+00  0.88000000000E+00 0. -1.
        -11    1    4    4    0    0 -0.13886911561E-01 -0.69485105112E-01 -0.31045024790E-01  0.77363304159E-01  0.51100000000E-03 0. -1.
         11    1    4    4    0    0 -0.97734160149E-02 -0.40881530149E-01 -0.35564926632E-01  0.55063093767E-01  0.51100000000E-03 0.  1.
</event>
<event>
 7    1  0.1044719E+005  0.1043930E+01  0.7957747E-01            NaN
         13   -1    0    0    0    0  0.00000000000E+00  0.00000000000E+00  0.74505805969E-08  0.10566000000E+00  0.10566000000E+00 0. -1.
     999900   -1    0    0    0    0 -0.00000000000E+00 -0.00000000000E+00 -0.74505805969E-08  0.93827000000E+00  0.93827000000E+00 0.  1.
     999903    2    1    2    0    0 -0.89619926214E-01  0.51158165353E-02 -0.65987769595E-01  0.11330717946E+00  0.20645300380E-01 0.  0.
         14    1    1    2    0    0  0.36666948212E-01 -0.27665193600E-01 -0.31226340467E-02  0.46038884343E-01  0.00000000000E+00 0. -1.
     999901    1    1    2    0    0  0.52952978002E-01  0.22549377065E-01  0.69110403641E-01  0.88458393620E+00  0.88000000000E+00 0.  1.
        -11    1    3    3    0    0 -0.23465950001E-01  0.10117663463E-01 -0.15027711783E-01  0.29649808867E-01  0.51100000000E-03 0. -1.
         11    1    3    3    0    0 -0.66153976213E-01 -0.50018469280E-02 -0.50960057812E-01  0.83657370594E-01  0.51100000000E-03 0.  1.
</event>
<event>
 8    1  0.1044719E+005  0.1043930E+01  0.7957747E-01            NaN
         13   -1    0    0    0    0  0.00000000000E+00  0.00000000000E+00  0.74505805969E-08  0.10566000000E+00  0.10566000000E+00 0.  1.
     999900   -1    0    0    0    0 -0.00000000000E+00 -0.00000000000E+00 -0.74505805969E-08  0.93827000000E+00  0.93827000000E+00 0. -1.
     999902    2    1    2    0    0  0.18825227360E-01 -0.12472078033E-01 -0.76084908424E-02  0.10201007942E+01  0.10198224352E+01 0.  0.
     999903    2    3    3    0    0 -0.14884197644E-01  0.50788793534E-01 -0.11750994362E+00  0.13037241289E+00  0.19680912232E-01 0.  0.
         14    1    1    2    0    0 -0.18825227360E-01  0.12472078033E-01  0.76084908424E-02  0.23829205789E-01  0.00000000000E+00 0.  1.
     999901    1    3    3    0    0  0.33709425004E-01 -0.63260871567E-01  0.10990145277E+00  0.88972838132E+00  0.88000000000E+00 0.  1.
        -11    1    4    4    0    0  0.48346858834E-02  0.10326024514E-01 -0.25728658249E-01  0.28146508597E-01  0.51100000000E-03 0.  1.
         11    1    4    4    0    0 -0.19718883528E-01  0.40462769020E-01 -0.91781285366E-01  0.10222590429E+00  0.51100000000E-03 0. -1.
</event>
<event>
 8    1  0.1044719E+005  0.1043930E+01  0.7957747E-01            NaN
         13   -1    0    0    0    0  0.00000000000E+00  0.00000000000E+00  0.74505805969E-08  0.10566000000E+00  0.10566000000E+00 0. -1.
     999900   -1    0    0    0    0 -0.00000000000E+00 -0.00000000000E+00 -0.74505805969E-08  0.93827000000E+00  0.93827000000E+00 0. -1.
     999902    2    1    2    0    0  0.15670672958E-01 -0.16258696091E-01  0.47324698291E-02  0.10208581240E+01  0.10205973731E+01 0.  0.
     999903    2    3    3    0    0 -0.69074654839E-01 -0.92792758433E-01  0.60407265754E-01  0.13173556996E+00  0.17983844901E-01 0.  0.
         14    1    1    2    0    0 -0.15670672958E-01  0.16258696091E-01 -0.47324698291E-02  0.23071875957E-01  0.00000000000E+00 0. -1.
     999901    1    3    3    0    0  0.84745327796E-01  0.76534062342E-01 -0.55674795925E-01  0.88912255409E+00  0.88000000000E+00 0.  1.
        -11    1    4    4    0    0 -0.36079333297E-01 -0.61567660928E-01  0.32467354550E-01  0.78400799714E-01  0.51100000000E-03 0. -1.
         11    1    4    4    0    0 -0.32995321541E-01 -0.31225097505E-01  0.27939911204E-01  0.53334770243E-01  0.51100000000E-03 0.  1.
</event>
<event>
 8    1  0.1044719E+005  0.1043930E+01  0.7957747E-01            NaN
         13   -1    0    0    0    0  0.00000000000E+00  0.00000000000E+00  0.74505805969E-08  0.10566000000E+00  0.10566000000E+00 0. -1.
     999900   -1    0    0    0    0 -0.00000000000E+00 -0.00000000000E+00 -0.74505805969E-08  0.93827000000E+00  0.93827000000E+00 0. -1.
     999902    2    1    2    0    0 -0.17039644384E-01 -0.10915559998E-01  0.12807620038E-01  0.10199814288E+01  0.10197002408E+01 0.  0.
     999903    2    3    3    0    0 -0.42108876437E-02  0.10870172483E+00 -0.65493660535E-01  0.12835148182E+00  0.18731971603E-01 0.  0.
         14    1    1    2    0    0  0.17039644384E-01  0.10915559998E-01 -0.12807620038E-01  0.23948571186E-01  0.00000000000E+00 0. -1.
     999901    1    3    3    0    0 -0.12828756740E-01 -0.11961728483E+00  0.78301280573E-01  0.89162994699E+00  0.88000000000E+00 0.  1.
        -11    1    4    4    0    0 -0.47749461819E-02  0.67317960367E-01 -0.50643668245E-01  0.84377426800E-01  0.51100000000E-03 0. -1.
         11    1    4    4    0    0  0.56405853829E-03  0.41383764465E-01 -0.14849992290E-01  0.43974055025E-01  0.51100000000E-03 0.  1.
</event>
<event>
 8    1  0.1044719E+005  0.1043930E+01  0.7957747E-01            NaN
         13   -1    0    0    0    0  0.00000000000E+00  0.00000000000E+00  0.74505805969E-08  0.10566000000E+00  0.10566000000E+00 0. -1.
     999900   -1    0    0    0    0 -0.00000000000E+00 -0.00000000000E+00 -0.74505805969E-08  0.93827000000E+00  0.93827000000E+00 0.  1.
     999902    2    1    2    0    0 -0.15771621258E-01 -0.13731982139E-01 -0.10142260083E-01  0.10206882959E+01  0.10204236476E+01 0.  0.
     999903    2    3    3    0    0  0.11775146306E+00 -0.50730554378E-01 -0.21517361625E-02  0.12981167319E+00  0.20185250249E-01 0.  0.
         14    1    1    2    0    0  0.15771621258E-01  0.13731982139E-01  0.10142260083E-01  0.23241704115E-01  0.00000000000E+00 0. -1.
     999901    1    3    3    0    0 -0.13352308432E+00  0.36998572239E-01 -0.79905239202E-02  0.89087662270E+00  0.88000000000E+00 0. -1.
        -11    1    4    4    0    0  0.67471938644E-01 -0.18294548631E-01  0.59057630089E-03  0.69912537612E-01  0.51100000000E-03 0. -1.
         11    1    4    4    0    0  0.50279524415E-01 -0.32436005747E-01 -0.27423124634E-02  0.59899135577E-01  0.51100000000E-03 0.  1.
</event>
<event>
 8    1  0.1044719E+005  0.1043930E+01  0.7957747E-01            NaN
         13   -1    0    0    0    0  0.00000000000E+00  0.00000000000E+00  0.74505805969E-08  0.10566000000E+00  0.10566000000E+00 0.  1.
     999900   -1    0    0    0    0 -0.00000000000E+00 -0.00000000000E+00 -0.74505805969E-08  0.93827000000E+00  0.93827000000E+00 0. -1.
     999902    2    1    2    0    0 -0.13027289058E-01  0.19131702245E-01  0.40360028861E-02  0.10204348599E+01  0.10201643405E+01 0.  0.
     999903    2    3    3    0    0  0.10244903021E+00  0.64500151357E-01 -0.44411131831E-01  0.13041227512E+00  0.19466369849E-01 0.  0.
         14    1    1    2    0    0  0.13027289058E-01 -0.19131702245E-01 -0.40360028861E-02  0.23495140142E-01  0.00000000000E+00 0.  1.
     999901    1    3    3    0    0 -0.11547631927E+00 -0.45368449112E-01  0.48447134717E-01  0.89002258474E+00  0.88000000000E+00 0.  1.
        -11    1    4    4    0    0  0.20073456200E-01  0.99259960414E-02 -0.16218602292E-01  0.27654533490E-01  0.51100000000E-03 0. -1.
         11    1    4    4    0    0  0.82375574009E-01  0.54574155315E-01 -0.28192529539E-01  0.10275774163E+00  0.51100000000E-03 0.  1.
</event>
<event>
 8    1  0.1044719E+005  0.1043930E+01  0.7957747E-01            NaN
         13   -1    0    0    0    0  0.00000000000E+00  0.00000000000E+00  0.74505805969E-08  0.10566000000E+00  0.10566000000E+00 0.  1.
     999900   -1    0    0    0    0 -0.00000000000E+00 -0.00000000000E+00 -0.74505805969E-08  0.93827000000E+00  0.93827000000E+00 0.  1.
     999902    2    1    2    0    0 -0.14158338915E-01  0.83521667629E-02 -0.17941049407E-01  0.10195969257E+01  0.10193065253E+01 0.  0.
     999903    2    3    3    0    0 -0.11581908867E+00  0.33693669471E-01 -0.51274657053E-01  0.13275520973E+00  0.21107595642E-01 0.  0.
         14    1    1    2    0    0  0.14158338915E-01 -0.83521667629E-02  0.17941049407E-01  0.24333074288E-01  0.00000000000E+00 0.  1.
     999901    1    3    3    0    0  0.10166074975E+00 -0.25341502708E-01  0.33333607647E-01  0.88684171598E+00  0.88000000000E+00 0. -1.
        -11    1    4    4    0    0 -0.59829321906E-01  0.69895269263E-02 -0.28869521462E-01  0.66799039191E-01  0.51100000000E-03 0.  1.
         11    1    4    4    0    0 -0.55989766760E-01  0.26704142544E-01 -0.22405135592E-01  0.65956170544E-01  0.51100000000E-03 0. -1.
</event>
<event>
 8    1  0.1044719E+005  0.1043930E+01  0.7957747E-01            NaN
         13   -1    0    0    0    0  0.00000000000E+00  0.00000000000E+00  0.74505805969E-08  0.10566000000E+00  0.10566000000E+00 0.  1.
     999900   -1    0    0    0    0 -0.00000000000E+00 -0.00000000000E+00 -0.74505805969E-08  0.93827000000E+00  0.93827000000E+00 0.  1.
     999902    2    1    2    0    0  0.12434959346E-01  0.19815665058E-01  0.84408086835E-03  0.10205205731E+01  0.10202520467E+01 0.  0.
     999903    2    3    3    0    0  0.10988703165E+00 -0.37705050236E-01  0.58352833185E-01  0.13141270805E+00  0.19168102642E-01 0.  0.
         14    1    1    2    0    0 -0.12434959346E-01 -0.19815665058E-01 -0.84408086835E-03  0.23409426908E-01  0.00000000000E+00 0.  1.
     999901    1    3    3    0    0 -0.97452072303E-01  0.57520715294E-01 -0.57508752317E-01  0.88910786504E+00  0.88000000000E+00 0.  1.
        -11    1    4    4    0    0  0.50600037943E-01 -0.11535768637E-01  0.17353649266E-01  0.54725204995E-01  0.51100000000E-03 0.  1.
         11    1    4    4    0    0  0.59286993706E-01 -0.26169281599E-01  0.40999183919E-01  0.76687503057E-01  0.51100000000E-03 0. -1.
</event>
<event>
 8    1  0.1044719E+005  0.1043930E+01  0.7957747E-01            NaN
         13   -1    0    0    0    0  0.00000000000E+00  0.00000000000E+00  0.74505805969E-08  0.10566000000E+00  0.10566000000E+00 0.  1.
     999900   -1    0    0    0    0 -0.00000000000E+00 -0.00000000000E+00 -0.74505805969E-08  0.93827000000E+00  0.93827000000E+00 0. -1.
     999902    2    1    2    0    0 -0.68403836685E-02 -0.20501362304E-01 -0.11246379170E-01  0.10195665489E+01  0.10192754141E+01 0.  0.
     999903    2    3    3    0    0 -0.85442826334E-01 -0.98484031570E-01 -0.13130590284E-01  0.13262619524E+00  0.20438058046E-01 0.  0.
         14    1    1    2    0    0  0.68403836685E-02  0.20501362304E-01  0.11246379170E-01  0.24363451099E-01  0.00000000000E+00 0.  1.
     999901    1    3    3    0    0  0.78602442665E-01  0.77982669266E-01  0.18842111142E-02  0.88694035366E+00  0.88000000000E+00 0.  1.
        -11    1    4    4    0    0 -0.46644597108E-01 -0.56844718900E-01 -0.17352842740E-01  0.75554104974E-01  0.51100000000E-03 0. -1.
         11    1    4    4    0    0 -0.38798229226E-01 -0.41639312670E-01  0.42222524561E-02  0.57072090267E-01  0.51100000000E-03 0.  1.
</event>
<event>
 8    1  0.1044719E+005  0.1043930E+01  0.7957747E-01            NaN
         13   -1    0    0    0    0  0.00000000000E+00  0.00000000000E+00  0.74505805969E-08  0.10566000000E+00  0.10566000000E+00 0.  1.
     999900   -1    0    0    0    0 -0.00000000000E+00 -0.00000000000E+00 -0.74505805969E-08  0.93827000000E+00  0.93827000000E+00 0. -1.
     999902    2    1    2    0    0  0.28212506464E-02 -0.23209840273E-01  0.76968476927E-02  0.10193150126E+01  0.10190177610E+01 0.  0.
     999903    2    3    3    0    0 -0.86655147911E-01  0.15217820667E-01 -0.91401478260E-01  0.12841479976E+00  0.19885518426E-01 0.  0.
         14    1    1    2    0    0 -0.28212506464E-02  0.23209840273E-01 -0.76968476927E-02  0.24614987408E-01  0.00000000000E+00 0.  1.
     999901    1    3    3    0    0  0.89476398557E-01 -0.38427660940E-01  0.99098325953E-01  0.89090021284E+00  0.88000000000E+00 0.  1.
        -11    1    4    4    0    0 -0.23516437412E-01  0.73229519881E-04 -0.13955240069E-01  0.27350284047E-01  0.51100000000E-03 0. -1.
         11    1    4    4    0    0 -0.63138710499E-01  0.15144591147E-01 -0.77446238191E-01  0.10106451571E+00  0.51100000000E-03 0.  1.
</event>
<event>
 7    1  0.1044719E+005  0.1043930E+01  0.7957747E-01            NaN
         13   -1    0    0    0    0  0.00000000000E+00  0.00000000000E+00  0.74505805969E-08  0.10566000000E+00  0.10566000000E+00 0. -1.
     999900   -1    0    0    0    0 -0.00000000000E+00 -0.00000000000E+00 -0.74505805969E-08  0.93827000000E+00  0.93827000000E+00 0. -1.
     999903    2    1    2    0    0  0.31291406595E-01  0.14272028224E-01 -0.22301517537E-01  0.46065935893E-01  0.21020700485E-01 0.  0.
         14    1    1    2    0    0  0.32352544743E-01  0.54590371186E-01 -0.85354075602E-01  0.10635842233E+00  0.00000000000E+00 0.  1.
     999901    1    1    2    0    0 -0.63643951339E-01 -0.68862399410E-01  0.10765559314E+00  0.89150564178E+00  0.88000000000E+00 0. -1.
        -11    1    3    3    0    0  0.29310793734E-01  0.77299403453E-02 -0.24379282298E-01  0.38903536259E-01  0.51100000000E-03 0.  1.
         11    1    3    3    0    0  0.19806128608E-02  0.65420878787E-02  0.20777647604E-02  0.71623996339E-02  0.51100000000E-03 0. -1.
</event>
<event>
 8    1  0.1044719E+005  0.1043930E+01  0.7957747E-01            NaN
         13   -1    0    0    0    0  0.00000000000E+00  0.00000000000E+00  0.74505805969E-08  0.10566000000E+00  0.10566000000E+00 0. -1.
     999900   -1    0    0    0    0 -0.00000000000E+00 -0.00000000000E+00 -0.74505805969E-08  0.93827000000E+00  0.93827000000E+00 0.  1.
     999902    2    1    2    0    0 -0.12306487876E-01  0.20457960883E-01  0.12671079958E-01  0.10169016061E+01  0.10165423466E+01 0.  0.
     999903    2    3    3    0    0 -0.31898254505E-01  0.83932315528E-01  0.92911608165E-01  0.13075750195E+00  0.20070504600E-01 0.  0.
         14    1    1    2    0    0  0.12306487876E-01 -0.20457960883E-01 -0.12671079958E-01  0.27028393860E-01  0.00000000000E+00 0. -1.
     999901    1    3    3    0    0  0.19591766628E-01 -0.63474354644E-01 -0.80240528207E-01  0.88614410419E+00  0.88000000000E+00 0.  1.
        -11    1    4    4    0    0 -0.10596188246E-01  0.16670572628E-01  0.31675874741E-01  0.37333756289E-01  0.51100000000E-03 0. -1.
         11    1    4    4    0    0 -0.21302066259E-01  0.67261742900E-01  0.61235733425E-01  0.93423745664E-01  0.51100000000E-03 0.  1.
</event>
<event>
 8    1  0.1044719E+005  0.1043930E+01  0.7957747E-01            NaN
         13   -1    0    0    0    0  0.00000000000E+00  0.00000000000E+00  0.74505805969E-08  0.10566000000E+00  0.10566000000E+00 0.  1.
     999900   -1    0    0    0    0 -0.00000000000E+00 -0.00000000000E+00 -0.74505805969E-08  0.93827000000E+00  0.93827000000E+00 0.  1.
     999902    2    1    2    0    0 -0.23180519326E-02 -0.72588319156E-02 -0.22300018947E-01  0.10203640319E+01  0.10200918600E+01 0.  0.
     999903    2    3    3    0    0 -0.54820414231E-02  0.15872138029E-01 -0.13126723087E+00  0.13333590055E+00  0.16291069067E-01 0.  0.
         14    1    1    2    0    0  0.23180519326E-02  0.72588319156E-02  0.22300018947E-01  0.23565968059E-01  0.00000000000E+00 0.  1.
     999901    1    3    3    0    0  0.31639894905E-02 -0.23130969945E-01  0.10896721193E+00  0.88702813139E+00  0.88000000000E+00 0. -1.
        -11    1    4    4    0    0 -0.58580689130E-02 -0.55894357712E-03 -0.19797932592E-01  0.20660315710E-01  0.51100000000E-03 0. -1.
         11    1    4    4    0    0  0.37602748986E-03  0.16431081606E-01 -0.11146929828E+00  0.11267558484E+00  0.51100000000E-03 0.  1.
</event>
<event>
 8    1  0.1044719E+005  0.1043930E+01  0.7957747E-01            NaN
         13   -1    0    0    0    0  0.00000000000E+00  0.00000000000E+00  0.74505805969E-08  0.10566000000E+00  0.10566000000E+00 0. -1.
     999900   -1    0    0    0    0 -0.00000000000E+00 -0.00000000000E+00 -0.74505805969E-08  0.93827000000E+00  0.93827000000E+00 0.  1.
     999902    2    1    2    0    0  0.99061714089E-02  0.21597199810E-01 -0.27313901823E-02  0.10200128145E+01  0.10197323717E+01 0.  0.
     999903    2    3    3    0    0  0.83000177940E-01 -0.65722085441E-01 -0.72848732394E-01  0.12990954346E+00  0.19003410712E-01 0.  0.
         14    1    1    2    0    0 -0.99061714089E-02 -0.21597199810E-01  0.27313901823E-02  0.23917185536E-01  0.00000000000E+00 0. -1.
     999901    1    3    3    0    0 -0.73094006531E-01  0.87319285251E-01  0.70117342212E-01  0.89010327100E+00  0.88000000000E+00 0.  1.
        -11    1    4    4    0    0  0.59823970220E-01 -0.57296074969E-01 -0.54304186272E-01  0.99050256877E-01  0.51100000000E-03 0.  1.
         11    1    4    4    0    0  0.23176207720E-01 -0.84260104719E-02 -0.18544546122E-01  0.30859286587E-01  0.51100000000E-03 0. -1.
</event>
<event>
 8    1  0.1044719E+005  0.1043930E+01  0.7957747E-01            NaN
         13   -1    0    0    0    0  0.00000000000E+00  0.00000000000E+00  0.74505805969E-08  0.10566000000E+00  0.10566000000E+00 0.  1.
     999900   -1    0    0    0    0 -0.00000000000E+00 -0.00000000000E+00 -0.74505805969E-08  0.93827000000E+00  0.93827000000E+00 0.  1.
     999902    2    1    2    0    0  0.22645434133E-01 -0.29229215141E-03  0.68558843544E-02  0.10202677036E+01  0.10199932758E+01 0.  0.
     999903    2    3    3    0    0 -0.58536141327E-01 -0.11347548405E+00 -0.40848846854E-02  0.12924549086E+00  0.19609826728E-01 0.  0.
         14    1    1    2    0    0 -0.22645434133E-01  0.29229215141E-03 -0.68558843544E-02  0.23662296424E-01  0.00000000000E+00 0. -1.
     999901    1    3    3    0    0  0.81181575459E-01  0.11318319190E+00  0.10940769040E-01  0.89102221271E+00  0.88000000000E+00 0.  1.
        -11    1    4    4    0    0 -0.14966223369E-01 -0.41830464046E-01 -0.86594065275E-02  0.45266124272E-01  0.51100000000E-03 0.  1.
         11    1    4    4    0    0 -0.43569917958E-01 -0.71645020001E-01  0.45745218421E-02  0.83979366590E-01  0.51100000000E-03 0. -1.
</event>
<event>
 8    1  0.1044719E+005  0.1043930E+01  0.7957747E-01            NaN
         13   -1    0    0    0    0  0.00000000000E+00  0.00000000000E+00  0.74505805969E-08  0.10566000000E+00  0.10566000000E+00 0. -1.
     999900   -1    0    0    0    0 -0.00000000000E+00 -0.00000000000E+00 -0.74505805969E-08  0.93827000000E+00  0.93827000000E+00 0. -1.
     999902    2    1    2    0    0  0.12991781081E-01  0.19052203507E-01 -0.32151842979E-02  0.10206467390E+01  0.10203811325E+01 0.  0.
     999903    2    3    3    0    0  0.10946658281E+00  0.67749083217E-01 -0.29591961612E-01  0.13364363422E+00  0.20299402586E-01 0.  0.
         14    1    1    2    0    0 -0.12991781081E-01 -0.19052203507E-01  0.32151842979E-02  0.23283261030E-01  0.00000000000E+00 0.  1.
     999901    1    3    3    0    0 -0.96474801730E-01 -0.48696879710E-01  0.26376777314E-01  0.88700310475E+00  0.88000000000E+00 0.  1.
        -11    1    4    4    0    0  0.40114923426E-01  0.35803028179E-01 -0.15859643586E-01  0.56061156998E-01  0.51100000000E-03 0.  1.
         11    1    4    4    0    0  0.69351659385E-01  0.31946055038E-01 -0.13732318027E-01  0.77582477218E-01  0.51100000000E-03 0. -1.
</event>
<event>
 8    1  0.1044719E+005  0.1043930E+01  0.7957747E-01            NaN
         13   -1    0    0    0    0  0.00000000000E+00  0.00000000000E+00  0.74505805969E-08  0.10566000000E+00  0.10566000000E+00 0. -1.
     999900   -1    0    0    0    0 -0.00000000000E+00 -0.00000000000E+00 -0.74505805969E-08  0.93827000000E+00  0.93827000000E+00 0.  1.
     999902    2    1    2    0    0  0.20383765264E-01  0.13680608627E-01 -0.13108466354E-01  0.10161003606E+01  0.10157191807E+01 0.  0.
     999903    2    3    3    0    0  0.90846433532E-01  0.20797177060E-01 -0.88683466539E-01  0.13002631527E+00  0.18880899490E-01 0.  0.
         14    1    1    2    0    0 -0.20383765264E-01 -0.13680608627E-01  0.13108466354E-01  0.27829639396E-01  0.00000000000E+00 0. -1.
     999901    1    3    3    0    0 -0.70462668268E-01 -0.71165684335E-02  0.75575000185E-01  0.88607404534E+00  0.88000000000E+00 0. -1.
        -11    1    4    4    0    0  0.35776994458E-01  0.12681831091E-01 -0.25055584646E-01  0.45484784436E-01  0.51100000000E-03 0. -1.
         11    1    4    4    0    0  0.55069439074E-01  0.81153459691E-02 -0.63627881893E-01  0.84541530831E-01  0.51100000000E-03 0.  1.
</event>
<event>
 8    1  0.1044719E+005  0.1043930E+01  0.7957747E-01            NaN
         13   -1    0    0    0    0  0.00000000000E+00  0.00000000000E+00  0.74505805969E-08  0.10566000000E+00  0.10566000000E+00 0. -1.
     999900   -1    0    0    0    0 -0.00000000000E+00 -0.00000000000E+00 -0.74505805969E-08  0.93827000000E+00  0.93827000000E+00 0.  1.
     999902    2    1    2    0    0  0.40815076059E-02 -0.20866318902E-01  0.90626091335E-02  0.10208173876E+01  0.10205557045E+01 0.  0.
     999903    2    3    3    0    0 -0.78531569889E-01 -0.39321679710E-01 -0.94696184581E-01  0.13068739247E+00  0.19960591458E-01 0.  0.
         14    1    1    2    0    0 -0.40815076059E-02  0.20866318902E-01 -0.90626091335E-02  0.23112612426E-01  0.00000000000E+00 0.  1.
     999901    1    3    3    0    0  0.82613077495E-01  0.18455360808E-01  0.10375879371E+00  0.89012999511E+00  0.88000000000E+00 0. -1.
        -11    1    4    4    0    0 -0.67914495703E-01 -0.40348283094E-01 -0.87062821828E-01  0.11756087249E+00  0.51100000000E-03 0.  1.
         11    1    4    4    0    0 -0.10617074186E-01  0.10266033837E-02 -0.76333627527E-02  0.13126519976E-01  0.51100000000E-03 0. -1.
</event>
<event>
 8    1  0.1044719E+005  0.1043930E+01  0.7957747E-01            NaN
         13   -1    0    0    0    0  0.00000000000E+00  0.00000000000E+00  0.74505805969E-08  0.10566000000E+00  0.10566000000E+00 0.  1.
     999900   -1    0    0    0    0 -0.00000000000E+00 -0.00000000000E+00 -0.74505805969E-08  0.93827000000E+00  0.93827000000E+00 0.  1.
     999902    2    1    2    0    0  0.13844893106E-01  0.19049530706E-01 -0.55828029316E-02  0.10197280709E+01  0.10194408296E+01 0.  0.
     999903    2    3    3    0    0  0.28260355628E-01  0.64913734294E-01 -0.10984488197E+00  0.13226995250E+00  0.20420617956E-01 0.  0.
         14    1    1    2    0    0 -0.13844893106E-01 -0.19049530706E-01  0.55828029316E-02  0.24201929134E-01  0.00000000000E+00 0.  1.
     999901    1    3    3    0    0 -0.14415462523E-01 -0.45864203588E-01  0.10426207904E+00  0.88745811837E+00  0.88000000000E+00 0. -1.
        -11    1    4    4    0    0  0.25808008044E-01  0.34189915887E-01 -0.65356398187E-01  0.78145527912E-01  0.51100000000E-03 0. -1.
         11    1    4    4    0    0  0.24523475845E-02  0.30723818407E-01 -0.44488483787E-01  0.54124424586E-01  0.51100000000E-03 0.  1.
</event>
<event>
 8    1  0.1044719E+005  0.1043930E+01  0.7957747E-01            NaN
         13   -1    0    0    0    0  0.00000000000E+00  0.00000000000E+00  0.74505805969E-08  0.10566000000E+00  0.10566000000E+00 0. -1.
     999900   -1    0    0    0    0 -0.00000000000E+00 -0.00000000000E+00 -0.74505805969E-08  0.93827000000E+00  0.93827000000E+00 0.  1.
     999902    2    1    2    0    0 -0.13488785618E-01 -0.15043960458E-01  0.11003877135E-01  0.10209223188E+01  0.10206630333E+01 0.  0.
     999903    2    3    3    0    0  0.12675167587E+00  0.80020212696E-03  0.18496088809E-01  0.12964539336E+00  0.19979866327E-01 0.  0.
         14    1    1    2    0    0  0.13488785618E-01  0.15043960458E-01 -0.11003877135E-01  0.23007681233E-01  0.00000000000E+00 0.  1.
     999901    1    3    3    0    0 -0.14024046149E+00 -0.15844162585E-01 -0.74922116739E-02  0.89127692541E+00  0.88000000000E+00 0. -1.
        -11    1    4    4    0    0  0.11731464904E+00  0.48533761401E-02  0.13429364868E-01  0.11818160221E+00  0.51100000000E-03 0. -1.
         11    1    4    4    0    0  0.94370268285E-02 -0.40531740132E-02  0.50667239410E-02  0.11463791146E-01  0.51100000000E-03 0.  1.
</event>
<event>
 8    1  0.1044719E+005  0.1043930E+01  0.7957747E-01            NaN
         13   -1    0    0    0    0  0.00000000000E+00  0.00000000000E+00  0.74505805969E-08  0.10566000000E+00  0.10566000000E+00 0. -1.
     999900   -1    0    0    0    0 -0.00000000000E+00 -0.00000000000E+00 -0.74505805969E-08  0.93827000000E+00  0.93827000000E+00 0.  1.
     999902    2    1    2    0    0  0.96290304237E-02  0.13202532721E-01  0.18167880115E-01  0.10194944324E+01  0.10192015506E+01 0.  0.
     999903    2    3    3    0    0  0.37784733863E-01  0.18961166391E-01  0.12416038270E+00  0.13266845390E+00  0.19947583395E-01 0.  0.
         14    1    1    2    0    0 -0.96290304237E-02 -0.13202532721E-01 -0.18167880115E-01  0.24435567622E-01  0.00000000000E+00 0.  1.
     999901    1    3    3    0    0 -0.28155703439E-01 -0.57586336705E-02 -0.10599250259E+00  0.88682597848E+00  0.88000000000E+00 0.  1.
        -11    1    4    4    0    0  0.36108959413E-01  0.14707453358E-01  0.88456733055E-01  0.96669648173E-01  0.51100000000E-03 0. -1.
         11    1    4    4    0    0  0.16757744497E-02  0.42537130333E-02  0.35703649648E-01  0.35998805727E-01  0.51100000000E-03 0.  1.
</event>
<event>
 8    1  0.1044719E+005  0.1043930E+01  0.7957747E-01            NaN
         13   -1    0    0    0    0  0.00000000000E+00  0.00000000000E+00  0.74505805969E-08  0.10566000000E+00  0.10566000000E+00 0.  1.
     999900   -1    0    0    0    0 -0.00000000000E+00 -0.00000000000E+00 -0.74505805969E-08  0.93827000000E+00  0.93827000000E+00 0.  1.
     999902    2    1    2    0    0  0.51010634995E-02 -0.82881613885E-02  0.21821922589E-01  0.10200362608E+01  0.10197563741E+01 0.  0.
     999903    2    3    3    0    0 -0.36351295351E-01  0.82433523133E-01 -0.88174898247E-01  0.12759689439E+00  0.19734547581E-01 0.  0.
         14    1    1    2    0    0 -0.51010634995E-02  0.82881613885E-02 -0.21821922589E-01  0.23893739212E-01  0.00000000000E+00 0. -1.
     999901    1    3    3    0    0  0.41452358851E-01 -0.90721684522E-01  0.10999682084E+00  0.89243936639E+00  0.88000000000E+00 0. -1.
        -11    1    4    4    0    0 -0.37449981192E-01  0.70109296774E-01 -0.79896401187E-01  0.11270097883E+00  0.51100000000E-03 0.  1.
         11    1    4    4    0    0  0.10986858412E-02  0.12324226359E-01 -0.82784970597E-02  0.14895915564E-01  0.51100000000E-03 0. -1.
</event>
<event>
 8    1  0.1129353E+005  0.1043930E+01  0.7957747E-01            NaN
         13   -1    0    0    0    0  0.00000000000E+00  0.00000000000E+00  0.74505805969E-08  0.10566000000E+00  0.10566000000E+00 0. -1.
     999900   -1    0    0    0    0 -0.00000000000E+00 -0.00000000000E+00 -0.74505805969E-08  0.93827000000E+00  0.93827000000E+00 0. -1.
     999902    2    1    2    0    0 -0.18690904011E-01 -0.16137236319E-01 -0.49182979463E-02  0.10187516374E+01  0.10184404493E+01 0.  0.
     999903    2    3    3    0    0 -0.50127852645E-01 -0.66741986378E-01  0.98139037826E-01  0.13073703339E+00  0.22217263515E-01 0.  0.
         14    1    1    2    0    0  0.18690904011E-01  0.16137236319E-01  0.49182979463E-02  0.25178362604E-01  0.00000000000E+00 0. -1.
     999901    1    3    3    0    0  0.31436948634E-01  0.50604750059E-01 -0.10305733577E+00  0.88801460400E+00  0.88000000000E+00 0. -1.
        -11    1    4    4    0    0 -0.24990516070E-01 -0.50434423596E-01  0.60723786970E-01  0.82799736726E-01  0.51100000000E-03 0. -1.
         11    1    4    4    0    0 -0.25137336575E-01 -0.16307562781E-01  0.37415250856E-01  0.47937296665E-01  0.51100000000E-03 0.  1.
</event>
<event>
 8    1  0.1044719E+005  0.1043930E+01  0.7957747E-01            NaN
         13   -1    0    0    0    0  0.00000000000E+00  0.00000000000E+00  0.74505805969E-08  0.10566000000E+00  0.10566000000E+00 0. -1.
     999900   -1    0    0    0    0 -0.00000000000E+00 -0.00000000000E+00 -0.74505805969E-08  0.93827000000E+00  0.93827000000E+00 0. -1.
     999902    2    1    2    0    0  0.28886662581E-03  0.11708085936E-01 -0.20791512824E-01  0.10200668542E+01  0.10197876923E+01 0.  0.
     999903    2    3    3    0    0 -0.94044518632E-01  0.50131627971E-01  0.70693095021E-01  0.12948019948E+00  0.20249858423E-01 0.  0.
         14    1    1    2    0    0 -0.28886662581E-03 -0.11708085936E-01  0.20791512824E-01  0.23863145763E-01  0.00000000000E+00 0. -1.
     999901    1    3    3    0    0  0.94333385258E-01 -0.38423542035E-01 -0.91484607845E-01  0.89058665476E+00  0.88000000000E+00 0. -1.
        -11    1    4    4    0    0 -0.56090503432E-01  0.23562586124E-01  0.49940877063E-01  0.78712720465E-01  0.51100000000E-03 0.  1.
         11    1    4    4    0    0 -0.37954015200E-01  0.26569041847E-01  0.20752217958E-01  0.50767479016E-01  0.51100000000E-03 0. -1.
</event>
<event>
 8    1  0.1044719E+005  0.1043930E+01  0.7957747E-01            NaN
         13   -1    0    0    0    0  0.00000000000E+00  0.00000000000E+00  0.74505805969E-08  0.10566000000E+00  0.10566000000E+00 0. -1.
     999900   -1    0    0    0    0 -0.00000000000E+00 -0.00000000000E+00 -0.74505805969E-08  0.93827000000E+00  0.93827000000E+00 0. -1.
     999902    2    1    2    0    0  0.39170641676E-02 -0.12854544804E-01 -0.19661460181E-01  0.10201149684E+01  0.10198369443E+01 0.  0.
     999903    2    3    3    0    0 -0.10464742087E+00  0.68906769079E-01  0.19677705397E-01  0.12881326313E+00  0.22503758572E-01 0.  0.
         14    1    1    2    0    0 -0.39170641676E-02  0.12854544804E-01  0.19661460181E-01  0.23815031603E-01  0.00000000000E+00 0. -1.
     999901    1    3    3    0    0  0.10856448504E+00 -0.81761313883E-01 -0.39339165579E-01  0.89130170526E+00  0.88000000000E+00 0. -1.
        -11    1    4    4    0    0 -0.75775095331E-01  0.46366637850E-01  0.38853430114E-02  0.88921803790E-01  0.51100000000E-03 0.  1.
         11    1    4    4    0    0 -0.28872325536E-01  0.22540131229E-01  0.15792362386E-01  0.39891459342E-01  0.51100000000E-03 0. -1.
</event>
<event>
 8    1  0.1044719E+005  0.1043930E+01  0.7957747E-01            NaN
         13   -1    0    0    0    0  0.00000000000E+00  0.00000000000E+00  0.74505805969E-08  0.10566000000E+00  0.10566000000E+00 0.  1.
     999900   -1    0    0    0    0 -0.00000000000E+00 -0.00000000000E+00 -0.74505805969E-08  0.93827000000E+00  0.93827000000E+00 0.  1.
     999902    2    1    2    0    0 -0.30277348013E-02 -0.19619177457E-01 -0.14129702605E-01  0.10195634697E+01  0.10192722605E+01 0.  0.
     999903    2    3    3    0    0  0.69297153083E-01 -0.70389291961E-01  0.81194582039E-01  0.13001571205E+00  0.23553712641E-01 0.  0.
         14    1    1    2    0    0  0.30277348013E-02  0.19619177457E-01  0.14129702605E-01  0.24366530279E-01  0.00000000000E+00 0. -1.
     999901    1    3    3    0    0 -0.72324887884E-01  0.50770114504E-01 -0.95324284645E-01  0.88954775767E+00  0.88000000000E+00 0.  1.
        -11    1    4    4    0    0  0.35109266037E-01 -0.21360700306E-01  0.25840611391E-01  0.48548309932E-01  0.51100000000E-03 0. -1.
         11    1    4    4    0    0  0.34187887046E-01 -0.49028591655E-01  0.55353970648E-01  0.81467402118E-01  0.51100000000E-03 0.  1.
</event>
<event>
 8    1  0.1044719E+005  0.1043930E+01  0.7957747E-01            NaN
         13   -1    0    0    0    0  0.00000000000E+00  0.00000000000E+00  0.74505805969E-08  0.10566000000E+00  0.10566000000E+00 0. -1.
     999900   -1    0    0    0    0 -0.00000000000E+00 -0.00000000000E+00 -0.74505805969E-08  0.93827000000E+00  0.93827000000E+00 0.  1.
     999902    2    1    2    0    0 -0.11636991117E-01 -0.17918069152E-01  0.41833099943E-02  0.10221589907E+01  0.10219271135E+01 0.  0.
     999903    2    3    3    0    0  0.80272470899E-01 -0.99206589274E-01  0.32257732712E-01  0.13320266671E+00  0.20414998394E-01 0.  0.
         14    1    1    2    0    0  0.11636991117E-01  0.17918069152E-01 -0.41833099943E-02  0.21771009322E-01  0.00000000000E+00 0. -1.
     999901    1    3    3    0    0 -0.91909462015E-01  0.81288520122E-01 -0.28074422718E-01  0.88895632397E+00  0.88000000000E+00 0.  1.
        -11    1    4    4    0    0  0.49235789080E-01 -0.56758190099E-01  0.89106662141E-02  0.75665818987E-01  0.51100000000E-03 0. -1.
         11    1    4    4    0    0  0.31036681819E-01 -0.42448399175E-01  0.23347066498E-01  0.57536847723E-01  0.51100000000E-03 0.  1.
</event>
<event>
 8    1  0.1044719E+005  0.1043930E+01  0.7957747E-01            NaN
         13   -1    0    0    0    0  0.00000000000E+00  0.00000000000E+00  0.74505805969E-08  0.10566000000E+00  0.10566000000E+00 0.  1.
     999900   -1    0    0    0    0 -0.00000000000E+00 -0.00000000000E+00 -0.74505805969E-08  0.93827000000E+00  0.93827000000E+00 0. -1.
     999902    2    1    2    0    0 -0.19656628046E-01 -0.95917534024E-02 -0.10270932837E-01  0.10197664568E+01  0.10194801369E+01 0.  0.
     999903    2    3    3    0    0  0.89613410540E-01 -0.52035355951E-01 -0.75270124317E-01  0.12961686507E+00  0.19917290948E-01 0.  0.
         14    1    1    2    0    0  0.19656628046E-01  0.95917534024E-02  0.10270932837E-01  0.24163543217E-01  0.00000000000E+00 0.  1.
     999901    1    3    3    0    0 -0.10927003859E+00  0.42443602549E-01  0.64999191481E-01  0.89014959171E+00  0.88000000000E+00 0. -1.
        -11    1    4    4    0    0  0.53615252048E-01 -0.41396842169E-01 -0.52589197316E-01  0.85756507561E-01  0.51100000000E-03 0.  1.
         11    1    4    4    0    0  0.35998158492E-01 -0.10638513782E-01 -0.22680927001E-01  0.43860357510E-01  0.51100000000E-03 0. -1.
</event>
<event>
 8    1  0.1044719E+005  0.1043930E+01  0.7957747E-01            NaN
         13   -1    0    0    0    0  0.00000000000E+00  0.00000000000E+00  0.74505805969E-08  0.10566000000E+00  0.10566000000E+00 0. -1.
     999900   -1    0    0    0    0 -0.00000000000E+00 -0.00000000000E+00 -0.74505805969E-08  0.93827000000E+00  0.93827000000E+00 0.  1.
     999902    2    1    2    0    0  0.11293914758E-01  0.17123352268E-01 -0.12202497175E-01  0.10200623935E+01  0.10197831259E+01 0.  0.
     999903    2    3    3    0    0  0.10584140995E+00 -0.73330310143E-01 -0.62417884088E-02  0.13036771331E+00  0.19417577223E-01 0.  0.
         14    1    1    2    0    0 -0.11293914758E-01 -0.17123352268E-01  0.12202497175E-01  0.23867606515E-01  0.00000000000E+00 0. -1.
     999901    1    3    3    0    0 -0.94547495187E-01  0.90453662411E-01 -0.59607087660E-02  0.88969468018E+00  0.88000000000E+00 0. -1.
        -11    1    4    4    0    0  0.79853625789E-01 -0.55105477692E-01  0.37248153558E-02  0.97094544614E-01  0.51100000000E-03 0.  1.
         11    1    4    4    0    0  0.25987784157E-01 -0.18224832451E-01 -0.99666037646E-02  0.33273168692E-01  0.51100000000E-03 0. -1.
</event>
<event>
 8    1  0.1044719E+005  0.1043930E+01  0.7957747E-01            NaN
         13   -1    0    0    0    0  0.00000000000E+00  0.00000000000E+00  0.74505805969E-08  0.10566000000E+00  0.10566000000E+00 0.  1.
     999900   -1    0    0    0    0 -0.00000000000E+00 -0.00000000000E+00 -0.74505805969E-08  0.93827000000E+00  0.93827000000E+00 0. -1.
     999902    2    1    2    0    0  0.17130898252E-01 -0.13762200501E-01  0.79760883925E-02  0.10205530065E+01  0.10202852323E+01 0.  0.
     999903    2    3    3    0    0  0.70067632631E-01  0.70973429792E-01  0.83658254859E-01  0.13167156606E+00  0.19798909687E-01 0.  0.
         14    1    1    2    0    0 -0.17130898252E-01  0.13762200501E-01 -0.79760883925E-02  0.23376993468E-01  0.00000000000E+00 0.  1.
     999901    1    3    3    0    0 -0.52936734379E-01 -0.84735630293E-01 -0.75682166466E-01  0.88888144047E+00  0.88000000000E+00 0. -1.
        -11    1    4    4    0    0  0.15793433684E-01  0.10343061524E-01  0.25123626603E-01  0.31430386633E-01  0.51100000000E-03 0. -1.
         11    1    4    4    0    0  0.54274198947E-01  0.60630368269E-01  0.58534628256E-01  0.10024117943E+00  0.51100000000E-03 0.  1.
</event>
<event>
 8    1  0.1044719E+005  0.1043930E+01  0.7957747E-01            NaN
         13   -1    0    0    0    0  0.00000000000E+00  0.00000000000E+00  0.74505805969E-08  0.10566000000E+00  0.10566000000E+00 0. -1.
     999900   -1    0    0    0    0 -0.00000000000E+00 -0.00000000000E+00 -0.74505805969E-08  0.93827000000E+00  0.93827000000E+00 0.  1.
     999902    2    1    2    0    0  0.17357715518E-01  0.15681687005E-01  0.56160062643E-02  0.10198728779E+01  0.10195891045E+01 0.  0.
     999903    2    3    3    0    0 -0.23413531689E-01 -0.11557393935E+00 -0.43717252091E-01  0.12783918775E+00  0.22937542838E-01 0.  0.
         14    1    1    2    0    0 -0.17357715518E-01 -0.15681687005E-01 -0.56160062643E-02  0.24057122058E-01  0.00000000000E+00 0.  1.
     999901    1    3    3    0    0  0.40771247207E-01  0.13125562636E+00  0.49333258355E-01  0.89203369019E+00  0.88000000000E+00 0. -1.
        -11    1    4    4    0    0 -0.22524765175E-01 -0.99012553079E-01 -0.45261782361E-01  0.11117437104E+00  0.51100000000E-03 0. -1.
         11    1    4    4    0    0 -0.88876651469E-03 -0.16561386275E-01  0.15445302703E-02  0.16664816711E-01  0.51100000000E-03 0.  1.
</event>
<event>
 8    1  0.1044719E+005  0.1043930E+01  0.7957747E-01            NaN
         13   -1    0    0    0    0  0.00000000000E+00  0.00000000000E+00  0.74505805969E-08  0.10566000000E+00  0.10566000000E+00 0.  1.
     999900   -1    0    0    0    0 -0.00000000000E+00 -0.00000000000E+00 -0.74505805969E-08  0.93827000000E+00  0.93827000000E+00 0. -1.
     999902    2    1    2    0    0  0.11863437781E-01  0.25015587608E-02  0.20135971166E-01  0.10204256113E+01  0.10201548765E+01 0.  0.
     999903    2    3    3    0    0 -0.69202559530E-01 -0.97086275129E-01  0.50266791331E-01  0.13059568437E+00  0.17712803321E-01 0.  0.
         14    1    1    2    0    0 -0.11863437781E-01 -0.25015587608E-02 -0.20135971166E-01  0.23504388676E-01  0.00000000000E+00 0. -1.
     999901    1    3    3    0    0  0.81065997311E-01  0.99587833890E-01 -0.30130820165E-01  0.88982992695E+00  0.88000000000E+00 0.  1.
        -11    1    4    4    0    0 -0.50678329927E-01 -0.67371526596E-01  0.43725026653E-01  0.94970283756E-01  0.51100000000E-03 0. -1.
         11    1    4    4    0    0 -0.18524229604E-01 -0.29714748533E-01  0.65417646789E-02  0.35625400614E-01  0.51100000000E-03 0.  1.
</event>
<event>
 8    1  0.1044719E+005  0.1043930E+01  0.7957747E-01            NaN
         13   -1    0    0    0    0  0.00000000000E+00  0.00000000000E+00  0.74505805969E-08  0.10566000000E+00  0.10566000000E+00 0. -1.
     999900   -1    0    0    0    0 -0.00000000000E+00 -0.00000000000E+00 -0.74505805969E-08  0.93827000000E+00  0.93827000000E+00 0.  1.
     999902    2    1    2    0    0 -0.29844484551E-02 -0.78841555667E-02  0.22287608615E-01  0.10201013546E+01  0.10198230089E+01 0.  0.
     999903    2    3    3    0    0  0.12632257581E+00  0.59003299918E-02 -0.19975817372E-01  0.12954169031E+00  0.19743586179E-01 0.  0.
         14    1    1    2    0    0  0.29844484551E-02  0.78841555667E-02 -0.22287608615E-01  0.23828645353E-01  0.00000000000E+00 0.  1.
     999901    1    3    3    0    0 -0.12930702427E+00 -0.13784485559E-01  0.42263425987E-01  0.89055966434E+00  0.88000000000E+00 0.  1.
        -11    1    4    4    0    0  0.36157499957E-01  0.59097590899E-02 -0.13836807763E-01  0.39166419618E-01  0.51100000000E-03 0.  1.
         11    1    4    4    0    0  0.90165075854E-01 -0.94290981288E-05 -0.61390096093E-02  0.90375270692E-01  0.51100000000E-03 0. -1.
</event>
<event>
 8    1  0.1044719E+005  0.1043930E+01  0.7957747E-01            NaN
         13   -1    0    0    0    0  0.00000000000E+00  0.00000000000E+00  0.74505805969E-08  0.10566000000E+00  0.10566000000E+00 0. -1.
     999900   -1    0    0    0    0 -0.00000000000E+00 -0.00000000000E+00 -0.74505805969E-08  0.93827000000E+00  0.93827000000E+00 0. -1.
     999902    2    1    2    0    0  0.12286569412E-01  0.20037331371E-01  0.14204394518E-02  0.10203827691E+01  0.10201110348E+01 0.  0.
     999903    2    3    3    0    0 -0.63988039971E-01  0.10373883774E+00  0.47030885571E-01  0.13195490424E+00  0.18546612617E-01 0.  0.
         14    1    1    2    0    0 -0.12286569412E-01 -0.20037331371E-01 -0.14204394518E-02  0.23547230933E-01  0.00000000000E+00 0. -1.
     999901    1    3    3    0    0  0.76274609383E-01 -0.83701506374E-01 -0.45610446119E-01  0.88842786483E+00  0.88000000000E+00 0. -1.
        -11    1    4    4    0    0 -0.50097547797E-01  0.64586703410E-01  0.31578700911E-01  0.87628089245E-01  0.51100000000E-03 0. -1.
         11    1    4    4    0    0 -0.13890492174E-01  0.39152134335E-01  0.15452184660E-01  0.44326814995E-01  0.51100000000E-03 0.  1.
</event>
<event>
 8    1  0.1044719E+005  0.1043930E+01  0.7957747E-01            NaN
         13   -1    0    0    0    0  0.00000000000E+00  0.00000000000E+00  0.74505805969E-08  0.10566000000E+00  0.10566000000E+00 0.  1.
     999900   -1    0    0    0    0 -0.00000000000E+00 -0.00000000000E+00 -0.74505805969E-08  0.93827000000E+00  0.93827000000E+00 0.  1.
     999902    2    1    2    0    0 -0.37366634345E-02  0.19986162445E-01  0.10259449067E-01  0.10211557681E+01  0.10209017764E+01 0.  0.
     999903    2    3    3    0    0  0.48775178258E-01  0.11665755549E+00  0.38882381550E-01  0.13384402807E+00  0.20356350061E-01 0.  0.
         14    1    1    2    0    0  0.37366634345E-02 -0.19986162445E-01 -0.10259449067E-01  0.22774231887E-01  0.00000000000E+00 0.  1.
     999901    1    3    3    0    0 -0.52511841692E-01 -0.96671393047E-01 -0.28622932483E-01  0.88731174004E+00  0.88000000000E+00 0.  1.
        -11    1    4    4    0    0  0.46159374175E-01  0.88961239290E-01  0.29394217284E-01  0.10444649851E+00  0.51100000000E-03 0. -1.
         11    1    4    4    0    0  0.26158040833E-02  0.27696316202E-01  0.94881642662E-02  0.29397529561E-01  0.51100000000E-03 0.  1.
</event>
<event>
 8    1  0.1044719E+005  0.1043930E+01  0.7957747E-01            NaN
         13   -1    0    0    0    0  0.00000000000E+00  0.00000000000E+00  0.74505805969E-08  0.10566000000E+00  0.10566000000E+00 0.  1.
     999900   -1    0    0    0    0 -0.00000000000E+00 -0.00000000000E+00 -0.74505805969E-08  0.93827000000E+00  0.93827000000E+00 0.  1.
     999902    2    1    2    0    0 -0.17443663752E-01 -0.74654481621E-02 -0.12470956768E-02  0.10249150173E+01  0.10247386120E+01 0.  0.
     999903    2    3    3    0    0  0.10108918341E+00  0.61574633178E-01 -0.56406229278E-01  0.13258150409E+00  0.19640113844E-01 0.  0.
         14    1    1    2    0    0  0.17443663752E-01  0.74654481621E-02  0.12470956768E-02  0.19014982750E-01  0.00000000000E+00 0. -1.
     999901    1    3    3    0    0 -0.11853284716E+00 -0.69040081340E-01  0.55159133601E-01  0.89233351316E+00  0.88000000000E+00 0. -1.
        -11    1    4    4    0    0  0.58354594420E-01  0.28371472274E-01 -0.39118788058E-01  0.75767670078E-01  0.51100000000E-03 0. -1.
         11    1    4    4    0    0  0.42734588991E-01  0.33203160904E-01 -0.17287441220E-01  0.56813834013E-01  0.51100000000E-03 0.  1.
</event>
<event>
 8    1  0.1044719E+005  0.1043930E+01  0.7957747E-01            NaN
         13   -1    0    0    0    0  0.00000000000E+00  0.00000000000E+00  0.74505805969E-08  0.10566000000E+00  0.10566000000E+00 0. -1.
     999900   -1    0    0    0    0 -0.00000000000E+00 -0.00000000000E+00 -0.74505805969E-08  0.93827000000E+00  0.93827000000E+00 0. -1.
     999902    2    1    2    0    0  0.16498166715E-01 -0.96642384814E-02 -0.14224306277E-01  0.10200989719E+01  0.10198205698E+01 0.  0.
     999903    2    3    3    0    0 -0.10101196247E+00  0.54619434321E-01  0.51678833617E-01  0.12752726897E+00  0.20144560547E-01 0.  0.
         14    1    1    2    0    0 -0.16498166715E-01  0.96642384814E-02  0.14224306277E-01  0.23831028082E-01  0.00000000000E+00 0. -1.
     999901    1    3    3    0    0  0.11751012919E+00 -0.64283672802E-01 -0.65903139894E-01  0.89257170295E+00  0.88000000000E+00 0.  1.
        -11    1    4    4    0    0 -0.13573793240E-01  0.88238525256E-02  0.15443330089E-01  0.22380031313E-01  0.51100000000E-03 0.  1.
         11    1    4    4    0    0 -0.87438169233E-01  0.45795581795E-01  0.36235503528E-01  0.10514723766E+00  0.51100000000E-03 0. -1.
</event>
<event>
 8    1  0.1044719E+005  0.1043930E+01  0.7957747E-01            NaN
         13   -1    0    0    0    0  0.00000000000E+00  0.00000000000E+00  0.74505805969E-08  0.10566000000E+00  0.10566000000E+00 0.  1.
     999900   -1    0    0    0    0 -0.00000000000E+00 -0.00000000000E+00 -0.74505805969E-08  0.93827000000E+00  0.93827000000E+00 0.  1.
     999902    2    1    2    0    0 -0.46934873821E-02 -0.11470673753E-01  0.22983504745E-01  0.10178178061E+01  0.10174827958E+01 0.  0.
     999903    2    3    3    0    0  0.14142958757E-02  0.89390988040E-01  0.91362025129E-01  0.12940011048E+00  0.20115167917E-01 0.  0.
         14    1    1    2    0    0  0.46934873821E-02  0.11470673753E-01 -0.22983504745E-01  0.26112193905E-01  0.00000000000E+00 0. -1.
     999901    1    3    3    0    0 -0.61077832579E-02 -0.10086166179E+00 -0.68378520385E-01  0.88841769562E+00  0.88000000000E+00 0.  1.
        -11    1    4    4    0    0  0.81429304102E-02  0.54128503646E-01  0.64274359021E-01  0.84425449784E-01  0.51100000000E-03 0.  1.
         11    1    4    4    0    0 -0.67286345344E-02  0.35262484394E-01  0.27087666108E-01  0.44974660694E-01  0.51100000000E-03 0. -1.
</event>
<event>
 8    1  0.1044719E+005  0.1043930E+01  0.7957747E-01            NaN
         13   -1    0    0    0    0  0.00000000000E+00  0.00000000000E+00  0.74505805969E-08  0.10566000000E+00  0.10566000000E+00 0. -1.
     999900   -1    0    0    0    0 -0.00000000000E+00 -0.00000000000E+00 -0.74505805969E-08  0.93827000000E+00  0.93827000000E+00 0.  1.
     999902    2    1    2    0    0 -0.55527807593E-02  0.14425261123E-01  0.18073229192E-01  0.10201484284E+01  0.10198711943E+01 0.  0.
     999903    2    3    3    0    0 -0.60926120885E-01 -0.83123700632E-01 -0.73570124430E-01  0.12830734898E+00  0.20704366246E-01 0.  0.
         14    1    1    2    0    0  0.55527807593E-02 -0.14425261123E-01 -0.18073229192E-01  0.23781571564E-01  0.00000000000E+00 0.  1.
     999901    1    3    3    0    0  0.55373340126E-01  0.97548961755E-01  0.91643353622E-01  0.89184107945E+00  0.88000000000E+00 0. -1.
        -11    1    4    4    0    0 -0.40585549202E-01 -0.48129680419E-01 -0.55688482981E-01  0.84054275317E-01  0.51100000000E-03 0. -1.
         11    1    4    4    0    0 -0.20340571683E-01 -0.34994020212E-01 -0.17881641448E-01  0.44253073666E-01  0.51100000000E-03 0.  1.
</event>
<event>
 8    1  0.1044719E+005  0.1043930E+01  0.7957747E-01            NaN
         13   -1    0    0    0    0  0.00000000000E+00  0.00000000000E+00  0.74505805969E-08  0.10566000000E+00  0.10566000000E+00 0. -1.
     999900   -1    0    0    0    0 -0.00000000000E+00 -0.00000000000E+00 -0.74505805969E-08  0.93827000000E+00  0.93827000000E+00 0.  1.
     999902    2    1    2    0    0 -0.20845021163E-01  0.37640288797E-02 -0.44818667055E-02  0.10222789042E+01  0.10220496015E+01 0.  0.
     999903    2    3    3    0    0 -0.90048391367E-02  0.12095604611E+00  0.50490318803E-01  0.13273064805E+00  0.18886514284E-01 0.  0.
         14    1    1    2    0    0  0.20845021163E-01 -0.37640288797E-02  0.44818667055E-02  0.21651095812E-01  0.00000000000E+00 0.  1.
     999901    1    3    3    0    0 -0.11840182026E-01 -0.11719201723E+00 -0.54972185509E-01  0.88954825613E+00  0.88000000000E+00 0. -1.
        -11    1    4    4    0    0  0.21262139712E-02  0.72395242680E-02 -0.56098264911E-03  0.75833580959E-02  0.51100000000E-03 0.  1.
         11    1    4    4    0    0 -0.11131053108E-01  0.11371652184E+00  0.51051301452E-01  0.12514728996E+00  0.51100000000E-03 0. -1.
</event>
<event>
 8    1  0.1044719E+005  0.1043930E+01  0.7957747E-01            NaN
         13   -1    0    0    0    0  0.00000000000E+00  0.00000000000E+00  0.74505805969E-08  0.10566000000E+00  0.10566000000E+00 0.  1.
     999900   -1    0    0    0    0 -0.00000000000E+00 -0.00000000000E+00 -0.74505805969E-08  0.93827000000E+00  0.93827000000E+00 0.  1.
     999902    2    1    2    0    0  0.15090545051E-03 -0.10344628101E-01  0.22078356901E-01  0.10195478765E+01  0.10192562899E+01 0.  0.
     999903    2    3    3    0    0 -0.10520346807E-01  0.80415563654E-01  0.10121798244E+00  0.13128306893E+00  0.20318062001E-01 0.  0.
         14    1    1    2    0    0 -0.15090545051E-03  0.10344628101E-01 -0.22078356901E-01  0.24382123502E-01  0.00000000000E+00 0. -1.
     999901    1    3    3    0    0  0.10671252258E-01 -0.90760191756E-01 -0.79139625541E-01  0.88826480757E+00  0.88000000000E+00 0.  1.
        -11    1    4    4    0    0 -0.25029654464E-02  0.54937433487E-01  0.54260904092E-01  0.77258612905E-01  0.51100000000E-03 0.  1.
         11    1    4    4    0    0 -0.80173813610E-02  0.25478130168E-01  0.46957078350E-01  0.54024456025E-01  0.51100000000E-03 0. -1.
</event>
<event>
 8    1  0.1044719E+005  0.1043930E+01  0.7957747E-01            NaN
         13   -1    0    0    0    0  0.00000000000E+00  0.00000000000E+00  0.74505805969E-08  0.10566000000E+00  0.10566000000E+00 0. -1.
     999900   -1    0    0    0    0 -0.00000000000E+00 -0.00000000000E+00 -0.74505805969E-08  0.93827000000E+00  0.93827000000E+00 0.  1.
     999902    2    1    2    0    0  0.16585941934E-01  0.58349691344E-02 -0.17248953672E-01  0.10192993943E+01  0.10190017608E+01 0.  0.
     999903    2    3    3    0    0  0.10129711243E+00 -0.55064610312E-01 -0.61274630705E-01  0.13204351157E+00  0.19689903129E-01 0.  0.
         14    1    1    2    0    0 -0.16585941934E-01 -0.58349691344E-02  0.17248953672E-01  0.24630605706E-01  0.00000000000E+00 0.  1.
     999901    1    3    3    0    0 -0.84711170496E-01  0.60899579447E-01  0.44025677032E-01  0.88725588272E+00  0.88000000000E+00 0.  1.
        -11    1    4    4    0    0  0.40642253985E-01 -0.16428212955E-01 -0.32548511009E-01  0.54601700338E-01  0.51100000000E-03 0. -1.
         11    1    4    4    0    0  0.60654858445E-01 -0.38636397357E-01 -0.28726119696E-01  0.77441811236E-01  0.51100000000E-03 0.  1.
</event>
<event>
 8    1  0.1044719E+005  0.1043930E+01  0.7957747E-01            NaN
         13   -1    0    0    0    0  0.00000000000E+00  0.00000000000E+00  0.74505805969E-08  0.10566000000E+00  0.10566000000E+00 0. -1.
     999900   -1    0    0    0    0 -0.00000000000E+00 -0.00000000000E+00 -0.74505805969E-08  0.93827000000E+00  0.93827000000E+00 0. -1.
     999902    2    1    2    0    0  0.39003197938E-02  0.12163804103E-02 -0.22782585792E-01  0.10207839789E+01  0.10205215301E+01 0.  0.
     999903    2    3    3    0    0 -0.82941256227E-02 -0.30293257081E-01 -0.12852023656E+00  0.13381046606E+00  0.20032864917E-01 0.  0.
         14    1    1    2    0    0 -0.39003197938E-02 -0.12163804103E-02  0.22782585792E-01  0.23146021066E-01  0.00000000000E+00 0. -1.
     999901    1    3    3    0    0  0.12194445416E-01  0.31509637492E-01  0.10573765077E+00  0.88697351288E+00  0.88000000000E+00 0.  1.
        -11    1    4    4    0    0 -0.74920328170E-02 -0.13408706239E-02 -0.38351531849E-01  0.39102808159E-01  0.51100000000E-03 0.  1.
         11    1    4    4    0    0 -0.80209280572E-03 -0.28952386458E-01 -0.90168704711E-01  0.94707657899E-01  0.51100000000E-03 0. -1.
</event>
<event>
 8    1  0.1044719E+005  0.1043930E+01  0.7957747E-01            NaN
         13   -1    0    0    0    0  0.00000000000E+00  0.00000000000E+00  0.74505805969E-08  0.10566000000E+00  0.10566000000E+00 0. -1.
     999900   -1    0    0    0    0 -0.00000000000E+00 -0.00000000000E+00 -0.74505805969E-08  0.93827000000E+00  0.93827000000E+00 0. -1.
     999902    2    1    2    0    0 -0.95952423524E-03 -0.19441474107E-02 -0.23592793973E-01  0.10202378004E+01  0.10199626704E+01 0.  0.
     999903    2    3    3    0    0  0.23935511644E-01  0.10522894350E+00 -0.73377900018E-01  0.13198986707E+00  0.19772949484E-01 0.  0.
         14    1    1    2    0    0  0.95952423524E-03  0.19441474107E-02  0.23592793973E-01  0.23692199632E-01  0.00000000000E+00 0. -1.
     999901    1    3    3    0    0 -0.24895035879E-01 -0.10717309091E+00  0.49785106044E-01  0.88824793330E+00  0.88000000000E+00 0.  1.
        -11    1    4    4    0    0  0.25254683013E-02  0.36683510088E-01 -0.16153889629E-01  0.40165497304E-01  0.51100000000E-03 0. -1.
         11    1    4    4    0    0  0.21410043342E-01  0.68545433407E-01 -0.57224010389E-01  0.91824369765E-01  0.51100000000E-03 0.  1.
</event>
<event>
 8    1  0.1044719E+005  0.1043930E+01  0.7957747E-01            NaN
         13   -1    0    0    0    0  0.00000000000E+00  0.00000000000E+00  0.74505805969E-08  0.10566000000E+00  0.10566000000E+00 0.  1.
     999900   -1    0    0    0    0 -0.00000000000E+00 -0.00000000000E+00 -0.74505805969E-08  0.93827000000E+00  0.93827000000E+00 0. -1.
     999902    2    1    2    0    0 -0.81925626987E-02  0.21718997705E-01 -0.12017887962E-02  0.10206861354E+01  0.10204214373E+01 0.  0.
     999903    2    3    3    0    0  0.85304266590E-01 -0.78238778245E-01  0.52641781120E-01  0.12847968840E+00  0.18377945812E-01 0.  0.
         14    1    1    2    0    0  0.81925626987E-02 -0.21718997705E-01  0.12017887962E-02  0.23243864593E-01  0.00000000000E+00 0.  1.
     999901    1    3    3    0    0 -0.93496829289E-01  0.99957775950E-01 -0.53843569916E-01  0.89220644701E+00  0.88000000000E+00 0. -1.
        -11    1    4    4    0    0  0.54649686033E-01 -0.56639949607E-01  0.27699355712E-01  0.83439723770E-01  0.51100000000E-03 0. -1.
         11    1    4    4    0    0  0.30654580557E-01 -0.21598828638E-01  0.24942425408E-01  0.45039964630E-01  0.51100000000E-03 0.  1.
</event>
<event>
 8    1  0.1044719E+005  0.1043930E+01  0.7957747E-01            NaN
         13   -1    0    0    0    0  0.00000000000E+00  0.00000000000E+00  0.74505805969E-08  0.10566000000E+00  0.10566000000E+00 0.  1.
     999900   -1    0    0    0    0 -0.00000000000E+00 -0.00000000000E+00 -0.74505805969E-08  0.93827000000E+00  0.93827000000E+00 0. -1.
     999902    2    1    2    0    0  0.14572175892E-01  0.21908755755E-01 -0.17437917031E-02  0.10175598901E+01  0.10172181414E+01 0.  0.
     999903    2    3    3    0    0 -0.89612286981E-01 -0.53973268024E-01 -0.66368270845E-01  0.12582629355E+00  0.22000753025E-01 0.  0.
         14    1    1    2    0    0 -0.14572175892E-01 -0.21908755755E-01  0.17437917031E-02  0.26370109945E-01  0.00000000000E+00 0.  1.
     999901    1    3    3    0    0  0.10418446287E+00  0.75882023780E-01  0.64624479142E-01  0.89173359651E+00  0.88000000000E+00 0.  1.
        -11    1    4    4    0    0 -0.55338359769E-01 -0.25260648951E-01 -0.47983961193E-01  0.77480036784E-01  0.51100000000E-03 0.  1.
         11    1    4    4    0    0 -0.34273927212E-01 -0.28712619074E-01 -0.18384309652E-01  0.48346256763E-01  0.51100000000E-03 0. -1.
</event>
<event>
 8    1  0.1044719E+005  0.1043930E+01  0.7957747E-01            NaN
         13   -1    0    0    0    0  0.00000000000E+00  0.00000000000E+00  0.74505805969E-08  0.10566000000E+00  0.10566000000E+00 0.  1.
     999900   -1    0    0    0    0 -0.00000000000E+00 -0.00000000000E+00 -0.74505805969E-08  0.93827000000E+00  0.93827000000E+00 0.  1.
     999902    2    1    2    0    0  0.13350743575E-01 -0.14421456990E-01 -0.15098972259E-01  0.10191469465E+01  0.10188455717E+01 0.  0.
     999903    2    3    3    0    0 -0.85272485352E-01  0.89546589251E-01 -0.23781568478E-01  0.12751289414E+00  0.20099422053E-01 0.  0.
         14    1    1    2    0    0 -0.13350743575E-01  0.14421456990E-01  0.15098972259E-01  0.24783053464E-01  0.00000000000E+00 0.  1.
     999901    1    3    3    0    0  0.98623228927E-01 -0.10396804624E+00  0.86825962193E-02  0.89163405240E+00  0.88000000000E+00 0. -1.
        -11    1    4    4    0    0 -0.58181121567E-01  0.68470545388E-01 -0.95751488320E-02  0.90361513316E-01  0.51100000000E-03 0. -1.
         11    1    4    4    0    0 -0.27091363785E-01  0.21076043863E-01 -0.14206419646E-01  0.37151380820E-01  0.51100000000E-03 0.  1.
</event>
<event>
 8    1  0.1044719E+005  0.1043930E+01  0.7957747E-01            NaN
         13   -1    0    0    0    0  0.00000000000E+00  0.00000000000E+00  0.74505805969E-08  0.10566000000E+00  0.10566000000E+00 0. -1.
     999900   -1    0    0    0    0 -0.00000000000E+00 -0.00000000000E+00 -0.74505805969E-08  0.93827000000E+00  0.93827000000E+00 0.  1.
     999902    2    1    2    0    0  0.59273291885E-02  0.18144286936E-01  0.13889873021E-01  0.10203232859E+01  0.10200501609E+01 0.  0.
     999903    2    3    3    0    0  0.11397363999E+00 -0.43017699339E-01 -0.40797831163E-01  0.12992700396E+00  0.19392015419E-01 0.  0.
         14    1    1    2    0    0 -0.59273291885E-02 -0.18144286936E-01 -0.13889873021E-01  0.23606714135E-01  0.00000000000E+00 0.  1.
     999901    1    3    3    0    0 -0.10804631080E+00  0.61161986275E-01  0.54687704184E-01  0.89039628191E+00  0.88000000000E+00 0. -1.
        -11    1    4    4    0    0  0.20051393141E-01 -0.68871938086E-02 -0.15191315902E-01  0.26086950862E-01  0.51100000000E-03 0.  1.
         11    1    4    4    0    0  0.93922246846E-01 -0.36130505530E-01 -0.25606515261E-01  0.10384005310E+00  0.51100000000E-03 0. -1.
</event>
<event>
 8    1  0.1044719E+005  0.1043930E+01  0.7957747E-01            NaN
         13   -1    0    0    0    0  0.00000000000E+00  0.00000000000E+00  0.74505805969E-08  0.10566000000E+00  0.10566000000E+00 0. -1.
     999900   -1    0    0    0    0 -0.00000000000E+00 -0.00000000000E+00 -0.74505805969E-08  0.93827000000E+00  0.93827000000E+00 0. -1.
     999902    2    1    2    0    0 -0.13590585632E-01 -0.68138491986E-02 -0.18299329852E-01  0.10201392869E+01  0.10198618370E+01 0.  0.
     999903    2    3    3    0    0 -0.56212086112E-02 -0.28181483244E-01 -0.12828113078E+00  0.13300001747E+00  0.20178259351E-01 0.  0.
         14    1    1    2    0    0  0.13590585632E-01  0.68138491986E-02  0.18299329852E-01  0.23790713141E-01  0.00000000000E+00 0. -1.
     999901    1    3    3    0    0 -0.79693770209E-02  0.21367634046E-01  0.10998180092E+00  0.88713926939E+00  0.88000000000E+00 0.  1.
        -11    1    4    4    0    0  0.40995864531E-02 -0.34194872513E-02 -0.50709178410E-01  0.50991973861E-01  0.51100000000E-03 0. -1.
         11    1    4    4    0    0 -0.97207950642E-02 -0.24761995993E-01 -0.77571952365E-01  0.82008043611E-01  0.51100000000E-03 0.  1.
</event>
<event>
 8    1  0.1044719E+005  0.1043930E+01  0.7957747E-01            NaN
         13   -1    0    0    0    0  0.00000000000E+00  0.00000000000E+00  0.74505805969E-08  0.10566000000E+00  0.10566000000E+00 0. -1.
     999900   -1    0    0    0    0 -0.00000000000E+00 -0.00000000000E+00 -0.74505805969E-08  0.93827000000E+00  0.93827000000E+00 0.  1.
     999902    2    1    2    0    0  0.17533096258E-01  0.69434693158E-02 -0.14262107526E-01  0.10202862071E+01  0.10200122134E+01 0.  0.
     999903    2    3    3    0    0 -0.71790023005E-01  0.10578577338E+00 -0.16712026105E-01  0.13025563304E+00  0.18514882343E-01 0.  0.
         14    1    1    2    0    0 -0.17533096258E-01 -0.69434693158E-02  0.14262107526E-01  0.23643792877E-01  0.00000000000E+00 0. -1.
     999901    1    3    3    0    0  0.89323119263E-01 -0.98842304066E-01  0.24499185787E-02  0.89003057409E+00  0.88000000000E+00 0. -1.
        -11    1    4    4    0    0 -0.66718659286E-01  0.96693413244E-01 -0.10100657777E-01  0.11791217100E+00  0.51100000000E-03 0.  1.
         11    1    4    4    0    0 -0.50713637190E-02  0.90923601375E-02 -0.66113683281E-02  0.12343462035E-01  0.51100000000E-03 0. -1.
</event>
<event>
 8    1  0.1044719E+005  0.1043930E+01  0.7957747E-01            NaN
         13   -1    0    0    0    0  0.00000000000E+00  0.00000000000E+00  0.74505805969E-08  0.10566000000E+00  0.10566000000E+00 0.  1.
     999900   -1    0    0    0    0 -0.00000000000E+00 -0.00000000000E+00 -0.74505805969E-08  0.93827000000E+00  0.93827000000E+00 0. -1.
     999902    2    1    2    0    0 -0.25461950963E-02 -0.13093131781E-01  0.19379319562E-01  0.10204040306E+01  0.10201327926E+01 0.  0.
     999903    2    3    3    0    0 -0.63229660416E-01 -0.40301842500E-02  0.11523050779E+00  0.13307541602E+00  0.20414800551E-01 0.  0.
         14    1    1    2    0    0  0.25461950963E-02  0.13093131781E-01 -0.19379319562E-01  0.23525969396E-01  0.00000000000E+00 0. -1.
     999901    1    3    3    0    0  0.60683465320E-01 -0.90629475312E-02 -0.95851188226E-01  0.88732861459E+00  0.88000000000E+00 0. -1.
        -11    1    4    4    0    0 -0.12188318070E-01  0.72905874490E-02  0.27197741579E-01  0.30686903244E-01  0.51100000000E-03 0.  1.
         11    1    4    4    0    0 -0.51041342346E-01 -0.11320771699E-01  0.88032766209E-01  0.10238851277E+00  0.51100000000E-03 0. -1.
</event>
<event>
 8    1  0.1044719E+005  0.1043930E+01  0.7957747E-01            NaN
         13   -1    0    0    0    0  0.00000000000E+00  0.00000000000E+00  0.74505805969E-08  0.10566000000E+00  0.10566000000E+00 0.  1.
     999900   -1    0    0    0    0 -0.00000000000E+00 -0.00000000000E+00 -0.74505805969E-08  0.93827000000E+00  0.93827000000E+00 0. -1.
     999902    2    1    2    0    0 -0.55793002804E-02 -0.22023922055E-01 -0.62322231589E-02  0.10203710879E+01  0.10200990808E+01 0.  0.
     999903    2    3    3    0    0 -0.69881136808E-01 -0.97789531017E-01  0.52794601445E-01  0.13281302235E+00  0.20146049387E-01 0.  0.
         14    1    1    2    0    0  0.55793002804E-02  0.22023922055E-01  0.62322231589E-02  0.23558912110E-01  0.00000000000E+00 0. -1.
     999901    1    3    3    0    0  0.64301836528E-01  0.75765608961E-01 -0.59026824604E-01  0.88755806554E+00  0.88000000000E+00 0.  1.
        -11    1    4    4    0    0 -0.61457883268E-01 -0.76378861927E-01  0.36480594282E-01  0.10460352215E+00  0.51100000000E-03 0.  1.
         11    1    4    4    0    0 -0.84232535402E-02 -0.21410669090E-01  0.16314007163E-01  0.28209500205E-01  0.51100000000E-03 0. -1.
</event>
<event>
 8    1  0.1044719E+005  0.1043930E+01  0.7957747E-01            NaN
         13   -1    0    0    0    0  0.00000000000E+00  0.00000000000E+00  0.74505805969E-08  0.10566000000E+00  0.10566000000E+00 0.  1.
     999900   -1    0    0    0    0 -0.00000000000E+00 -0.00000000000E+00 -0.74505805969E-08  0.93827000000E+00  0.93827000000E+00 0.  1.
     999902    2    1    2    0    0  0.12221364440E-01 -0.37767261064E-02  0.15412384483E-01  0.10239008461E+01  0.10237049261E+01 0.  0.
     999903    2    3    3    0    0 -0.10096611108E-01  0.81061238748E-01 -0.10144778651E+00  0.13185159196E+00  0.20501778763E-01 0.  0.
         14    1    1    2    0    0 -0.12221364440E-01  0.37767261064E-02 -0.15412384483E-01  0.20029153859E-01  0.00000000000E+00 0. -1.
     999901    1    3    3    0    0  0.22317975549E-01 -0.84837964854E-01  0.11686017099E+00  0.89204925418E+00  0.88000000000E+00 0. -1.
        -11    1    4    4    0    0 -0.28921585720E-02  0.27628998455E-01 -0.20244203802E-01  0.34377536930E-01  0.51100000000E-03 0. -1.
         11    1    4    4    0    0 -0.72044525364E-02  0.53432240293E-01 -0.81203582708E-01  0.97474055034E-01  0.51100000000E-03 0.  1.
</event>
<event>
 8    1  0.1044719E+005  0.1043930E+01  0.7957747E-01            NaN
         13   -1    0    0    0    0  0.00000000000E+00  0.00000000000E+00  0.74505805969E-08  0.10566000000E+00  0.10566000000E+00 0. -1.
     999900   -1    0    0    0    0 -0.00000000000E+00 -0.00000000000E+00 -0.74505805969E-08  0.93827000000E+00  0.93827000000E+00 0. -1.
     999902    2    1    2    0    0 -0.51972743717E-02 -0.19164064296E-01  0.10626260885E-01  0.10214091110E+01  0.10211608010E+01 0.  0.
     999903    2    3    3    0    0 -0.73496952129E-01 -0.87409183146E-01  0.67511085495E-01  0.13430250776E+00  0.20910515432E-01 0.  0.
         14    1    1    2    0    0  0.51972743717E-02  0.19164064296E-01 -0.10626260885E-01  0.22520889007E-01  0.00000000000E+00 0.  1.
     999901    1    3    3    0    0  0.68299677757E-01  0.68245118849E-01 -0.56884824610E-01  0.88710660323E+00  0.88000000000E+00 0. -1.
        -11    1    4    4    0    0 -0.11692265966E-01 -0.17411594183E-01  0.22080941169E-01  0.30458197243E-01  0.51100000000E-03 0. -1.
         11    1    4    4    0    0 -0.61804686164E-01 -0.69997588963E-01  0.45430144326E-01  0.10384431052E+00  0.51100000000E-03 0.  1.
</event>
<event>
 7    1  0.1044719E+005  0.1043930E+01  0.7957747E-01            NaN
         13   -1    0    0    0    0  0.00000000000E+00  0.00000000000E+00  0.74505805969E-08  0.10566000000E+00  0.10566000000E+00 0. -1.
     999900   -1    0    0    0    0 -0.00000000000E+00 -0.00000000000E+00 -0.74505805969E-08  0.93827000000E+00  0.93827000000E+00 0. -1.
     999903    2    1    2    0    0  0.41639639714E-01  0.30721725709E-01 -0.88644991316E-01  0.10461067462E+00  0.20193432895E-01 0.  0.
         14    1    1    2    0    0  0.73278382294E-02 -0.38448285161E-01 -0.30881991439E-01  0.49856446325E-01  0.00000000000E+00 0.  1.
     999901    1    1    2    0    0 -0.48967477944E-01  0.77265594516E-02  0.11952698276E+00  0.88946287906E+00  0.88000000000E+00 0.  1.
        -11    1    3    3    0    0  0.33197750836E-01  0.24279546604E-01 -0.51144986254E-01  0.65632749324E-01  0.51100000000E-03 0.  1.
         11    1    3    3    0    0  0.84418888788E-02  0.64421791053E-02 -0.37500005062E-01  0.38977925292E-01  0.51100000000E-03 0. -1.
</event>
<event>
 8    1  0.1044719E+005  0.1043930E+01  0.7957747E-01            NaN
         13   -1    0    0    0    0  0.00000000000E+00  0.00000000000E+00  0.74505805969E-08  0.10566000000E+00  0.10566000000E+00 0. -1.
     999900   -1    0    0    0    0 -0.00000000000E+00 -0.00000000000E+00 -0.74505805969E-08  0.93827000000E+00  0.93827000000E+00 0. -1.
     999902    2    1    2    0    0  0.22076305588E-01  0.19122247316E-02 -0.60220294632E-02  0.10209673192E+01  0.10207090585E+01 0.  0.
     999903    2    3    3    0    0 -0.81553801624E-01  0.79220837733E-01  0.58206634008E-01  0.12920437872E+00  0.19462670585E-01 0.  0.
         14    1    1    2    0    0 -0.22076305588E-01 -0.19122247316E-02  0.60220294632E-02  0.22962680826E-01  0.00000000000E+00 0.  1.
     999901    1    3    3    0    0  0.10363010721E+00 -0.77308613001E-01 -0.64228663471E-01  0.89176294046E+00  0.88000000000E+00 0.  1.
        -11    1    4    4    0    0 -0.36892148216E-01  0.31286490563E-01  0.34956194588E-01  0.59683094364E-01  0.51100000000E-03 0.  1.
         11    1    4    4    0    0 -0.44661653407E-01  0.47934347169E-01  0.23250439420E-01  0.69521284351E-01  0.51100000000E-03 0. -1.
</event>
<event>
 8    1  0.1044719E+005  0.1043930E+01  0.7957747E-01            NaN
         13   -1    0    0    0    0  0.00000000000E+00  0.00000000000E+00  0.74505805969E-08  0.10566000000E+00  0.10566000000E+00 0.  1.
     999900   -1    0    0    0    0 -0.00000000000E+00 -0.00000000000E+00 -0.74505805969E-08  0.93827000000E+00  0.93827000000E+00 0.  1.
     999902    2    1    2    0    0 -0.14984804281E-01 -0.14034289656E-01  0.12153829447E-01  0.10200716426E+01  0.10197925941E+01 0.  0.
     999903    2    3    3    0    0 -0.79987771074E-01 -0.61307416155E-01  0.86432505525E-01  0.13329238268E+00  0.11816872367E-01 0.  0.
         14    1    1    2    0    0  0.14984804281E-01  0.14034289656E-01 -0.12153829447E-01  0.23858357355E-01  0.00000000000E+00 0.  1.
     999901    1    3    3    0    0  0.65002966794E-01  0.47273126499E-01 -0.74278676079E-01  0.88677925996E+00  0.88000000000E+00 0.  1.
        -11    1    4    4    0    0 -0.45989085374E-01 -0.36527550278E-01  0.57773819916E-01  0.82385273511E-01  0.51100000000E-03 0. -1.
         11    1    4    4    0    0 -0.33998685701E-01 -0.24779865876E-01  0.28658685609E-01  0.50907109170E-01  0.51100000000E-03 0.  1.
</event>
<event>
 8    1  0.1044719E+005  0.1043930E+01  0.7957747E-01            NaN
         13   -1    0    0    0    0  0.00000000000E+00  0.00000000000E+00  0.74505805969E-08  0.10566000000E+00  0.10566000000E+00 0.  1.
     999900   -1    0    0    0    0 -0.00000000000E+00 -0.00000000000E+00 -0.74505805969E-08  0.93827000000E+00  0.93827000000E+00 0. -1.
     999902    2    1    2    0    0  0.77927774487E-02  0.84671290470E-02 -0.19683303822E-01  0.10211297346E+01  0.10208751553E+01 0.  0.
     999903    2    3    3    0    0 -0.69019413835E-02 -0.84877178829E-01  0.94453464731E-01  0.12874176036E+00  0.20030266571E-01 0.  0.
         14    1    1    2    0    0 -0.77927774487E-02 -0.84671290470E-02  0.19683303822E-01  0.22800265437E-01  0.00000000000E+00 0.  1.
     999901    1    3    3    0    0  0.14694718832E-01  0.93344307876E-01 -0.11413676855E+00  0.89238797421E+00  0.88000000000E+00 0. -1.
        -11    1    4    4    0    0  0.67447603532E-02 -0.19627466651E-01  0.24449650419E-01  0.32074534540E-01  0.51100000000E-03 0. -1.
         11    1    4    4    0    0 -0.13646701737E-01 -0.65249712178E-01  0.70003814312E-01  0.96667225816E-01  0.51100000000E-03 0.  1.
</event>
<event>
 8    1  0.1044719E+005  0.1043930E+01  0.7957747E-01            NaN
         13   -1    0    0    0    0  0.00000000000E+00  0.00000000000E+00  0.74505805969E-08  0.10566000000E+00  0.10566000000E+00 0. -1.
     999900   -1    0    0    0    0 -0.00000000000E+00 -0.00000000000E+00 -0.74505805969E-08  0.93827000000E+00  0.93827000000E+00 0.  1.
     999902    2    1    2    0    0 -0.20220259783E-01  0.44181393422E-02 -0.11786924140E-01  0.10201117204E+01  0.10198336196E+01 0.  0.
     999903    2    3    3    0    0  0.10118236732E+00  0.78401178562E-01 -0.28000194014E-03  0.12862728578E+00  0.12660331359E-01 0.  0.
         14    1    1    2    0    0  0.20220259783E-01 -0.44181393422E-02  0.11786924140E-01  0.23818279569E-01  0.00000000000E+00 0. -1.
     999901    1    3    3    0    0 -0.12140262711E+00 -0.73983039220E-01 -0.11506922200E-01  0.89148443465E+00  0.88000000000E+00 0. -1.
        -11    1    4    4    0    0  0.58117472794E-01  0.38494264621E-01  0.34264795833E-02  0.69795780216E-01  0.51100000000E-03 0. -1.
         11    1    4    4    0    0  0.43064894528E-01  0.39906913941E-01 -0.37064815235E-02  0.58831505567E-01  0.51100000000E-03 0.  1.
</event>
<event>
 8    1  0.1044719E+005  0.1043930E+01  0.7957747E-01            NaN
         13   -1    0    0    0    0  0.00000000000E+00  0.00000000000E+00  0.74505805969E-08  0.10566000000E+00  0.10566000000E+00 0. -1.
     999900   -1    0    0    0    0 -0.00000000000E+00 -0.00000000000E+00 -0.74505805969E-08  0.93827000000E+00  0.93827000000E+00 0.  1.
     999902    2    1    2    0    0  0.18022182221E-01 -0.13258258624E-02 -0.15621104644E-01  0.10200432720E+01  0.10197635515E+01 0.  0.
     999903    2    3    3    0    0 -0.54507235784E-01  0.35725505002E-01  0.10793965030E+00  0.12768651720E+00  0.20137728484E-01 0.  0.
         14    1    1    2    0    0 -0.18022182221E-01  0.13258258624E-02  0.15621104644E-01  0.23886728041E-01  0.00000000000E+00 0. -1.
     999901    1    3    3    0    0  0.72529418004E-01 -0.37051330864E-01 -0.12356075494E+00  0.89235675476E+00  0.88000000000E+00 0. -1.
        -11    1    4    4    0    0 -0.45902345513E-01  0.32233483703E-01  0.10267947417E+00  0.11700153133E+00  0.51100000000E-03 0.  1.
         11    1    4    4    0    0 -0.86048902710E-02  0.34920212990E-02  0.52601761262E-02  0.10684985878E-01  0.51100000000E-03 0. -1.
</event>
<event>
 8    1  0.1044719E+005  0.1043930E+01  0.7957747E-01            NaN
         13   -1    0    0    0    0  0.00000000000E+00  0.00000000000E+00  0.74505805969E-08  0.10566000000E+00  0.10566000000E+00 0.  1.
     999900   -1    0    0    0    0 -0.00000000000E+00 -0.00000000000E+00 -0.74505805969E-08  0.93827000000E+00  0.93827000000E+00 0. -1.
     999902    2    1    2    0    0 -0.46095557603E-02  0.17780055152E-01  0.14795161401E-01  0.10203445136E+01  0.10200718854E+01 0.  0.
     999903    2    3    3    0    0 -0.12339483629E-01  0.54553923602E-02 -0.12668012962E+00  0.12892603332E+00  0.19800067286E-01 0.  0.
         14    1    1    2    0    0  0.46095557603E-02 -0.17780055152E-01 -0.14795161401E-01  0.23585486350E-01  0.00000000000E+00 0. -1.
     999901    1    3    3    0    0  0.77299278688E-02  0.12324662791E-01  0.14147529103E+00  0.89141848033E+00  0.88000000000E+00 0.  1.
        -11    1    4    4    0    0 -0.11900792045E-01 -0.54013816048E-02 -0.70153047815E-01  0.71361859654E-01  0.51100000000E-03 0.  1.
         11    1    4    4    0    0 -0.43869158429E-03  0.10856773965E-01 -0.56527081810E-01  0.57564173669E-01  0.51100000000E-03 0. -1.
</event>
<event>
 8    1  0.1044719E+005  0.1043930E+01  0.7957747E-01            NaN
         13   -1    0    0    0    0  0.00000000000E+00  0.00000000000E+00  0.74505805969E-08  0.10566000000E+00  0.10566000000E+00 0.  1.
     999900   -1    0    0    0    0 -0.00000000000E+00 -0.00000000000E+00 -0.74505805969E-08  0.93827000000E+00  0.93827000000E+00 0.  1.
     999902    2    1    2    0    0  0.10078937426E-01 -0.80644471423E-02 -0.19057158225E-01  0.10209127116E+01  0.10206532071E+01 0.  0.
     999903    2    3    3    0    0 -0.10577906230E+00 -0.42517538622E-01 -0.62675540457E-01  0.13158000954E+00  0.19700873771E-01 0.  0.
         14    1    1    2    0    0 -0.10078937426E-01  0.80644471423E-02  0.19057158225E-01  0.23017288436E-01  0.00000000000E+00 0.  1.
     999901    1    3    3    0    0  0.11585799973E+00  0.34453091480E-01  0.43618382232E-01  0.88933270202E+00  0.88000000000E+00 0.  1.
        -11    1    4    4    0    0 -0.50923543814E-01 -0.15842109191E-01 -0.39324568713E-01  0.66263583993E-01  0.51100000000E-03 0. -1.
         11    1    4    4    0    0 -0.54855518491E-01 -0.26675429432E-01 -0.23350971743E-01  0.65316425550E-01  0.51100000000E-03 0.  1.
</event>
<event>
 8    1  0.1044719E+005  0.1043930E+01  0.7957747E-01            NaN
         13   -1    0    0    0    0  0.00000000000E+00  0.00000000000E+00  0.74505805969E-08  0.10566000000E+00  0.10566000000E+00 0. -1.
     999900   -1    0    0    0    0 -0.00000000000E+00 -0.00000000000E+00 -0.74505805969E-08  0.93827000000E+00  0.93827000000E+00 0.  1.
     999902    2    1    2    0    0  0.13596996277E-01 -0.20247329760E-02  0.18180974168E-01  0.10211368942E+01  0.10208824766E+01 0.  0.
     999903    2    3    3    0    0  0.10494483819E+00 -0.70055408679E-01  0.38960353497E-01  0.13355344252E+00  0.19935734654E-01 0.  0.
         14    1    1    2    0    0 -0.13596996277E-01  0.20247329760E-02 -0.18180974168E-01  0.22793105823E-01  0.00000000000E+00 0.  1.
     999901    1    3    3    0    0 -0.91347841908E-01  0.68030675703E-01 -0.20779379329E-01  0.88758345166E+00  0.88000000000E+00 0.  1.
        -11    1    4    4    0    0  0.28603608987E-01 -0.27245222667E-01  0.56768886697E-02  0.39911862788E-01  0.51100000000E-03 0.  1.
         11    1    4    4    0    0  0.76341229199E-01 -0.42810186011E-01  0.33283464827E-01  0.93641579727E-01  0.51100000000E-03 0. -1.
</event>
<event>
 8    1  0.1044719E+005  0.1043930E+01  0.7957747E-01            NaN
         13   -1    0    0    0    0  0.00000000000E+00  0.00000000000E+00  0.74505805969E-08  0.10566000000E+00  0.10566000000E+00 0. -1.
     999900   -1    0    0    0    0 -0.00000000000E+00 -0.00000000000E+00 -0.74505805969E-08  0.93827000000E+00  0.93827000000E+00 0.  1.
     999902    2    1    2    0    0  0.16041915299E-01  0.16757161875E-01  0.48179535694E-02  0.10202370011E+01  0.10199618523E+01 0.  0.
     999903    2    3    3    0    0  0.11477343540E-01  0.96890668267E-01  0.87635565780E-01  0.13271180649E+00  0.20319945387E-01 0.  0.
         14    1    1    2    0    0 -0.16041915299E-01 -0.16757161875E-01 -0.48179535694E-02  0.23692998906E-01  0.00000000000E+00 0.  1.
     999901    1    3    3    0    0  0.45645717594E-02 -0.80133506392E-01 -0.82817612211E-01  0.88752519460E+00  0.88000000000E+00 0.  1.
        -11    1    4    4    0    0 -0.32880232631E-02  0.12365133281E-01  0.18597910077E-01  0.22579880386E-01  0.51100000000E-03 0.  1.
         11    1    4    4    0    0  0.14765366803E-01  0.84525534986E-01  0.69037655704E-01  0.11013192611E+00  0.51100000000E-03 0. -1.
</event>
<event>
 8    1  0.1044719E+005  0.1043930E+01  0.7957747E-01            NaN
         13   -1    0    0    0    0  0.00000000000E+00  0.00000000000E+00  0.74505805969E-08  0.10566000000E+00  0.10566000000E+00 0.  1.
     999900   -1    0    0    0    0 -0.00000000000E+00 -0.00000000000E+00 -0.74505805969E-08  0.93827000000E+00  0.93827000000E+00 0. -1.
     999902    2    1    2    0    0  0.19611868820E-01 -0.12715264658E-01 -0.26205984072E-02  0.10204104148E+01  0.10201393256E+01 0.  0.
     999903    2    3    3    0    0  0.89730556036E-01  0.77364463454E-01  0.52946592315E-01  0.13129922914E+00  0.19982818664E-01 0.  0.
         14    1    1    2    0    0 -0.19611868820E-01  0.12715264658E-01  0.26205984072E-02  0.23519585242E-01  0.00000000000E+00 0.  1.
     999901    1    3    3    0    0 -0.70118687217E-01 -0.90079728112E-01 -0.55567190723E-01  0.88911118562E+00  0.88000000000E+00 0. -1.
        -11    1    4    4    0    0  0.33596798166E-01  0.18637152660E-01  0.22587927998E-01  0.44570886445E-01  0.51100000000E-03 0.  1.
         11    1    4    4    0    0  0.56133757871E-01  0.58727310794E-01  0.30358664317E-01  0.86728342691E-01  0.51100000000E-03 0. -1.
</event>
<event>
 8    1  0.1044719E+005  0.1043930E+01  0.7957747E-01            NaN
         13   -1    0    0    0    0  0.00000000000E+00  0.00000000000E+00  0.74505805969E-08  0.10566000000E+00  0.10566000000E+00 0.  1.
     999900   -1    0    0    0    0 -0.00000000000E+00 -0.00000000000E+00 -0.74505805969E-08  0.93827000000E+00  0.93827000000E+00 0.  1.
     999902    2    1    2    0    0 -0.46467232223E-02  0.21197779729E-01 -0.39955034197E-02  0.10218641452E+01  0.10216258754E+01 0.  0.
     999903    2    3    3    0    0 -0.11141337394E+00 -0.45231284071E-01 -0.49696859977E-01  0.13175148251E+00  0.20733217332E-01 0.  0.
         14    1    1    2    0    0  0.46467232223E-02 -0.21197779729E-01  0.39955034197E-02  0.22065854838E-01  0.00000000000E+00 0. -1.
     999901    1    3    3    0    0  0.10676665072E+00  0.66429063800E-01  0.45701356557E-01  0.89011266265E+00  0.88000000000E+00 0.  1.
        -11    1    4    4    0    0 -0.65294028777E-01 -0.36466119186E-01 -0.26140757966E-01  0.79225553898E-01  0.51100000000E-03 0. -1.
         11    1    4    4    0    0 -0.46119345161E-01 -0.87651648846E-02 -0.23556102011E-01  0.52525928612E-01  0.51100000000E-03 0.  1.
</event>
<event>
 8    1  0.1044719E+005  0.1043930E+01  0.7957747E-01            NaN
         13   -1    0    0    0    0  0.00000000000E+00  0.00000000000E+00  0.74505805969E-08  0.10566000000E+00  0.10566000000E+00 0. -1.
     999900   -1    0    0    0    0 -0.00000000000E+00 -0.00000000000E+00 -0.74505805969E-08  0.93827000000E+00  0.93827000000E+00 0.  1.
     999902    2    1    2    0    0 -0.14561329826E-01 -0.13956677569E-01 -0.11480702948E-01  0.10207216456E+01  0.10204577649E+01 0.  0.
     999903    2    3    3    0    0 -0.11920827796E+00 -0.40164398189E-01 -0.40397980587E-01  0.13366243824E+00  0.20244953502E-01 0.  0.
         14    1    1    2    0    0  0.14561329826E-01  0.13956677569E-01  0.11480702948E-01  0.23208354428E-01  0.00000000000E+00 0.  1.
     999901    1    3    3    0    0  0.10464694814E+00  0.26207720620E-01  0.28917277639E-01  0.88705920734E+00  0.88000000000E+00 0. -1.
        -11    1    4    4    0    0 -0.72650500659E-01 -0.23083953958E-01 -0.34646748934E-01  0.83735431623E-01  0.51100000000E-03 0. -1.
         11    1    4    4    0    0 -0.46557777305E-01 -0.17080444231E-01 -0.57512316530E-02  0.49927006612E-01  0.51100000000E-03 0.  1.
</event>
<event>
 8    1  0.1044719E+005  0.1043930E+01  0.7957747E-01            NaN
         13   -1    0    0    0    0  0.00000000000E+00  0.00000000000E+00  0.74505805969E-08  0.10566000000E+00  0.10566000000E+00 0.  1.
     999900   -1    0    0    0    0 -0.00000000000E+00 -0.00000000000E+00 -0.74505805969E-08  0.93827000000E+00  0.93827000000E+00 0. -1.
     999902    2    1    2    0    0 -0.10440964786E-01 -0.74331657791E-02 -0.20450854221E-01  0.10197948982E+01  0.10195092600E+01 0.  0.
     999903    2    3    3    0    0  0.12545735526E+00  0.20299817030E-01 -0.32259026446E-02  0.12876506108E+00  0.20454924741E-01 0.  0.
         14    1    1    2    0    0  0.10440964786E-01  0.74331657791E-02  0.20450854221E-01  0.24135101772E-01  0.00000000000E+00 0.  1.
     999901    1    3    3    0    0 -0.13589832005E+00 -0.27732982809E-01 -0.17224951576E-01  0.89102983715E+00  0.88000000000E+00 0.  1.
        -11    1    4    4    0    0  0.49603971750E-01  0.35739051684E-02 -0.10217310247E-01  0.50773825552E-01  0.51100000000E-03 0. -1.
         11    1    4    4    0    0  0.75853383514E-01  0.16725911862E-01  0.69914076019E-02  0.77991235530E-01  0.51100000000E-03 0.  1.
</event>
<event>
 8    1  0.1044719E+005  0.1043930E+01  0.7957747E-01            NaN
         13   -1    0    0    0    0  0.00000000000E+00  0.00000000000E+00  0.74505805969E-08  0.10566000000E+00  0.10566000000E+00 0.  1.
     999900   -1    0    0    0    0 -0.00000000000E+00 -0.00000000000E+00 -0.74505805969E-08  0.93827000000E+00  0.93827000000E+00 0.  1.
     999902    2    1    2    0    0  0.10460873701E-01 -0.20200469304E-01  0.11030505997E-02  0.10211548917E+01  0.10209008802E+01 0.  0.
     999903    2    3    3    0    0  0.24662166995E-01 -0.12895882346E+00 -0.18388096790E-01  0.13413180226E+00  0.20362162049E-01 0.  0.
         14    1    1    2    0    0 -0.10460873701E-01  0.20200469304E-01 -0.11030505997E-02  0.22775108327E-01  0.00000000000E+00 0.  1.
     999901    1    3    3    0    0 -0.14201293294E-01  0.10875835416E+00  0.19491147389E-01  0.88702308942E+00  0.88000000000E+00 0. -1.
        -11    1    4    4    0    0  0.29812721354E-02 -0.44277659964E-01  0.17979711011E-02  0.44417259894E-01  0.51100000000E-03 0.  1.
         11    1    4    4    0    0  0.21680894860E-01 -0.84681163499E-01 -0.20186067891E-01  0.89714542362E-01  0.51100000000E-03 0. -1.
</event>
<event>
 8    1  0.1044719E+005  0.1043930E+01  0.7957747E-01            NaN
         13   -1    0    0    0    0  0.00000000000E+00  0.00000000000E+00  0.74505805969E-08  0.10566000000E+00  0.10566000000E+00 0.  1.
     999900   -1    0    0    0    0 -0.00000000000E+00 -0.00000000000E+00 -0.74505805969E-08  0.93827000000E+00  0.93827000000E+00 0.  1.
     999902    2    1    2    0    0 -0.48863777151E-02 -0.15355492229E-01  0.17540358646E-01  0.10201112677E+01  0.10198331562E+01 0.  0.
     999903    2    3    3    0    0 -0.89836757566E-01 -0.92690340931E-01  0.22206574057E-01  0.13263224288E+00  0.20881513549E-01 0.  0.
         14    1    1    2    0    0  0.48863777151E-02  0.15355492229E-01 -0.17540358646E-01  0.23818732338E-01  0.00000000000E+00 0. -1.
     999901    1    3    3    0    0  0.84950379851E-01  0.77334848702E-01 -0.46662154114E-02  0.88747902478E+00  0.88000000000E+00 0.  1.
        -11    1    4    4    0    0 -0.64703106989E-01 -0.77106424256E-01  0.12136467568E-01  0.10138761109E+00  0.51100000000E-03 0. -1.
         11    1    4    4    0    0 -0.25133650577E-01 -0.15583916675E-01  0.10070106490E-01  0.31244631794E-01  0.51100000000E-03 0.  1.
</event>
<event>
 8    1  0.1044719E+005  0.1043930E+01  0.7957747E-01            NaN
         13   -1    0    0    0    0  0.00000000000E+00  0.00000000000E+00  0.74505805969E-08  0.10566000000E+00  0.10566000000E+00 0.  1.
     999900   -1    0    0    0    0 -0.00000000000E+00 -0.00000000000E+00 -0.74505805969E-08  0.93827000000E+00  0.93827000000E+00 0. -1.
     999902    2    1    2    0    0 -0.48257532041E-02  0.22190101110E-01 -0.12738637262E-01  0.10178923088E+01  0.10175592322E+01 0.  0.
     999903    2    3    3    0    0  0.53285655515E-01  0.11389232006E+00  0.27423077075E-01  0.13031177950E+00  0.20452703178E-01 0.  0.
         14    1    1    2    0    0  0.48257532041E-02 -0.22190101110E-01  0.12738637262E-01  0.26037691152E-01  0.00000000000E+00 0.  1.
     999901    1    3    3    0    0 -0.58111408719E-01 -0.91702218949E-01 -0.40161714337E-01  0.88758052935E+00  0.88000000000E+00 0.  1.
        -11    1    4    4    0    0  0.76643666772E-02  0.35779342925E-01  0.36311123604E-02  0.36774311614E-01  0.51100000000E-03 0. -1.
         11    1    4    4    0    0  0.45621288838E-01  0.78112977135E-01  0.23791964714E-01  0.93537467884E-01  0.51100000000E-03 0.  1.
</event>
<event>
 8    1  0.1044719E+005  0.1043930E+01  0.7957747E-01            NaN
         13   -1    0    0    0    0  0.00000000000E+00  0.00000000000E+00  0.74505805969E-08  0.10566000000E+00  0.10566000000E+00 0.  1.
     999900   -1    0    0    0    0 -0.00000000000E+00 -0.00000000000E+00 -0.74505805969E-08  0.93827000000E+00  0.93827000000E+00 0.  1.
     999902    2    1    2    0    0 -0.17876345515E-01 -0.11271859119E-01 -0.92585602379E-02  0.10208575169E+01  0.10205967521E+01 0.  0.
     999903    2    3    3    0    0  0.22371583196E-01  0.12329436908E+00 -0.26347428875E-01  0.12955510195E+00  0.19706553485E-01 0.  0.
         14    1    1    2    0    0  0.17876345515E-01  0.11271859119E-01  0.92585602379E-02  0.23072483062E-01  0.00000000000E+00 0.  1.
     999901    1    3    3    0    0 -0.40247928711E-01 -0.13456622820E+00  0.17088868637E-01  0.89130241499E+00  0.88000000000E+00 0. -1.
        -11    1    4    4    0    0  0.35966684282E-02  0.63324350366E-01 -0.19405064569E-01  0.66330438149E-01  0.51100000000E-03 0.  1.
         11    1    4    4    0    0  0.18774914768E-01  0.59970018715E-01 -0.69423643067E-02  0.63224663798E-01  0.51100000000E-03 0. -1.
</event>
<event>
 8    1  0.1044719E+005  0.1043930E+01  0.7957747E-01            NaN
         13   -1    0    0    0    0  0.00000000000E+00  0.00000000000E+00  0.74505805969E-08  0.10566000000E+00  0.10566000000E+00 0. -1.
     999900   -1    0    0    0    0 -0.00000000000E+00 -0.00000000000E+00 -0.74505805969E-08  0.93827000000E+00  0.93827000000E+00 0. -1.
     999902    2    1    2    0    0  0.21692706705E-01 -0.18960372904E-02  0.98109024956E-02  0.10200464850E+01  0.10197668406E+01 0.  0.
     999903    2    3    3    0    0  0.44048925730E-01  0.17271762645E-01  0.12196102658E+00  0.13244023478E+00  0.20671287846E-01 0.  0.
         14    1    1    2    0    0 -0.21692706705E-01  0.18960372904E-02 -0.98109024956E-02  0.23883515013E-01  0.00000000000E+00 0. -1.
     999901    1    3    3    0    0 -0.22356219025E-01 -0.19167799935E-01 -0.11215012408E+00  0.88760625021E+00  0.88000000000E+00 0. -1.
        -11    1    4    4    0    0  0.14880600065E-01  0.56488168185E-02  0.18970689482E-01  0.24768721609E-01  0.51100000000E-03 0. -1.
         11    1    4    4    0    0  0.29168325665E-01  0.11622945826E-01  0.10299033709E+00  0.10767151317E+00  0.51100000000E-03 0.  1.
</event>
<event>
 8    1  0.1044719E+005  0.1043930E+01  0.7957747E-01            NaN
         13   -1    0    0    0    0  0.00000000000E+00  0.00000000000E+00  0.74505805969E-08  0.10566000000E+00  0.10566000000E+00 0.  1.
     999900   -1    0    0    0    0 -0.00000000000E+00 -0.00000000000E+00 -0.74505805969E-08  0.93827000000E+00  0.93827000000E+00 0. -1.
     999902    2    1    2    0    0 -0.12334197481E-01  0.21406049711E-01  0.70045436650E-02  0.10182509225E+01  0.10179270731E+01 0.  0.
     999903    2    3    3    0    0  0.27652557939E-01 -0.17669897116E-02  0.12471019454E+00  0.12921180598E+00  0.19371937686E-01 0.  0.
         14    1    1    2    0    0  0.12334197481E-01 -0.21406049711E-01 -0.70045436650E-02  0.25679077547E-01  0.00000000000E+00 0. -1.
     999901    1    3    3    0    0 -0.39986755420E-01  0.23173039423E-01 -0.11770565088E+00  0.88903911647E+00  0.88000000000E+00 0. -1.
        -11    1    4    4    0    0  0.45121262011E-02  0.63821453714E-02  0.49058890666E-01  0.49680246948E-01  0.51100000000E-03 0.  1.
         11    1    4    4    0    0  0.23140431738E-01 -0.81491350829E-02  0.75651303875E-01  0.79531559035E-01  0.51100000000E-03 0. -1.
</event>
<event>
 8    1  0.1044719E+005  0.1043930E+01  0.7957747E-01            NaN
         13   -1    0    0    0    0  0.00000000000E+00  0.00000000000E+00  0.74505805969E-08  0.10566000000E+00  0.10566000000E+00 0.  1.
     999900   -1    0    0    0    0 -0.00000000000E+00 -0.00000000000E+00 -0.74505805969E-08  0.93827000000E+00  0.93827000000E+00 0.  1.
     999902    2    1    2    0    0  0.11282589161E-02 -0.29790445078E-01  0.77033009207E-02  0.10131390203E+01  0.10126710177E+01 0.  0.
     999903    2    3    3    0    0  0.88114177235E-01 -0.42528534062E-01 -0.75165409184E-01  0.12488453423E+00  0.19326761581E-01 0.  0.
         14    1    1    2    0    0 -0.11282589161E-02  0.29790445078E-01 -0.77033009207E-02  0.30790979705E-01  0.00000000000E+00 0.  1.
     999901    1    3    3    0    0 -0.86985918319E-01  0.12738088984E-01  0.82868710104E-01  0.88825448606E+00  0.88000000000E+00 0. -1.
        -11    1    4    4    0    0  0.72685811956E-01 -0.26269036880E-01 -0.57154665698E-01  0.96125992793E-01  0.51100000000E-03 0. -1.
         11    1    4    4    0    0  0.15428365279E-01 -0.16259497181E-01 -0.18010743486E-01  0.28758541439E-01  0.51100000000E-03 0.  1.
</event>
<event>
 8    1  0.1044719E+005  0.1043930E+01  0.7957747E-01            NaN
         13   -1    0    0    0    0  0.00000000000E+00  0.00000000000E+00  0.74505805969E-08  0.10566000000E+00  0.10566000000E+00 0. -1.
     999900   -1    0    0    0    0 -0.00000000000E+00 -0.00000000000E+00 -0.74505805969E-08  0.93827000000E+00  0.93827000000E+00 0. -1.
     999902    2    1    2    0    0 -0.17137381424E-01  0.96579012562E-02  0.13087567292E-01  0.10203026998E+01  0.10200290926E+01 0.  0.
     999903    2    3    3    0    0  0.25279501342E-01 -0.67054347617E-01 -0.10441428025E+00  0.12817566551E+00  0.19781824683E-01 0.  0.
         14    1    1    2    0    0  0.17137381424E-01 -0.96579012562E-02 -0.13087567292E-01  0.23627300235E-01  0.00000000000E+00 0.  1.
     999901    1    3    3    0    0 -0.42416882767E-01  0.76712248873E-01  0.11750184754E+00  0.89212703425E+00  0.88000000000E+00 0.  1.
        -11    1    4    4    0    0  0.55400169941E-02 -0.35217162025E-01 -0.39378651072E-01  0.53121366424E-01  0.51100000000E-03 0.  1.
         11    1    4    4    0    0  0.19739484348E-01 -0.31837185592E-01 -0.65035629173E-01  0.75054299089E-01  0.51100000000E-03 0. -1.
</event>
<event>
 8    1  0.1044719E+005  0.1043930E+01  0.7957747E-01            NaN
         13   -1    0    0    0    0  0.00000000000E+00  0.00000000000E+00  0.74505805969E-08  0.10566000000E+00  0.10566000000E+00 0.  1.
     999900   -1    0    0    0    0 -0.00000000000E+00 -0.00000000000E+00 -0.74505805969E-08  0.93827000000E+00  0.93827000000E+00 0.  1.
     999902    2    1    2    0    0 -0.29025375210E-02 -0.25459053633E-01 -0.15319014073E-02  0.10182602735E+01  0.10179366629E+01 0.  0.
     999903    2    3    3    0    0 -0.12379391300E+00  0.15021752848E-01 -0.24676555570E-01  0.12877216489E+00  0.20560936324E-01 0.  0.
         14    1    1    2    0    0  0.29025375210E-02  0.25459053633E-01  0.15319014073E-02  0.25669726486E-01  0.00000000000E+00 0.  1.
     999901    1    3    3    0    0  0.12089137548E+00 -0.40480806481E-01  0.23144654163E-01  0.88948810862E+00  0.88000000000E+00 0. -1.
        -11    1    4    4    0    0 -0.60371306002E-01  0.14333406371E-01 -0.19898543945E-01  0.65164056801E-01  0.51100000000E-03 0. -1.
         11    1    4    4    0    0 -0.63422606997E-01  0.68834647738E-03 -0.47780116248E-02  0.63608108094E-01  0.51100000000E-03 0.  1.
</event>
<event>
 8    1  0.1044719E+005  0.1043930E+01  0.7957747E-01            NaN
         13   -1    0    0    0    0  0.00000000000E+00  0.00000000000E+00  0.74505805969E-08  0.10566000000E+00  0.10566000000E+00 0.  1.
     999900   -1    0    0    0    0 -0.00000000000E+00 -0.00000000000E+00 -0.74505805969E-08  0.93827000000E+00  0.93827000000E+00 0. -1.
     999902    2    1    2    0    0  0.21012688301E-01  0.40396430630E-02  0.24495770947E-02  0.10223927714E+01  0.10221658999E+01 0.  0.
     999903    2    3    3    0    0 -0.12195954465E+00 -0.36524906222E-01 -0.10702602624E-01  0.12983491793E+00  0.23116247615E-01 0.  0.
         14    1    1    2    0    0 -0.21012688301E-01 -0.40396430630E-02 -0.24495770947E-02  0.21537228551E-01  0.00000000000E+00 0. -1.
     999901    1    3    3    0    0  0.14297223295E+00  0.40564549285E-01  0.13152179719E-01  0.89255785352E+00  0.88000000000E+00 0.  1.
        -11    1    4    4    0    0 -0.43829767457E-01 -0.17256337150E-01 -0.14454981221E-01  0.49275118369E-01  0.51100000000E-03 0.  1.
         11    1    4    4    0    0 -0.78129777194E-01 -0.19268569072E-01  0.37523785968E-02  0.80559799557E-01  0.51100000000E-03 0. -1.
</event>
<event>
 7    1  0.1044719E+005  0.1043930E+01  0.7957747E-01            NaN
         13   -1    0    0    0    0  0.00000000000E+00  0.00000000000E+00  0.74505805969E-08  0.10566000000E+00  0.10566000000E+00 0.  1.
     999900   -1    0    0    0    0 -0.00000000000E+00 -0.00000000000E+00 -0.74505805969E-08  0.93827000000E+00  0.93827000000E+00 0. -1.
     999903    2    1    2    0    0  0.48726127596E-01  0.42600846496E-01  0.12807813172E+00  0.14484838909E+00  0.19697217153E-01 0.  0.
         14    1    1    2    0    0 -0.43860744254E-02  0.59756160800E-02 -0.24752253265E-03  0.74166639270E-02  0.00000000000E+00 0. -1.
     999901    1    1    2    0    0 -0.44340053171E-01 -0.48576462576E-01 -0.12783060919E+00  0.89166494698E+00  0.88000000000E+00 0.  1.
        -11    1    3    3    0    0  0.97266574536E-02  0.12722682963E-01  0.16848998868E-01  0.23251331378E-01  0.51100000000E-03 0.  1.
         11    1    3    3    0    0  0.38999470142E-01  0.29878163533E-01  0.11122913286E+00  0.12159705771E+00  0.51100000000E-03 0. -1.
</event>
<event>
 8    1  0.1044719E+005  0.1043930E+01  0.7957747E-01            NaN
         13   -1    0    0    0    0  0.00000000000E+00  0.00000000000E+00  0.74505805969E-08  0.10566000000E+00  0.10566000000E+00 0. -1.
     999900   -1    0    0    0    0 -0.00000000000E+00 -0.00000000000E+00 -0.74505805969E-08  0.93827000000E+00  0.93827000000E+00 0.  1.
     999902    2    1    2    0    0 -0.71115075035E-02 -0.28586600372E-01 -0.15757356330E-01  0.10105224928E+01  0.10099701218E+01 0.  0.
     999903    2    3    3    0    0 -0.89348830041E-01 -0.34898418017E-01 -0.76779356248E-01  0.12456171446E+00  0.20480189285E-01 0.  0.
         14    1    1    2    0    0  0.71115075035E-02  0.28586600372E-01  0.15757356330E-01  0.33407507215E-01  0.00000000000E+00 0. -1.
     999901    1    3    3    0    0  0.82237322537E-01  0.63118176443E-02  0.61021999918E-01  0.88596077833E+00  0.88000000000E+00 0. -1.
        -11    1    4    4    0    0 -0.23725162674E-01 -0.18054704426E-03 -0.21167448158E-01  0.31799967353E-01  0.51100000000E-03 0.  1.
         11    1    4    4    0    0 -0.65623667366E-01 -0.34717870972E-01 -0.55611908090E-01  0.92761747105E-01  0.51100000000E-03 0. -1.
</event>
<event>
 8    1  0.1044719E+005  0.1043930E+01  0.7957747E-01            NaN
         13   -1    0    0    0    0  0.00000000000E+00  0.00000000000E+00  0.74505805969E-08  0.10566000000E+00  0.10566000000E+00 0.  1.
     999900   -1    0    0    0    0 -0.00000000000E+00 -0.00000000000E+00 -0.74505805969E-08  0.93827000000E+00  0.93827000000E+00 0. -1.
     999902    2    1    2    0    0 -0.83813385895E-02 -0.23138001426E-02 -0.19737877136E-01  0.10223618684E+01  0.10221343383E+01 0.  0.
     999903    2    3    3    0    0 -0.11599114717E+00  0.39500173430E-01 -0.51252822922E-01  0.13426194658E+00  0.19626729743E-01 0.  0.
         14    1    1    2    0    0  0.83813385895E-02  0.23138001426E-02  0.19737877136E-01  0.21568131618E-01  0.00000000000E+00 0.  1.
     999901    1    3    3    0    0  0.10760980858E+00 -0.41813973573E-01  0.31514945787E-01  0.88809992180E+00  0.88000000000E+00 0.  1.
        -11    1    4    4    0    0 -0.60256577226E-01  0.14792978125E-01 -0.17015206497E-01  0.64338679454E-01  0.51100000000E-03 0.  1.
         11    1    4    4    0    0 -0.55734569945E-01  0.24707195305E-01 -0.34237616426E-01  0.69923267131E-01  0.51100000000E-03 0. -1.
</event>
<event>
 8    1  0.1044719E+005  0.1043930E+01  0.7957747E-01            NaN
         13   -1    0    0    0    0  0.00000000000E+00  0.00000000000E+00  0.74505805969E-08  0.10566000000E+00  0.10566000000E+00 0.  1.
     999900   -1    0    0    0    0 -0.00000000000E+00 -0.00000000000E+00 -0.74505805969E-08  0.93827000000E+00  0.93827000000E+00 0.  1.
     999902    2    1    2    0    0  0.36878854173E-02 -0.83559359213E-02  0.24611422231E-01  0.10176784426E+01  0.10173397998E+01 0.  0.
     999903    2    3    3    0    0  0.10146099088E+00  0.68824480157E-01  0.34276260676E-01  0.12885348460E+00  0.19930296250E-01 0.  0.
         14    1    1    2    0    0 -0.36878854173E-02  0.83559359213E-02 -0.24611422231E-01  0.26251557443E-01  0.00000000000E+00 0. -1.
     999901    1    3    3    0    0 -0.97773105466E-01 -0.77180416078E-01 -0.96648384448E-02  0.88882495795E+00  0.88000000000E+00 0. -1.
        -11    1    4    4    0    0  0.52413322683E-01  0.28639626796E-01  0.25076199824E-01  0.64780101392E-01  0.51100000000E-03 0.  1.
         11    1    4    4    0    0  0.49047668200E-01  0.40184853361E-01  0.92000608514E-02  0.64073383211E-01  0.51100000000E-03 0. -1.
</event>
<event>
 8    1  0.1044719E+005  0.1043930E+01  0.7957747E-01            NaN
         13   -1    0    0    0    0  0.00000000000E+00  0.00000000000E+00  0.74505805969E-08  0.10566000000E+00  0.10566000000E+00 0. -1.
     999900   -1    0    0    0    0 -0.00000000000E+00 -0.00000000000E+00 -0.74505805969E-08  0.93827000000E+00  0.93827000000E+00 0.  1.
     999902    2    1    2    0    0 -0.18322134211E-01 -0.13741932058E-01 -0.76568644749E-02  0.10197811103E+01  0.10194951418E+01 0.  0.
     999903    2    3    3    0    0 -0.55127237225E-01  0.11538914923E+00  0.95720006825E-02  0.12942933403E+00  0.17511746542E-01 0.  0.
         14    1    1    2    0    0  0.18322134211E-01  0.13741932058E-01  0.76568644749E-02  0.24148889671E-01  0.00000000000E+00 0. -1.
     999901    1    3    3    0    0  0.36805103014E-01 -0.12913108129E+00 -0.17228865157E-01  0.89035177630E+00  0.88000000000E+00 0.  1.
        -11    1    4    4    0    0 -0.18821401573E-01  0.53018082417E-01 -0.22017097385E-02  0.56305158442E-01  0.51100000000E-03 0.  1.
         11    1    4    4    0    0 -0.36305835652E-01  0.62371066811E-01  0.11773710421E-01  0.73124175589E-01  0.51100000000E-03 0. -1.
</event>
<event>
 8    1  0.1044719E+005  0.1043930E+01  0.7957747E-01            NaN
         13   -1    0    0    0    0  0.00000000000E+00  0.00000000000E+00  0.74505805969E-08  0.10566000000E+00  0.10566000000E+00 0.  1.
     999900   -1    0    0    0    0 -0.00000000000E+00 -0.00000000000E+00 -0.74505805969E-08  0.93827000000E+00  0.93827000000E+00 0. -1.
     999902    2    1    2    0    0  0.96093321855E-02 -0.15982145327E-01 -0.13340675315E-01  0.10210009387E+01  0.10207434423E+01 0.  0.
     999903    2    3    3    0    0  0.74193435329E-01 -0.24095560130E-01 -0.10667284178E+00  0.13367471505E+00  0.20113985359E-01 0.  0.
         14    1    1    2    0    0 -0.96093321855E-02  0.15982145327E-01  0.13340675315E-01  0.22929061301E-01  0.00000000000E+00 0. -1.
     999901    1    3    3    0    0 -0.64584103144E-01  0.81134148025E-02  0.93332166462E-01  0.88732622365E+00  0.88000000000E+00 0.  1.
        -11    1    4    4    0    0  0.45967184491E-01 -0.48506432714E-02 -0.65566485533E-01  0.80223038688E-01  0.51100000000E-03 0. -1.
         11    1    4    4    0    0  0.28226250839E-01 -0.19244916858E-01 -0.41106356243E-01  0.53451676362E-01  0.51100000000E-03 0.  1.
</event>
<event>
 8    1  0.1044719E+005  0.1043930E+01  0.7957747E-01            NaN
         13   -1    0    0    0    0  0.00000000000E+00  0.00000000000E+00  0.74505805969E-08  0.10566000000E+00  0.10566000000E+00 0. -1.
     999900   -1    0    0    0    0 -0.00000000000E+00 -0.00000000000E+00 -0.74505805969E-08  0.93827000000E+00  0.93827000000E+00 0.  1.
     999902    2    1    2    0    0  0.14973512934E-01  0.11620196964E-01 -0.53296645248E-02  0.10242414147E+01  0.10240521643E+01 0.  0.
     999903    2    3    3    0    0 -0.37361975320E-01 -0.41074856878E-01 -0.11994649759E+00  0.13370630004E+00  0.20177990928E-01 0.  0.
         14    1    1    2    0    0 -0.14973512934E-01 -0.11620196964E-01  0.53296645248E-02  0.19688585297E-01  0.00000000000E+00 0. -1.
     999901    1    3    3    0    0  0.52335488253E-01  0.52695053842E-01  0.11461683307E+00  0.89053511467E+00  0.88000000000E+00 0. -1.
        -11    1    4    4    0    0 -0.34916538460E-01 -0.25879876389E-01 -0.83356443390E-01  0.94007927515E-01  0.51100000000E-03 0. -1.
         11    1    4    4    0    0 -0.24454368591E-02 -0.15194980489E-01 -0.36590054201E-01  0.39698372522E-01  0.51100000000E-03 0.  1.
</event>
<event>
 8    1  0.1044719E+005  0.1043930E+01  0.7957747E-01            NaN
         13   -1    0    0    0    0  0.00000000000E+00  0.00000000000E+00  0.74505805969E-08  0.10566000000E+00  0.10566000000E+00 0.  1.
     999900   -1    0    0    0    0 -0.00000000000E+00 -0.00000000000E+00 -0.74505805969E-08  0.93827000000E+00  0.93827000000E+00 0. -1.
     999902    2    1    2    0    0  0.10601928619E-01  0.31946798173E-02 -0.21041170608E-01  0.10201531682E+01  0.10198760458E+01 0.  0.
     999903    2    3    3    0    0  0.10138100715E+00  0.81364150049E-01 -0.75296077612E-02  0.13193367422E+00  0.21250079423E-01 0.  0.
         14    1    1    2    0    0 -0.10601928619E-01 -0.31946798173E-02  0.21041170608E-01  0.23776831793E-01  0.00000000000E+00 0.  1.
     999901    1    3    3    0    0 -0.90779078530E-01 -0.78169470231E-01 -0.13511562847E-01  0.88821949399E+00  0.88000000000E+00 0.  1.
        -11    1    4    4    0    0  0.61929608855E-01  0.48475270142E-01 -0.14889175315E-01  0.80044218597E-01  0.51100000000E-03 0.  1.
         11    1    4    4    0    0  0.39451398294E-01  0.32888879906E-01  0.73595675538E-02  0.51889455619E-01  0.51100000000E-03 0. -1.
</event>
<event>
 8    1  0.1044719E+005  0.1043930E+01  0.7957747E-01            NaN
         13   -1    0    0    0    0  0.00000000000E+00  0.00000000000E+00  0.74505805969E-08  0.10566000000E+00  0.10566000000E+00 0. -1.
     999900   -1    0    0    0    0 -0.00000000000E+00 -0.00000000000E+00 -0.74505805969E-08  0.93827000000E+00  0.93827000000E+00 0. -1.
     999902    2    1    2    0    0 -0.18696583010E-01  0.55468746640E-02 -0.20338716616E-01  0.10157521110E+01  0.10153611956E+01 0.  0.
     999903    2    3    3    0    0  0.14609853423E-01 -0.65855440962E-01 -0.10685077027E+00  0.12800668307E+00  0.20450840605E-01 0.  0.
         14    1    1    2    0    0  0.18696583010E-01 -0.55468746640E-02  0.20338716616E-01  0.28177888998E-01  0.00000000000E+00 0. -1.
     999901    1    3    3    0    0 -0.33306436433E-01  0.71402315626E-01  0.86512053658E-01  0.88774542793E+00  0.88000000000E+00 0.  1.
        -11    1    4    4    0    0  0.21689630060E-02 -0.33098453060E-01 -0.68164777411E-01  0.75808376819E-01  0.51100000000E-03 0.  1.
         11    1    4    4    0    0  0.12440890417E-01 -0.32756987903E-01 -0.38685992862E-01  0.52198306252E-01  0.51100000000E-03 0. -1.
</event>
<event>
 8    1  0.1044719E+005  0.1043930E+01  0.7957747E-01            NaN
         13   -1    0    0    0    0  0.00000000000E+00  0.00000000000E+00  0.74505805969E-08  0.10566000000E+00  0.10566000000E+00 0.  1.
     999900   -1    0    0    0    0 -0.00000000000E+00 -0.00000000000E+00 -0.74505805969E-08  0.93827000000E+00  0.93827000000E+00 0.  1.
     999902    2    1    2    0    0  0.25337692165E-02  0.51900700157E-02 -0.20892403625E-01  0.10222539915E+01  0.10220241552E+01 0.  0.
     999903    2    3    3    0    0 -0.79485526967E-01  0.96182036823E-01 -0.42987739886E-01  0.13349367130E+00  0.20091821490E-01 0.  0.
         14    1    1    2    0    0 -0.25337692165E-02 -0.51900700157E-02  0.20892403625E-01  0.21676008453E-01  0.00000000000E+00 0.  1.
     999901    1    3    3    0    0  0.82019296184E-01 -0.90991966807E-01  0.22095336260E-01  0.88876032025E+00  0.88000000000E+00 0. -1.
        -11    1    4    4    0    0 -0.44149289205E-01  0.68456134571E-01 -0.28283381252E-01  0.86229999848E-01  0.51100000000E-03 0. -1.
         11    1    4    4    0    0 -0.35336237762E-01  0.27725902252E-01 -0.14704358633E-01  0.47263671448E-01  0.51100000000E-03 0.  1.
</event>
<event>
 8    1  0.1044719E+005  0.1043930E+01  0.7957747E-01            NaN
         13   -1    0    0    0    0  0.00000000000E+00  0.00000000000E+00  0.74505805969E-08  0.10566000000E+00  0.10566000000E+00 0.  1.
     999900   -1    0    0    0    0 -0.00000000000E+00 -0.00000000000E+00 -0.74505805969E-08  0.93827000000E+00  0.93827000000E+00 0. -1.
     999902    2    1    2    0    0  0.18326078177E-01  0.14758165517E-01 -0.12633843119E-02  0.10203663685E+01  0.10200942511E+01 0.  0.
     999903    2    3    3    0    0 -0.35502487892E-01 -0.57366982987E-01 -0.10882435796E+00  0.12926092318E+00  0.17727041291E-01 0.  0.
         14    1    1    2    0    0 -0.18326078177E-01 -0.14758165517E-01  0.12633843119E-02  0.23563631526E-01  0.00000000000E+00 0. -1.
     999901    1    3    3    0    0  0.53828566069E-01  0.72125148505E-01  0.10756097365E+00  0.89110544529E+00  0.88000000000E+00 0.  1.
        -11    1    4    4    0    0 -0.15006353889E-01 -0.97846993309E-02 -0.29366859875E-01  0.34403554729E-01  0.51100000000E-03 0.  1.
         11    1    4    4    0    0 -0.20496134003E-01 -0.47582283657E-01 -0.79457498087E-01  0.94857368455E-01  0.51100000000E-03 0. -1.
</event>
<event>
 8    1  0.1044719E+005  0.1043930E+01  0.7957747E-01            NaN
         13   -1    0    0    0    0  0.00000000000E+00  0.00000000000E+00  0.74505805969E-08  0.10566000000E+00  0.10566000000E+00 0. -1.
     999900   -1    0    0    0    0 -0.00000000000E+00 -0.00000000000E+00 -0.74505805969E-08  0.93827000000E+00  0.93827000000E+00 0. -1.
     999902    2    1    2    0    0  0.38834596601E-03  0.22070312982E-01 -0.85841800800E-02  0.10202458771E+01  0.10199709369E+01 0.  0.
     999903    2    3    3    0    0 -0.35213713419E-01  0.10899110238E+00 -0.65301905373E-01  0.13343156139E+00  0.20507967209E-01 0.  0.
         14    1    1    2    0    0 -0.38834596601E-03 -0.22070312982E-01  0.85841800800E-02  0.23684122854E-01  0.00000000000E+00 0. -1.
     999901    1    3    3    0    0  0.35602059385E-01 -0.86920789400E-01  0.56717725293E-01  0.88681431575E+00  0.88000000000E+00 0.  1.
        -11    1    4    4    0    0 -0.30639894426E-01  0.90625286182E-01 -0.62547167808E-01  0.11429853432E+00  0.51100000000E-03 0.  1.
         11    1    4    4    0    0 -0.45738189929E-02  0.18365816201E-01 -0.27547375648E-02  0.19133027072E-01  0.51100000000E-03 0. -1.
</event>
<event>
 8    1  0.1044719E+005  0.1043930E+01  0.7957747E-01            NaN
         13   -1    0    0    0    0  0.00000000000E+00  0.00000000000E+00  0.74505805969E-08  0.10566000000E+00  0.10566000000E+00 0.  1.
     999900   -1    0    0    0    0 -0.00000000000E+00 -0.00000000000E+00 -0.74505805969E-08  0.93827000000E+00  0.93827000000E+00 0.  1.
     999902    2    1    2    0    0 -0.89608734346E-02  0.77992280565E-02 -0.20867380194E-01  0.10199180703E+01  0.10196353747E+01 0.  0.
     999903    2    3    3    0    0  0.75947394640E-01 -0.10202794996E+00  0.19743328332E-02  0.12874290971E+00  0.19827493161E-01 0.  0.
         14    1    1    2    0    0  0.89608734346E-02 -0.77992280565E-02  0.20867380194E-01  0.24011929684E-01  0.00000000000E+00 0.  1.
     999901    1    3    3    0    0 -0.84908268075E-01  0.10982717802E+00 -0.22841713027E-01  0.89117516060E+00  0.88000000000E+00 0. -1.
        -11    1    4    4    0    0  0.23718064301E-01 -0.30996823101E-01 -0.85203953429E-02  0.39952570310E-01  0.51100000000E-03 0. -1.
         11    1    4    4    0    0  0.52229330339E-01 -0.71031126863E-01  0.10494728176E-01  0.88790339405E-01  0.51100000000E-03 0.  1.
</event>
<event>
 8    1  0.1044719E+005  0.1043930E+01  0.7957747E-01            NaN
         13   -1    0    0    0    0  0.00000000000E+00  0.00000000000E+00  0.74505805969E-08  0.10566000000E+00  0.10566000000E+00 0.  1.
     999900   -1    0    0    0    0 -0.00000000000E+00 -0.00000000000E+00 -0.74505805969E-08  0.93827000000E+00  0.93827000000E+00 0. -1.
     999902    2    1    2    0    0  0.21958653853E-01 -0.82446862312E-02  0.32352849656E-02  0.10202524917E+01  0.10199777068E+01 0.  0.
     999903    2    3    3    0    0 -0.13721639525E-01 -0.98023810554E-01  0.83952919707E-01  0.13129315009E+00  0.19820386103E-01 0.  0.
         14    1    1    2    0    0 -0.21958653853E-01  0.82446862312E-02 -0.32352849656E-02  0.23677508292E-01  0.00000000000E+00 0. -1.
     999901    1    3    3    0    0  0.35680293379E-01  0.89779124323E-01 -0.80717634741E-01  0.88895934162E+00  0.88000000000E+00 0. -1.
        -11    1    4    4    0    0 -0.10188872197E-01 -0.63323685058E-01  0.66110276488E-01  0.92111519281E-01  0.51100000000E-03 0. -1.
         11    1    4    4    0    0 -0.35327673284E-02 -0.34700125496E-01  0.17842643218E-01  0.39181630804E-01  0.51100000000E-03 0.  1.
</event>
<event>
 8    1  0.1044719E+005  0.1043930E+01  0.7957747E-01            NaN
         13   -1    0    0    0    0  0.00000000000E+00  0.00000000000E+00  0.74505805969E-08  0.10566000000E+00  0.10566000000E+00 0.  1.
     999900   -1    0    0    0    0 -0.00000000000E+00 -0.00000000000E+00 -0.74505805969E-08  0.93827000000E+00  0.93827000000E+00 0. -1.
     999902    2    1    2    0    0  0.22784201719E-02 -0.10368333844E-01  0.21013662288E-01  0.10203871126E+01  0.10201154797E+01 0.  0.
     999903    2    3    3    0    0 -0.73651134787E-01  0.92277300213E-01  0.52178037692E-01  0.13062723385E+00  0.20033392528E-01 0.  0.
         14    1    1    2    0    0 -0.22784201719E-02  0.10368333844E-01 -0.21013662288E-01  0.23542887417E-01  0.00000000000E+00 0. -1.
     999901    1    3    3    0    0  0.75929554959E-01 -0.10264563406E+00 -0.31164375404E-01  0.88975987873E+00  0.88000000000E+00 0.  1.
        -11    1    4    4    0    0 -0.30539896929E-01  0.46117706998E-01  0.33883965162E-01  0.64868423900E-01  0.51100000000E-03 0. -1.
         11    1    4    4    0    0 -0.43111237859E-01  0.46159593215E-01  0.18294072530E-01  0.65758809951E-01  0.51100000000E-03 0.  1.
</event>
<event>
 8    1  0.1044719E+005  0.1043930E+01  0.7957747E-01            NaN
         13   -1    0    0    0    0  0.00000000000E+00  0.00000000000E+00  0.74505805969E-08  0.10566000000E+00  0.10566000000E+00 0. -1.
     999900   -1    0    0    0    0 -0.00000000000E+00 -0.00000000000E+00 -0.74505805969E-08  0.93827000000E+00  0.93827000000E+00 0. -1.
     999902    2    1    2    0    0  0.23673875334E-01  0.71163290918E-02 -0.22133172308E-02  0.10191107880E+01  0.10188085222E+01 0.  0.
     999903    2    3    3    0    0  0.31387304443E-01  0.83495343959E-01 -0.93873196959E-01  0.13102589086E+00  0.19974274108E-01 0.  0.
         14    1    1    2    0    0 -0.23673875334E-01 -0.71163290918E-02  0.22133172308E-02  0.24819212039E-01  0.00000000000E+00 0. -1.
     999901    1    3    3    0    0 -0.77134291084E-02 -0.76379014867E-01  0.91659879728E-01  0.88808489710E+00  0.88000000000E+00 0.  1.
        -11    1    4    4    0    0  0.25096700919E-01  0.78205811860E-01 -0.90247824359E-01  0.12202837509E+00  0.51100000000E-03 0. -1.
         11    1    4    4    0    0  0.62906035233E-02  0.52895320988E-02 -0.36253726002E-02  0.89975157684E-02  0.51100000000E-03 0.  1.
</event>
<event>
 8    1  0.1044719E+005  0.1043930E+01  0.7957747E-01            NaN
         13   -1    0    0    0    0  0.00000000000E+00  0.00000000000E+00  0.74505805969E-08  0.10566000000E+00  0.10566000000E+00 0.  1.
     999900   -1    0    0    0    0 -0.00000000000E+00 -0.00000000000E+00 -0.74505805969E-08  0.93827000000E+00  0.93827000000E+00 0.  1.
     999902    2    1    2    0    0  0.15744987061E-01 -0.17154003971E-02  0.17757546582E-01  0.10201355116E+01  0.10198579727E+01 0.  0.
     999903    2    3    3    0    0 -0.30951724256E-01 -0.10348976891E+00  0.72082632715E-01  0.13137805320E+00  0.19903402227E-01 0.  0.
         14    1    1    2    0    0 -0.15744987061E-01  0.17154003971E-02 -0.17757546582E-01  0.23794488368E-01  0.00000000000E+00 0.  1.
     999901    1    3    3    0    0  0.46696711318E-01  0.10177436851E+00 -0.54325086133E-01  0.88875745843E+00  0.88000000000E+00 0.  1.
        -11    1    4    4    0    0 -0.19252680067E-01 -0.34554761057E-01  0.21035881426E-01  0.44804761241E-01  0.51100000000E-03 0. -1.
         11    1    4    4    0    0 -0.11699044189E-01 -0.68935007853E-01  0.51046751289E-01  0.86573291960E-01  0.51100000000E-03 0.  1.
</event>
<event>
 8    1  0.1044719E+005  0.1043930E+01  0.7957747E-01            NaN
         13   -1    0    0    0    0  0.00000000000E+00  0.00000000000E+00  0.74505805969E-08  0.10566000000E+00  0.10566000000E+00 0.  1.
     999900   -1    0    0    0    0 -0.00000000000E+00 -0.00000000000E+00 -0.74505805969E-08  0.93827000000E+00  0.93827000000E+00 0.  1.
     999902    2    1    2    0    0 -0.25678350500E-02 -0.20145287814E-01  0.11732360027E-01  0.10204763293E+01  0.10202067751E+01 0.  0.
     999903    2    3    3    0    0  0.10276224597E+00 -0.77600702319E-01 -0.18797779665E-01  0.13181011521E+00  0.20942821047E-01 0.  0.
         14    1    1    2    0    0  0.25678350500E-02  0.20145287814E-01 -0.11732360027E-01  0.23453670709E-01  0.00000000000E+00 0. -1.
     999901    1    3    3    0    0 -0.10533008102E+00  0.57455414505E-01  0.30530139691E-01  0.88866621408E+00  0.88000000000E+00 0. -1.
        -11    1    4    4    0    0  0.63431922260E-01 -0.49340114341E-01 -0.21848552953E-01  0.83280706240E-01  0.51100000000E-03 0. -1.
         11    1    4    4    0    0  0.39330323710E-01 -0.28260587978E-01  0.30507732880E-02  0.48529408967E-01  0.51100000000E-03 0.  1.
</event>
<event>
 8    1  0.1044719E+005  0.1043930E+01  0.7957747E-01            NaN
         13   -1    0    0    0    0  0.00000000000E+00  0.00000000000E+00  0.74505805969E-08  0.10566000000E+00  0.10566000000E+00 0. -1.
     999900   -1    0    0    0    0 -0.00000000000E+00 -0.00000000000E+00 -0.74505805969E-08  0.93827000000E+00  0.93827000000E+00 0. -1.
     999902    2    1    2    0    0 -0.15014969205E-01 -0.74901916935E-02 -0.16714211462E-01  0.10202463107E+01  0.10199713807E+01 0.  0.
     999903    2    3    3    0    0 -0.86467242719E-02 -0.96291644111E-01  0.84627989676E-01  0.12996742510E+00  0.19564978525E-01 0.  0.
         14    1    1    2    0    0  0.15014969205E-01  0.74901916935E-02  0.16714211462E-01  0.23683689253E-01  0.00000000000E+00 0. -1.
     999901    1    3    3    0    0 -0.63682449329E-02  0.88801452418E-01 -0.10134220114E+00  0.89027888565E+00  0.88000000000E+00 0. -1.
        -11    1    4    4    0    0  0.54834214857E-02 -0.20785970964E-01  0.22975631729E-01  0.31468480650E-01  0.51100000000E-03 0.  1.
         11    1    4    4    0    0 -0.14130145758E-01 -0.75505673148E-01  0.61652357947E-01  0.98498944452E-01  0.51100000000E-03 0. -1.
</event>
<event>
 8    1  0.1044719E+005  0.1043930E+01  0.7957747E-01            NaN
         13   -1    0    0    0    0  0.00000000000E+00  0.00000000000E+00  0.74505805969E-08  0.10566000000E+00  0.10566000000E+00 0. -1.
     999900   -1    0    0    0    0 -0.00000000000E+00 -0.00000000000E+00 -0.74505805969E-08  0.93827000000E+00  0.93827000000E+00 0.  1.
     999902    2    1    2    0    0 -0.85508672157E-02  0.40848197797E-02  0.18492681144E-01  0.10231506271E+01  0.10229395991E+01 0.  0.
     999903    2    3    3    0    0 -0.77689277920E-01 -0.10468871597E+00  0.22130049830E-01  0.13375474652E+00  0.20130622358E-01 0.  0.
         14    1    1    2    0    0  0.85508672157E-02 -0.40848197797E-02 -0.18492681144E-01  0.20779372914E-01  0.00000000000E+00 0.  1.
     999901    1    3    3    0    0  0.69138410705E-01  0.10877353575E+00 -0.36373686852E-02  0.88939588056E+00  0.88000000000E+00 0.  1.
        -11    1    4    4    0    0 -0.56459092970E-01 -0.72157056725E-01  0.24475265922E-01  0.94834433500E-01  0.51100000000E-03 0. -1.
         11    1    4    4    0    0 -0.21230184950E-01 -0.32531659244E-01 -0.23452160929E-02  0.38920313022E-01  0.51100000000E-03 0.  1.
</event>
<event>
 8    1  0.1044719E+005  0.1043930E+01  0.7957747E-01            NaN
         13   -1    0    0    0    0  0.00000000000E+00  0.00000000000E+00  0.74505805969E-08  0.10566000000E+00  0.10566000000E+00 0. -1.
     999900   -1    0    0    0    0 -0.00000000000E+00 -0.00000000000E+00 -0.74505805969E-08  0.93827000000E+00  0.93827000000E+00 0. -1.
     999902    2    1    2    0    0 -0.10335597034E-01  0.11307472984E-01 -0.17916218429E-01  0.10203572531E+01  0.10200849228E+01 0.  0.
     999903    2    3    3    0    0 -0.32857011530E-01 -0.73937690061E-01  0.98380474131E-01  0.12833770592E+00  0.15667924340E-01 0.  0.
         14    1    1    2    0    0  0.10335597034E-01 -0.11307472984E-01  0.17916218429E-01  0.23572746851E-01  0.00000000000E+00 0. -1.
     999901    1    3    3    0    0  0.22521414496E-01  0.85245163045E-01 -0.11629669256E+00  0.89201954723E+00  0.88000000000E+00 0.  1.
        -11    1    4    4    0    0 -0.11434768596E-02 -0.46386959772E-02  0.13160072166E-01  0.14009770167E-01  0.51100000000E-03 0.  1.
         11    1    4    4    0    0 -0.31713534670E-01 -0.69298994084E-01  0.85220401964E-01  0.11432793576E+00  0.51100000000E-03 0. -1.
</event>
<event>
 8    1  0.1044719E+005  0.1043930E+01  0.7957747E-01            NaN
         13   -1    0    0    0    0  0.00000000000E+00  0.00000000000E+00  0.74505805969E-08  0.10566000000E+00  0.10566000000E+00 0.  1.
     999900   -1    0    0    0    0 -0.00000000000E+00 -0.00000000000E+00 -0.74505805969E-08  0.93827000000E+00  0.93827000000E+00 0.  1.
     999902    2    1    2    0    0 -0.11207812329E-01 -0.18836974329E-01  0.55179200627E-03  0.10220039622E+01  0.10217687349E+01 0.  0.
     999903    2    3    3    0    0 -0.10280718384E-01  0.10321079393E+00 -0.76260208384E-01  0.13026599584E+00  0.19885902945E-01 0.  0.
         14    1    1    2    0    0  0.11207812329E-01  0.18836974329E-01 -0.55179200627E-03  0.21926037797E-01  0.00000000000E+00 0.  1.
     999901    1    3    3    0    0 -0.92709394498E-03 -0.12204776826E+00  0.76812000390E-01  0.89173796636E+00  0.88000000000E+00 0. -1.
        -11    1    4    4    0    0  0.11031711952E-03  0.53717858492E-01 -0.29007241622E-01  0.61051631251E-01  0.51100000000E-03 0. -1.
         11    1    4    4    0    0 -0.10391035504E-01  0.49492935441E-01 -0.47252966762E-01  0.69214364594E-01  0.51100000000E-03 0.  1.
</event>
<event>
 8    1  0.1044719E+005  0.1043930E+01  0.7957747E-01            NaN
         13   -1    0    0    0    0  0.00000000000E+00  0.00000000000E+00  0.74505805969E-08  0.10566000000E+00  0.10566000000E+00 0.  1.
     999900   -1    0    0    0    0 -0.00000000000E+00 -0.00000000000E+00 -0.74505805969E-08  0.93827000000E+00  0.93827000000E+00 0.  1.
     999902    2    1    2    0    0 -0.18946149542E-01 -0.13781851820E-01 -0.59981173401E-02  0.10197458433E+01  0.10194590289E+01 0.  0.
     999903    2    3    3    0    0 -0.79812826413E-02 -0.11595389123E+00  0.57685759390E-01  0.13148068579E+00  0.21225412527E-01 0.  0.
         14    1    1    2    0    0  0.18946149542E-01  0.13781851820E-01  0.59981173401E-02  0.24184156666E-01  0.00000000000E+00 0.  1.
     999901    1    3    3    0    0 -0.10964866900E-01  0.10217203941E+00 -0.63683876730E-01  0.88826515754E+00  0.88000000000E+00 0.  1.
        -11    1    4    4    0    0  0.13750279161E-03 -0.96208646852E-01  0.41970771292E-01  0.10496632508E+00  0.51100000000E-03 0.  1.
         11    1    4    4    0    0 -0.81187854329E-02 -0.19745244376E-01  0.15714988097E-01  0.26514360718E-01  0.51100000000E-03 0. -1.
</event>
<event>
 8    1  0.1044719E+005  0.1043930E+01  0.7957747E-01            NaN
         13   -1    0    0    0    0  0.00000000000E+00  0.00000000000E+00  0.74505805969E-08  0.10566000000E+00  0.10566000000E+00 0.  1.
     999900   -1    0    0    0    0 -0.00000000000E+00 -0.00000000000E+00 -0.74505805969E-08  0.93827000000E+00  0.93827000000E+00 0. -1.
     999902    2    1    2    0    0 -0.23479214030E-01 -0.34735623554E-02 -0.20900703603E-02  0.10201033863E+01  0.10198250885E+01 0.  0.
     999903    2    3    3    0    0  0.25192169624E-01  0.11905865642E+00  0.35578511478E-01  0.12948451703E+00  0.26283085668E-01 0.  0.
         14    1    1    2    0    0  0.23479214030E-01  0.34735623554E-02  0.20900703603E-02  0.23826613712E-01  0.00000000000E+00 0.  1.
     999901    1    3    3    0    0 -0.48671383654E-01 -0.12253221877E+00 -0.37668581838E-01  0.89061886926E+00  0.88000000000E+00 0.  1.
        -11    1    4    4    0    0  0.54752963197E-02  0.70892889629E-01  0.29869290412E-01  0.77124680230E-01  0.51100000000E-03 0. -1.
         11    1    4    4    0    0  0.19716873304E-01  0.48165766789E-01  0.57092210656E-02  0.52359836798E-01  0.51100000000E-03 0.  1.
</event>
<event>
 8    1  0.1044719E+005  0.1043930E+01  0.7957747E-01            NaN
         13   -1    0    0    0    0  0.00000000000E+00  0.00000000000E+00  0.74505805969E-08  0.10566000000E+00  0.10566000000E+00 0.  1.
     999900   -1    0    0    0    0 -0.00000000000E+00 -0.00000000000E+00 -0.74505805969E-08  0.93827000000E+00  0.93827000000E+00 0.  1.
     999902    2    1    2    0    0 -0.22073606616E-01 -0.12635738320E-01  0.83510887004E-02  0.10171597427E+01  0.10168074034E+01 0.  0.
     999903    2    3    3    0    0 -0.15072261686E-01  0.99108452456E-01  0.76267746207E-01  0.12746965322E+00  0.19546993625E-01 0.  0.
         14    1    1    2    0    0  0.22073606616E-01  0.12635738320E-01 -0.83510887004E-02  0.26770257272E-01  0.00000000000E+00 0. -1.
     999901    1    3    3    0    0 -0.70013449295E-02 -0.11174419078E+00 -0.67916657507E-01  0.88969008951E+00  0.88000000000E+00 0.  1.
        -11    1    4    4    0    0 -0.81190872171E-02  0.41343762040E-01  0.20433952853E-01  0.46829838640E-01  0.51100000000E-03 0. -1.
         11    1    4    4    0    0 -0.69531744692E-02  0.57764690416E-01  0.55833793354E-01  0.80639814579E-01  0.51100000000E-03 0.  1.
</event>
<event>
 8    1  0.1044719E+005  0.1043930E+01  0.7957747E-01            NaN
         13   -1    0    0    0    0  0.00000000000E+00  0.00000000000E+00  0.74505805969E-08  0.10566000000E+00  0.10566000000E+00 0. -1.
     999900   -1    0    0    0    0 -0.00000000000E+00 -0.00000000000E+00 -0.74505805969E-08  0.93827000000E+00  0.93827000000E+00 0. -1.
     999902    2    1    2    0    0 -0.11669543368E-01  0.68710707384E-02  0.18903327534E-01  0.10206764917E+01  0.10204115714E+01 0.  0.
     999903    2    3    3    0    0 -0.27507033486E-01 -0.51281459587E-01  0.11798552341E+00  0.13306744241E+00  0.19998387615E-01 0.  0.
         14    1    1    2    0    0  0.11669543368E-01 -0.68710707384E-02 -0.18903327534E-01  0.23253508281E-01  0.00000000000E+00 0.  1.
     999901    1    3    3    0    0  0.15837490118E-01  0.58152530326E-01 -0.99082195873E-01  0.88760904931E+00  0.88000000000E+00 0. -1.
        -11    1    4    4    0    0 -0.15394254654E-01 -0.35888349113E-01  0.95875678526E-01  0.10352470011E+00  0.51100000000E-03 0.  1.
         11    1    4    4    0    0 -0.12112778832E-01 -0.15393110474E-01  0.22109844881E-01  0.29542742303E-01  0.51100000000E-03 0. -1.
</event>
<event>
 8    1  0.1044719E+005  0.1043930E+01  0.7957747E-01            NaN
         13   -1    0    0    0    0  0.00000000000E+00  0.00000000000E+00  0.74505805969E-08  0.10566000000E+00  0.10566000000E+00 0. -1.
     999900   -1    0    0    0    0 -0.00000000000E+00 -0.00000000000E+00 -0.74505805969E-08  0.93827000000E+00  0.93827000000E+00 0.  1.
     999902    2    1    2    0    0  0.18637856137E-01  0.19148565205E-01 -0.35244569351E-02  0.10169770961E+01  0.10166198675E+01 0.  0.
     999903    2    3    3    0    0  0.25525279863E-01 -0.11522800617E+00 -0.39772669437E-01  0.12601220767E+00  0.19187963165E-01 0.  0.
         14    1    1    2    0    0 -0.18637856137E-01 -0.19148565205E-01  0.35244569351E-02  0.26952903878E-01  0.00000000000E+00 0. -1.
     999901    1    3    3    0    0 -0.68874237260E-02  0.13437657137E+00  0.36248212502E-01  0.89096488845E+00  0.88000000000E+00 0. -1.
        -11    1    4    4    0    0  0.16168438786E-01 -0.42887132872E-01 -0.83688524865E-02  0.46594242045E-01  0.51100000000E-03 0.  1.
         11    1    4    4    0    0  0.93568410764E-02 -0.72340873297E-01 -0.31403816951E-01  0.79417965628E-01  0.51100000000E-03 0. -1.
</event>
<event>
 8    1  0.1044719E+005  0.1043930E+01  0.7957747E-01            NaN
         13   -1    0    0    0    0  0.00000000000E+00  0.00000000000E+00  0.74505805969E-08  0.10566000000E+00  0.10566000000E+00 0. -1.
     999900   -1    0    0    0    0 -0.00000000000E+00 -0.00000000000E+00 -0.74505805969E-08  0.93827000000E+00  0.93827000000E+00 0. -1.
     999902    2    1    2    0    0  0.19087767497E-01 -0.98783072442E-02  0.83747433840E-02  0.10208635710E+01  0.10206029445E+01 0.  0.
     999903    2    3    3    0    0 -0.49464385784E-01 -0.46996339228E-01 -0.10843751852E+00  0.12972819934E+00  0.20379620215E-01 0.  0.
         14    1    1    2    0    0 -0.19087767497E-01  0.98783072442E-02 -0.83747433840E-02  0.23066429042E-01  0.00000000000E+00 0. -1.
     999901    1    3    3    0    0  0.68552153280E-01  0.37118031984E-01  0.11681226190E+00  0.89113537162E+00  0.88000000000E+00 0.  1.
        -11    1    4    4    0    0 -0.43582575656E-02 -0.10086422571E-01 -0.30386063936E-01  0.32315697916E-01  0.51100000000E-03 0. -1.
         11    1    4    4    0    0 -0.45106128218E-01 -0.36909916657E-01 -0.78051454581E-01  0.97412501424E-01  0.51100000000E-03 0.  1.
</event>
<event>
 8    1  0.1044719E+005  0.1043930E+01  0.7957747E-01            NaN
         13   -1    0    0    0    0  0.00000000000E+00  0.00000000000E+00  0.74505805969E-08  0.10566000000E+00  0.10566000000E+00 0.  1.
     999900   -1    0    0    0    0 -0.00000000000E+00 -0.00000000000E+00 -0.74505805969E-08  0.93827000000E+00  0.93827000000E+00 0. -1.
     999902    2    1    2    0    0  0.24106740315E-01 -0.59320335130E-02 -0.26250750056E-02  0.10189657261E+01  0.10186598726E+01 0.  0.
     999903    2    3    3    0    0  0.15321717318E-01  0.11467738788E+00 -0.53768926862E-01  0.12922447008E+00  0.20547697222E-01 0.  0.
         14    1    1    2    0    0 -0.24106740315E-01  0.59320335130E-02  0.26250750056E-02  0.24964273853E-01  0.00000000000E+00 0. -1.
     999901    1    3    3    0    0  0.87850229976E-02 -0.12060942139E+00  0.51143851856E-01  0.88974125606E+00  0.88000000000E+00 0.  1.
        -11    1    4    4    0    0  0.61043058875E-02  0.77503456618E-01 -0.45356682252E-01  0.90008544506E-01  0.51100000000E-03 0.  1.
         11    1    4    4    0    0  0.92174114303E-02  0.37173931257E-01 -0.84122446100E-02  0.39215925579E-01  0.51100000000E-03 0. -1.
</event>
<event>
 8    1  0.1044719E+005  0.1043930E+01  0.7957747E-01            NaN
         13   -1    0    0    0    0  0.00000000000E+00  0.00000000000E+00  0.74505805969E-08  0.10566000000E+00  0.10566000000E+00 0. -1.
     999900   -1    0    0    0    0 -0.00000000000E+00 -0.00000000000E+00 -0.74505805969E-08  0.93827000000E+00  0.93827000000E+00 0.  1.
     999902    2    1    2    0    0  0.17101502438E-01 -0.47682899907E-02  0.18269634213E-01  0.10184549630E+01  0.10181363043E+01 0.  0.
     999903    2    3    3    0    0  0.59783929284E-01 -0.95310402097E-02 -0.11135362739E+00  0.12792328851E+00  0.17314112217E-01 0.  0.
         14    1    1    2    0    0 -0.17101502438E-01  0.47682899907E-02 -0.18269634213E-01  0.25475036984E-01  0.00000000000E+00 0.  1.
     999901    1    3    3    0    0 -0.42682426846E-01  0.47627502191E-02  0.12962326160E+00  0.89053167451E+00  0.88000000000E+00 0. -1.
        -11    1    4    4    0    0  0.25062190715E-01  0.45457207149E-02 -0.46646839847E-01  0.53150407045E-01  0.51100000000E-03 0.  1.
         11    1    4    4    0    0  0.34721738569E-01 -0.14076760925E-01 -0.64706787543E-01  0.74772881464E-01  0.51100000000E-03 0. -1.
</event>
<event>
 8    1  0.1044719E+005  0.1043930E+01  0.7957747E-01            NaN
         13   -1    0    0    0    0  0.00000000000E+00  0.00000000000E+00  0.74505805969E-08  0.10566000000E+00  0.10566000000E+00 0. -1.
     999900   -1    0    0    0    0 -0.00000000000E+00 -0.00000000000E+00 -0.74505805969E-08  0.93827000000E+00  0.93827000000E+00 0.  1.
     999902    2    1    2    0    0  0.64658541647E-02 -0.79279578045E-02  0.21328847438E-01  0.10202745668E+01  0.10200003001E+01 0.  0.
     999903    2    3    3    0    0  0.11295353808E+00 -0.64057056979E-01  0.12821811687E-01  0.13203897182E+00  0.20201062099E-01 0.  0.
         14    1    1    2    0    0 -0.64658541647E-02  0.79279578045E-02 -0.21328847438E-01  0.23655433162E-01  0.00000000000E+00 0.  1.
     999901    1    3    3    0    0 -0.10648768392E+00  0.56129099174E-01  0.85070357512E-02  0.88823559502E+00  0.88000000000E+00 0. -1.
        -11    1    4    4    0    0  0.89057791717E-01 -0.40431335627E-01  0.93688241101E-02  0.98254868339E-01  0.51100000000E-03 0.  1.
         11    1    4    4    0    0  0.23895746366E-01 -0.23625721352E-01  0.34529875771E-02  0.33784103481E-01  0.51100000000E-03 0. -1.
</event>
<event>
 8    1  0.1044719E+005  0.1043930E+01  0.7957747E-01            NaN
         13   -1    0    0    0    0  0.00000000000E+00  0.00000000000E+00  0.74505805969E-08  0.10566000000E+00  0.10566000000E+00 0.  1.
     999900   -1    0    0    0    0 -0.00000000000E+00 -0.00000000000E+00 -0.74505805969E-08  0.93827000000E+00  0.93827000000E+00 0. -1.
     999902    2    1    2    0    0  0.17187878790E-01  0.11255266869E-01  0.42812049310E-02  0.10229435061E+01  0.10227282062E+01 0.  0.
     999903    2    3    3    0    0 -0.56258937519E-01  0.55471319791E-01 -0.10423738695E+00  0.13214286684E+00  0.18819379595E-01 0.  0.
         14    1    1    2    0    0 -0.17187878790E-01 -0.11255266869E-01 -0.42812049310E-02  0.20986493877E-01  0.00000000000E+00 0.  1.
     999901    1    3    3    0    0  0.73446816310E-01 -0.44216052922E-01  0.10851859188E+00  0.89080063928E+00  0.88000000000E+00 0. -1.
        -11    1    4    4    0    0 -0.57041356199E-02  0.11915460298E-01 -0.27053531812E-01  0.30110962486E-01  0.51100000000E-03 0.  1.
         11    1    4    4    0    0 -0.50554801899E-01  0.43555859493E-01 -0.77183855138E-01  0.10203190435E+00  0.51100000000E-03 0. -1.
</event>
<event>
 8    1  0.1436777E+005  0.1043930E+01  0.7957747E-01            NaN
         13   -1    0    0    0    0  0.00000000000E+00  0.00000000000E+00  0.74505805969E-08  0.10566000000E+00  0.10566000000E+00 0.  1.
     999900   -1    0    0    0    0 -0.00000000000E+00 -0.00000000000E+00 -0.74505805969E-08  0.93827000000E+00  0.93827000000E+00 0.  1.
     999902    2    1    2    0    0 -0.22171981848E-01 -0.10452907048E-01  0.43917004715E-03  0.10194136195E+01  0.10191187736E+01 0.  0.
     999903    2    3    3    0    0 -0.58311669943E-01  0.11359621923E+00 -0.13210695441E-01  0.12987408598E+00  0.19707964354E-01 0.  0.
         14    1    1    2    0    0  0.22171981848E-01  0.10452907048E-01 -0.43917004715E-03  0.24516380548E-01  0.00000000000E+00 0. -1.
     999901    1    3    3    0    0  0.36139688095E-01 -0.12404912628E+00  0.13649865488E-01  0.88953953347E+00  0.88000000000E+00 0.  1.
        -11    1    4    4    0    0 -0.27810432328E-01  0.71065044844E-01 -0.19673284795E-02  0.76339978041E-01  0.51100000000E-03 0. -1.
         11    1    4    4    0    0 -0.30501237615E-01  0.42531174388E-01 -0.11243366961E-01  0.53534107937E-01  0.51100000000E-03 0.  1.
</event>
<event>
 8    1  0.1044719E+005  0.1043930E+01  0.7957747E-01            NaN
         13   -1    0    0    0    0  0.00000000000E+00  0.00000000000E+00  0.74505805969E-08  0.10566000000E+00  0.10566000000E+00 0. -1.
     999900   -1    0    0    0    0 -0.00000000000E+00 -0.00000000000E+00 -0.74505805969E-08  0.93827000000E+00  0.93827000000E+00 0.  1.
     999902    2    1    2    0    0 -0.22469527515E-02 -0.18720280111E-01 -0.13607513600E-01  0.10206778579E+01  0.10204129691E+01 0.  0.
     999903    2    3    3    0    0 -0.12067686400E+00 -0.41769254738E-01 -0.27813769831E-01  0.13233180103E+00  0.20749063241E-01 0.  0.
         14    1    1    2    0    0  0.22469527515E-02  0.18720280111E-01  0.13607513600E-01  0.23252142062E-01  0.00000000000E+00 0. -1.
     999901    1    3    3    0    0  0.11842991125E+00  0.23048974628E-01  0.14206256231E-01  0.88834605691E+00  0.88000000000E+00 0.  1.
        -11    1    4    4    0    0 -0.65764430592E-01 -0.33613450205E-01 -0.15792736213E-01  0.75528113996E-01  0.51100000000E-03 0.  1.
         11    1    4    4    0    0 -0.54912433407E-01 -0.81558045338E-02 -0.12021033618E-01  0.56803687033E-01  0.51100000000E-03 0. -1.
</event>
<event>
 8    1  0.1044719E+005  0.1043930E+01  0.7957747E-01            NaN
         13   -1    0    0    0    0  0.00000000000E+00  0.00000000000E+00  0.74505805969E-08  0.10566000000E+00  0.10566000000E+00 0.  1.
     999900   -1    0    0    0    0 -0.00000000000E+00 -0.00000000000E+00 -0.74505805969E-08  0.93827000000E+00  0.93827000000E+00 0. -1.
     999902    2    1    2    0    0 -0.16972665455E-01 -0.14311139287E-01  0.79717013903E-02  0.10203412717E+01  0.10200685676E+01 0.  0.
     999903    2    3    3    0    0 -0.75210934670E-01  0.34238622225E-02  0.10448084888E+00  0.13297424400E+00  0.33128450884E-01 0.  0.
         14    1    1    2    0    0  0.16972665455E-01  0.14311139287E-01 -0.79717013903E-02  0.23588728312E-01  0.00000000000E+00 0.  1.
     999901    1    3    3    0    0  0.58238269215E-01 -0.17735001509E-01 -0.96509147490E-01  0.88736702769E+00  0.88000000000E+00 0.  1.
        -11    1    4    4    0    0 -0.13086300041E-01  0.13278903424E-01  0.17073080832E-01  0.25285010084E-01  0.51100000000E-03 0. -1.
         11    1    4    4    0    0 -0.62124634629E-01 -0.98550412012E-02  0.87407768049E-01  0.10768923391E+00  0.51100000000E-03 0.  1.
</event>
<event>
 8    1  0.1044719E+005  0.1043930E+01  0.7957747E-01            NaN
         13   -1    0    0    0    0  0.00000000000E+00  0.00000000000E+00  0.74505805969E-08  0.10566000000E+00  0.10566000000E+00 0. -1.
     999900   -1    0    0    0    0 -0.00000000000E+00 -0.00000000000E+00 -0.74505805969E-08  0.93827000000E+00  0.93827000000E+00 0. -1.
     999902    2    1    2    0    0  0.36150030574E-02 -0.15639473647E-01  0.19801182505E-01  0.10184398409E+01  0.10181207990E+01 0.  0.
     999903    2    3    3    0    0  0.92895275396E-01  0.39490890598E-01  0.79779350792E-01  0.13017878424E+00  0.19816872136E-01 0.  0.
         14    1    1    2    0    0 -0.36150030574E-02  0.15639473647E-01 -0.19801182505E-01  0.25490159114E-01  0.00000000000E+00 0.  1.
     999901    1    3    3    0    0 -0.89280272338E-01 -0.55130364245E-01 -0.59978168287E-01  0.88826105665E+00  0.88000000000E+00 0. -1.
        -11    1    4    4    0    0  0.69791912549E-01  0.31063633930E-01  0.48919362368E-01  0.90715078932E-01  0.51100000000E-03 0.  1.
         11    1    4    4    0    0  0.23103362847E-01  0.84272566686E-02  0.30859988424E-01  0.39463705304E-01  0.51100000000E-03 0. -1.
</event>
<event>
 8    1  0.1044719E+005  0.1043930E+01  0.7957747E-01            NaN
         13   -1    0    0    0    0  0.00000000000E+00  0.00000000000E+00  0.74505805969E-08  0.10566000000E+00  0.10566000000E+00 0. -1.
     999900   -1    0    0    0    0 -0.00000000000E+00 -0.00000000000E+00 -0.74505805969E-08  0.93827000000E+00  0.93827000000E+00 0.  1.
     999902    2    1    2    0    0  0.29095048220E-02 -0.49874321249E-02  0.25289803517E-01  0.10179894167E+01  0.10176588519E+01 0.  0.
     999903    2    3    3    0    0  0.11912995735E+00 -0.10503774043E-01 -0.40636359585E-01  0.12788611791E+00  0.20031710535E-01 0.  0.
         14    1    1    2    0    0 -0.29095048220E-02  0.49874321249E-02 -0.25289803517E-01  0.25940583252E-01  0.00000000000E+00 0.  1.
     999901    1    3    3    0    0 -0.11622045253E+00  0.55163419185E-02  0.65926163103E-01  0.89010329883E+00  0.88000000000E+00 0.  1.
        -11    1    4    4    0    0  0.27205250126E-01 -0.46383864108E-02 -0.18254915461E-01  0.33092949738E-01  0.51100000000E-03 0. -1.
         11    1    4    4    0    0  0.91924707226E-01 -0.58653876326E-02 -0.22381444124E-01  0.94793168175E-01  0.51100000000E-03 0.  1.
</event>
<event>
 8    1  0.1044719E+005  0.1043930E+01  0.7957747E-01            NaN
         13   -1    0    0    0    0  0.00000000000E+00  0.00000000000E+00  0.74505805969E-08  0.10566000000E+00  0.10566000000E+00 0. -1.
     999900   -1    0    0    0    0 -0.00000000000E+00 -0.00000000000E+00 -0.74505805969E-08  0.93827000000E+00  0.93827000000E+00 0. -1.
     999902    2    1    2    0    0  0.15430528545E-01  0.11608875607E-01  0.14987546452E-01  0.10194863147E+01  0.10191932359E+01 0.  0.
     999903    2    3    3    0    0  0.94719931287E-01  0.42191785448E-01  0.80636857425E-01  0.13295828026E+00  0.20581286924E-01 0.  0.
         14    1    1    2    0    0 -0.15430528545E-01 -0.11608875607E-01 -0.14987546452E-01  0.24443685334E-01  0.00000000000E+00 0. -1.
     999901    1    3    3    0    0 -0.79289402742E-01 -0.30582909841E-01 -0.65649310973E-01  0.88652803441E+00  0.88000000000E+00 0. -1.
        -11    1    4    4    0    0  0.47510643457E-01  0.11267025267E-01  0.31351154942E-01  0.58028985320E-01  0.51100000000E-03 0.  1.
         11    1    4    4    0    0  0.47209287830E-01  0.30924760181E-01  0.49285702483E-01  0.74929294938E-01  0.51100000000E-03 0. -1.
</event>
<event>
 8    1  0.1044719E+005  0.1043930E+01  0.7957747E-01            NaN
         13   -1    0    0    0    0  0.00000000000E+00  0.00000000000E+00  0.74505805969E-08  0.10566000000E+00  0.10566000000E+00 0.  1.
     999900   -1    0    0    0    0 -0.00000000000E+00 -0.00000000000E+00 -0.74505805969E-08  0.93827000000E+00  0.93827000000E+00 0. -1.
     999902    2    1    2    0    0 -0.18671344721E-01  0.14515947710E-01  0.31779989818E-02  0.10200672355E+01  0.10197880826E+01 0.  0.
     999903    2    3    3    0    0 -0.95511846706E-01 -0.84713445967E-01 -0.20602310576E-01  0.13084485700E+00  0.19925878002E-01 0.  0.
         14    1    1    2    0    0  0.18671344721E-01 -0.14515947710E-01 -0.31779989818E-02  0.23862764490E-01  0.00000000000E+00 0. -1.
     999901    1    3    3    0    0  0.76840501985E-01  0.99229393678E-01  0.23780309558E-01  0.88922237851E+00  0.88000000000E+00 0.  1.
        -11    1    4    4    0    0 -0.51714607727E-01 -0.39949078846E-01 -0.19536276689E-01  0.68207453997E-01  0.51100000000E-03 0.  1.
         11    1    4    4    0    0 -0.43797238979E-01 -0.44764367121E-01 -0.10660338872E-02  0.62637403005E-01  0.51100000000E-03 0. -1.
</event>
<event>
 8    1  0.1044719E+005  0.1043930E+01  0.7957747E-01            NaN
         13   -1    0    0    0    0  0.00000000000E+00  0.00000000000E+00  0.74505805969E-08  0.10566000000E+00  0.10566000000E+00 0. -1.
     999900   -1    0    0    0    0 -0.00000000000E+00 -0.00000000000E+00 -0.74505805969E-08  0.93827000000E+00  0.93827000000E+00 0. -1.
     999902    2    1    2    0    0  0.11076913464E-01  0.11886422668E-01  0.12745070756E-01  0.10232800149E+01  0.10230716334E+01 0.  0.
     999903    2    3    3    0    0 -0.11721049395E+00  0.55204117946E-01  0.19070673407E-01  0.13290139046E+00  0.22656002972E-01 0.  0.
         14    1    1    2    0    0 -0.11076913464E-01 -0.11886422668E-01 -0.12745070756E-01  0.20649985092E-01  0.00000000000E+00 0.  1.
     999901    1    3    3    0    0  0.12828740742E+00 -0.43317695278E-01 -0.63256026502E-02  0.89037862445E+00  0.88000000000E+00 0.  1.
        -11    1    4    4    0    0 -0.81779606221E-01  0.49606217393E-01  0.13552573294E-01  0.96605456169E-01  0.51100000000E-03 0.  1.
         11    1    4    4    0    0 -0.35430887733E-01  0.55979005529E-02  0.55181001123E-02  0.36295934290E-01  0.51100000000E-03 0. -1.
</event>
<event>
 8    1  0.1044719E+005  0.1043930E+01  0.7957747E-01            NaN
         13   -1    0    0    0    0  0.00000000000E+00  0.00000000000E+00  0.74505805969E-08  0.10566000000E+00  0.10566000000E+00 0.  1.
     999900   -1    0    0    0    0 -0.00000000000E+00 -0.00000000000E+00 -0.74505805969E-08  0.93827000000E+00  0.93827000000E+00 0.  1.
     999902    2    1    2    0    0 -0.10940685507E-01 -0.13685068762E-02 -0.20080225451E-01  0.10210217730E+01  0.10207647496E+01 0.  0.
     999903    2    3    3    0    0  0.59804457347E-02  0.30192771795E-01  0.12283859892E+00  0.12877280025E+00  0.23361153673E-01 0.  0.
         14    1    1    2    0    0  0.10940685507E-01  0.13685068762E-02  0.20080225451E-01  0.22908227007E-01  0.00000000000E+00 0.  1.
     999901    1    3    3    0    0 -0.16921131241E-01 -0.31561278671E-01 -0.14291882437E+00  0.89224897274E+00  0.88000000000E+00 0.  1.
        -11    1    4    4    0    0  0.13394575993E-01  0.17784238777E-01  0.53649800691E-01  0.58088346939E-01  0.51100000000E-03 0. -1.
         11    1    4    4    0    0 -0.74141302588E-02  0.12408533018E-01  0.69188798229E-01  0.70684453316E-01  0.51100000000E-03 0.  1.
</event>
<event>
 8    1  0.1044719E+005  0.1043930E+01  0.7957747E-01            NaN
         13   -1    0    0    0    0  0.00000000000E+00  0.00000000000E+00  0.74505805969E-08  0.10566000000E+00  0.10566000000E+00 0. -1.
     999900   -1    0    0    0    0 -0.00000000000E+00 -0.00000000000E+00 -0.74505805969E-08  0.93827000000E+00  0.93827000000E+00 0.  1.
     999902    2    1    2    0    0 -0.13052717716E-01 -0.18920380810E-01  0.12692505561E-02  0.10209090259E+01  0.10206494374E+01 0.  0.
     999903    2    3    3    0    0  0.79402801170E-01 -0.65651630054E-01  0.78850040312E-01  0.13144255014E+00  0.21092030909E-01 0.  0.
         14    1    1    2    0    0  0.13052717716E-01  0.18920380810E-01 -0.12692505561E-02  0.23020974062E-01  0.00000000000E+00 0. -1.
     999901    1    3    3    0    0 -0.92455518886E-01  0.46731249244E-01 -0.77580789756E-01  0.88946647580E+00  0.88000000000E+00 0.  1.
        -11    1    4    4    0    0  0.22922030072E-01 -0.18013487080E-01  0.34870527587E-01  0.45454592668E-01  0.51100000000E-03 0.  1.
         11    1    4    4    0    0  0.56480771097E-01 -0.47638142974E-01  0.43979512726E-01  0.85987957473E-01  0.51100000000E-03 0. -1.
</event>
<event>
 8    1  0.1044719E+005  0.1043930E+01  0.7957747E-01            NaN
         13   -1    0    0    0    0  0.00000000000E+00  0.00000000000E+00  0.74505805969E-08  0.10566000000E+00  0.10566000000E+00 0.  1.
     999900   -1    0    0    0    0 -0.00000000000E+00 -0.00000000000E+00 -0.74505805969E-08  0.93827000000E+00  0.93827000000E+00 0.  1.
     999902    2    1    2    0    0  0.51631227693E-02  0.78909017238E-02  0.21432301751E-01  0.10205148826E+01  0.10202462241E+01 0.  0.
     999903    2    3    3    0    0  0.12626694451E+00 -0.21879383132E-01 -0.17735971904E-01  0.13085957899E+00  0.19687966626E-01 0.  0.
         14    1    1    2    0    0 -0.51631227693E-02 -0.78909017238E-02 -0.21432301751E-01  0.23415117448E-01  0.00000000000E+00 0. -1.
     999901    1    3    3    0    0 -0.12110382174E+00  0.29770284856E-01  0.39168273655E-01  0.88965530357E+00  0.88000000000E+00 0.  1.
        -11    1    4    4    0    0  0.10761906143E+00 -0.22422245216E-01 -0.20984523824E-01  0.11191617767E+00  0.51100000000E-03 0.  1.
         11    1    4    4    0    0  0.18647883087E-01  0.54286208367E-03  0.32485519204E-02  0.18943401317E-01  0.51100000000E-03 0. -1.
</event>
<event>
 8    1  0.1044719E+005  0.1043930E+01  0.7957747E-01            NaN
         13   -1    0    0    0    0  0.00000000000E+00  0.00000000000E+00  0.74505805969E-08  0.10566000000E+00  0.10566000000E+00 0. -1.
     999900   -1    0    0    0    0 -0.00000000000E+00 -0.00000000000E+00 -0.74505805969E-08  0.93827000000E+00  0.93827000000E+00 0. -1.
     999902    2    1    2    0    0  0.40007169327E-02  0.48061173476E-02 -0.23188679763E-01  0.10199129359E+01  0.10196301179E+01 0.  0.
     999903    2    3    3    0    0  0.59268661498E-01  0.72966757514E-01 -0.91801398005E-01  0.13289088222E+00  0.19888890477E-01 0.  0.
         14    1    1    2    0    0 -0.40007169327E-02 -0.48061173476E-02  0.23188679763E-01  0.24017064123E-01  0.00000000000E+00 0. -1.
     999901    1    3    3    0    0 -0.55267944565E-01 -0.68160640166E-01  0.68612718241E-01  0.88702205365E+00  0.88000000000E+00 0.  1.
        -11    1    4    4    0    0  0.52701594524E-01  0.52476991697E-01 -0.74576793040E-01  0.10532450761E+00  0.51100000000E-03 0.  1.
         11    1    4    4    0    0  0.65670669731E-02  0.20489765817E-01 -0.17224604965E-01  0.27566374609E-01  0.51100000000E-03 0. -1.
</event>
<event>
 8    1  0.1044719E+005  0.1043930E+01  0.7957747E-01            NaN
         13   -1    0    0    0    0  0.00000000000E+00  0.00000000000E+00  0.74505805969E-08  0.10566000000E+00  0.10566000000E+00 0. -1.
     999900   -1    0    0    0    0 -0.00000000000E+00 -0.00000000000E+00 -0.74505805969E-08  0.93827000000E+00  0.93827000000E+00 0. -1.
     999902    2    1    2    0    0 -0.11336420622E-01 -0.17947435362E-01  0.66846225503E-02  0.10216744603E+01  0.10214320309E+01 0.  0.
     999903    2    3    3    0    0 -0.11041110178E-01 -0.13039514375E+00 -0.15737693778E-01  0.13423582321E+00  0.25431901242E-01 0.  0.
         14    1    1    2    0    0  0.11336420622E-01  0.17947435362E-01 -0.66846225503E-02  0.22255539698E-01  0.00000000000E+00 0.  1.
     999901    1    3    3    0    0 -0.29531044379E-03  0.11244770839E+00  0.22422316328E-01  0.88743863709E+00  0.88000000000E+00 0.  1.
        -11    1    4    4    0    0 -0.18603925364E-01 -0.10894671020E+00 -0.11862772989E-01  0.11115969686E+00  0.51100000000E-03 0. -1.
         11    1    4    4    0    0  0.75628151861E-02 -0.21448433550E-01 -0.38749207887E-02  0.23076126352E-01  0.51100000000E-03 0.  1.
</event>
<event>
 8    1  0.1044719E+005  0.1043930E+01  0.7957747E-01            NaN
         13   -1    0    0    0    0  0.00000000000E+00  0.00000000000E+00  0.74505805969E-08  0.10566000000E+00  0.10566000000E+00 0.  1.
     999900   -1    0    0    0    0 -0.00000000000E+00 -0.00000000000E+00 -0.74505805969E-08  0.93827000000E+00  0.93827000000E+00 0. -1.
     999902    2    1    2    0    0 -0.86332312171E-02  0.36484261978E-02 -0.20770270412E-01  0.10211429899E+01  0.10208887099E+01 0.  0.
     999903    2    3    3    0    0  0.60203026417E-02  0.12895527080E+00  0.14553584489E-01  0.13144399247E+00  0.20000260553E-01 0.  0.
         14    1    1    2    0    0  0.86332312171E-02 -0.36484261978E-02  0.20770270412E-01  0.22787010070E-01  0.00000000000E+00 0.  1.
     999901    1    3    3    0    0 -0.14653533859E-01 -0.12530684461E+00 -0.35323854900E-01  0.88969899746E+00  0.88000000000E+00 0. -1.
        -11    1    4    4    0    0  0.91286688758E-02  0.30480744728E-01  0.73226387787E-02  0.32654104708E-01  0.51100000000E-03 0. -1.
         11    1    4    4    0    0 -0.31083662340E-02  0.98474526076E-01  0.72309457098E-02  0.98789887759E-01  0.51100000000E-03 0.  1.
</event>
<event>
 8    1  0.1044719E+005  0.1043930E+01  0.7957747E-01            NaN
         13   -1    0    0    0    0  0.00000000000E+00  0.00000000000E+00  0.74505805969E-08  0.10566000000E+00  0.10566000000E+00 0.  1.
     999900   -1    0    0    0    0 -0.00000000000E+00 -0.00000000000E+00 -0.74505805969E-08  0.93827000000E+00  0.93827000000E+00 0. -1.
     999902    2    1    2    0    0  0.86239086914E-02  0.21521693483E-01 -0.69509271344E-02  0.10197252385E+01  0.10194379292E+01 0.  0.
     999903    2    3    3    0    0  0.11740992021E-01  0.67433656249E-01  0.10971182414E+00  0.13083389414E+00  0.19891571350E-01 0.  0.
         14    1    1    2    0    0 -0.86239086914E-02 -0.21521693483E-01  0.69509271344E-02  0.24204761505E-01  0.00000000000E+00 0.  1.
     999901    1    3    3    0    0 -0.31170833296E-02 -0.45911962767E-01 -0.11666275128E+00  0.88889134435E+00  0.88000000000E+00 0. -1.
        -11    1    4    4    0    0 -0.54779770616E-02  0.11472923812E-01  0.20108372255E-01  0.23795881350E-01  0.51100000000E-03 0. -1.
         11    1    4    4    0    0  0.17218969082E-01  0.55960732438E-01  0.89603451886E-01  0.10703801279E+00  0.51100000000E-03 0.  1.
</event>
<event>
 8    1  0.1044719E+005  0.1043930E+01  0.7957747E-01            NaN
         13   -1    0    0    0    0  0.00000000000E+00  0.00000000000E+00  0.74505805969E-08  0.10566000000E+00  0.10566000000E+00 0.  1.
     999900   -1    0    0    0    0 -0.00000000000E+00 -0.00000000000E+00 -0.74505805969E-08  0.93827000000E+00  0.93827000000E+00 0.  1.
     999902    2    1    2    0    0  0.17028830513E-01  0.14171871356E-01  0.56059507793E-02  0.10210772170E+01  0.10208214503E+01 0.  0.
     999903    2    3    3    0    0  0.92794240068E-01  0.29245568474E-01 -0.88050185496E-01  0.13274220954E+00  0.20039579899E-01 0.  0.
         14    1    1    2    0    0 -0.17028830513E-01 -0.14171871356E-01 -0.56059507793E-02  0.22852782993E-01  0.00000000000E+00 0.  1.
     999901    1    3    3    0    0 -0.75765409555E-01 -0.15073697118E-01  0.93656136276E-01  0.88833500747E+00  0.88000000000E+00 0. -1.
        -11    1    4    4    0    0  0.50744542574E-01  0.22615865748E-01 -0.59930485111E-01  0.81721540314E-01  0.51100000000E-03 0. -1.
         11    1    4    4    0    0  0.42049697494E-01  0.66297027260E-02 -0.28119700385E-01  0.51020669226E-01  0.51100000000E-03 0.  1.
</event>
<event>
 8    1  0.1044719E+005  0.1043930E+01  0.7957747E-01            NaN
         13   -1    0    0    0    0  0.00000000000E+00  0.00000000000E+00  0.74505805969E-08  0.10566000000E+00  0.10566000000E+00 0.  1.
     999900   -1    0    0    0    0 -0.00000000000E+00 -0.00000000000E+00 -0.74505805969E-08  0.93827000000E+00  0.93827000000E+00 0.  1.
     999902    2    1    2    0    0  0.18201542885E-01  0.10736585528E-01 -0.52317618684E-03  0.10227913116E+01  0.10225728448E+01 0.  0.
     999903    2    3    3    0    0 -0.15542013742E-01  0.10872012165E+00  0.73203812818E-01  0.13364842668E+00  0.21011537350E-01 0.  0.
         14    1    1    2    0    0 -0.18201542885E-01 -0.10736585528E-01  0.52317618684E-03  0.21138688358E-01  0.00000000000E+00 0.  1.
     999901    1    3    3    0    0  0.33743556627E-01 -0.97983536119E-01 -0.73726989005E-01  0.88914288496E+00  0.88000000000E+00 0.  1.
        -11    1    4    4    0    0 -0.10099032586E-01  0.98106619398E-01  0.70959256666E-01  0.12150052040E+00  0.51100000000E-03 0.  1.
         11    1    4    4    0    0 -0.54429811556E-02  0.10613502249E-01  0.22445561514E-02  0.12147906287E-01  0.51100000000E-03 0. -1.
</event>
<event>
 8    1  0.1044719E+005  0.1043930E+01  0.7957747E-01            NaN
         13   -1    0    0    0    0  0.00000000000E+00  0.00000000000E+00  0.74505805969E-08  0.10566000000E+00  0.10566000000E+00 0.  1.
     999900   -1    0    0    0    0 -0.00000000000E+00 -0.00000000000E+00 -0.74505805969E-08  0.93827000000E+00  0.93827000000E+00 0.  1.
     999902    2    1    2    0    0  0.10590103848E-01  0.94881923773E-02 -0.16374067528E-01  0.10222439173E+01  0.10220138650E+01 0.  0.
     999903    2    3    3    0    0  0.12624658196E+00 -0.10413820376E-01 -0.39208868026E-01  0.13415949614E+00  0.20366343871E-01 0.  0.
         14    1    1    2    0    0 -0.10590103848E-01 -0.94881923773E-02  0.16374067528E-01  0.21686082669E-01  0.00000000000E+00 0.  1.
     999901    1    3    3    0    0 -0.11565647811E+00  0.19902012753E-01  0.22834800498E-01  0.88808442119E+00  0.88000000000E+00 0. -1.
        -11    1    4    4    0    0  0.71385700864E-01 -0.68845021565E-02 -0.32622809518E-01  0.78789742223E-01  0.51100000000E-03 0. -1.
         11    1    4    4    0    0  0.54860881095E-01 -0.35293182196E-02 -0.65860585087E-02  0.55369753921E-01  0.51100000000E-03 0.  1.
</event>
<event>
 8    1  0.1044719E+005  0.1043930E+01  0.7957747E-01            NaN
         13   -1    0    0    0    0  0.00000000000E+00  0.00000000000E+00  0.74505805969E-08  0.10566000000E+00  0.10566000000E+00 0. -1.
     999900   -1    0    0    0    0 -0.00000000000E+00 -0.00000000000E+00 -0.74505805969E-08  0.93827000000E+00  0.93827000000E+00 0.  1.
     999902    2    1    2    0    0 -0.22829400864E-01 -0.59716360465E-02 -0.22271051771E-03  0.10203314496E+01  0.10200585157E+01 0.  0.
     999903    2    3    3    0    0 -0.10643884493E+00 -0.77775854087E-01  0.63121026432E-02  0.13343287104E+00  0.19651392994E-01 0.  0.
         14    1    1    2    0    0  0.22829400864E-01  0.59716360465E-02  0.22271051771E-03  0.23598550397E-01  0.00000000000E+00 0.  1.
     999901    1    3    3    0    0  0.83609444065E-01  0.71804218041E-01 -0.65348131609E-02  0.88689857856E+00  0.88000000000E+00 0. -1.
        -11    1    4    4    0    0 -0.28548084676E-03 -0.33827140731E-02  0.14159340193E-02  0.37135217734E-02  0.51100000000E-03 0.  1.
         11    1    4    4    0    0 -0.10615336408E+00 -0.74393140014E-01  0.48961686239E-02  0.12971934927E+00  0.51100000000E-03 0. -1.
</event>
<event>
 8    1  0.1044719E+005  0.1043930E+01  0.7957747E-01            NaN
         13   -1    0    0    0    0  0.00000000000E+00  0.00000000000E+00  0.74505805969E-08  0.10566000000E+00  0.10566000000E+00 0.  1.
     999900   -1    0    0    0    0 -0.00000000000E+00 -0.00000000000E+00 -0.74505805969E-08  0.93827000000E+00  0.93827000000E+00 0. -1.
     999902    2    1    2    0    0  0.17809307059E-01 -0.13563299360E-01  0.23228731107E-02  0.10214237732E+01  0.10211757900E+01 0.  0.
     999903    2    3    3    0    0  0.57567956934E-01 -0.11950613176E+00 -0.13180689736E-02  0.13417077066E+00  0.20106546156E-01 0.  0.
         14    1    1    2    0    0 -0.17809307059E-01  0.13563299360E-01 -0.23228731107E-02  0.22506226848E-01  0.00000000000E+00 0. -1.
     999901    1    3    3    0    0 -0.39758649874E-01  0.10594283240E+00  0.36409420843E-02  0.88725300250E+00  0.88000000000E+00 0.  1.
        -11    1    4    4    0    0  0.56396717537E-02 -0.17859995306E-01  0.63162054897E-02  0.19772225535E-01  0.51100000000E-03 0.  1.
         11    1    4    4    0    0  0.51928285180E-01 -0.10164613646E+00 -0.76342744633E-02  0.11439854512E+00  0.51100000000E-03 0. -1.
</event>
<event>
 8    1  0.1044719E+005  0.1043930E+01  0.7957747E-01            NaN
         13   -1    0    0    0    0  0.00000000000E+00  0.00000000000E+00  0.74505805969E-08  0.10566000000E+00  0.10566000000E+00 0. -1.
     999900   -1    0    0    0    0 -0.00000000000E+00 -0.00000000000E+00 -0.74505805969E-08  0.93827000000E+00  0.93827000000E+00 0. -1.
     999902    2    1    2    0    0  0.13471685359E-01 -0.12699542551E-01  0.15610844533E-01  0.10197129986E+01  0.10194253952E+01 0.  0.
     999903    2    3    3    0    0 -0.39118398484E-01  0.64230700641E-01 -0.10088936406E+00  0.12715696240E+00  0.18286533367E-01 0.  0.
         14    1    1    2    0    0 -0.13471685359E-01  0.12699542551E-01 -0.15610844533E-01  0.24217001351E-01  0.00000000000E+00 0.  1.
     999901    1    3    3    0    0  0.52590083843E-01 -0.76930243191E-01  0.11650020859E+00  0.89255603625E+00  0.88000000000E+00 0.  1.
        -11    1    4    4    0    0 -0.17278213549E-01  0.44942732993E-01 -0.65978779254E-01  0.81681370858E-01  0.51100000000E-03 0. -1.
         11    1    4    4    0    0 -0.21840184935E-01  0.19287967647E-01 -0.34910584806E-01  0.45475591546E-01  0.51100000000E-03 0.  1.
</event>
<event>
 8    1  0.1044719E+005  0.1043930E+01  0.7957747E-01            NaN
         13   -1    0    0    0    0  0.00000000000E+00  0.00000000000E+00  0.74505805969E-08  0.10566000000E+00  0.10566000000E+00 0. -1.
     999900   -1    0    0    0    0 -0.00000000000E+00 -0.00000000000E+00 -0.74505805969E-08  0.93827000000E+00  0.93827000000E+00 0.  1.
     999902    2    1    2    0    0  0.14454235498E-01  0.18122311067E-01 -0.19413246545E-02  0.10206681896E+01  0.10204030779E+01 0.  0.
     999903    2    3    3    0    0  0.11692294231E+00 -0.38713209723E-01 -0.42818675150E-01  0.13196066172E+00  0.20260559110E-01 0.  0.
         14    1    1    2    0    0 -0.14454235498E-01 -0.18122311067E-01  0.19413246545E-02  0.23261810412E-01  0.00000000000E+00 0. -1.
     999901    1    3    3    0    0 -0.10246870681E+00  0.56835520790E-01  0.40877350496E-01  0.88870752786E+00  0.88000000000E+00 0.  1.
        -11    1    4    4    0    0  0.21543951139E-01  0.10367073497E-03 -0.40467898196E-02  0.21926928812E-01  0.51100000000E-03 0.  1.
         11    1    4    4    0    0  0.95378991171E-01 -0.38816880458E-01 -0.38771885331E-01  0.11003373291E+00  0.51100000000E-03 0. -1.
</event>
<event>
 8    1  0.1044719E+005  0.1043930E+01  0.7957747E-01            NaN
         13   -1    0    0    0    0  0.00000000000E+00  0.00000000000E+00  0.74505805969E-08  0.10566000000E+00  0.10566000000E+00 0.  1.
     999900   -1    0    0    0    0 -0.00000000000E+00 -0.00000000000E+00 -0.74505805969E-08  0.93827000000E+00  0.93827000000E+00 0.  1.
     999902    2    1    2    0    0 -0.80181571599E-03  0.13092894792E-01 -0.19733030318E-01  0.10202348678E+01  0.10199596689E+01 0.  0.
     999903    2    3    3    0    0 -0.68800417743E-01  0.51534593418E-01  0.94146329404E-01  0.12946549104E+00  0.22549284481E-01 0.  0.
         14    1    1    2    0    0  0.80181571599E-03 -0.13092894792E-01  0.19733030318E-01  0.23695132158E-01  0.00000000000E+00 0.  1.
     999901    1    3    3    0    0  0.67998602027E-01 -0.38441698626E-01 -0.11387935972E+00  0.89076937680E+00  0.88000000000E+00 0.  1.
        -11    1    4    4    0    0 -0.59809227449E-01  0.52778460888E-01  0.83915917193E-01  0.11577932415E+00  0.51100000000E-03 0. -1.
         11    1    4    4    0    0 -0.89911902938E-02 -0.12438674700E-02  0.10230412210E-01  0.13686166891E-01  0.51100000000E-03 0.  1.
</event>
<event>
 8    1  0.1044719E+005  0.1043930E+01  0.7957747E-01            NaN
         13   -1    0    0    0    0  0.00000000000E+00  0.00000000000E+00  0.74505805969E-08  0.10566000000E+00  0.10566000000E+00 0. -1.
     999900   -1    0    0    0    0 -0.00000000000E+00 -0.00000000000E+00 -0.74505805969E-08  0.93827000000E+00  0.93827000000E+00 0.  1.
     999902    2    1    2    0    0 -0.20208223676E-01 -0.12179463423E-01  0.49179772387E-02  0.10198281716E+01  0.10195433298E+01 0.  0.
     999903    2    3    3    0    0  0.15015975433E-01 -0.54525245879E-01 -0.11529925193E+00  0.12994835290E+00  0.19853840193E-01 0.  0.
         14    1    1    2    0    0  0.20208223676E-01  0.12179463423E-01 -0.49179772387E-02  0.24101828427E-01  0.00000000000E+00 0.  1.
     999901    1    3    3    0    0 -0.35224199109E-01  0.42345782456E-01  0.12021722916E+00  0.88987981867E+00  0.88000000000E+00 0. -1.
        -11    1    4    4    0    0  0.11657365670E-01 -0.10520235863E-01 -0.27184265077E-01  0.31397689815E-01  0.51100000000E-03 0. -1.
         11    1    4    4    0    0  0.33586097638E-02 -0.44005010016E-01 -0.88114986849E-01  0.98550663084E-01  0.51100000000E-03 0.  1.
</event>
<event>
 8    1  0.1044719E+005  0.1043930E+01  0.7957747E-01            NaN
         13   -1    0    0    0    0  0.00000000000E+00  0.00000000000E+00  0.74505805969E-08  0.10566000000E+00  0.10566000000E+00 0. -1.
     999900   -1    0    0    0    0 -0.00000000000E+00 -0.00000000000E+00 -0.74505805969E-08  0.93827000000E+00  0.93827000000E+00 0.  1.
     999902    2    1    2    0    0  0.13001993742E-01 -0.18868285153E-01 -0.25013937789E-02  0.10208795988E+01  0.10206193385E+01 0.  0.
     999903    2    3    3    0    0  0.15629366333E-01 -0.12962053379E+00 -0.21333319565E-01  0.13373383561E+00  0.19592559627E-01 0.  0.
         14    1    1    2    0    0 -0.13001993742E-01  0.18868285153E-01  0.25013937789E-02  0.23050401227E-01  0.00000000000E+00 0.  1.
     999901    1    3    3    0    0 -0.26273725916E-02  0.11075224863E+00  0.18831925786E-01  0.88714576316E+00  0.88000000000E+00 0. -1.
        -11    1    4    4    0    0  0.15830608694E-01 -0.79024769398E-01 -0.20348635928E-01  0.83125510256E-01  0.51100000000E-03 0.  1.
         11    1    4    4    0    0 -0.20124236111E-03 -0.50595764389E-01 -0.98468363667E-03  0.50608325357E-01  0.51100000000E-03 0. -1.
</event>
<event>
 8    1  0.1111810E+005  0.1043930E+01  0.7957747E-01            NaN
         13   -1    0    0    0    0  0.00000000000E+00  0.00000000000E+00  0.74505805969E-08  0.10566000000E+00  0.10566000000E+00 0. -1.
     999900   -1    0    0    0    0 -0.00000000000E+00 -0.00000000000E+00 -0.74505805969E-08  0.93827000000E+00  0.93827000000E+00 0. -1.
     999902    2    1    2    0    0  0.17253094193E-01 -0.72679779495E-02 -0.12761446092E-01  0.10212728318E+01  0.10210214737E+01 0.  0.
     999903    2    3    3    0    0 -0.77575437877E-01 -0.94436678600E-01 -0.43575722672E-01  0.13136252596E+00  0.20519132379E-01 0.  0.
         14    1    1    2    0    0 -0.17253094193E-01  0.72679779495E-02  0.12761446092E-01  0.22657168160E-01  0.00000000000E+00 0. -1.
     999901    1    3    3    0    0  0.94828532070E-01  0.87168700651E-01  0.30814276580E-01  0.88991030588E+00  0.88000000000E+00 0. -1.
        -11    1    4    4    0    0 -0.42622914762E-01 -0.52099471835E-01 -0.13133850760E-01  0.68584451482E-01  0.51100000000E-03 0.  1.
         11    1    4    4    0    0 -0.34952523115E-01 -0.42337206766E-01 -0.30441871912E-01  0.62778074479E-01  0.51100000000E-03 0. -1.
</event>
<event>
 8    1  0.1044719E+005  0.1043930E+01  0.7957747E-01            NaN
         13   -1    0    0    0    0  0.00000000000E+00  0.00000000000E+00  0.74505805969E-08  0.10566000000E+00  0.10566000000E+00 0.  1.
     999900   -1    0    0    0    0 -0.00000000000E+00 -0.00000000000E+00 -0.74505805969E-08  0.93827000000E+00  0.93827000000E+00 0. -1.
     999902    2    1    2    0    0 -0.16030927373E-01 -0.92476471290E-02  0.13302769968E-01  0.10211380431E+01  0.10208836514E+01 0.  0.
     999903    2    3    3    0    0  0.57243172349E-01  0.27493194382E-01 -0.10993336870E+00  0.12877817793E+00  0.21582794980E-01 0.  0.
         14    1    1    2    0    0  0.16030927373E-01  0.92476471290E-02 -0.13302769968E-01  0.22791956886E-01  0.00000000000E+00 0. -1.
     999901    1    3    3    0    0 -0.73274099722E-01 -0.36740841511E-01  0.12323613866E+00  0.89235986519E+00  0.88000000000E+00 0.  1.
        -11    1    4    4    0    0  0.37573451678E-01  0.21194341601E-01 -0.91200909355E-01  0.10089019464E+00  0.51100000000E-03 0. -1.
         11    1    4    4    0    0  0.19669720671E-01  0.62988527812E-02 -0.18732459341E-01  0.27887983283E-01  0.51100000000E-03 0.  1.
</event>
<event>
 8    1  0.1044719E+005  0.1043930E+01  0.7957747E-01            NaN
         13   -1    0    0    0    0  0.00000000000E+00  0.00000000000E+00  0.74505805969E-08  0.10566000000E+00  0.10566000000E+00 0.  1.
     999900   -1    0    0    0    0 -0.00000000000E+00 -0.00000000000E+00 -0.74505805969E-08  0.93827000000E+00  0.93827000000E+00 0. -1.
     999902    2    1    2    0    0 -0.22127688393E-01 -0.58618797688E-02  0.81471315731E-02  0.10196324285E+01  0.10193428850E+01 0.  0.
     999903    2    3    3    0    0 -0.49306076448E-01  0.10941040782E+00 -0.45910638897E-01  0.13005465921E+00  0.20117184293E-01 0.  0.
         14    1    1    2    0    0  0.22127688393E-01  0.58618797688E-02 -0.81471315731E-02  0.24297571503E-01  0.00000000000E+00 0. -1.
     999901    1    3    3    0    0  0.27178388054E-01 -0.11527228759E+00  0.54057770470E-01  0.88957776929E+00  0.88000000000E+00 0.  1.
        -11    1    4    4    0    0 -0.13610452461E-01  0.36717077442E-01 -0.54998476550E-02  0.39546145669E-01  0.51100000000E-03 0.  1.
         11    1    4    4    0    0 -0.35695623987E-01  0.72693330379E-01 -0.40410791242E-01  0.90508513540E-01  0.51100000000E-03 0. -1.
</event>
<event>
 8    1  0.1044719E+005  0.1043930E+01  0.7957747E-01            NaN
         13   -1    0    0    0    0  0.00000000000E+00  0.00000000000E+00  0.74505805969E-08  0.10566000000E+00  0.10566000000E+00 0. -1.
     999900   -1    0    0    0    0 -0.00000000000E+00 -0.00000000000E+00 -0.74505805969E-08  0.93827000000E+00  0.93827000000E+00 0.  1.
     999902    2    1    2    0    0 -0.38347166616E-02 -0.10408380248E-01 -0.22093649906E-01  0.10192081716E+01  0.10189083022E+01 0.  0.
     999903    2    3    3    0    0 -0.16503132103E-01  0.10292623030E+00  0.70250595074E-01  0.12705757769E+00  0.18501883367E-01 0.  0.
         14    1    1    2    0    0  0.38347166616E-02  0.10408380248E-01  0.22093649906E-01  0.24721828360E-01  0.00000000000E+00 0. -1.
     999901    1    3    3    0    0  0.12668415442E-01 -0.11333461055E+00 -0.92344244980E-01  0.89215059395E+00  0.88000000000E+00 0. -1.
        -11    1    4    4    0    0 -0.18980752252E-02  0.63773006387E-01  0.46886503240E-01  0.79178307258E-01  0.51100000000E-03 0. -1.
         11    1    4    4    0    0 -0.14605056878E-01  0.39153223914E-01  0.23364091834E-01  0.47879270436E-01  0.51100000000E-03 0.  1.
</event>
<event>
 8    1  0.1044719E+005  0.1043930E+01  0.7957747E-01            NaN
         13   -1    0    0    0    0  0.00000000000E+00  0.00000000000E+00  0.74505805969E-08  0.10566000000E+00  0.10566000000E+00 0.  1.
     999900   -1    0    0    0    0 -0.00000000000E+00 -0.00000000000E+00 -0.74505805969E-08  0.93827000000E+00  0.93827000000E+00 0. -1.
     999902    2    1    2    0    0  0.11793321637E-01 -0.10741949732E-01 -0.17528926698E-01  0.10202290466E+01  0.10199537109E+01 0.  0.
     999903    2    3    3    0    0  0.35321637904E-01  0.49197353051E-01 -0.11602848911E+00  0.13239546680E+00  0.19948726593E-01 0.  0.
         14    1    1    2    0    0 -0.11793321637E-01  0.10741949732E-01  0.17528926698E-01  0.23700953366E-01  0.00000000000E+00 0.  1.
     999901    1    3    3    0    0 -0.23528316268E-01 -0.59939302784E-01  0.98499562412E-01  0.88783357983E+00  0.88000000000E+00 0.  1.
        -11    1    4    4    0    0  0.23908227336E-01  0.36419072018E-01 -0.99331424756E-01  0.10846633213E+00  0.51100000000E-03 0. -1.
         11    1    4    4    0    0  0.11413410568E-01  0.12778281033E-01 -0.16697064354E-01  0.23929134669E-01  0.51100000000E-03 0.  1.
</event>
<event>
 8    1  0.1044719E+005  0.1043930E+01  0.7957747E-01            NaN
         13   -1    0    0    0    0  0.00000000000E+00  0.00000000000E+00  0.74505805969E-08  0.10566000000E+00  0.10566000000E+00 0.  1.
     999900   -1    0    0    0    0 -0.00000000000E+00 -0.00000000000E+00 -0.74505805969E-08  0.93827000000E+00  0.93827000000E+00 0. -1.
     999902    2    1    2    0    0  0.21578625625E-01  0.63850140213E-03 -0.91665812292E-02  0.10204764080E+01  0.10202068556E+01 0.  0.
     999903    2    3    3    0    0 -0.82250261489E-01 -0.71204393041E-01  0.65111019898E-01  0.12836710899E+00  0.20087275973E-01 0.  0.
         14    1    1    2    0    0 -0.21578625625E-01 -0.63850140213E-03  0.91665812292E-02  0.23453592034E-01  0.00000000000E+00 0. -1.
     999901    1    3    3    0    0  0.10382888711E+00  0.71842894443E-01 -0.74277601127E-01  0.89210929897E+00  0.88000000000E+00 0.  1.
        -11    1    4    4    0    0 -0.71997805012E-01 -0.57950573397E-01  0.46999375742E-01  0.10368777809E+00  0.51100000000E-03 0.  1.
         11    1    4    4    0    0 -0.10252456477E-01 -0.13253819644E-01  0.18111644156E-01  0.24679330906E-01  0.51100000000E-03 0. -1.
</event>
<event>
 8    1  0.1044719E+005  0.1043930E+01  0.7957747E-01            NaN
         13   -1    0    0    0    0  0.00000000000E+00  0.00000000000E+00  0.74505805969E-08  0.10566000000E+00  0.10566000000E+00 0.  1.
     999900   -1    0    0    0    0 -0.00000000000E+00 -0.00000000000E+00 -0.74505805969E-08  0.93827000000E+00  0.93827000000E+00 0.  1.
     999902    2    1    2    0    0 -0.15825654123E-01 -0.71292452052E-02  0.16779047654E-01  0.10197884610E+01  0.10195026686E+01 0.  0.
     999903    2    3    3    0    0 -0.12166422203E+00 -0.39258691465E-01  0.29842690337E-01  0.13276830195E+00  0.19834516853E-01 0.  0.
         14    1    1    2    0    0  0.15825654123E-01  0.71292452052E-02 -0.16779047654E-01  0.24141539011E-01  0.00000000000E+00 0.  1.
     999901    1    3    3    0    0  0.10583856791E+00  0.32129446260E-01 -0.13063642683E-01  0.88702015903E+00  0.88000000000E+00 0. -1.
        -11    1    4    4    0    0 -0.39659738410E-01 -0.34067686209E-02  0.73068231958E-02  0.40474086888E-01  0.51100000000E-03 0.  1.
         11    1    4    4    0    0 -0.82004483623E-01 -0.35851922844E-01  0.22535867141E-01  0.92294215066E-01  0.51100000000E-03 0. -1.
</event>
<event>
 8    1  0.1044719E+005  0.1043930E+01  0.7957747E-01            NaN
         13   -1    0    0    0    0  0.00000000000E+00  0.00000000000E+00  0.74505805969E-08  0.10566000000E+00  0.10566000000E+00 0. -1.
     999900   -1    0    0    0    0 -0.00000000000E+00 -0.00000000000E+00 -0.74505805969E-08  0.93827000000E+00  0.93827000000E+00 0.  1.
     999902    2    1    2    0    0  0.18186243425E-01 -0.26561409722E-02  0.13796885495E-01  0.10209485165E+01  0.10206898279E+01 0.  0.
     999903    2    3    3    0    0  0.73512457246E-01 -0.10189376370E+00  0.39667348350E-01  0.13326705530E+00  0.20004725719E-01 0.  0.
         14    1    1    2    0    0 -0.18186243425E-01  0.26561409722E-02 -0.13796885495E-01  0.22981483506E-01  0.00000000000E+00 0.  1.
     999901    1    3    3    0    0 -0.55326213821E-01  0.99237622731E-01 -0.25870462856E-01  0.88768146120E+00  0.88000000000E+00 0.  1.
        -11    1    4    4    0    0  0.37746149676E-01 -0.68779708046E-01  0.23208777012E-01  0.81818876218E-01  0.51100000000E-03 0.  1.
         11    1    4    4    0    0  0.35766307570E-01 -0.33114055658E-01  0.16458571338E-01  0.51448179081E-01  0.51100000000E-03 0. -1.
</event>
<event>
 8    1  0.1044719E+005  0.1043930E+01  0.7957747E-01            NaN
         13   -1    0    0    0    0  0.00000000000E+00  0.00000000000E+00  0.74505805969E-08  0.10566000000E+00  0.10566000000E+00 0.  1.
     999900   -1    0    0    0    0 -0.00000000000E+00 -0.00000000000E+00 -0.74505805969E-08  0.93827000000E+00  0.93827000000E+00 0.  1.
     999902    2    1    2    0    0 -0.43858378539E-02 -0.10634944305E-01  0.26965887241E-01  0.10146128260E+01  0.10141891786E+01 0.  0.
     999903    2    3    3    0    0  0.46427327637E-01 -0.76550758243E-02  0.11849086655E+00  0.12840309960E+00  0.15270022738E-01 0.  0.
         14    1    1    2    0    0  0.43858378539E-02  0.10634944305E-01 -0.26965887241E-01  0.29317173956E-01  0.00000000000E+00 0.  1.
     999901    1    3    3    0    0 -0.50813165491E-01 -0.29798684811E-02 -0.91524979308E-01  0.88620972644E+00  0.88000000000E+00 0.  1.
        -11    1    4    4    0    0  0.35538184843E-01 -0.75530951092E-02  0.10468715650E+00  0.11081368906E+00  0.51100000000E-03 0. -1.
         11    1    4    4    0    0  0.10889142795E-01 -0.10198071509E-03  0.13803710054E-01  0.17589410539E-01  0.51100000000E-03 0.  1.
</event>
<event>
 8    1  0.1044719E+005  0.1043930E+01  0.7957747E-01            NaN
         13   -1    0    0    0    0  0.00000000000E+00  0.00000000000E+00  0.74505805969E-08  0.10566000000E+00  0.10566000000E+00 0. -1.
     999900   -1    0    0    0    0 -0.00000000000E+00 -0.00000000000E+00 -0.74505805969E-08  0.93827000000E+00  0.93827000000E+00 0. -1.
     999902    2    1    2    0    0  0.61141603991E-02 -0.24239238957E-02  0.22986298791E-01  0.10200212506E+01  0.10197410080E+01 0.  0.
     999903    2    3    3    0    0  0.12365357107E+00 -0.36035790574E-01  0.16344755896E-01  0.13154537547E+00  0.21171937144E-01 0.  0.
         14    1    1    2    0    0 -0.61141603991E-02  0.24239238957E-02 -0.22986298791E-01  0.23908749372E-01  0.00000000000E+00 0.  1.
     999901    1    3    3    0    0 -0.11753941067E+00  0.33611866678E-01  0.66415428950E-02  0.88847587516E+00  0.88000000000E+00 0. -1.
        -11    1    4    4    0    0  0.11714579935E+00 -0.33850440372E-01  0.20282443727E-01  0.12361484240E+00  0.51100000000E-03 0.  1.
         11    1    4    4    0    0  0.65077717210E-02 -0.21853502017E-02 -0.39376878310E-02  0.79305330673E-02  0.51100000000E-03 0. -1.
</event>
<event>
 8    1  0.1044719E+005  0.1043930E+01  0.7957747E-01            NaN
         13   -1    0    0    0    0  0.00000000000E+00  0.00000000000E+00  0.74505805969E-08  0.10566000000E+00  0.10566000000E+00 0.  1.
     999900   -1    0    0    0    0 -0.00000000000E+00 -0.00000000000E+00 -0.74505805969E-08  0.93827000000E+00  0.93827000000E+00 0.  1.
     999902    2    1    2    0    0  0.19253356167E-01 -0.25334726191E-03  0.15191171750E-01  0.10194039402E+01  0.10191088586E+01 0.  0.
     999903    2    3    3    0    0  0.12973707998E+00  0.15512062502E-01  0.45186767207E-02  0.13229114948E+00  0.20203855746E-01 0.  0.
         14    1    1    2    0    0 -0.19253356167E-01  0.25334726191E-03 -0.15191171750E-01  0.24526059767E-01  0.00000000000E+00 0. -1.
     999901    1    3    3    0    0 -0.11048372381E+00 -0.15765409764E-01  0.10672495030E-01  0.88711279076E+00  0.88000000000E+00 0. -1.
        -11    1    4    4    0    0  0.76997261569E-01  0.10467019759E-01 -0.71598679072E-02  0.78036284004E-01  0.51100000000E-03 0. -1.
         11    1    4    4    0    0  0.52739818407E-01  0.50450427433E-02  0.11678544628E-01  0.54254865473E-01  0.51100000000E-03 0.  1.
</event>
<event>
 8    1  0.1044719E+005  0.1043930E+01  0.7957747E-01            NaN
         13   -1    0    0    0    0  0.00000000000E+00  0.00000000000E+00  0.74505805969E-08  0.10566000000E+00  0.10566000000E+00 0.  1.
     999900   -1    0    0    0    0 -0.00000000000E+00 -0.00000000000E+00 -0.74505805969E-08  0.93827000000E+00  0.93827000000E+00 0. -1.
     999902    2    1    2    0    0  0.61236727358E-02  0.51529568562E-02 -0.24415210650E-01  0.10182365214E+01  0.10179123040E+01 0.  0.
     999903    2    3    3    0    0 -0.11967027977E+00  0.19740594171E-01  0.32936210282E-01  0.12732344867E+00  0.20391167625E-01 0.  0.
         14    1    1    2    0    0 -0.61236727358E-02 -0.51529568562E-02  0.24415210650E-01  0.25693478613E-01  0.00000000000E+00 0.  1.
     999901    1    3    3    0    0  0.12579395250E+00 -0.14587637315E-01 -0.57351420932E-01  0.89091307271E+00  0.88000000000E+00 0. -1.
        -11    1    4    4    0    0 -0.47696015879E-01 -0.15484108780E-02  0.92117083636E-02  0.48604775474E-01  0.51100000000E-03 0. -1.
         11    1    4    4    0    0 -0.71974263887E-01  0.21289005049E-01  0.23724501918E-01  0.78718673199E-01  0.51100000000E-03 0.  1.
</event>
<event>
 8    1  0.1044719E+005  0.1043930E+01  0.7957747E-01            NaN
         13   -1    0    0    0    0  0.00000000000E+00  0.00000000000E+00  0.74505805969E-08  0.10566000000E+00  0.10566000000E+00 0. -1.
     999900   -1    0    0    0    0 -0.00000000000E+00 -0.00000000000E+00 -0.74505805969E-08  0.93827000000E+00  0.93827000000E+00 0.  1.
     999902    2    1    2    0    0 -0.38055290768E-02 -0.23491054253E-01  0.26629491683E-02  0.10199841657E+01  0.10197030427E+01 0.  0.
     999903    2    3    3    0    0  0.68380706961E-01  0.56157803005E-01  0.91659652991E-01  0.12898741688E+00  0.20165361501E-01 0.  0.
         14    1    1    2    0    0  0.38055290768E-02  0.23491054253E-01 -0.26629491683E-02  0.23945834288E-01  0.00000000000E+00 0.  1.
     999901    1    3    3    0    0 -0.72186236038E-01 -0.79648857258E-01 -0.88996703822E-01  0.89099674883E+00  0.88000000000E+00 0.  1.
        -11    1    4    4    0    0  0.29452860112E-01  0.12496627390E-01  0.27837203890E-01  0.42412353228E-01  0.51100000000E-03 0. -1.
         11    1    4    4    0    0  0.38927846849E-01  0.43661175615E-01  0.63822449100E-01  0.86575063653E-01  0.51100000000E-03 0.  1.
</event>
<event>
 8    1  0.1044719E+005  0.1043930E+01  0.7957747E-01            NaN
         13   -1    0    0    0    0  0.00000000000E+00  0.00000000000E+00  0.74505805969E-08  0.10566000000E+00  0.10566000000E+00 0.  1.
     999900   -1    0    0    0    0 -0.00000000000E+00 -0.00000000000E+00 -0.74505805969E-08  0.93827000000E+00  0.93827000000E+00 0. -1.
     999902    2    1    2    0    0 -0.13812000456E-01  0.18576210990E-01  0.48487290763E-02  0.10202792676E+01  0.10200051111E+01 0.  0.
     999903    2    3    3    0    0  0.26900462741E-01 -0.84163160333E-01  0.92112874205E-01  0.12908461200E+00  0.19260919157E-01 0.  0.
         14    1    1    2    0    0  0.13812000456E-01 -0.18576210990E-01 -0.48487290763E-02  0.23650732441E-01  0.00000000000E+00 0. -1.
     999901    1    3    3    0    0 -0.40712463197E-01  0.10273937132E+00 -0.87264145129E-01  0.89119465556E+00  0.88000000000E+00 0.  1.
        -11    1    4    4    0    0  0.23437383250E-01 -0.58802340574E-01  0.54193680407E-01  0.83332120504E-01  0.51100000000E-03 0.  1.
         11    1    4    4    0    0  0.34630794906E-02 -0.25360819759E-01  0.37919193798E-01  0.45752491492E-01  0.51100000000E-03 0. -1.
</event>
<event>
 8    1  0.1044719E+005  0.1043930E+01  0.7957747E-01            NaN
         13   -1    0    0    0    0  0.00000000000E+00  0.00000000000E+00  0.74505805969E-08  0.10566000000E+00  0.10566000000E+00 0.  1.
     999900   -1    0    0    0    0 -0.00000000000E+00 -0.00000000000E+00 -0.74505805969E-08  0.93827000000E+00  0.93827000000E+00 0.  1.
     999902    2    1    2    0    0 -0.24365156755E-02  0.12780740244E-01 -0.20323824914E-01  0.10197982411E+01  0.10195126830E+01 0.  0.
     999903    2    3    3    0    0  0.56045276724E-01  0.89905891733E-01  0.72066122485E-01  0.12968346678E+00  0.20003328084E-01 0.  0.
         14    1    1    2    0    0  0.24365156755E-02 -0.12780740244E-01  0.20323824914E-01  0.24131758928E-01  0.00000000000E+00 0.  1.
     999901    1    3    3    0    0 -0.58481792400E-01 -0.77125151489E-01 -0.92389947399E-01  0.89011477429E+00  0.88000000000E+00 0.  1.
        -11    1    4    4    0    0  0.35668352014E-01  0.38872388092E-01  0.32468470367E-01  0.61949629380E-01  0.51100000000E-03 0. -1.
         11    1    4    4    0    0  0.20376924710E-01  0.51033503641E-01  0.39597652118E-01  0.67733837399E-01  0.51100000000E-03 0.  1.
</event>
<event>
 8    1  0.1044719E+005  0.1043930E+01  0.7957747E-01            NaN
         13   -1    0    0    0    0  0.00000000000E+00  0.00000000000E+00  0.74505805969E-08  0.10566000000E+00  0.10566000000E+00 0. -1.
     999900   -1    0    0    0    0 -0.00000000000E+00 -0.00000000000E+00 -0.74505805969E-08  0.93827000000E+00  0.93827000000E+00 0.  1.
     999902    2    1    2    0    0 -0.28014768711E-02  0.22158838143E-01  0.61349458805E-02  0.10207675316E+01  0.10205047054E+01 0.  0.
     999903    2    3    3    0    0 -0.24804855392E-01 -0.97569620056E-01 -0.77224098210E-01  0.12848518696E+00  0.20242784241E-01 0.  0.
         14    1    1    2    0    0  0.28014768711E-02 -0.22158838143E-01 -0.61349458805E-02  0.23162468380E-01  0.00000000000E+00 0.  1.
     999901    1    3    3    0    0  0.22003378521E-01  0.11972845820E+00  0.83359044090E-01  0.89228234466E+00  0.88000000000E+00 0.  1.
        -11    1    4    4    0    0 -0.28252021214E-01 -0.87029367170E-01 -0.67190352335E-01  0.11352132848E+00  0.51100000000E-03 0. -1.
         11    1    4    4    0    0  0.34471658220E-02 -0.10540252886E-01 -0.10033745874E-01  0.14963858472E-01  0.51100000000E-03 0.  1.
</event>
<event>
 8    1  0.1044719E+005  0.1043930E+01  0.7957747E-01            NaN
         13   -1    0    0    0    0  0.00000000000E+00  0.00000000000E+00  0.74505805969E-08  0.10566000000E+00  0.10566000000E+00 0.  1.
     999900   -1    0    0    0    0 -0.00000000000E+00 -0.00000000000E+00 -0.74505805969E-08  0.93827000000E+00  0.93827000000E+00 0. -1.
     999902    2    1    2    0    0 -0.11636219582E-01 -0.16439354289E-01  0.85776529503E-02  0.10220386751E+01  0.10218042001E+01 0.  0.
     999903    2    3    3    0    0  0.37740786871E-02 -0.71639312710E-01  0.11158166763E+00  0.13417926070E+00  0.20178470078E-01 0.  0.
         14    1    1    2    0    0  0.11636219582E-01  0.16439354289E-01 -0.85776529503E-02  0.21891324897E-01  0.00000000000E+00 0. -1.
     999901    1    3    3    0    0 -0.15410298269E-01  0.55199958420E-01 -0.10300401468E+00  0.88785941440E+00  0.88000000000E+00 0. -1.
        -11    1    4    4    0    0  0.64902423580E-02 -0.29218268304E-01  0.31135770600E-01  0.43191755931E-01  0.51100000000E-03 0. -1.
         11    1    4    4    0    0 -0.27161636709E-02 -0.42421044405E-01  0.80445897034E-01  0.90987504769E-01  0.51100000000E-03 0.  1.
</event>
<event>
 8    1  0.1044719E+005  0.1043930E+01  0.7957747E-01            NaN
         13   -1    0    0    0    0  0.00000000000E+00  0.00000000000E+00  0.74505805969E-08  0.10566000000E+00  0.10566000000E+00 0. -1.
     999900   -1    0    0    0    0 -0.00000000000E+00 -0.00000000000E+00 -0.74505805969E-08  0.93827000000E+00  0.93827000000E+00 0. -1.
     999902    2    1    2    0    0  0.15423884896E-01  0.17350248462E-01 -0.12145560366E-02  0.10206834413E+01  0.10204186811E+01 0.  0.
     999903    2    3    3    0    0  0.44371690577E-02  0.97308017572E-01 -0.87893231291E-01  0.13274924014E+00  0.20213903601E-01 0.  0.
         14    1    1    2    0    0 -0.15423884896E-01 -0.17350248462E-01  0.12145560366E-02  0.23246558742E-01  0.00000000000E+00 0.  1.
     999901    1    3    3    0    0  0.10986715838E-01 -0.79957769110E-01  0.86678675255E-01  0.88793420112E+00  0.88000000000E+00 0.  1.
        -11    1    4    4    0    0  0.12323537773E-01  0.58153543071E-01 -0.49738171996E-01  0.77510328534E-01  0.51100000000E-03 0. -1.
         11    1    4    4    0    0 -0.78863687150E-02  0.39154474501E-01 -0.38155059296E-01  0.55238911610E-01  0.51100000000E-03 0.  1.
</event>
<event>
 8    1  0.1044719E+005  0.1043930E+01  0.7957747E-01            NaN
         13   -1    0    0    0    0  0.00000000000E+00  0.00000000000E+00  0.74505805969E-08  0.10566000000E+00  0.10566000000E+00 0.  1.
     999900   -1    0    0    0    0 -0.00000000000E+00 -0.00000000000E+00 -0.74505805969E-08  0.93827000000E+00  0.93827000000E+00 0.  1.
     999902    2    1    2    0    0  0.15017645539E-01 -0.79348594414E-02 -0.13940496562E-01  0.10219566271E+01  0.10217203720E+01 0.  0.
     999903    2    3    3    0    0 -0.60697990707E-02 -0.13142791998E+00  0.39730337893E-02  0.13290313553E+00  0.18366214248E-01 0.  0.
         14    1    1    2    0    0 -0.15017645539E-01  0.79348594414E-02  0.13940496562E-01  0.21973372893E-01  0.00000000000E+00 0.  1.
     999901    1    3    3    0    0  0.21087444609E-01  0.12349306053E+00 -0.17913530351E-01  0.88905349158E+00  0.88000000000E+00 0.  1.
        -11    1    4    4    0    0 -0.58714157444E-02 -0.87935563764E-01 -0.57979336051E-02  0.88323349418E-01  0.51100000000E-03 0.  1.
         11    1    4    4    0    0 -0.19838332624E-03 -0.43492356212E-01  0.97709673943E-02  0.44579786110E-01  0.51100000000E-03 0. -1.
</event>
<event>
 8    1  0.1044719E+005  0.1043930E+01  0.7957747E-01            NaN
         13   -1    0    0    0    0  0.00000000000E+00  0.00000000000E+00  0.74505805969E-08  0.10566000000E+00  0.10566000000E+00 0. -1.
     999900   -1    0    0    0    0 -0.00000000000E+00 -0.00000000000E+00 -0.74505805969E-08  0.93827000000E+00  0.93827000000E+00 0.  1.
     999902    2    1    2    0    0 -0.12695557959E-01 -0.12767526371E-01  0.15258014553E-01  0.10203292812E+01  0.10200562965E+01 0.  0.
     999903    2    3    3    0    0  0.11835434786E+00  0.11766505158E-02 -0.45831133006E-01  0.12842098888E+00  0.19553042451E-01 0.  0.
         14    1    1    2    0    0  0.12695557959E-01  0.12767526371E-01 -0.15258014553E-01  0.23600718838E-01  0.00000000000E+00 0.  1.
     999901    1    3    3    0    0 -0.13104990582E+00 -0.13944176887E-01  0.61089147560E-01  0.89190829228E+00  0.88000000000E+00 0.  1.
        -11    1    4    4    0    0  0.91042709664E-02  0.41702783579E-02 -0.32155899594E-03  0.10032123036E-01  0.51100000000E-03 0. -1.
         11    1    4    4    0    0  0.10925007690E+00 -0.29936278422E-02 -0.45509574010E-01  0.11838886585E+00  0.51100000000E-03 0.  1.
</event>
<event>
 8    1  0.1044719E+005  0.1043930E+01  0.7957747E-01            NaN
         13   -1    0    0    0    0  0.00000000000E+00  0.00000000000E+00  0.74505805969E-08  0.10566000000E+00  0.10566000000E+00 0.  1.
     999900   -1    0    0    0    0 -0.00000000000E+00 -0.00000000000E+00 -0.74505805969E-08  0.93827000000E+00  0.93827000000E+00 0.  1.
     999902    2    1    2    0    0  0.20759820400E-01  0.65141975702E-02  0.11142690895E-01  0.10194848681E+01  0.10191917542E+01 0.  0.
     999903    2    3    3    0    0  0.45952495867E-02  0.51794283897E-01  0.11944117235E+00  0.13154334939E+00  0.18267319297E-01 0.  0.
         14    1    1    2    0    0 -0.20759820400E-01 -0.65141975702E-02 -0.11142690895E-01  0.24445131896E-01  0.00000000000E+00 0. -1.
     999901    1    3    3    0    0  0.16164570814E-01 -0.45280086327E-01 -0.10829848145E+00  0.88794151871E+00  0.88000000000E+00 0.  1.
        -11    1    4    4    0    0 -0.34326892630E-02  0.41936877315E-02  0.23732513269E-01  0.24348792155E-01  0.51100000000E-03 0. -1.
         11    1    4    4    0    0  0.80279388497E-02  0.47600596166E-01  0.95708659079E-01  0.10719455724E+00  0.51100000000E-03 0.  1.
</event>
<event>
 8    1  0.1044719E+005  0.1043930E+01  0.7957747E-01            NaN
         13   -1    0    0    0    0  0.00000000000E+00  0.00000000000E+00  0.74505805969E-08  0.10566000000E+00  0.10566000000E+00 0.  1.
     999900   -1    0    0    0    0 -0.00000000000E+00 -0.00000000000E+00 -0.74505805969E-08  0.93827000000E+00  0.93827000000E+00 0.  1.
     999902    2    1    2    0    0 -0.82811712519E-02  0.21091691511E-01  0.60769698264E-02  0.10204701021E+01  0.10202004031E+01 0.  0.
     999903    2    3    3    0    0 -0.10545577275E+00  0.47908976162E-01 -0.60478381924E-01  0.13221806309E+00  0.20193848660E-01 0.  0.
         14    1    1    2    0    0  0.82811712519E-02 -0.21091691511E-01 -0.60769698264E-02  0.23459897919E-01  0.00000000000E+00 0.  1.
     999901    1    3    3    0    0  0.97174601494E-01 -0.26817284650E-01  0.66555351751E-01  0.88825203899E+00  0.88000000000E+00 0. -1.
        -11    1    4    4    0    0 -0.59190727034E-01  0.37552532596E-01 -0.33951970044E-01  0.77889230720E-01  0.51100000000E-03 0.  1.
         11    1    4    4    0    0 -0.46265045712E-01  0.10356443565E-01 -0.26526411881E-01  0.54328832366E-01  0.51100000000E-03 0. -1.
</event>
<event>
 8    1  0.1044719E+005  0.1043930E+01  0.7957747E-01            NaN
         13   -1    0    0    0    0  0.00000000000E+00  0.00000000000E+00  0.74505805969E-08  0.10566000000E+00  0.10566000000E+00 0. -1.
     999900   -1    0    0    0    0 -0.00000000000E+00 -0.00000000000E+00 -0.74505805969E-08  0.93827000000E+00  0.93827000000E+00 0. -1.
     999902    2    1    2    0    0 -0.98786803851E-02 -0.19421790392E-01  0.90141381854E-02  0.10203493097E+01  0.10200767936E+01 0.  0.
     999903    2    3    3    0    0  0.85975948325E-01  0.87236637956E-01 -0.32280800330E-01  0.12778592139E+00  0.16884814010E-01 0.  0.
         14    1    1    2    0    0  0.98786803851E-02  0.19421790392E-01 -0.90141381854E-02  0.23580690309E-01  0.00000000000E+00 0. -1.
     999901    1    3    3    0    0 -0.95854628710E-01 -0.10665842835E+00  0.41294938515E-01  0.89256338830E+00  0.88000000000E+00 0.  1.
        -11    1    4    4    0    0  0.28382407370E-01  0.27767875234E-01 -0.18696108441E-01  0.43891018842E-01  0.51100000000E-03 0. -1.
         11    1    4    4    0    0  0.57593540955E-01  0.59468762721E-01 -0.13584691888E-01  0.83894902551E-01  0.51100000000E-03 0.  1.
</event>
<event>
 8    1  0.1044719E+005  0.1043930E+01  0.7957747E-01            NaN
         13   -1    0    0    0    0  0.00000000000E+00  0.00000000000E+00  0.74505805969E-08  0.10566000000E+00  0.10566000000E+00 0. -1.
     999900   -1    0    0    0    0 -0.00000000000E+00 -0.00000000000E+00 -0.74505805969E-08  0.93827000000E+00  0.93827000000E+00 0. -1.
     999902    2    1    2    0    0  0.13908017532E-02 -0.22007679389E-01 -0.92767152725E-02  0.10200065862E+01  0.10197259956E+01 0.  0.
     999903    2    3    3    0    0  0.21205551012E-01  0.12065807316E+00 -0.31643119774E-01  0.12801645324E+00  0.19464821054E-01 0.  0.
         14    1    1    2    0    0 -0.13908017532E-02  0.22007679389E-01  0.92767152725E-02  0.23923413800E-01  0.00000000000E+00 0.  1.
     999901    1    3    3    0    0 -0.19814749259E-01 -0.14266575255E+00  0.22366404501E-01  0.89199013296E+00  0.88000000000E+00 0. -1.
        -11    1    4    4    0    0  0.20646241638E-01  0.64578215257E-01 -0.14090405055E-01  0.69248926455E-01  0.51100000000E-03 0. -1.
         11    1    4    4    0    0  0.55930937407E-03  0.56079857907E-01 -0.17552714719E-01  0.58767526789E-01  0.51100000000E-03 0.  1.
</event>
<event>
 8    1  0.1044719E+005  0.1043930E+01  0.7957747E-01            NaN
         13   -1    0    0    0    0  0.00000000000E+00  0.00000000000E+00  0.74505805969E-08  0.10566000000E+00  0.10566000000E+00 0.  1.
     999900   -1    0    0    0    0 -0.00000000000E+00 -0.00000000000E+00 -0.74505805969E-08  0.93827000000E+00  0.93827000000E+00 0.  1.
     999902    2    1    2    0    0  0.18152285166E-01  0.10297083778E-01  0.96749294643E-02  0.10209269643E+01  0.10206677847E+01 0.  0.
     999903    2    3    3    0    0  0.57673012692E-01 -0.32871668779E-01 -0.11088878291E+00  0.13078032591E+00  0.20011208607E-01 0.  0.
         14    1    1    2    0    0 -0.18152285166E-01 -0.10297083778E-01 -0.96749294643E-02  0.23003035696E-01  0.00000000000E+00 0. -1.
     999901    1    3    3    0    0 -0.39520727525E-01  0.43168752558E-01  0.12056371237E+00  0.89014663839E+00  0.88000000000E+00 0. -1.
        -11    1    4    4    0    0  0.32523310845E-01 -0.14513972044E-01 -0.41276841165E-01  0.54520270271E-01  0.51100000000E-03 0.  1.
         11    1    4    4    0    0  0.25149701846E-01 -0.18357696735E-01 -0.69611941741E-01  0.76260055640E-01  0.51100000000E-03 0. -1.
</event>
<event>
 8    1  0.1044719E+005  0.1043930E+01  0.7957747E-01            NaN
         13   -1    0    0    0    0  0.00000000000E+00  0.00000000000E+00  0.74505805969E-08  0.10566000000E+00  0.10566000000E+00 0. -1.
     999900   -1    0    0    0    0 -0.00000000000E+00 -0.00000000000E+00 -0.74505805969E-08  0.93827000000E+00  0.93827000000E+00 0.  1.
     999902    2    1    2    0    0 -0.16604408577E-01  0.16747518156E-01  0.39063325705E-02  0.10200250804E+01  0.10197449286E+01 0.  0.
     999903    2    3    3    0    0  0.12382278002E+00  0.22624356632E-01 -0.16214156456E-01  0.12864459673E+00  0.21037847613E-01 0.  0.
         14    1    1    2    0    0  0.16604408577E-01 -0.16747518156E-01 -0.39063325705E-02  0.23904919634E-01  0.00000000000E+00 0.  1.
     999901    1    3    3    0    0 -0.14042718860E+00 -0.58768384760E-02  0.20120489027E-01  0.89138048364E+00  0.88000000000E+00 0. -1.
        -11    1    4    4    0    0  0.92624023673E-01  0.24594277503E-01 -0.71954387259E-02  0.96104753820E-01  0.51100000000E-03 0.  1.
         11    1    4    4    0    0  0.31198756351E-01 -0.19699208710E-02 -0.90187177303E-02  0.32539842910E-01  0.51100000000E-03 0. -1.
</event>
<event>
 8    1  0.1044719E+005  0.1043930E+01  0.7957747E-01            NaN
         13   -1    0    0    0    0  0.00000000000E+00  0.00000000000E+00  0.74505805969E-08  0.10566000000E+00  0.10566000000E+00 0. -1.
     999900   -1    0    0    0    0 -0.00000000000E+00 -0.00000000000E+00 -0.74505805969E-08  0.93827000000E+00  0.93827000000E+00 0. -1.
     999902    2    1    2    0    0  0.21051427108E-01  0.59740152897E-02  0.87893604084E-02  0.10203481362E+01  0.10200755927E+01 0.  0.
     999903    2    3    3    0    0 -0.70953462402E-01 -0.67502214276E-01  0.83389613304E-01  0.12937739950E+00  0.13919092430E-01 0.  0.
         14    1    1    2    0    0 -0.21051427108E-01 -0.59740152897E-02 -0.87893604084E-02  0.23581863759E-01  0.00000000000E+00 0. -1.
     999901    1    3    3    0    0  0.92004889510E-01  0.73476229566E-01 -0.74600252896E-01  0.89097073675E+00  0.88000000000E+00 0. -1.
        -11    1    4    4    0    0 -0.38796826918E-01 -0.28605321869E-01  0.45263335558E-01  0.66124797807E-01  0.51100000000E-03 0.  1.
         11    1    4    4    0    0 -0.32156635484E-01 -0.38896892407E-01  0.38126277746E-01  0.63252601688E-01  0.51100000000E-03 0. -1.
</event>
<event>
 8    1  0.1044719E+005  0.1043930E+01  0.7957747E-01            NaN
         13   -1    0    0    0    0  0.00000000000E+00  0.00000000000E+00  0.74505805969E-08  0.10566000000E+00  0.10566000000E+00 0.  1.
     999900   -1    0    0    0    0 -0.00000000000E+00 -0.00000000000E+00 -0.74505805969E-08  0.93827000000E+00  0.93827000000E+00 0. -1.
     999902    2    1    2    0    0 -0.51667354516E-02  0.91661472066E-02 -0.20871117726E-01  0.10205565757E+01  0.10202888842E+01 0.  0.
     999903    2    3    3    0    0  0.70596963707E-01 -0.66105520174E-01  0.81219897602E-01  0.12824018703E+00  0.22248656620E-01 0.  0.
         14    1    1    2    0    0  0.51667354516E-02 -0.91661472066E-02  0.20871117726E-01  0.23373424331E-01  0.00000000000E+00 0.  1.
     999901    1    3    3    0    0 -0.75763699158E-01  0.75271667380E-01 -0.10209101533E+00  0.89231638864E+00  0.88000000000E+00 0. -1.
        -11    1    4    4    0    0  0.47243137661E-01 -0.29677480797E-01  0.49484381855E-01  0.74576350750E-01  0.51100000000E-03 0.  1.
         11    1    4    4    0    0  0.23353826045E-01 -0.36428039376E-01  0.31735515747E-01  0.53663836282E-01  0.51100000000E-03 0. -1.
</event>
<event>
 8    1  0.1044719E+005  0.1043930E+01  0.7957747E-01            NaN
         13   -1    0    0    0    0  0.00000000000E+00  0.00000000000E+00  0.74505805969E-08  0.10566000000E+00  0.10566000000E+00 0.  1.
     999900   -1    0    0    0    0 -0.00000000000E+00 -0.00000000000E+00 -0.74505805969E-08  0.93827000000E+00  0.93827000000E+00 0. -1.
     999902    2    1    2    0    0 -0.22436475221E-02 -0.20439403337E-01 -0.11414257947E-01  0.10204121675E+01  0.10201411192E+01 0.  0.
     999903    2    3    3    0    0  0.31491789079E-01  0.10994126254E-02 -0.12678316327E+00  0.13197984894E+00  0.18755493839E-01 0.  0.
         14    1    1    2    0    0  0.22436475221E-02  0.20439403337E-01  0.11414257947E-01  0.23517832542E-01  0.00000000000E+00 0.  1.
     999901    1    3    3    0    0 -0.33735436601E-01 -0.21538815963E-01  0.11536890532E+00  0.88843231852E+00  0.88000000000E+00 0.  1.
        -11    1    4    4    0    0  0.23250766214E-02 -0.33431746626E-02 -0.41119903359E-02  0.58096801669E-02  0.51100000000E-03 0. -1.
         11    1    4    4    0    0  0.29166712458E-01  0.44425872880E-02 -0.12267117294E+00  0.12617016877E+00  0.51100000000E-03 0.  1.
</event>
<event>
 8    1  0.1044719E+005  0.1043930E+01  0.7957747E-01            NaN
         13   -1    0    0    0    0  0.00000000000E+00  0.00000000000E+00  0.74505805969E-08  0.10566000000E+00  0.10566000000E+00 0.  1.
     999900   -1    0    0    0    0 -0.00000000000E+00 -0.00000000000E+00 -0.74505805969E-08  0.93827000000E+00  0.93827000000E+00 0.  1.
     999902    2    1    2    0    0  0.74655328180E-02  0.18981256723E-01  0.10510819426E-01  0.10209844206E+01  0.10207265489E+01 0.  0.
     999903    2    3    3    0    0  0.45717386853E-01 -0.15569307819E-01  0.12195309608E+00  0.13245961690E+00  0.18452903796E-01 0.  0.
         14    1    1    2    0    0 -0.74655328180E-02 -0.18981256723E-01 -0.10510819426E-01  0.22945579357E-01  0.00000000000E+00 0. -1.
     999901    1    3    3    0    0 -0.38251854035E-01  0.34550564541E-01 -0.11144227665E+00  0.88852480375E+00  0.88000000000E+00 0.  1.
        -11    1    4    4    0    0  0.25407966359E-01 -0.18062117191E-01  0.70611767526E-01  0.77188649852E-01  0.51100000000E-03 0. -1.
         11    1    4    4    0    0  0.20309420494E-01  0.24928093728E-02  0.51341328553E-01  0.55270967044E-01  0.51100000000E-03 0.  1.
</event>
<event>
 8    1  0.1044719E+005  0.1043930E+01  0.7957747E-01            NaN
         13   -1    0    0    0    0  0.00000000000E+00  0.00000000000E+00  0.74505805969E-08  0.10566000000E+00  0.10566000000E+00 0. -1.
     999900   -1    0    0    0    0 -0.00000000000E+00 -0.00000000000E+00 -0.74505805969E-08  0.93827000000E+00  0.93827000000E+00 0. -1.
     999902    2    1    2    0    0  0.22852910832E-01 -0.36564998061E-02 -0.88194648795E-02  0.10191629153E+01  0.10188619334E+01 0.  0.
     999903    2    3    3    0    0  0.67985312868E-01 -0.40515300396E-01 -0.10382203188E+00  0.13213360764E+00  0.20415279369E-01 0.  0.
         14    1    1    2    0    0 -0.22852910832E-01  0.36564998061E-02  0.88194648795E-02  0.24767084711E-01  0.00000000000E+00 0.  1.
     999901    1    3    3    0    0 -0.45132402035E-01  0.36858800590E-01  0.95002567001E-01  0.88702930765E+00  0.88000000000E+00 0.  1.
        -11    1    4    4    0    0  0.56902028450E-01 -0.31253447090E-01 -0.70648065372E-01  0.95948053959E-01  0.51100000000E-03 0.  1.
         11    1    4    4    0    0  0.11083284418E-01 -0.92618533064E-02 -0.33173966508E-01  0.36185553679E-01  0.51100000000E-03 0. -1.
</event>
<event>
 8    1  0.1044719E+005  0.1043930E+01  0.7957747E-01            NaN
         13   -1    0    0    0    0  0.00000000000E+00  0.00000000000E+00  0.74505805969E-08  0.10566000000E+00  0.10566000000E+00 0. -1.
     999900   -1    0    0    0    0 -0.00000000000E+00 -0.00000000000E+00 -0.74505805969E-08  0.93827000000E+00  0.93827000000E+00 0.  1.
     999902    2    1    2    0    0 -0.73376295826E-02  0.20362385181E-01 -0.78323372463E-02  0.10209123319E+01  0.10206528187E+01 0.  0.
     999903    2    3    3    0    0  0.50743631422E-01  0.10669009571E+00 -0.55135013923E-01  0.13352095843E+00  0.28814647780E-01 0.  0.
         14    1    1    2    0    0  0.73376295826E-02 -0.20362385181E-01  0.78323372463E-02  0.23017668103E-01  0.00000000000E+00 0.  1.
     999901    1    3    3    0    0 -0.58081261004E-01 -0.86327710529E-01  0.47302676677E-01  0.88739137347E+00  0.88000000000E+00 0. -1.
        -11    1    4    4    0    0  0.25900242642E-01  0.48163786161E-01 -0.41091246743E-01  0.68405588560E-01  0.51100000000E-03 0. -1.
         11    1    4    4    0    0  0.24843388780E-01  0.58526309550E-01 -0.14043767180E-01  0.65115369869E-01  0.51100000000E-03 0.  1.
</event>
<event>
 8    1  0.1044719E+005  0.1043930E+01  0.7957747E-01            NaN
         13   -1    0    0    0    0  0.00000000000E+00  0.00000000000E+00  0.74505805969E-08  0.10566000000E+00  0.10566000000E+00 0. -1.
     999900   -1    0    0    0    0 -0.00000000000E+00 -0.00000000000E+00 -0.74505805969E-08  0.93827000000E+00  0.93827000000E+00 0. -1.
     999902    2    1    2    0    0 -0.18311154995E-01  0.10170699225E-01  0.12317943441E-01  0.10196303446E+01  0.10193407509E+01 0.  0.
     999903    2    3    3    0    0  0.84286472354E-01 -0.57712751618E-01 -0.72876848381E-01  0.12699795189E+00  0.19556933114E-01 0.  0.
         14    1    1    2    0    0  0.18311154995E-01 -0.10170699225E-01 -0.12317943441E-01  0.24299655359E-01  0.00000000000E+00 0.  1.
     999901    1    3    3    0    0 -0.10259762735E+00  0.67883450842E-01  0.85194791822E-01  0.89263239275E+00  0.88000000000E+00 0.  1.
        -11    1    4    4    0    0  0.49179499964E-01 -0.39288341064E-01 -0.34342675641E-01  0.71706885663E-01  0.51100000000E-03 0. -1.
         11    1    4    4    0    0  0.35106972391E-01 -0.18424410554E-01 -0.38534172740E-01  0.55291066226E-01  0.51100000000E-03 0.  1.
</event>
<event>
 8    1  0.1044719E+005  0.1043930E+01  0.7957747E-01            NaN
         13   -1    0    0    0    0  0.00000000000E+00  0.00000000000E+00  0.74505805969E-08  0.10566000000E+00  0.10566000000E+00 0.  1.
     999900   -1    0    0    0    0 -0.00000000000E+00 -0.00000000000E+00 -0.74505805969E-08  0.93827000000E+00  0.93827000000E+00 0.  1.
     999902    2    1    2    0    0 -0.56226475538E-02 -0.10522283468E-01  0.20556482895E-01  0.10201623412E+01  0.10198854352E+01 0.  0.
     999903    2    3    3    0    0 -0.11649060500E+00 -0.43776375924E-01  0.40246421300E-01  0.13236437303E+00  0.20349955181E-01 0.  0.
         14    1    1    2    0    0  0.56226475538E-02  0.10522283468E-01 -0.20556482895E-01  0.23767658781E-01  0.00000000000E+00 0. -1.
     999901    1    3    3    0    0  0.11086795745E+00  0.33254092456E-01 -0.19689938405E-01  0.88779796819E+00  0.88000000000E+00 0.  1.
        -11    1    4    4    0    0 -0.92294443533E-01 -0.42165447081E-01  0.36419412703E-01  0.10780920173E+00  0.51100000000E-03 0. -1.
         11    1    4    4    0    0 -0.24196161471E-01 -0.16109288423E-02  0.38270085975E-02  0.24555171297E-01  0.51100000000E-03 0.  1.
</event>
<event>
 8    1  0.1044719E+005  0.1043930E+01  0.7957747E-01            NaN
         13   -1    0    0    0    0  0.00000000000E+00  0.00000000000E+00  0.74505805969E-08  0.10566000000E+00  0.10566000000E+00 0.  1.
     999900   -1    0    0    0    0 -0.00000000000E+00 -0.00000000000E+00 -0.74505805969E-08  0.93827000000E+00  0.93827000000E+00 0. -1.
     999902    2    1    2    0    0  0.10705818570E-01 -0.10975036609E-01  0.17575453021E-01  0.10206069957E+01  0.10203404712E+01 0.  0.
     999903    2    3    3    0    0  0.59703854980E-01 -0.78370293427E-01  0.88390075772E-01  0.13383890935E+00  0.19839228025E-01 0.  0.
         14    1    1    2    0    0 -0.10705818570E-01  0.10975036609E-01 -0.17575453021E-01  0.23323004281E-01  0.00000000000E+00 0. -1.
     999901    1    3    3    0    0 -0.48998036410E-01  0.67395256818E-01 -0.70814622751E-01  0.88676808637E+00  0.88000000000E+00 0. -1.
        -11    1    4    4    0    0  0.19815660770E-01 -0.41874929725E-01  0.37784770419E-01  0.59783945569E-01  0.51100000000E-03 0.  1.
         11    1    4    4    0    0  0.39888194211E-01 -0.36495363702E-01  0.50605305353E-01  0.74054963777E-01  0.51100000000E-03 0. -1.
</event>
<event>
 8    1  0.1044719E+005  0.1043930E+01  0.7957747E-01            NaN
         13   -1    0    0    0    0  0.00000000000E+00  0.00000000000E+00  0.74505805969E-08  0.10566000000E+00  0.10566000000E+00 0. -1.
     999900   -1    0    0    0    0 -0.00000000000E+00 -0.00000000000E+00 -0.74505805969E-08  0.93827000000E+00  0.93827000000E+00 0.  1.
     999902    2    1    2    0    0 -0.45352262581E-02  0.15955536567E-01 -0.16700277740E-01  0.10203918034E+01  0.10201202800E+01 0.  0.
     999903    2    3    3    0    0  0.81642947468E-03 -0.12576825915E+00 -0.20658493729E-01  0.12902771279E+00  0.20076248061E-01 0.  0.
         14    1    1    2    0    0  0.45352262581E-02 -0.15955536567E-01  0.16700277740E-01  0.23538196638E-01  0.00000000000E+00 0. -1.
     999901    1    3    3    0    0 -0.53516557328E-02  0.14172379572E+00  0.39582159897E-02  0.89136409058E+00  0.88000000000E+00 0. -1.
        -11    1    4    4    0    0  0.84807794424E-02 -0.31727202427E-01 -0.82116512749E-02  0.33856038330E-01  0.51100000000E-03 0. -1.
         11    1    4    4    0    0 -0.76643499677E-02 -0.94041056728E-01 -0.12446842454E-01  0.95171674457E-01  0.51100000000E-03 0.  1.
</event>
<event>
 8    1  0.1044719E+005  0.1043930E+01  0.7957747E-01            NaN
         13   -1    0    0    0    0  0.00000000000E+00  0.00000000000E+00  0.74505805969E-08  0.10566000000E+00  0.10566000000E+00 0.  1.
     999900   -1    0    0    0    0 -0.00000000000E+00 -0.00000000000E+00 -0.74505805969E-08  0.93827000000E+00  0.93827000000E+00 0. -1.
     999902    2    1    2    0    0 -0.11103821256E-02  0.23617243792E-01  0.16992691344E-02  0.10202256825E+01  0.10199502677E+01 0.  0.
     999903    2    3    3    0    0 -0.86743024400E-01 -0.31112370203E-01  0.89486532517E-01  0.13003756548E+00  0.20238504664E-01 0.  0.
         14    1    1    2    0    0  0.11103821256E-02 -0.23617243792E-01 -0.16992691344E-02  0.23704317505E-01  0.00000000000E+00 0.  1.
     999901    1    3    3    0    0  0.85632642275E-01  0.54729613995E-01 -0.87787263383E-01  0.89018811702E+00  0.88000000000E+00 0.  1.
        -11    1    4    4    0    0 -0.60395336026E-01 -0.26383464452E-01  0.51899255285E-01  0.83889675350E-01  0.51100000000E-03 0.  1.
         11    1    4    4    0    0 -0.26347688374E-01 -0.47289057507E-02  0.37587277233E-01  0.46147890125E-01  0.51100000000E-03 0. -1.
</event>
<event>
 8    1  0.1044719E+005  0.1043930E+01  0.7957747E-01            NaN
         13   -1    0    0    0    0  0.00000000000E+00  0.00000000000E+00  0.74505805969E-08  0.10566000000E+00  0.10566000000E+00 0.  1.
     999900   -1    0    0    0    0 -0.00000000000E+00 -0.00000000000E+00 -0.74505805969E-08  0.93827000000E+00  0.93827000000E+00 0. -1.
     999902    2    1    2    0    0  0.59415779569E-02  0.19958015975E-01  0.10315237911E-01  0.10206914785E+01  0.10204269035E+01 0.  0.
     999903    2    3    3    0    0 -0.13175344195E-01 -0.11244468149E+00 -0.56508329574E-01  0.12807660060E+00  0.19824939337E-01 0.  0.
         14    1    1    2    0    0 -0.59415779569E-02 -0.19958015975E-01 -0.10315237911E-01  0.23238521541E-01  0.00000000000E+00 0. -1.
     999901    1    3    3    0    0  0.19116922152E-01  0.13240269746E+00  0.66823567485E-01  0.89261487786E+00  0.88000000000E+00 0.  1.
        -11    1    4    4    0    0 -0.21677480644E-02 -0.56792447033E-01 -0.38129410454E-01  0.68441173530E-01  0.51100000000E-03 0.  1.
         11    1    4    4    0    0 -0.11007596131E-01 -0.55652234455E-01 -0.18378919120E-01  0.59635427067E-01  0.51100000000E-03 0. -1.
</event>
<event>
 8    1  0.1044719E+005  0.1043930E+01  0.7957747E-01            NaN
         13   -1    0    0    0    0  0.00000000000E+00  0.00000000000E+00  0.74505805969E-08  0.10566000000E+00  0.10566000000E+00 0. -1.
     999900   -1    0    0    0    0 -0.00000000000E+00 -0.00000000000E+00 -0.74505805969E-08  0.93827000000E+00  0.93827000000E+00 0.  1.
     999902    2    1    2    0    0  0.16462333793E-01 -0.14623883472E-01  0.11216909675E-01  0.10192179490E+01  0.10189183196E+01 0.  0.
     999903    2    3    3    0    0 -0.17096218426E-01  0.10929585413E+00  0.62231847583E-01  0.12844031026E+00  0.19653143054E-01 0.  0.
         14    1    1    2    0    0 -0.16462333793E-01  0.14623883472E-01 -0.11216909675E-01  0.24712050995E-01  0.00000000000E+00 0. -1.
     999901    1    3    3    0    0  0.33558552219E-01 -0.12391973760E+00 -0.51014937909E-01  0.89077763874E+00  0.88000000000E+00 0.  1.
        -11    1    4    4    0    0 -0.62645892800E-02  0.54471599011E-01  0.41752776814E-01  0.68919922159E-01  0.51100000000E-03 0. -1.
         11    1    4    4    0    0 -0.10831629146E-01  0.54824255120E-01  0.20479070769E-01  0.59520388104E-01  0.51100000000E-03 0.  1.
</event>
<event>
 8    1  0.1044719E+005  0.1043930E+01  0.7957747E-01            NaN
         13   -1    0    0    0    0  0.00000000000E+00  0.00000000000E+00  0.74505805969E-08  0.10566000000E+00  0.10566000000E+00 0. -1.
     999900   -1    0    0    0    0 -0.00000000000E+00 -0.00000000000E+00 -0.74505805969E-08  0.93827000000E+00  0.93827000000E+00 0.  1.
     999902    2    1    2    0    0 -0.14728278205E-01  0.10381994473E-01 -0.74187332691E-02  0.10244429378E+01  0.10242575786E+01 0.  0.
     999903    2    3    3    0    0 -0.23040121020E-01 -0.12769972513E+00  0.21994396732E-01  0.13315130194E+00  0.20185359713E-01 0.  0.
         14    1    1    2    0    0  0.14728278205E-01 -0.10381994473E-01  0.74187332691E-02  0.19487062156E-01  0.00000000000E+00 0. -1.
     999901    1    3    3    0    0  0.83118428148E-02  0.13808171960E+00 -0.29413130001E-01  0.89129163591E+00  0.88000000000E+00 0. -1.
        -11    1    4    4    0    0 -0.10780880231E-01 -0.38664934610E-01  0.15531634713E-01  0.43042970911E-01  0.51100000000E-03 0. -1.
         11    1    4    4    0    0 -0.12259240789E-01 -0.89034790515E-01  0.64627620191E-02  0.90108331028E-01  0.51100000000E-03 0.  1.
</event>
<event>
 8    1  0.1044719E+005  0.1043930E+01  0.7957747E-01            NaN
         13   -1    0    0    0    0  0.00000000000E+00  0.00000000000E+00  0.74505805969E-08  0.10566000000E+00  0.10566000000E+00 0. -1.
     999900   -1    0    0    0    0 -0.00000000000E+00 -0.00000000000E+00 -0.74505805969E-08  0.93827000000E+00  0.93827000000E+00 0.  1.
     999902    2    1    2    0    0 -0.26885224113E-01  0.53773863678E-02 -0.44819807867E-02  0.10161483566E+01  0.10157685085E+01 0.  0.
     999903    2    3    3    0    0 -0.66410038803E-01  0.10458599621E+00 -0.31619694185E-01  0.12927688069E+00  0.19083578405E-01 0.  0.
         14    1    1    2    0    0  0.26885224113E-01 -0.53773863678E-02  0.44819807867E-02  0.27781643427E-01  0.00000000000E+00 0.  1.
     999901    1    3    3    0    0  0.39524814690E-01 -0.99208609839E-01  0.27137713398E-01  0.88687147588E+00  0.88000000000E+00 0.  1.
        -11    1    4    4    0    0 -0.55779541863E-01  0.88405542202E-01 -0.19233096418E-01  0.10628767709E+00  0.51100000000E-03 0. -1.
         11    1    4    4    0    0 -0.10630496940E-01  0.16180454005E-01 -0.12386597767E-01  0.22989203601E-01  0.51100000000E-03 0.  1.
</event>
<event>
 8    1  0.1044719E+005  0.1043930E+01  0.7957747E-01            NaN
         13   -1    0    0    0    0  0.00000000000E+00  0.00000000000E+00  0.74505805969E-08  0.10566000000E+00  0.10566000000E+00 0. -1.
     999900   -1    0    0    0    0 -0.00000000000E+00 -0.00000000000E+00 -0.74505805969E-08  0.93827000000E+00  0.93827000000E+00 0. -1.
     999902    2    1    2    0    0 -0.13191247141E-01  0.68863315455E-03 -0.21571926906E-01  0.10186351142E+01  0.10183210028E+01 0.  0.
     999903    2    3    3    0    0  0.61092804060E-01  0.43492023519E-01  0.98648316621E-01  0.12633294709E+00  0.24589354017E-01 0.  0.
         14    1    1    2    0    0  0.13191247141E-01 -0.68863315455E-03  0.21571926906E-01  0.25294885791E-01  0.00000000000E+00 0. -1.
     999901    1    3    3    0    0 -0.74284051201E-01 -0.42803390364E-01 -0.12022024353E+00  0.89230216712E+00  0.88000000000E+00 0. -1.
        -11    1    4    4    0    0  0.27803354169E-01  0.33682976943E-01  0.47604609600E-01  0.64606728868E-01  0.51100000000E-03 0. -1.
         11    1    4    4    0    0  0.33289449891E-01  0.98090465756E-02  0.51043707020E-01  0.61726218223E-01  0.51100000000E-03 0.  1.
</event>
<event>
 8    1  0.1044719E+005  0.1043930E+01  0.7957747E-01            NaN
         13   -1    0    0    0    0  0.00000000000E+00  0.00000000000E+00  0.74505805969E-08  0.10566000000E+00  0.10566000000E+00 0.  1.
     999900   -1    0    0    0    0 -0.00000000000E+00 -0.00000000000E+00 -0.74505805969E-08  0.93827000000E+00  0.93827000000E+00 0.  1.
     999902    2    1    2    0    0  0.21261333091E-01  0.46917718038E-02 -0.88690257516E-02  0.10204200739E+01  0.10201492100E+01 0.  0.
     999903    2    3    3    0    0 -0.22640669838E-01  0.12376346628E+00 -0.29942176408E-01  0.13106663911E+00  0.21258749829E-01 0.  0.
         14    1    1    2    0    0 -0.21261333091E-01 -0.46917718038E-02  0.88690257516E-02  0.23509926100E-01  0.00000000000E+00 0.  1.
     999901    1    3    3    0    0  0.43902002929E-01 -0.11907169448E+00  0.21073150656E-01  0.88935343479E+00  0.88000000000E+00 0.  1.
        -11    1    4    4    0    0 -0.16758369841E-01  0.73457452914E-01 -0.76735851464E-02  0.75736288385E-01  0.51100000000E-03 0. -1.
         11    1    4    4    0    0 -0.58822999965E-02  0.50306013366E-01 -0.22268591261E-01  0.55330350729E-01  0.51100000000E-03 0.  1.
</event>
<event>
 8    1  0.1044719E+005  0.1043930E+01  0.7957747E-01            NaN
         13   -1    0    0    0    0  0.00000000000E+00  0.00000000000E+00  0.74505805969E-08  0.10566000000E+00  0.10566000000E+00 0. -1.
     999900   -1    0    0    0    0 -0.00000000000E+00 -0.00000000000E+00 -0.74505805969E-08  0.93827000000E+00  0.93827000000E+00 0.  1.
     999902    2    1    2    0    0 -0.18376256371E-01  0.11640283154E-01 -0.45912807496E-02  0.10216979769E+01  0.10214560653E+01 0.  0.
     999903    2    3    3    0    0 -0.68731178076E-01  0.11215569971E+00 -0.18699367162E-01  0.13443363910E+00  0.20490514210E-01 0.  0.
         14    1    1    2    0    0  0.18376256371E-01 -0.11640283154E-01  0.45912807496E-02  0.22232023053E-01  0.00000000000E+00 0. -1.
     999901    1    3    3    0    0  0.50354921706E-01 -0.10051541656E+00  0.14108086412E-01  0.88726433784E+00  0.88000000000E+00 0. -1.
        -11    1    4    4    0    0 -0.28881247180E-01  0.61855211074E-01 -0.28320856312E-02  0.68326242438E-01  0.51100000000E-03 0. -1.
         11    1    4    4    0    0 -0.39849930897E-01  0.50300488639E-01 -0.15867281530E-01  0.66107396666E-01  0.51100000000E-03 0.  1.
</event>
<event>
 8    1  0.1044719E+005  0.1043930E+01  0.7957747E-01            NaN
         13   -1    0    0    0    0  0.00000000000E+00  0.00000000000E+00  0.74505805969E-08  0.10566000000E+00  0.10566000000E+00 0.  1.
     999900   -1    0    0    0    0 -0.00000000000E+00 -0.00000000000E+00 -0.74505805969E-08  0.93827000000E+00  0.93827000000E+00 0.  1.
     999902    2    1    2    0    0  0.16080935290E-01  0.14394197677E-01  0.93976192958E-02  0.10203905723E+01  0.10201190202E+01 0.  0.
     999903    2    3    3    0    0 -0.96553047816E-01 -0.41016897434E-01  0.72729441042E-01  0.12922968716E+00  0.20146054990E-01 0.  0.
         14    1    1    2    0    0 -0.16080935290E-01 -0.14394197677E-01 -0.93976192958E-02  0.23539427669E-01  0.00000000000E+00 0. -1.
     999901    1    3    3    0    0  0.11263398311E+00  0.55411095111E-01 -0.63331821746E-01  0.89116088517E+00  0.88000000000E+00 0.  1.
        -11    1    4    4    0    0 -0.32979717749E-01 -0.74618375081E-02  0.14833588201E-01  0.36927459454E-01  0.51100000000E-03 0. -1.
         11    1    4    4    0    0 -0.63573330067E-01 -0.33555059926E-01  0.57895852841E-01  0.92302227707E-01  0.51100000000E-03 0.  1.
</event>
<event>
 8    1  0.1044719E+005  0.1043930E+01  0.7957747E-01            NaN
         13   -1    0    0    0    0  0.00000000000E+00  0.00000000000E+00  0.74505805969E-08  0.10566000000E+00  0.10566000000E+00 0.  1.
     999900   -1    0    0    0    0 -0.00000000000E+00 -0.00000000000E+00 -0.74505805969E-08  0.93827000000E+00  0.93827000000E+00 0.  1.
     999902    2    1    2    0    0 -0.80839505787E-02 -0.16732956065E-01 -0.14532395198E-01  0.10203390571E+01  0.10200663012E+01 0.  0.
     999903    2    3    3    0    0  0.10701135093E+00  0.59259039259E-01  0.33809683589E-01  0.12828599348E+00  0.18738688744E-01 0.  0.
         14    1    1    2    0    0  0.80839505787E-02  0.16732956065E-01  0.14532395198E-01  0.23590942877E-01  0.00000000000E+00 0.  1.
     999901    1    3    3    0    0 -0.11509530151E+00 -0.75991995324E-01 -0.48342078787E-01  0.89205306365E+00  0.88000000000E+00 0. -1.
        -11    1    4    4    0    0  0.25751259013E-01  0.66174988212E-02  0.34525205883E-02  0.26816033465E-01  0.51100000000E-03 0.  1.
         11    1    4    4    0    0  0.81260091917E-01  0.52641540438E-01  0.30357163000E-01  0.10146996001E+00  0.51100000000E-03 0. -1.
</event>
<event>
 8    1  0.1044719E+005  0.1043930E+01  0.7957747E-01            NaN
         13   -1    0    0    0    0  0.00000000000E+00  0.00000000000E+00  0.74505805969E-08  0.10566000000E+00  0.10566000000E+00 0. -1.
     999900   -1    0    0    0    0 -0.00000000000E+00 -0.00000000000E+00 -0.74505805969E-08  0.93827000000E+00  0.93827000000E+00 0. -1.
     999902    2    1    2    0    0 -0.14048801437E-01  0.91440814322E-02 -0.13113131653E-01  0.10226476771E+01  0.10224261999E+01 0.  0.
     999903    2    3    3    0    0  0.18782844299E-01 -0.65089437067E-01  0.10961166424E+00  0.13043138730E+00  0.20203954975E-01 0.  0.
         14    1    1    2    0    0  0.14048801437E-01 -0.91440814322E-02  0.13113131653E-01  0.21282322918E-01  0.00000000000E+00 0.  1.
     999901    1    3    3    0    0 -0.32831645736E-01  0.74233518499E-01 -0.12272479589E+00  0.89221628979E+00  0.88000000000E+00 0. -1.
        -11    1    4    4    0    0  0.22730365898E-01 -0.56130433786E-01  0.89589925879E-01  0.10813838852E+00  0.51100000000E-03 0.  1.
         11    1    4    4    0    0 -0.39475215989E-02 -0.89590032807E-02  0.20021738363E-01  0.22292998781E-01  0.51100000000E-03 0. -1.
</event>
<event>
 8    1  0.1044719E+005  0.1043930E+01  0.7957747E-01            NaN
         13   -1    0    0    0    0  0.00000000000E+00  0.00000000000E+00  0.74505805969E-08  0.10566000000E+00  0.10566000000E+00 0.  1.
     999900   -1    0    0    0    0 -0.00000000000E+00 -0.00000000000E+00 -0.74505805969E-08  0.93827000000E+00  0.93827000000E+00 0. -1.
     999902    2    1    2    0    0  0.21484867715E-01  0.75884605638E-02  0.10019656947E-02  0.10211223651E+01  0.10208676194E+01 0.  0.
     999903    2    3    3    0    0  0.35527683993E-01  0.54330701204E-01  0.11397973690E+00  0.13255834685E+00  0.19138794961E-01 0.  0.
         14    1    1    2    0    0 -0.21484867715E-01 -0.75884605638E-02 -0.10019656947E-02  0.22807634899E-01  0.00000000000E+00 0. -1.
     999901    1    3    3    0    0 -0.14042816278E-01 -0.46742240640E-01 -0.11297777120E+00  0.88856401825E+00  0.88000000000E+00 0. -1.
        -11    1    4    4    0    0  0.11541370371E-01  0.47634933904E-02  0.18215892001E-01  0.22090132225E-01  0.51100000000E-03 0. -1.
         11    1    4    4    0    0  0.23986313622E-01  0.49567207814E-01  0.95763844896E-01  0.11046821462E+00  0.51100000000E-03 0.  1.
</event>
<event>
 8    1  0.1044719E+005  0.1043930E+01  0.7957747E-01            NaN
         13   -1    0    0    0    0  0.00000000000E+00  0.00000000000E+00  0.74505805969E-08  0.10566000000E+00  0.10566000000E+00 0.  1.
     999900   -1    0    0    0    0 -0.00000000000E+00 -0.00000000000E+00 -0.74505805969E-08  0.93827000000E+00  0.93827000000E+00 0.  1.
     999902    2    1    2    0    0  0.19703285096E-01  0.80827018526E-02  0.25868911093E-02  0.10224767597E+01  0.10222516729E+01 0.  0.
     999903    2    3    3    0    0 -0.60830862668E-01 -0.11332467326E+00 -0.81432822579E-02  0.13043380319E+00  0.20094490422E-01 0.  0.
         14    1    1    2    0    0 -0.19703285096E-01 -0.80827018526E-02 -0.25868911093E-02  0.21453240278E-01  0.00000000000E+00 0.  1.
     999901    1    3    3    0    0  0.80534147764E-01  0.12140737511E+00  0.10730173367E-01  0.89204295654E+00  0.88000000000E+00 0. -1.
        -11    1    4    4    0    0 -0.55078078362E-01 -0.94075293964E-01 -0.73969001937E-03  0.10901634700E+00  0.51100000000E-03 0. -1.
         11    1    4    4    0    0 -0.57527843059E-02 -0.19249379294E-01 -0.74035922385E-02  0.21417456187E-01  0.51100000000E-03 0.  1.
</event>
<event>
 8    1  0.1044719E+005  0.1043930E+01  0.7957747E-01            NaN
         13   -1    0    0    0    0  0.00000000000E+00  0.00000000000E+00  0.74505805969E-08  0.10566000000E+00  0.10566000000E+00 0. -1.
     999900   -1    0    0    0    0 -0.00000000000E+00 -0.00000000000E+00 -0.74505805969E-08  0.93827000000E+00  0.93827000000E+00 0.  1.
     999902    2    1    2    0    0 -0.80919113727E-02  0.20482849507E-01 -0.95857651556E-03  0.10218858393E+01  0.10216480429E+01 0.  0.
     999903    2    3    3    0    0 -0.11721339823E+00 -0.45160432791E-01 -0.36647153498E-01  0.13200370441E+00  0.17421788178E-01 0.  0.
         14    1    1    2    0    0  0.80919113727E-02 -0.20482849507E-01  0.95857651556E-03  0.22044160736E-01  0.00000000000E+00 0.  1.
     999901    1    3    3    0    0  0.10912148686E+00  0.65643282298E-01  0.35688576982E-01  0.88988213485E+00  0.88000000000E+00 0.  1.
        -11    1    4    4    0    0 -0.58404653228E-01 -0.28653345277E-01 -0.12100717665E-01  0.66172548714E-01  0.51100000000E-03 0. -1.
         11    1    4    4    0    0 -0.58808745005E-01 -0.16507087514E-01 -0.24546435833E-01  0.65831155696E-01  0.51100000000E-03 0.  1.
</event>
<event>
 8    1  0.1044719E+005  0.1043930E+01  0.7957747E-01            NaN
         13   -1    0    0    0    0  0.00000000000E+00  0.00000000000E+00  0.74505805969E-08  0.10566000000E+00  0.10566000000E+00 0. -1.
     999900   -1    0    0    0    0 -0.00000000000E+00 -0.00000000000E+00 -0.74505805969E-08  0.93827000000E+00  0.93827000000E+00 0. -1.
     999902    2    1    2    0    0  0.15414305741E-01 -0.16305061762E-02 -0.15640210361E-01  0.10219101101E+01  0.10216728427E+01 0.  0.
     999903    2    3    3    0    0  0.72032104538E-01 -0.94147230164E-01  0.55399789829E-01  0.13240935068E+00  0.20267570194E-01 0.  0.
         14    1    1    2    0    0 -0.15414305741E-01  0.16305061762E-02  0.15640210361E-01  0.22019889918E-01  0.00000000000E+00 0. -1.
     999901    1    3    3    0    0 -0.56617798797E-01  0.92516723987E-01 -0.71040000190E-01  0.88950075941E+00  0.88000000000E+00 0. -1.
        -11    1    4    4    0    0  0.51429757435E-01 -0.50987082146E-01  0.34299131200E-01  0.80133601053E-01  0.51100000000E-03 0. -1.
         11    1    4    4    0    0  0.20602347102E-01 -0.43160148017E-01  0.21100658629E-01  0.52275749622E-01  0.51100000000E-03 0.  1.
</event>
<event>
 8    1  0.1044719E+005  0.1043930E+01  0.7957747E-01            NaN
         13   -1    0    0    0    0  0.00000000000E+00  0.00000000000E+00  0.74505805969E-08  0.10566000000E+00  0.10566000000E+00 0. -1.
     999900   -1    0    0    0    0 -0.00000000000E+00 -0.00000000000E+00 -0.74505805969E-08  0.93827000000E+00  0.93827000000E+00 0. -1.
     999902    2    1    2    0    0  0.80480538138E-02  0.21100682149E-01 -0.71056014356E-02  0.10202551287E+01  0.10199804058E+01 0.  0.
     999903    2    3    3    0    0  0.49022299551E-01 -0.34700387532E-01  0.11310635122E+00  0.12938838127E+00  0.18466287503E-01 0.  0.
         14    1    1    2    0    0 -0.80480538138E-02 -0.21100682149E-01  0.71056014356E-02  0.23674871259E-01  0.00000000000E+00 0.  1.
     999901    1    3    3    0    0 -0.40974245738E-01  0.55801069681E-01 -0.12021195265E+00  0.89086674747E+00  0.88000000000E+00 0. -1.
        -11    1    4    4    0    0  0.48156508245E-01 -0.27285746667E-01  0.99900852621E-01  0.11421034425E+00  0.51100000000E-03 0.  1.
         11    1    4    4    0    0  0.86579130617E-03 -0.74146408650E-02  0.13205498594E-01  0.15178037023E-01  0.51100000000E-03 0. -1.
</event>
<event>
 8    1  0.1044719E+005  0.1043930E+01  0.7957747E-01            NaN
         13   -1    0    0    0    0  0.00000000000E+00  0.00000000000E+00  0.74505805969E-08  0.10566000000E+00  0.10566000000E+00 0.  1.
     999900   -1    0    0    0    0 -0.00000000000E+00 -0.00000000000E+00 -0.74505805969E-08  0.93827000000E+00  0.93827000000E+00 0.  1.
     999902    2    1    2    0    0  0.30784869362E-02  0.22656519037E-01  0.80511752377E-02  0.10196892005E+01  0.10194010248E+01 0.  0.
     999903    2    3    3    0    0 -0.78805531477E-01 -0.86408174246E-01  0.48664774907E-01  0.12825801177E+00  0.20128907062E-01 0.  0.
         14    1    1    2    0    0 -0.30784869362E-02 -0.22656519037E-01 -0.80511752377E-02  0.24240799479E-01  0.00000000000E+00 0.  1.
     999901    1    3    3    0    0  0.81884018413E-01  0.10906469328E+00 -0.40613599670E-01  0.89143118875E+00  0.88000000000E+00 0.  1.
        -11    1    4    4    0    0 -0.39969066151E-01 -0.58345765344E-01  0.30303859568E-01  0.76943743139E-01  0.51100000000E-03 0.  1.
         11    1    4    4    0    0 -0.38836465326E-01 -0.28062408902E-01  0.18360915340E-01  0.51314268635E-01  0.51100000000E-03 0. -1.
</event>
<event>
 8    1  0.1044719E+005  0.1043930E+01  0.7957747E-01            NaN
         13   -1    0    0    0    0  0.00000000000E+00  0.00000000000E+00  0.74505805969E-08  0.10566000000E+00  0.10566000000E+00 0. -1.
     999900   -1    0    0    0    0 -0.00000000000E+00 -0.00000000000E+00 -0.74505805969E-08  0.93827000000E+00  0.93827000000E+00 0. -1.
     999902    2    1    2    0    0 -0.24142670345E-01  0.14308805862E-02 -0.41038049338E-02  0.10193992608E+01  0.10191040652E+01 0.  0.
     999903    2    3    3    0    0 -0.84101166660E-01 -0.87612758321E-01 -0.46944893500E-01  0.13184129099E+00  0.20719588067E-01 0.  0.
         14    1    1    2    0    0  0.24142670345E-01 -0.14308805862E-02  0.41038049338E-02  0.24530739197E-01  0.00000000000E+00 0. -1.
     999901    1    3    3    0    0  0.59958496315E-01  0.89043638908E-01  0.42841088567E-01  0.88755796981E+00  0.88000000000E+00 0. -1.
        -11    1    4    4    0    0 -0.67115979008E-01 -0.64479613213E-01 -0.44116690061E-01  0.10299863407E+00  0.51100000000E-03 0. -1.
         11    1    4    4    0    0 -0.16985187652E-01 -0.23133145109E-01 -0.28282034389E-02  0.28842656915E-01  0.51100000000E-03 0.  1.
</event>
<event>
 8    1  0.1044719E+005  0.1043930E+01  0.7957747E-01            NaN
         13   -1    0    0    0    0  0.00000000000E+00  0.00000000000E+00  0.74505805969E-08  0.10566000000E+00  0.10566000000E+00 0.  1.
     999900   -1    0    0    0    0 -0.00000000000E+00 -0.00000000000E+00 -0.74505805969E-08  0.93827000000E+00  0.93827000000E+00 0. -1.
     999902    2    1    2    0    0  0.11702892461E-01  0.16271392957E-01  0.13207118266E-01  0.10199270024E+01  0.10196445196E+01 0.  0.
     999903    2    3    3    0    0 -0.75823410818E-01 -0.67005109259E-01  0.78072979394E-01  0.12930732514E+00  0.19649934580E-01 0.  0.
         14    1    1    2    0    0 -0.11702892461E-01 -0.16271392957E-01 -0.13207118266E-01  0.24002997596E-01  0.00000000000E+00 0. -1.
     999901    1    3    3    0    0  0.87526303279E-01  0.83276502215E-01 -0.64865861128E-01  0.89061967726E+00  0.88000000000E+00 0. -1.
        -11    1    4    4    0    0 -0.62128785913E-01 -0.48695789743E-01  0.51527544729E-01  0.94268844082E-01  0.51100000000E-03 0.  1.
         11    1    4    4    0    0 -0.13694624905E-01 -0.18309319515E-01  0.26545434665E-01  0.35038481060E-01  0.51100000000E-03 0. -1.
</event>
<event>
 8    1  0.1044719E+005  0.1043930E+01  0.7957747E-01            NaN
         13   -1    0    0    0    0  0.00000000000E+00  0.00000000000E+00  0.74505805969E-08  0.10566000000E+00  0.10566000000E+00 0. -1.
     999900   -1    0    0    0    0 -0.00000000000E+00 -0.00000000000E+00 -0.74505805969E-08  0.93827000000E+00  0.93827000000E+00 0. -1.
     999902    2    1    2    0    0  0.81434818878E-02  0.22679297480E-01 -0.51856039230E-03  0.10198273915E+01  0.10195425311E+01 0.  0.
     999903    2    3    3    0    0  0.52068227026E-01 -0.10686891479E+00  0.43641176286E-01  0.12816478441E+00  0.19738147918E-01 0.  0.
         14    1    1    2    0    0 -0.81434818878E-02 -0.22679297480E-01  0.51856039230E-03  0.24102608497E-01  0.00000000000E+00 0. -1.
     999901    1    3    3    0    0 -0.43924745138E-01  0.12954821227E+00 -0.44159736678E-01  0.89166260709E+00  0.88000000000E+00 0. -1.
        -11    1    4    4    0    0  0.24529012889E-01 -0.30302919628E-01  0.11199436552E-01  0.40566339635E-01  0.51100000000E-03 0. -1.
         11    1    4    4    0    0  0.27539214137E-01 -0.76565995159E-01  0.32441739734E-01  0.87598444780E-01  0.51100000000E-03 0.  1.
</event>
<event>
 8    1  0.1044719E+005  0.1043930E+01  0.7957747E-01            NaN
         13   -1    0    0    0    0  0.00000000000E+00  0.00000000000E+00  0.74505805969E-08  0.10566000000E+00  0.10566000000E+00 0.  1.
     999900   -1    0    0    0    0 -0.00000000000E+00 -0.00000000000E+00 -0.74505805969E-08  0.93827000000E+00  0.93827000000E+00 0. -1.
     999902    2    1    2    0    0 -0.19036341866E-02 -0.22297957987E-01  0.84120056098E-02  0.10200221646E+01  0.10197419437E+01 0.  0.
     999903    2    3    3    0    0  0.77249677878E-01  0.78231403293E-01 -0.62571286145E-01  0.12794031469E+00  0.19128331864E-01 0.  0.
         14    1    1    2    0    0  0.19036341866E-02  0.22297957987E-01 -0.84120056098E-02  0.23907835366E-01  0.00000000000E+00 0. -1.
     999901    1    3    3    0    0 -0.79153312065E-01 -0.10052936128E+00  0.70983291755E-01  0.89208184994E+00  0.88000000000E+00 0.  1.
        -11    1    4    4    0    0  0.30182123861E-01  0.20045277249E-01 -0.26290576297E-01  0.44768619186E-01  0.51100000000E-03 0. -1.
         11    1    4    4    0    0  0.47067554017E-01  0.58186126044E-01 -0.36280709848E-01  0.83171695505E-01  0.51100000000E-03 0.  1.
</event>
<event>
 8    1  0.1044719E+005  0.1043930E+01  0.7957747E-01            NaN
         13   -1    0    0    0    0  0.00000000000E+00  0.00000000000E+00  0.74505805969E-08  0.10566000000E+00  0.10566000000E+00 0. -1.
     999900   -1    0    0    0    0 -0.00000000000E+00 -0.00000000000E+00 -0.74505805969E-08  0.93827000000E+00  0.93827000000E+00 0.  1.
     999902    2    1    2    0    0  0.19735223341E-01 -0.19551664896E-01  0.41767960098E-02  0.10158374340E+01  0.10154489155E+01 0.  0.
     999903    2    3    3    0    0 -0.22601474167E-01  0.10904601744E+00  0.51365161346E-01  0.12423410196E+00  0.19846202011E-01 0.  0.
         14    1    1    2    0    0 -0.19735223341E-01  0.19551664896E-01 -0.41767960098E-02  0.28092566017E-01  0.00000000000E+00 0. -1.
     999901    1    3    3    0    0  0.42336697508E-01 -0.12859768234E+00 -0.47188365336E-01  0.89160333203E+00  0.88000000000E+00 0. -1.
        -11    1    4    4    0    0 -0.87056808695E-03  0.52072101204E-01  0.25623229212E-01  0.58043712913E-01  0.51100000000E-03 0.  1.
         11    1    4    4    0    0 -0.21730906080E-01  0.56973916238E-01  0.25741932134E-01  0.66190389042E-01  0.51100000000E-03 0. -1.
</event>
<event>
 8    1  0.1044719E+005  0.1043930E+01  0.7957747E-01            NaN
         13   -1    0    0    0    0  0.00000000000E+00  0.00000000000E+00  0.74505805969E-08  0.10566000000E+00  0.10566000000E+00 0. -1.
     999900   -1    0    0    0    0 -0.00000000000E+00 -0.00000000000E+00 -0.74505805969E-08  0.93827000000E+00  0.93827000000E+00 0.  1.
     999902    2    1    2    0    0 -0.24985777679E-01  0.12099305069E-02 -0.62698980235E-02  0.10181411528E+01  0.10178144931E+01 0.  0.
     999903    2    3    3    0    0 -0.11963826207E+00  0.26923366025E-01 -0.44110442997E-01  0.13188375205E+00  0.20233919128E-01 0.  0.
         14    1    1    2    0    0  0.24985777679E-01 -0.12099305069E-02  0.62698980235E-02  0.25788847188E-01  0.00000000000E+00 0. -1.
     999901    1    3    3    0    0  0.94652484391E-01 -0.25713435518E-01  0.37840544973E-01  0.88625740077E+00  0.88000000000E+00 0. -1.
        -11    1    4    4    0    0 -0.55073186960E-01  0.12682549047E-01 -0.96887814732E-02  0.57341403713E-01  0.51100000000E-03 0. -1.
         11    1    4    4    0    0 -0.64565075110E-01  0.14240816978E-01 -0.34421661523E-01  0.74542348334E-01  0.51100000000E-03 0.  1.
</event>
<event>
 8    1  0.1044719E+005  0.1043930E+01  0.7957747E-01            NaN
         13   -1    0    0    0    0  0.00000000000E+00  0.00000000000E+00  0.74505805969E-08  0.10566000000E+00  0.10566000000E+00 0.  1.
     999900   -1    0    0    0    0 -0.00000000000E+00 -0.00000000000E+00 -0.74505805969E-08  0.93827000000E+00  0.93827000000E+00 0.  1.
     999902    2    1    2    0    0 -0.17133075490E-01  0.60124515689E-02  0.13130459612E-01  0.10215223937E+01  0.10212766031E+01 0.  0.
     999903    2    3    3    0    0 -0.52619683506E-01 -0.75117304547E-01  0.95130694707E-01  0.13328516458E+00  0.17425426442E-01 0.  0.
         14    1    1    2    0    0  0.17133075490E-01 -0.60124515689E-02 -0.13130459612E-01  0.22407606281E-01  0.00000000000E+00 0. -1.
     999901    1    3    3    0    0  0.35486608016E-01  0.81129756116E-01 -0.82000235095E-01  0.88823722914E+00  0.88000000000E+00 0.  1.
        -11    1    4    4    0    0 -0.31034574167E-01 -0.50249064374E-01  0.49808553266E-01  0.77261027457E-01  0.51100000000E-03 0.  1.
         11    1    4    4    0    0 -0.21585109339E-01 -0.24868240172E-01  0.45322141441E-01  0.56024137122E-01  0.51100000000E-03 0. -1.
</event>
<event>
 8    1  0.1044719E+005  0.1043930E+01  0.7957747E-01            NaN
         13   -1    0    0    0    0  0.00000000000E+00  0.00000000000E+00  0.74505805969E-08  0.10566000000E+00  0.10566000000E+00 0. -1.
     999900   -1    0    0    0    0 -0.00000000000E+00 -0.00000000000E+00 -0.74505805969E-08  0.93827000000E+00  0.93827000000E+00 0. -1.
     999902    2    1    2    0    0 -0.18116938024E-01  0.12758925125E-01  0.88384012854E-02  0.10200735344E+01  0.10197945306E+01 0.  0.
     999903    2    3    3    0    0 -0.81815355484E-01  0.10257614177E+00  0.11129174203E-01  0.13320834259E+00  0.20124282961E-01 0.  0.
         14    1    1    2    0    0  0.18116938024E-01 -0.12758925125E-01 -0.88384012854E-02  0.23856465601E-01  0.00000000000E+00 0. -1.
     999901    1    3    3    0    0  0.63698417461E-01 -0.89817216645E-01 -0.22907729175E-02  0.88686519180E+00  0.88000000000E+00 0.  1.
        -11    1    4    4    0    0 -0.52676156738E-01  0.50000607636E-01  0.60640085899E-02  0.72882587591E-01  0.51100000000E-03 0.  1.
         11    1    4    4    0    0 -0.29139198746E-01  0.52575534135E-01  0.50651656130E-02  0.60325755004E-01  0.51100000000E-03 0. -1.
</event>
<event>
 8    1  0.1044719E+005  0.1043930E+01  0.7957747E-01            NaN
         13   -1    0    0    0    0  0.00000000000E+00  0.00000000000E+00  0.74505805969E-08  0.10566000000E+00  0.10566000000E+00 0. -1.
     999900   -1    0    0    0    0 -0.00000000000E+00 -0.00000000000E+00 -0.74505805969E-08  0.93827000000E+00  0.93827000000E+00 0. -1.
     999902    2    1    2    0    0 -0.33197919803E-02  0.48780729764E-02  0.22583583012E-01  0.10205883026E+01  0.10203213458E+01 0.  0.
     999903    2    3    3    0    0  0.87346049619E-01 -0.38632683629E-02  0.97827262407E-01  0.13269285992E+00  0.19823334169E-01 0.  0.
         14    1    1    2    0    0  0.33197919803E-02 -0.48780729764E-02 -0.22583583012E-01  0.23341697377E-01  0.00000000000E+00 0.  1.
     999901    1    3    3    0    0 -0.90665841599E-01  0.87413413393E-02 -0.75243679395E-01  0.88789544270E+00  0.88000000000E+00 0. -1.
        -11    1    4    4    0    0  0.28360193634E-01  0.74019904735E-02  0.27257673539E-01  0.40029138558E-01  0.51100000000E-03 0.  1.
         11    1    4    4    0    0  0.58985855985E-01 -0.11265258836E-01  0.70569588868E-01  0.92663721363E-01  0.51100000000E-03 0. -1.
</event>
<event>
 8    1  0.1044719E+005  0.1043930E+01  0.7957747E-01            NaN
         13   -1    0    0    0    0  0.00000000000E+00  0.00000000000E+00  0.74505805969E-08  0.10566000000E+00  0.10566000000E+00 0.  1.
     999900   -1    0    0    0    0 -0.00000000000E+00 -0.00000000000E+00 -0.74505805969E-08  0.93827000000E+00  0.93827000000E+00 0.  1.
     999902    2    1    2    0    0  0.13332573426E-01 -0.78392767819E-02 -0.18259237061E-01  0.10200006976E+01  0.10197199673E+01 0.  0.
     999903    2    3    3    0    0 -0.52220882897E-01 -0.15135525106E-02  0.11467537394E+00  0.12758326097E+00  0.19943310685E-01 0.  0.
         14    1    1    2    0    0 -0.13332573426E-01  0.78392767819E-02  0.18259237061E-01  0.23929302386E-01  0.00000000000E+00 0. -1.
     999901    1    3    3    0    0  0.65553456323E-01 -0.63257242713E-02 -0.13293461100E+00  0.89241743664E+00  0.88000000000E+00 0.  1.
        -11    1    4    4    0    0 -0.17212634041E-01  0.37186518449E-02  0.59279904009E-01  0.61842309809E-01  0.51100000000E-03 0. -1.
         11    1    4    4    0    0 -0.35008248856E-01 -0.52322043555E-02  0.55395469926E-01  0.65740951162E-01  0.51100000000E-03 0.  1.
</event>
<event>
 8    1  0.1044719E+005  0.1043930E+01  0.7957747E-01            NaN
         13   -1    0    0    0    0  0.00000000000E+00  0.00000000000E+00  0.74505805969E-08  0.10566000000E+00  0.10566000000E+00 0. -1.
     999900   -1    0    0    0    0 -0.00000000000E+00 -0.00000000000E+00 -0.74505805969E-08  0.93827000000E+00  0.93827000000E+00 0. -1.
     999902    2    1    2    0    0  0.23138436075E-01 -0.21202013578E-02 -0.36633495297E-02  0.10204076148E+01  0.10201364603E+01 0.  0.
     999903    2    3    3    0    0 -0.97703731064E-01 -0.76279792098E-01  0.27633270203E-01  0.12850966506E+00  0.19659874016E-01 0.  0.
         14    1    1    2    0    0 -0.23138436075E-01  0.21202013578E-02  0.36633495297E-02  0.23522385244E-01  0.00000000000E+00 0. -1.
     999901    1    3    3    0    0  0.12084216714E+00  0.74159590740E-01 -0.31296619733E-01  0.89189794969E+00  0.88000000000E+00 0.  1.
        -11    1    4    4    0    0 -0.72618456496E-01 -0.54642377679E-01  0.11334035219E-01  0.91585758378E-01  0.51100000000E-03 0.  1.
         11    1    4    4    0    0 -0.25085274568E-01 -0.21637414419E-01  0.16299234984E-01  0.36923906686E-01  0.51100000000E-03 0. -1.
</event>
<event>
 8    1  0.1044719E+005  0.1043930E+01  0.7957747E-01            NaN
         13   -1    0    0    0    0  0.00000000000E+00  0.00000000000E+00  0.74505805969E-08  0.10566000000E+00  0.10566000000E+00 0.  1.
     999900   -1    0    0    0    0 -0.00000000000E+00 -0.00000000000E+00 -0.74505805969E-08  0.93827000000E+00  0.93827000000E+00 0. -1.
     999902    2    1    2    0    0  0.22170885530E-01 -0.73479936703E-03 -0.52250063582E-03  0.10217407886E+01  0.10214998179E+01 0.  0.
     999903    2    3    3    0    0  0.92454788954E-01  0.91080127621E-01 -0.23682255411E-01  0.13387470516E+00  0.22762025654E-01 0.  0.
         14    1    1    2    0    0 -0.22170885530E-01  0.73479936703E-03  0.52250063582E-03  0.22189211392E-01  0.00000000000E+00 0. -1.
     999901    1    3    3    0    0 -0.70283903425E-01 -0.91814926988E-01  0.23159754776E-01  0.88786608345E+00  0.88000000000E+00 0.  1.
        -11    1    4    4    0    0  0.59527634519E-01  0.69189904218E-01 -0.23820199028E-01  0.94331570113E-01  0.51100000000E-03 0.  1.
         11    1    4    4    0    0  0.32927154435E-01  0.21890223402E-01  0.13794361651E-03  0.39543135046E-01  0.51100000000E-03 0. -1.
</event>
<event>
 8    1  0.1044719E+005  0.1043930E+01  0.7957747E-01            NaN
         13   -1    0    0    0    0  0.00000000000E+00  0.00000000000E+00  0.74505805969E-08  0.10566000000E+00  0.10566000000E+00 0. -1.
     999900   -1    0    0    0    0 -0.00000000000E+00 -0.00000000000E+00 -0.74505805969E-08  0.93827000000E+00  0.93827000000E+00 0.  1.
     999902    2    1    2    0    0 -0.13162527658E-01  0.17274482414E-01  0.86820053313E-02  0.10205411759E+01  0.10202731274E+01 0.  0.
     999903    2    3    3    0    0  0.36669330734E-01  0.12084447445E+00  0.35291505150E-01  0.13266842439E+00  0.20183995490E-01 0.  0.
         14    1    1    2    0    0  0.13162527658E-01 -0.17274482414E-01 -0.86820053313E-02  0.23388824117E-01  0.00000000000E+00 0. -1.
     999901    1    3    3    0    0 -0.49831858391E-01 -0.10356999203E+00 -0.26609499819E-01  0.88787275149E+00  0.88000000000E+00 0. -1.
        -11    1    4    4    0    0  0.27423453263E-01  0.10267028824E+00  0.36155395098E-01  0.11225287342E+00  0.51100000000E-03 0.  1.
         11    1    4    4    0    0  0.92458774703E-02  0.18174186211E-01 -0.86388994793E-03  0.20415550972E-01  0.51100000000E-03 0. -1.
</event>
<event>
 8    1  0.1044719E+005  0.1043930E+01  0.7957747E-01            NaN
         13   -1    0    0    0    0  0.00000000000E+00  0.00000000000E+00  0.74505805969E-08  0.10566000000E+00  0.10566000000E+00 0. -1.
     999900   -1    0    0    0    0 -0.00000000000E+00 -0.00000000000E+00 -0.74505805969E-08  0.93827000000E+00  0.93827000000E+00 0. -1.
     999902    2    1    2    0    0  0.24038169700E-01  0.41834346937E-03  0.94566478209E-02  0.10180952017E+01  0.10177673619E+01 0.  0.
     999903    2    3    3    0    0 -0.12390246843E-01 -0.11500314619E+00  0.54063278383E-01  0.12869152437E+00  0.16106785062E-01 0.  0.
         14    1    1    2    0    0 -0.24038169700E-01 -0.41834346937E-03 -0.94566478209E-02  0.25834798273E-01  0.00000000000E+00 0.  1.
     999901    1    3    3    0    0  0.36428416543E-01  0.11542148966E+00 -0.44606630562E-01  0.88940367736E+00  0.88000000000E+00 0. -1.
        -11    1    4    4    0    0 -0.26693332669E-02 -0.46010277637E-01  0.29922904616E-01  0.54951909248E-01  0.51100000000E-03 0. -1.
         11    1    4    4    0    0 -0.97209135762E-02 -0.68992868552E-01  0.24140373767E-01  0.73739615122E-01  0.51100000000E-03 0.  1.
</event>
<event>
 8    1  0.1044719E+005  0.1043930E+01  0.7957747E-01            NaN
         13   -1    0    0    0    0  0.00000000000E+00  0.00000000000E+00  0.74505805969E-08  0.10566000000E+00  0.10566000000E+00 0. -1.
     999900   -1    0    0    0    0 -0.00000000000E+00 -0.00000000000E+00 -0.74505805969E-08  0.93827000000E+00  0.93827000000E+00 0.  1.
     999902    2    1    2    0    0 -0.13957893529E-01 -0.10514728388E-01 -0.15289074958E-01  0.10207106521E+01  0.10204465185E+01 0.  0.
     999903    2    3    3    0    0 -0.44673011660E-01  0.67851256251E-01 -0.10259078321E+00  0.13239413512E+00  0.20096449198E-01 0.  0.
         14    1    1    2    0    0  0.13957893529E-01  0.10514728388E-01  0.15289074958E-01  0.23219347922E-01  0.00000000000E+00 0.  1.
     999901    1    3    3    0    0  0.30715118131E-01 -0.78365984639E-01  0.87301708250E-01  0.88831651695E+00  0.88000000000E+00 0. -1.
        -11    1    4    4    0    0 -0.15993656515E-01  0.11316443552E-01 -0.17434487773E-01  0.26231306264E-01  0.51100000000E-03 0. -1.
         11    1    4    4    0    0 -0.28679355146E-01  0.56534812699E-01 -0.85156295434E-01  0.10616282886E+00  0.51100000000E-03 0.  1.
</event>
<event>
 8    1  0.1044719E+005  0.1043930E+01  0.7957747E-01            NaN
         13   -1    0    0    0    0  0.00000000000E+00  0.00000000000E+00  0.74505805969E-08  0.10566000000E+00  0.10566000000E+00 0. -1.
     999900   -1    0    0    0    0 -0.00000000000E+00 -0.00000000000E+00 -0.74505805969E-08  0.93827000000E+00  0.93827000000E+00 0.  1.
     999902    2    1    2    0    0  0.12724730803E-01 -0.84171181598E-02  0.17626016699E-01  0.10206181336E+01  0.10203518665E+01 0.  0.
     999903    2    3    3    0    0  0.65837378326E-01 -0.35377282894E-01 -0.10462134917E+00  0.13017317610E+00  0.20330187967E-01 0.  0.
         14    1    1    2    0    0 -0.12724730803E-01  0.84171181598E-02 -0.17626016699E-01  0.23311866438E-01  0.00000000000E+00 0.  1.
     999901    1    3    3    0    0 -0.53112647523E-01  0.26960164734E-01  0.12224736587E+00  0.89044495746E+00  0.88000000000E+00 0. -1.
        -11    1    4    4    0    0  0.15260294131E-01 -0.19468060399E-02 -0.12204984921E-01  0.19644068027E-01  0.51100000000E-03 0. -1.
         11    1    4    4    0    0  0.50577084195E-01 -0.33430476854E-01 -0.92416364253E-01  0.11052910807E+00  0.51100000000E-03 0.  1.
</event>
<event>
 8    1  0.1044719E+005  0.1043930E+01  0.7957747E-01            NaN
         13   -1    0    0    0    0  0.00000000000E+00  0.00000000000E+00  0.74505805969E-08  0.10566000000E+00  0.10566000000E+00 0.  1.
     999900   -1    0    0    0    0 -0.00000000000E+00 -0.00000000000E+00 -0.74505805969E-08  0.93827000000E+00  0.93827000000E+00 0.  1.
     999902    2    1    2    0    0  0.19401830630E-01 -0.13524912944E-01  0.54306947711E-02  0.10196638353E+01  0.10193750489E+01 0.  0.
     999903    2    3    3    0    0 -0.61370000573E-01 -0.83111066182E-01 -0.76024836599E-01  0.12949456771E+00  0.17757843143E-01 0.  0.
         14    1    1    2    0    0 -0.19401830630E-01  0.13524912944E-01 -0.54306947711E-02  0.24266164667E-01  0.00000000000E+00 0.  1.
     999901    1    3    3    0    0  0.80771831203E-01  0.69586153238E-01  0.81455531370E-01  0.89016926763E+00  0.88000000000E+00 0. -1.
        -11    1    4    4    0    0 -0.45134412814E-01 -0.46731750824E-01 -0.46002242258E-01  0.79608034576E-01  0.51100000000E-03 0. -1.
         11    1    4    4    0    0 -0.16235587759E-01 -0.36379315358E-01 -0.30022594340E-01  0.49886533130E-01  0.51100000000E-03 0.  1.
</event>
<event>
 8    1  0.1044719E+005  0.1043930E+01  0.7957747E-01            NaN
         13   -1    0    0    0    0  0.00000000000E+00  0.00000000000E+00  0.74505805969E-08  0.10566000000E+00  0.10566000000E+00 0. -1.
     999900   -1    0    0    0    0 -0.00000000000E+00 -0.00000000000E+00 -0.74505805969E-08  0.93827000000E+00  0.93827000000E+00 0. -1.
     999902    2    1    2    0    0 -0.90977524018E-02 -0.19470787157E-01  0.92820169072E-02  0.10205198208E+01  0.10202512770E+01 0.  0.
     999903    2    3    3    0    0 -0.49350540305E-01 -0.61025139749E-01 -0.10355865628E+00  0.13143036037E+00  0.19748438625E-01 0.  0.
         14    1    1    2    0    0  0.90977524018E-02  0.19470787157E-01 -0.92820169072E-02  0.23410179178E-01  0.00000000000E+00 0. -1.
     999901    1    3    3    0    0  0.40252787903E-01  0.41554352592E-01  0.11284067319E+00  0.88908946045E+00  0.88000000000E+00 0. -1.
        -11    1    4    4    0    0 -0.81916881732E-02 -0.22541380894E-01 -0.23964430916E-01  0.33908298068E-01  0.51100000000E-03 0. -1.
         11    1    4    4    0    0 -0.41158852132E-01 -0.38483758855E-01 -0.79594225363E-01  0.97522062306E-01  0.51100000000E-03 0.  1.
</event>
<event>
 8    1  0.1044719E+005  0.1043930E+01  0.7957747E-01            NaN
         13   -1    0    0    0    0  0.00000000000E+00  0.00000000000E+00  0.74505805969E-08  0.10566000000E+00  0.10566000000E+00 0.  1.
     999900   -1    0    0    0    0 -0.00000000000E+00 -0.00000000000E+00 -0.74505805969E-08  0.93827000000E+00  0.93827000000E+00 0. -1.
     999902    2    1    2    0    0 -0.18323738703E-01  0.90957596191E-02  0.62932989471E-02  0.10225267793E+01  0.10223027519E+01 0.  0.
     999903    2    3    3    0    0 -0.15433898900E-01 -0.63631800827E-01  0.11394259633E+00  0.13298418876E+00  0.20363395859E-01 0.  0.
         14    1    1    2    0    0  0.18323738703E-01 -0.90957596191E-02 -0.62932989471E-02  0.21403220663E-01  0.00000000000E+00 0.  1.
     999901    1    3    3    0    0 -0.28898398032E-02  0.72727560446E-01 -0.10764929738E+00  0.88954259058E+00  0.88000000000E+00 0.  1.
        -11    1    4    4    0    0 -0.79212950043E-02 -0.48720623149E-01  0.67463728002E-01  0.83594627527E-01  0.51100000000E-03 0. -1.
         11    1    4    4    0    0 -0.75126038957E-02 -0.14911177678E-01  0.46478868325E-01  0.49389561233E-01  0.51100000000E-03 0.  1.
</event>
<event>
 8    1  0.1044719E+005  0.1043930E+01  0.7957747E-01            NaN
         13   -1    0    0    0    0  0.00000000000E+00  0.00000000000E+00  0.74505805969E-08  0.10566000000E+00  0.10566000000E+00 0. -1.
     999900   -1    0    0    0    0 -0.00000000000E+00 -0.00000000000E+00 -0.74505805969E-08  0.93827000000E+00  0.93827000000E+00 0. -1.
     999902    2    1    2    0    0 -0.75587654481E-02  0.75045754149E-02 -0.20871913696E-01  0.10204973226E+01  0.10202282564E+01 0.  0.
     999903    2    3    3    0    0 -0.90822683380E-01  0.64180499269E-01 -0.70852453770E-01  0.13334282946E+00  0.19807666697E-01 0.  0.
         14    1    1    2    0    0  0.75587654481E-02 -0.75045754149E-02  0.20871913696E-01  0.23432677367E-01  0.00000000000E+00 0. -1.
     999901    1    3    3    0    0  0.83263917932E-01 -0.56675923854E-01  0.49980540075E-01  0.88715449317E+00  0.88000000000E+00 0.  1.
        -11    1    4    4    0    0 -0.75181269177E-01  0.52325682589E-01 -0.48694071878E-01  0.10373800678E+00  0.51100000000E-03 0.  1.
         11    1    4    4    0    0 -0.15641414203E-01  0.11854816680E-01 -0.22158381892E-01  0.29604822679E-01  0.51100000000E-03 0. -1.
</event>
<event>
 8    1  0.1044719E+005  0.1043930E+01  0.7957747E-01            NaN
         13   -1    0    0    0    0  0.00000000000E+00  0.00000000000E+00  0.74505805969E-08  0.10566000000E+00  0.10566000000E+00 0. -1.
     999900   -1    0    0    0    0 -0.00000000000E+00 -0.00000000000E+00 -0.74505805969E-08  0.93827000000E+00  0.93827000000E+00 0. -1.
     999902    2    1    2    0    0 -0.10427973963E-01 -0.23643284057E-02  0.21205080298E-01  0.10201815659E+01  0.10199051129E+01 0.  0.
     999903    2    3    3    0    0  0.11131423677E+00 -0.48547928730E-01 -0.37914768567E-01  0.12863838284E+00  0.19040566458E-01 0.  0.
         14    1    1    2    0    0  0.10427973963E-01  0.23643284057E-02 -0.21205080298E-01  0.23748434058E-01  0.00000000000E+00 0.  1.
     999901    1    3    3    0    0 -0.12174221073E+00  0.46183600325E-01  0.59119848865E-01  0.89154318311E+00  0.88000000000E+00 0. -1.
        -11    1    4    4    0    0  0.66223380664E-01 -0.26277545523E-01 -0.12674282518E-01  0.72366733405E-01  0.51100000000E-03 0. -1.
         11    1    4    4    0    0  0.45090856107E-01 -0.22270383207E-01 -0.25240486049E-01  0.56271649431E-01  0.51100000000E-03 0.  1.
</event>
<event>
 7    1  0.1044719E+005  0.1043930E+01  0.7957747E-01            NaN
         13   -1    0    0    0    0  0.00000000000E+00  0.00000000000E+00  0.74505805969E-08  0.10566000000E+00  0.10566000000E+00 0. -1.
     999900   -1    0    0    0    0 -0.00000000000E+00 -0.00000000000E+00 -0.74505805969E-08  0.93827000000E+00  0.93827000000E+00 0.  1.
     999902    2    1    2    0    0  0.16279423654E-01  0.13663484791E-01 -0.22410445946E-02  0.10225586937E+01  0.10223353410E+01 0.  0.
         14    1    1    2    0    0 -0.16279423654E-01 -0.13663484791E-01  0.22410445946E-02  0.21371306278E-01  0.00000000000E+00 0.  1.
     999901    1    3    3    0    0 -0.36636162447E-01 -0.61919833451E-01  0.84910308839E-01  0.88700960238E+00  0.88000000000E+00 0.  1.
        -11    1    3    3    0    0  0.46955278757E-01  0.73794609114E-01 -0.56183641091E-01  0.10395818960E+00  0.51100000000E-03 0.  1.
         11    1    3    3    0    0  0.59603073446E-02  0.17887091271E-02 -0.30967712343E-01  0.31590901740E-01  0.51100000000E-03 0. -1.
</event>
<event>
 8    1  0.1044719E+005  0.1043930E+01  0.7957747E-01            NaN
         13   -1    0    0    0    0  0.00000000000E+00  0.00000000000E+00  0.74505805969E-08  0.10566000000E+00  0.10566000000E+00 0. -1.
     999900   -1    0    0    0    0 -0.00000000000E+00 -0.00000000000E+00 -0.74505805969E-08  0.93827000000E+00  0.93827000000E+00 0.  1.
     999902    2    1    2    0    0 -0.64357034695E-03  0.18161375883E-02 -0.26296971498E-01  0.10175625343E+01  0.10172208550E+01 0.  0.
     999903    2    3    3    0    0  0.74127652607E-02  0.12347033201E+00  0.94285200650E-02  0.12843883180E+00  0.33283097014E-01 0.  0.
         14    1    1    2    0    0  0.64357034695E-03 -0.18161375883E-02  0.26296971498E-01  0.26367465720E-01  0.00000000000E+00 0. -1.
     999901    1    3    3    0    0 -0.80563356076E-02 -0.12165419443E+00 -0.35725491563E-01  0.88912370248E+00  0.88000000000E+00 0.  1.
        -11    1    4    4    0    0  0.13205604358E-01  0.45481003488E-01 -0.87117773697E-02  0.48156680229E-01  0.51100000000E-03 0.  1.
         11    1    4    4    0    0 -0.57928390969E-02  0.77989328526E-01  0.18140297435E-01  0.80282151571E-01  0.51100000000E-03 0. -1.
</event>
<event>
 8    1  0.1044719E+005  0.1043930E+01  0.7957747E-01            NaN
         13   -1    0    0    0    0  0.00000000000E+00  0.00000000000E+00  0.74505805969E-08  0.10566000000E+00  0.10566000000E+00 0.  1.
     999900   -1    0    0    0    0 -0.00000000000E+00 -0.00000000000E+00 -0.74505805969E-08  0.93827000000E+00  0.93827000000E+00 0. -1.
     999902    2    1    2    0    0  0.12767045385E-01  0.61790497399E-02 -0.24962197535E-01  0.10152195592E+01  0.10148135119E+01 0.  0.
     999903    2    3    3    0    0 -0.96394040820E-01 -0.58039800651E-01 -0.52801039738E-01  0.12571677417E+00  0.18876650805E-01 0.  0.
         14    1    1    2    0    0 -0.12767045385E-01 -0.61790497399E-02  0.24962197535E-01  0.28710440772E-01  0.00000000000E+00 0.  1.
     999901    1    3    3    0    0  0.10916108620E+00  0.64218850391E-01  0.27838842203E-01  0.88950278506E+00  0.88000000000E+00 0. -1.
        -11    1    4    4    0    0 -0.81711362434E-02 -0.14085123665E-02 -0.85584723004E-02  0.11927277297E-01  0.51100000000E-03 0. -1.
         11    1    4    4    0    0 -0.88222904577E-01 -0.56631288285E-01 -0.44242567437E-01  0.11378949688E+00  0.51100000000E-03 0.  1.
</event>
<event>
 8    1  0.1044719E+005  0.1043930E+01  0.7957747E-01            NaN
         13   -1    0    0    0    0  0.00000000000E+00  0.00000000000E+00  0.74505805969E-08  0.10566000000E+00  0.10566000000E+00 0. -1.
     999900   -1    0    0    0    0 -0.00000000000E+00 -0.00000000000E+00 -0.74505805969E-08  0.93827000000E+00  0.93827000000E+00 0. -1.
     999902    2    1    2    0    0 -0.12038516998E-01 -0.11916778873E-01  0.17284706560E-01  0.10197288308E+01  0.10194416078E+01 0.  0.
     999903    2    3    3    0    0 -0.12181712386E+00 -0.15282979295E-01 -0.41094051466E-01  0.13098209903E+00  0.19864744609E-01 0.  0.
         14    1    1    2    0    0  0.12038516998E-01  0.11916778873E-01 -0.17284706560E-01  0.24201169209E-01  0.00000000000E+00 0.  1.
     999901    1    3    3    0    0  0.10977860686E+00  0.33662004219E-02  0.58378758027E-01  0.88874673176E+00  0.88000000000E+00 0. -1.
        -11    1    4    4    0    0 -0.39487608502E-01 -0.12180162953E-01 -0.20123172609E-01  0.45965539175E-01  0.51100000000E-03 0.  1.
         11    1    4    4    0    0 -0.82329515357E-01 -0.31028163419E-02 -0.20970878857E-01  0.85016559853E-01  0.51100000000E-03 0. -1.
</event>
<event>
 8    1  0.1044719E+005  0.1043930E+01  0.7957747E-01            NaN
         13   -1    0    0    0    0  0.00000000000E+00  0.00000000000E+00  0.74505805969E-08  0.10566000000E+00  0.10566000000E+00 0. -1.
     999900   -1    0    0    0    0 -0.00000000000E+00 -0.00000000000E+00 -0.74505805969E-08  0.93827000000E+00  0.93827000000E+00 0.  1.
     999902    2    1    2    0    0 -0.19572774096E-01  0.19590210251E-01  0.98954404777E-02  0.10145226954E+01  0.10140964007E+01 0.  0.
     999903    2    3    3    0    0  0.74297439642E-01  0.16374752144E-01  0.97137163324E-01  0.12523473615E+00  0.21444546990E-01 0.  0.
         14    1    1    2    0    0  0.19572774096E-01 -0.19590210251E-01 -0.98954404777E-02  0.29407304633E-01  0.00000000000E+00 0.  1.
     999901    1    3    3    0    0 -0.93870213738E-01  0.32154581071E-02 -0.87241722846E-01  0.88928795921E+00  0.88000000000E+00 0.  1.
        -11    1    4    4    0    0  0.63710645405E-01  0.11164750426E-01  0.68277638745E-01  0.94052086971E-01  0.51100000000E-03 0. -1.
         11    1    4    4    0    0  0.10586794238E-01  0.52100017181E-02  0.28859524579E-01  0.31182649182E-01  0.51100000000E-03 0.  1.
</event>
<event>
 8    1  0.1044719E+005  0.1043930E+01  0.7957747E-01            NaN
         13   -1    0    0    0    0  0.00000000000E+00  0.00000000000E+00  0.74505805969E-08  0.10566000000E+00  0.10566000000E+00 0.  1.
     999900   -1    0    0    0    0 -0.00000000000E+00 -0.00000000000E+00 -0.74505805969E-08  0.93827000000E+00  0.93827000000E+00 0.  1.
     999902    2    1    2    0    0  0.63442875411E-02  0.18452024540E-02  0.23357229689E-01  0.10196562501E+01  0.10193672809E+01 0.  0.
     999903    2    3    3    0    0  0.90492725349E-01  0.38045327349E-01 -0.81102365609E-01  0.12875602240E+00  0.19082434926E-01 0.  0.
         14    1    1    2    0    0 -0.63442875411E-02 -0.18452024540E-02 -0.23357229689E-01  0.24273749922E-01  0.00000000000E+00 0. -1.
     999901    1    3    3    0    0 -0.84148437808E-01 -0.36200124895E-01  0.10445959530E+00  0.89090022768E+00  0.88000000000E+00 0. -1.
        -11    1    4    4    0    0  0.37037008113E-01  0.61040794638E-02 -0.26710011464E-01  0.46072612141E-01  0.51100000000E-03 0.  1.
         11    1    4    4    0    0  0.53455717236E-01  0.31941247886E-01 -0.54392354145E-01  0.82683410259E-01  0.51100000000E-03 0. -1.
</event>
<event>
 8    1  0.1044719E+005  0.1043930E+01  0.7957747E-01            NaN
         13   -1    0    0    0    0  0.00000000000E+00  0.00000000000E+00  0.74505805969E-08  0.10566000000E+00  0.10566000000E+00 0. -1.
     999900   -1    0    0    0    0 -0.00000000000E+00 -0.00000000000E+00 -0.74505805969E-08  0.93827000000E+00  0.93827000000E+00 0.  1.
     999902    2    1    2    0    0  0.21636587838E-01 -0.47417309818E-02  0.13551628553E-02  0.10217385059E+01  0.10214974850E+01 0.  0.
     999903    2    3    3    0    0  0.55550217258E-01  0.85192288718E-02 -0.11871837637E+00  0.13283826278E+00  0.19838025951E-01 0.  0.
         14    1    1    2    0    0 -0.21636587838E-01  0.47417309818E-02 -0.13551628553E-02  0.22191494144E-01  0.00000000000E+00 0. -1.
     999901    1    3    3    0    0 -0.33913629420E-01 -0.13260959854E-01  0.12007353922E+00  0.88890024307E+00  0.88000000000E+00 0. -1.
        -11    1    4    4    0    0  0.17721860260E-01 -0.55171146642E-02 -0.28606362879E-01  0.34104076053E-01  0.51100000000E-03 0.  1.
         11    1    4    4    0    0  0.37828356999E-01  0.14036343536E-01 -0.90112013488E-01  0.98734186728E-01  0.51100000000E-03 0. -1.
</event>
<event>
 8    1  0.1044719E+005  0.1043930E+01  0.7957747E-01            NaN
         13   -1    0    0    0    0  0.00000000000E+00  0.00000000000E+00  0.74505805969E-08  0.10566000000E+00  0.10566000000E+00 0. -1.
     999900   -1    0    0    0    0 -0.00000000000E+00 -0.00000000000E+00 -0.74505805969E-08  0.93827000000E+00  0.93827000000E+00 0.  1.
     999902    2    1    2    0    0 -0.23317618625E-01 -0.70960321838E-03  0.36701118465E-02  0.10203146534E+01  0.10200413263E+01 0.  0.
     999903    2    3    3    0    0 -0.42966045085E-01 -0.11601057578E-01 -0.12155659440E+00  0.13116539010E+00  0.21158647153E-01 0.  0.
         14    1    1    2    0    0  0.23317618625E-01  0.70960321838E-03 -0.36701118465E-02  0.23615346621E-01  0.00000000000E+00 0. -1.
     999901    1    3    3    0    0  0.19648426460E-01  0.10891454359E-01  0.12522670625E+00  0.88914926328E+00  0.88000000000E+00 0. -1.
        -11    1    4    4    0    0 -0.22461446227E-01 -0.16711055888E-01 -0.64331089504E-01  0.70160716596E-01  0.51100000000E-03 0.  1.
         11    1    4    4    0    0 -0.20504598858E-01  0.51099983102E-02 -0.57225504897E-01  0.61004673500E-01  0.51100000000E-03 0. -1.
</event>
<event>
 8    1  0.1044719E+005  0.1043930E+01  0.7957747E-01            NaN
         13   -1    0    0    0    0  0.00000000000E+00  0.00000000000E+00  0.74505805969E-08  0.10566000000E+00  0.10566000000E+00 0.  1.
     999900   -1    0    0    0    0 -0.00000000000E+00 -0.00000000000E+00 -0.74505805969E-08  0.93827000000E+00  0.93827000000E+00 0. -1.
     999902    2    1    2    0    0 -0.92375191931E-02  0.64910004664E-02  0.18178799019E-01  0.10225306173E+01  0.10223066710E+01 0.  0.
     999903    2    3    3    0    0 -0.92195354096E-01 -0.91921156757E-01  0.19690552848E-01  0.13316610230E+00  0.19900013946E-01 0.  0.
         14    1    1    2    0    0  0.92375191931E-02 -0.64910004664E-02 -0.18178799019E-01  0.21399382741E-01  0.00000000000E+00 0. -1.
     999901    1    3    3    0    0  0.82957834903E-01  0.98412157223E-01 -0.15117538285E-02  0.88936451495E+00  0.88000000000E+00 0.  1.
        -11    1    4    4    0    0 -0.23107641657E-01 -0.30608198147E-01 -0.15389412222E-02  0.38385600918E-01  0.51100000000E-03 0. -1.
         11    1    4    4    0    0 -0.69087712440E-01 -0.61312958609E-01  0.21229494070E-01  0.94780501386E-01  0.51100000000E-03 0.  1.
</event>
<event>
 8    1  0.1044719E+005  0.1043930E+01  0.7957747E-01            NaN
         13   -1    0    0    0    0  0.00000000000E+00  0.00000000000E+00  0.74505805969E-08  0.10566000000E+00  0.10566000000E+00 0. -1.
     999900   -1    0    0    0    0 -0.00000000000E+00 -0.00000000000E+00 -0.74505805969E-08  0.93827000000E+00  0.93827000000E+00 0.  1.
     999902    2    1    2    0    0 -0.86691225507E-02  0.17426202122E-01 -0.13721920409E-01  0.10201157751E+01  0.10198377701E+01 0.  0.
     999903    2    3    3    0    0 -0.25071694715E-01 -0.97347054850E-01  0.76662020803E-01  0.12792117656E+00  0.19537733136E-01 0.  0.
         14    1    1    2    0    0  0.86691225507E-02 -0.17426202122E-01  0.13721920409E-01  0.23814224865E-01  0.00000000000E+00 0.  1.
     999901    1    3    3    0    0  0.16402572164E-01  0.11477325697E+00 -0.90383941213E-01  0.89219459857E+00  0.88000000000E+00 0.  1.
        -11    1    4    4    0    0 -0.34724941181E-02 -0.33597722133E-01  0.16293206788E-01  0.37504597803E-01  0.51100000000E-03 0.  1.
         11    1    4    4    0    0 -0.21599200596E-01 -0.63749332717E-01  0.60368814015E-01  0.90416578761E-01  0.51100000000E-03 0. -1.
</event>
<event>
 8    1  0.1044719E+005  0.1043930E+01  0.7957747E-01            NaN
         13   -1    0    0    0    0  0.00000000000E+00  0.00000000000E+00  0.74505805969E-08  0.10566000000E+00  0.10566000000E+00 0. -1.
     999900   -1    0    0    0    0 -0.00000000000E+00 -0.00000000000E+00 -0.74505805969E-08  0.93827000000E+00  0.93827000000E+00 0.  1.
     999902    2    1    2    0    0 -0.10399019012E-01  0.16289949372E-01  0.14811320358E-01  0.10195809290E+01  0.10192901420E+01 0.  0.
     999903    2    3    3    0    0  0.12654381819E+00  0.16709332134E-01  0.32583275598E-02  0.12891433136E+00  0.17769311405E-01 0.  0.
         14    1    1    2    0    0  0.10399019012E-01 -0.16289949372E-01 -0.14811320358E-01  0.24349070982E-01  0.00000000000E+00 0.  1.
     999901    1    3    3    0    0 -0.13694283720E+00 -0.41938276223E-03  0.11552992798E-01  0.89066659766E+00  0.88000000000E+00 0.  1.
        -11    1    4    4    0    0  0.96361311194E-01  0.63493083481E-02  0.67586546067E-02  0.96807833075E-01  0.51100000000E-03 0. -1.
         11    1    4    4    0    0  0.30182506999E-01  0.10360023786E-01 -0.35003270469E-02  0.32106498283E-01  0.51100000000E-03 0.  1.
</event>
<event>
 8    1  0.1044719E+005  0.1043930E+01  0.7957747E-01            NaN
         13   -1    0    0    0    0  0.00000000000E+00  0.00000000000E+00  0.74505805969E-08  0.10566000000E+00  0.10566000000E+00 0.  1.
     999900   -1    0    0    0    0 -0.00000000000E+00 -0.00000000000E+00 -0.74505805969E-08  0.93827000000E+00  0.93827000000E+00 0.  1.
     999902    2    1    2    0    0 -0.18263136832E-01  0.17956955642E-01  0.32449879094E-02  0.10181128667E+01  0.10177854809E+01 0.  0.
     999903    2    3    3    0    0  0.49449213216E-01  0.72457112805E-01  0.92831924295E-01  0.12930408605E+00  0.20162406010E-01 0.  0.
         14    1    1    2    0    0  0.18263136832E-01 -0.17956955642E-01 -0.32449879094E-02  0.25817133253E-01  0.00000000000E+00 0. -1.
     999901    1    3    3    0    0 -0.67712350049E-01 -0.54500157163E-01 -0.89586936385E-01  0.88880878070E+00  0.88000000000E+00 0.  1.
        -11    1    4    4    0    0  0.18757268939E-01  0.30062960799E-01  0.23864997215E-01  0.42724886929E-01  0.51100000000E-03 0.  1.
         11    1    4    4    0    0  0.30691944277E-01  0.42394152007E-01  0.68966927080E-01  0.86579199117E-01  0.51100000000E-03 0. -1.
</event>
<event>
 8    1  0.1044719E+005  0.1043930E+01  0.7957747E-01            NaN
         13   -1    0    0    0    0  0.00000000000E+00  0.00000000000E+00  0.74505805969E-08  0.10566000000E+00  0.10566000000E+00 0.  1.
     999900   -1    0    0    0    0 -0.00000000000E+00 -0.00000000000E+00 -0.74505805969E-08  0.93827000000E+00  0.93827000000E+00 0.  1.
     999902    2    1    2    0    0 -0.13952801853E-02 -0.23119643936E-01 -0.72079450924E-03  0.10207570786E+01  0.10204940123E+01 0.  0.
     999903    2    3    3    0    0  0.40232669929E-02 -0.67183403516E-01  0.11210374929E+00  0.13244387185E+00  0.21079188827E-01 0.  0.
         14    1    1    2    0    0  0.13952801853E-02  0.23119643936E-01  0.72079450924E-03  0.23172921422E-01  0.00000000000E+00 0.  1.
     999901    1    3    3    0    0 -0.54185471782E-02  0.44063759580E-01 -0.11282454380E+00  0.88831320673E+00  0.88000000000E+00 0.  1.
        -11    1    4    4    0    0  0.10154238792E-01 -0.42517220804E-01  0.82938170861E-01  0.93754060910E-01  0.51100000000E-03 0.  1.
         11    1    4    4    0    0 -0.61309717991E-02 -0.24666182712E-01  0.29165578425E-01  0.38689810941E-01  0.51100000000E-03 0. -1.
</event>
<event>
 8    1  0.1044719E+005  0.1043930E+01  0.7957747E-01            NaN
         13   -1    0    0    0    0  0.00000000000E+00  0.00000000000E+00  0.74505805969E-08  0.10566000000E+00  0.10566000000E+00 0. -1.
     999900   -1    0    0    0    0 -0.00000000000E+00 -0.00000000000E+00 -0.74505805969E-08  0.93827000000E+00  0.93827000000E+00 0. -1.
     999902    2    1    2    0    0 -0.17709326852E-01 -0.86084618423E-02  0.12602087998E-01  0.10205518372E+01  0.10202840359E+01 0.  0.
     999903    2    3    3    0    0 -0.84727864510E-01  0.27727678702E-01  0.96783219937E-01  0.13325354326E+00  0.21020940492E-01 0.  0.
         14    1    1    2    0    0  0.17709326852E-01  0.86084618423E-02 -0.12602087998E-01  0.23378162776E-01  0.00000000000E+00 0.  1.
     999901    1    3    3    0    0  0.67018537658E-01 -0.36336140545E-01 -0.84181131939E-01  0.88729829397E+00  0.88000000000E+00 0. -1.
        -11    1    4    4    0    0 -0.13016918300E-01 -0.20384176188E-02  0.20720465982E-01  0.24560010991E-01  0.51100000000E-03 0. -1.
         11    1    4    4    0    0 -0.71710946210E-01  0.29766096321E-01  0.76062753955E-01  0.10869353227E+00  0.51100000000E-03 0.  1.
</event>
<event>
 8    1  0.1044719E+005  0.1043930E+01  0.7957747E-01            NaN
         13   -1    0    0    0    0  0.00000000000E+00  0.00000000000E+00  0.74505805969E-08  0.10566000000E+00  0.10566000000E+00 0. -1.
     999900   -1    0    0    0    0 -0.00000000000E+00 -0.00000000000E+00 -0.74505805969E-08  0.93827000000E+00  0.93827000000E+00 0. -1.
     999902    2    1    2    0    0 -0.61586811589E-02  0.54206109917E-02 -0.22166924493E-01  0.10202934834E+01  0.10200196602E+01 0.  0.
     999903    2    3    3    0    0 -0.36572942284E-01 -0.11575153181E+00 -0.45385343446E-01  0.13116648993E+00  0.20219333786E-01 0.  0.
         14    1    1    2    0    0  0.61586811589E-02 -0.54206109917E-02  0.22166924493E-01  0.23636516634E-01  0.00000000000E+00 0. -1.
     999901    1    3    3    0    0  0.30414261125E-01  0.12117214280E+00  0.23218418953E-01  0.88912699343E+00  0.88000000000E+00 0. -1.
        -11    1    4    4    0    0 -0.13902469017E-02 -0.17643535736E-01 -0.13195556901E-01  0.22081915285E-01  0.51100000000E-03 0.  1.
         11    1    4    4    0    0 -0.35182695382E-01 -0.98107996071E-01 -0.32189786545E-01  0.10908457465E+00  0.51100000000E-03 0. -1.
</event>
<event>
 8    1  0.1044719E+005  0.1043930E+01  0.7957747E-01            NaN
         13   -1    0    0    0    0  0.00000000000E+00  0.00000000000E+00  0.74505805969E-08  0.10566000000E+00  0.10566000000E+00 0. -1.
     999900   -1    0    0    0    0 -0.00000000000E+00 -0.00000000000E+00 -0.74505805969E-08  0.93827000000E+00  0.93827000000E+00 0. -1.
     999902    2    1    2    0    0  0.19703769211E-01 -0.29458397281E-01  0.31243033167E-02  0.10083519595E+01  0.10077241078E+01 0.  0.
     999903    2    3    3    0    0  0.80428384531E-02  0.10191198147E+00 -0.52714467983E-01  0.11677351538E+00  0.20161833770E-01 0.  0.
         14    1    1    2    0    0 -0.19703769211E-01  0.29458397281E-01 -0.31243033167E-02  0.35578040456E-01  0.00000000000E+00 0. -1.
     999901    1    3    3    0    0  0.11660930758E-01 -0.13137037875E+00  0.55838771300E-01  0.89157844417E+00  0.88000000000E+00 0.  1.
        -11    1    4    4    0    0  0.12056408662E-01  0.73397648924E-01 -0.30464412643E-01  0.80379807266E-01  0.51100000000E-03 0. -1.
         11    1    4    4    0    0 -0.40135702092E-02  0.28514332549E-01 -0.22250055341E-01  0.36393708113E-01  0.51100000000E-03 0.  1.
</event>
<event>
 8    1  0.1044719E+005  0.1043930E+01  0.7957747E-01            NaN
         13   -1    0    0    0    0  0.00000000000E+00  0.00000000000E+00  0.74505805969E-08  0.10566000000E+00  0.10566000000E+00 0. -1.
     999900   -1    0    0    0    0 -0.00000000000E+00 -0.00000000000E+00 -0.74505805969E-08  0.93827000000E+00  0.93827000000E+00 0.  1.
     999902    2    1    2    0    0 -0.16449953452E-01  0.65781633440E-02  0.20644999530E-01  0.10167254194E+01  0.10163613969E+01 0.  0.
     999903    2    3    3    0    0  0.94013580127E-01 -0.49807537777E-01  0.66029907717E-01  0.12687075178E+00  0.20418003741E-01 0.  0.
         14    1    1    2    0    0  0.16449953452E-01 -0.65781633440E-02 -0.20644999530E-01  0.27204580628E-01  0.00000000000E+00 0.  1.
     999901    1    3    3    0    0 -0.11046353358E+00  0.56385701120E-01 -0.45384908187E-01  0.88985466759E+00  0.88000000000E+00 0.  1.
        -11    1    4    4    0    0  0.16751320489E-01 -0.17000477794E-01  0.96254269229E-02  0.25739715379E-01  0.51100000000E-03 0. -1.
         11    1    4    4    0    0  0.77262259639E-01 -0.32807059982E-01  0.56404480794E-01  0.10113103640E+00  0.51100000000E-03 0.  1.
</event>
<event>
 8    1  0.1044719E+005  0.1043930E+01  0.7957747E-01            NaN
         13   -1    0    0    0    0  0.00000000000E+00  0.00000000000E+00  0.74505805969E-08  0.10566000000E+00  0.10566000000E+00 0.  1.
     999900   -1    0    0    0    0 -0.00000000000E+00 -0.00000000000E+00 -0.74505805969E-08  0.93827000000E+00  0.93827000000E+00 0.  1.
     999902    2    1    2    0    0 -0.34209606797E-02  0.18497195607E-01  0.10860807729E-01  0.10222088959E+01  0.10219780920E+01 0.  0.
     999903    2    3    3    0    0 -0.83477963792E-01  0.99775985758E-01 -0.26070738988E-01  0.13407641448E+00  0.19312786305E-01 0.  0.
         14    1    1    2    0    0  0.34209606797E-02 -0.18497195607E-01 -0.10860807729E-01  0.21721104066E-01  0.00000000000E+00 0. -1.
     999901    1    3    3    0    0  0.80057003112E-01 -0.81278790151E-01  0.36931546717E-01  0.88813248146E+00  0.88000000000E+00 0. -1.
        -11    1    4    4    0    0 -0.44330914283E-01  0.38059943878E-01 -0.11845720213E-01  0.59618549945E-01  0.51100000000E-03 0. -1.
         11    1    4    4    0    0 -0.39147049509E-01  0.61716041880E-01 -0.14225018774E-01  0.74457864532E-01  0.51100000000E-03 0.  1.
</event>
<event>
 8    1  0.1044719E+005  0.1043930E+01  0.7957747E-01            NaN
         13   -1    0    0    0    0  0.00000000000E+00  0.00000000000E+00  0.74505805969E-08  0.10566000000E+00  0.10566000000E+00 0.  1.
     999900   -1    0    0    0    0 -0.00000000000E+00 -0.00000000000E+00 -0.74505805969E-08  0.93827000000E+00  0.93827000000E+00 0.  1.
     999902    2    1    2    0    0  0.20450351533E-01  0.11896751419E-01  0.16203801955E-02  0.10202155486E+01  0.10199398955E+01 0.  0.
     999903    2    3    3    0    0  0.25744044911E-01  0.87720372614E-01  0.93001838111E-01  0.13222466152E+00  0.21826580196E-01 0.  0.
         14    1    1    2    0    0 -0.20450351533E-01 -0.11896751419E-01 -0.16203801955E-02  0.23714451377E-01  0.00000000000E+00 0. -1.
     999901    1    3    3    0    0 -0.52936933786E-02 -0.75823621195E-01 -0.91381457915E-01  0.88799088710E+00  0.88000000000E+00 0.  1.
        -11    1    4    4    0    0  0.23177717638E-01  0.88022968591E-01  0.91961456003E-01  0.12939250405E+00  0.51100000000E-03 0. -1.
         11    1    4    4    0    0  0.25663272729E-02 -0.30259597645E-03  0.10403821080E-02  0.28321574687E-02  0.51100000000E-03 0.  1.
</event>
<event>
 8    1  0.1044719E+005  0.1043930E+01  0.7957747E-01            NaN
         13   -1    0    0    0    0  0.00000000000E+00  0.00000000000E+00  0.74505805969E-08  0.10566000000E+00  0.10566000000E+00 0.  1.
     999900   -1    0    0    0    0 -0.00000000000E+00 -0.00000000000E+00 -0.74505805969E-08  0.93827000000E+00  0.93827000000E+00 0. -1.
     999902    2    1    2    0    0  0.17197221097E-01 -0.16975243841E-01 -0.68141888814E-02  0.10188234971E+01  0.10185141049E+01 0.  0.
     999903    2    3    3    0    0  0.32494961523E-01  0.12132256771E+00  0.11552697104E-01  0.12770192963E+00  0.19980742256E-01 0.  0.
         14    1    1    2    0    0 -0.17197221097E-01  0.16975243841E-01  0.68141888814E-02  0.25106502883E-01  0.00000000000E+00 0.  1.
     999901    1    3    3    0    0 -0.15297740427E-01 -0.13829781155E+00 -0.18366885985E-01  0.89112156749E+00  0.88000000000E+00 0.  1.
        -11    1    4    4    0    0  0.37374785645E-02  0.51841727011E-01  0.49478545166E-02  0.52213750974E-01  0.51100000000E-03 0.  1.
         11    1    4    4    0    0  0.28757482959E-01  0.69480840697E-01  0.66048425872E-02  0.75488178655E-01  0.51100000000E-03 0. -1.
</event>
<event>
 8    1  0.1044719E+005  0.1043930E+01  0.7957747E-01            NaN
         13   -1    0    0    0    0  0.00000000000E+00  0.00000000000E+00  0.74505805969E-08  0.10566000000E+00  0.10566000000E+00 0. -1.
     999900   -1    0    0    0    0 -0.00000000000E+00 -0.00000000000E+00 -0.74505805969E-08  0.93827000000E+00  0.93827000000E+00 0.  1.
     999902    2    1    2    0    0  0.80789781284E-02  0.20832932718E-01  0.11416727477E-01  0.10188377175E+01  0.10185286800E+01 0.  0.
     999903    2    3    3    0    0  0.11679970096E+00 -0.51541132299E-01 -0.57017236346E-02  0.12903367044E+00  0.17847128360E-01 0.  0.
         14    1    1    2    0    0 -0.80789781284E-02 -0.20832932718E-01 -0.11416727477E-01  0.25092282469E-01  0.00000000000E+00 0.  1.
     999901    1    3    3    0    0 -0.10872072283E+00  0.72374065017E-01  0.17118451111E-01  0.88980404710E+00  0.88000000000E+00 0.  1.
        -11    1    4    4    0    0  0.89947733211E-01 -0.45229399450E-01  0.82408785348E-03  0.10068382952E+00  0.51100000000E-03 0.  1.
         11    1    4    4    0    0  0.26851967748E-01 -0.63117328492E-02 -0.65258114881E-02  0.28349840919E-01  0.51100000000E-03 0. -1.
</event>
<event>
 8    1  0.1044719E+005  0.1043930E+01  0.7957747E-01            NaN
         13   -1    0    0    0    0  0.00000000000E+00  0.00000000000E+00  0.74505805969E-08  0.10566000000E+00  0.10566000000E+00 0.  1.
     999900   -1    0    0    0    0 -0.00000000000E+00 -0.00000000000E+00 -0.74505805969E-08  0.93827000000E+00  0.93827000000E+00 0. -1.
     999902    2    1    2    0    0  0.19545880202E-01 -0.24668258524E-02  0.12918303620E-01  0.10203713661E+01  0.10200993655E+01 0.  0.
     999903    2    3    3    0    0 -0.53525844134E-01  0.66992404621E-01 -0.90554813683E-01  0.12859182631E+00  0.31347810841E-01 0.  0.
         14    1    1    2    0    0 -0.19545880202E-01  0.24668258524E-02 -0.12918303620E-01  0.23558633897E-01  0.00000000000E+00 0. -1.
     999901    1    3    3    0    0  0.73071724337E-01 -0.69459230473E-01  0.10347311730E+00  0.89177953980E+00  0.88000000000E+00 0.  1.
        -11    1    4    4    0    0 -0.47580441100E-01  0.50482947089E-01 -0.85929203240E-01  0.11043783506E+00  0.51100000000E-03 0.  1.
         11    1    4    4    0    0 -0.59454030340E-02  0.16509457532E-01 -0.46256104426E-02  0.18153991247E-01  0.51100000000E-03 0. -1.
</event>
<event>
 8    1  0.1044719E+005  0.1043930E+01  0.7957747E-01            NaN
         13   -1    0    0    0    0  0.00000000000E+00  0.00000000000E+00  0.74505805969E-08  0.10566000000E+00  0.10566000000E+00 0. -1.
     999900   -1    0    0    0    0 -0.00000000000E+00 -0.00000000000E+00 -0.74505805969E-08  0.93827000000E+00  0.93827000000E+00 0.  1.
     999902    2    1    2    0    0 -0.34757977505E-01  0.21516276999E-02 -0.56415095376E-02  0.10086514919E+01  0.10080343541E+01 0.  0.
     999903    2    3    3    0    0  0.19872416772E-01  0.65913207871E-02 -0.11645574103E+00  0.12000984044E+00  0.20051526797E-01 0.  0.
         14    1    1    2    0    0  0.34757977505E-01 -0.21516276999E-02  0.56415095376E-02  0.35278508073E-01  0.00000000000E+00 0. -1.
     999901    1    3    3    0    0 -0.54630394277E-01 -0.44396930872E-02  0.11081423149E+00  0.88864165149E+00  0.88000000000E+00 0. -1.
        -11    1    4    4    0    0  0.34924438256E-02  0.95378372092E-02 -0.68383725793E-01  0.69135827013E-01  0.51100000000E-03 0. -1.
         11    1    4    4    0    0  0.16379972947E-01 -0.29465164221E-02 -0.48072015234E-01  0.50874013429E-01  0.51100000000E-03 0.  1.
</event>
<event>
 8    1  0.1044719E+005  0.1043930E+01  0.7957747E-01            NaN
         13   -1    0    0    0    0  0.00000000000E+00  0.00000000000E+00  0.74505805969E-08  0.10566000000E+00  0.10566000000E+00 0.  1.
     999900   -1    0    0    0    0 -0.00000000000E+00 -0.00000000000E+00 -0.74505805969E-08  0.93827000000E+00  0.93827000000E+00 0. -1.
     999902    2    1    2    0    0  0.16580082986E-02  0.23905461200E-01 -0.18853516830E-02  0.10198930572E+01  0.10196097653E+01 0.  0.
     999903    2    3    3    0    0  0.10700639421E+00 -0.57098761034E-01 -0.39682549676E-01  0.12911328949E+00  0.19618864956E-01 0.  0.
         14    1    1    2    0    0 -0.16580082986E-02 -0.23905461200E-01  0.18853516830E-02  0.24036942769E-01  0.00000000000E+00 0. -1.
     999901    1    3    3    0    0 -0.10534838591E+00  0.81004222234E-01  0.37797197993E-01  0.89077976774E+00  0.88000000000E+00 0.  1.
        -11    1    4    4    0    0  0.29073911457E-01 -0.25787892944E-01 -0.13287664900E-01  0.41074699140E-01  0.51100000000E-03 0. -1.
         11    1    4    4    0    0  0.77932482751E-01 -0.31310868090E-01 -0.26394884775E-01  0.88038590355E-01  0.51100000000E-03 0.  1.
</event>
<event>
 8    1  0.1044719E+005  0.1043930E+01  0.7957747E-01            NaN
         13   -1    0    0    0    0  0.00000000000E+00  0.00000000000E+00  0.74505805969E-08  0.10566000000E+00  0.10566000000E+00 0.  1.
     999900   -1    0    0    0    0 -0.00000000000E+00 -0.00000000000E+00 -0.74505805969E-08  0.93827000000E+00  0.93827000000E+00 0. -1.
     999902    2    1    2    0    0  0.85650735526E-02 -0.20901477077E-01  0.71579282554E-02  0.10202346805E+01  0.10199594772E+01 0.  0.
     999903    2    3    3    0    0  0.43041065486E-02  0.83697184296E-01  0.96580945849E-01  0.12952961603E+00  0.20646993408E-01 0.  0.
         14    1    1    2    0    0 -0.85650735526E-02  0.20901477077E-01 -0.71579282554E-02  0.23695319493E-01  0.00000000000E+00 0. -1.
     999901    1    3    3    0    0  0.42609670039E-02 -0.10459866137E+00 -0.89423017593E-01  0.89070506447E+00  0.88000000000E+00 0.  1.
        -11    1    4    4    0    0  0.30120824775E-02  0.37545265617E-01  0.28356911632E-01  0.47149710173E-01  0.51100000000E-03 0.  1.
         11    1    4    4    0    0  0.12920240711E-02  0.46151918679E-01  0.68224034216E-01  0.82379905861E-01  0.51100000000E-03 0. -1.
</event>
<event>
 8    1  0.1044719E+005  0.1043930E+01  0.7957747E-01            NaN
         13   -1    0    0    0    0  0.00000000000E+00  0.00000000000E+00  0.74505805969E-08  0.10566000000E+00  0.10566000000E+00 0.  1.
     999900   -1    0    0    0    0 -0.00000000000E+00 -0.00000000000E+00 -0.74505805969E-08  0.93827000000E+00  0.93827000000E+00 0.  1.
     999902    2    1    2    0    0 -0.37576753402E-02  0.15366283479E-01 -0.17557165992E-01  0.10202974616E+01  0.10200237318E+01 0.  0.
     999903    2    3    3    0    0  0.55947704399E-01  0.11094321356E+00  0.38110443664E-01  0.13136632555E+00  0.19135394196E-01 0.  0.
         14    1    1    2    0    0  0.37576753402E-02 -0.15366283479E-01  0.17557165992E-01  0.23632538365E-01  0.00000000000E+00 0. -1.
     999901    1    3    3    0    0 -0.59705379739E-01 -0.95576930078E-01 -0.55667609656E-01  0.88893113608E+00  0.88000000000E+00 0.  1.
        -11    1    4    4    0    0  0.28565009709E-01  0.60951098390E-01  0.10859823253E-01  0.68184991433E-01  0.51100000000E-03 0. -1.
         11    1    4    4    0    0  0.27382694690E-01  0.49992115167E-01  0.27250620410E-01  0.63181334119E-01  0.51100000000E-03 0.  1.
</event>
<event>
 8    1  0.1044719E+005  0.1043930E+01  0.7957747E-01            NaN
         13   -1    0    0    0    0  0.00000000000E+00  0.00000000000E+00  0.74505805969E-08  0.10566000000E+00  0.10566000000E+00 0.  1.
     999900   -1    0    0    0    0 -0.00000000000E+00 -0.00000000000E+00 -0.74505805969E-08  0.93827000000E+00  0.93827000000E+00 0.  1.
     999902    2    1    2    0    0  0.62388181539E-02 -0.15988893982E-01 -0.69539174156E-02  0.10254117779E+01  0.10252445512E+01 0.  0.
     999903    2    3    3    0    0  0.74198493829E-01 -0.88588154108E-01  0.69962228550E-01  0.13647687386E+00  0.19440836933E-01 0.  0.
         14    1    1    2    0    0 -0.62388181539E-02  0.15988893982E-01  0.69539174156E-02  0.18518222111E-01  0.00000000000E+00 0.  1.
     999901    1    3    3    0    0 -0.67959675675E-01  0.72599260126E-01 -0.76916145965E-01  0.88893490403E+00  0.88000000000E+00 0.  1.
        -11    1    4    4    0    0  0.23077248930E-01 -0.16164850827E-01  0.12466839834E-01  0.30814688655E-01  0.51100000000E-03 0.  1.
         11    1    4    4    0    0  0.51121244899E-01 -0.72423303281E-01  0.57495388716E-01  0.10566218521E+00  0.51100000000E-03 0. -1.
</event>
<event>
 8    1  0.1044719E+005  0.1043930E+01  0.7957747E-01            NaN
         13   -1    0    0    0    0  0.00000000000E+00  0.00000000000E+00  0.74505805969E-08  0.10566000000E+00  0.10566000000E+00 0. -1.
     999900   -1    0    0    0    0 -0.00000000000E+00 -0.00000000000E+00 -0.74505805969E-08  0.93827000000E+00  0.93827000000E+00 0.  1.
     999902    2    1    2    0    0 -0.51056857102E-02  0.18183388191E-01 -0.17587121924E-01  0.10181228210E+01  0.10177956907E+01 0.  0.
     999903    2    3    3    0    0  0.38864354345E-02 -0.11620999040E+00 -0.47844962357E-01  0.12736024015E+00  0.20288521367E-01 0.  0.
         14    1    1    2    0    0  0.51056857102E-02 -0.18183388191E-01  0.17587121924E-01  0.25807179045E-01  0.00000000000E+00 0. -1.
     999901    1    3    3    0    0 -0.89921211447E-02  0.13439337859E+00  0.30257840432E-01  0.89076258080E+00  0.88000000000E+00 0. -1.
        -11    1    4    4    0    0  0.28050713009E-02 -0.64116064822E-01 -0.37184247333E-01  0.74173226733E-01  0.51100000000E-03 0. -1.
         11    1    4    4    0    0  0.10813641336E-02 -0.52093925578E-01 -0.10660715024E-01  0.53187013418E-01  0.51100000000E-03 0.  1.
</event>
<event>
 8    1  0.1044719E+005  0.1043930E+01  0.7957747E-01            NaN
         13   -1    0    0    0    0  0.00000000000E+00  0.00000000000E+00  0.74505805969E-08  0.10566000000E+00  0.10566000000E+00 0.  1.
     999900   -1    0    0    0    0 -0.00000000000E+00 -0.00000000000E+00 -0.74505805969E-08  0.93827000000E+00  0.93827000000E+00 0. -1.
     999902    2    1    2    0    0  0.92525245099E-02 -0.87340802895E-02 -0.21896848238E-01  0.10186048084E+01  0.10182899343E+01 0.  0.
     999903    2    3    3    0    0 -0.80634662286E-01 -0.71067712532E-01  0.66439955640E-01  0.12744344309E+00  0.16582971790E-01 0.  0.
         14    1    1    2    0    0 -0.92525245099E-02  0.87340802895E-02  0.21896848238E-01  0.25325191629E-01  0.00000000000E+00 0. -1.
     999901    1    3    3    0    0  0.89887186796E-01  0.62333632243E-01 -0.88336803878E-01  0.89116136529E+00  0.88000000000E+00 0. -1.
        -11    1    4    4    0    0 -0.54555394763E-01 -0.46624299042E-01  0.53154442148E-01  0.89307178883E-01  0.51100000000E-03 0.  1.
         11    1    4    4    0    0 -0.26079267522E-01 -0.24443413490E-01  0.13285513493E-01  0.38136264202E-01  0.51100000000E-03 0. -1.
</event>
<event>
 8    1  0.1044719E+005  0.1043930E+01  0.7957747E-01            NaN
         13   -1    0    0    0    0  0.00000000000E+00  0.00000000000E+00  0.74505805969E-08  0.10566000000E+00  0.10566000000E+00 0.  1.
     999900   -1    0    0    0    0 -0.00000000000E+00 -0.00000000000E+00 -0.74505805969E-08  0.93827000000E+00  0.93827000000E+00 0.  1.
     999902    2    1    2    0    0 -0.94777600484E-02 -0.11351494544E-01  0.10961422595E-01  0.10255224703E+01  0.10253572548E+01 0.  0.
     999903    2    3    3    0    0 -0.84940446031E-01 -0.86976624152E-01  0.61105885206E-01  0.13764396267E+00  0.20787465734E-01 0.  0.
         14    1    1    2    0    0  0.94777600484E-02  0.11351494544E-01 -0.10961422595E-01  0.18407529688E-01  0.00000000000E+00 0. -1.
     999901    1    3    3    0    0  0.75462685982E-01  0.75625129608E-01 -0.50144462611E-01  0.88787850764E+00  0.88000000000E+00 0.  1.
        -11    1    4    4    0    0 -0.32811134988E-01 -0.23363643665E-01  0.12828477125E-01  0.42276014131E-01  0.51100000000E-03 0.  1.
         11    1    4    4    0    0 -0.52129311043E-01 -0.63612980487E-01  0.48277408081E-01  0.95367948538E-01  0.51100000000E-03 0. -1.
</event>
<event>
 8    1  0.1044719E+005  0.1043930E+01  0.7957747E-01            NaN
         13   -1    0    0    0    0  0.00000000000E+00  0.00000000000E+00  0.74505805969E-08  0.10566000000E+00  0.10566000000E+00 0.  1.
     999900   -1    0    0    0    0 -0.00000000000E+00 -0.00000000000E+00 -0.74505805969E-08  0.93827000000E+00  0.93827000000E+00 0.  1.
     999902    2    1    2    0    0  0.14188119129E-03  0.22897235765E-01  0.68489176910E-02  0.10200299747E+01  0.10197499390E+01 0.  0.
     999903    2    3    3    0    0 -0.11747719885E+00 -0.41172191479E-01  0.30102566205E-01  0.12959195234E+00  0.19795656543E-01 0.  0.
         14    1    1    2    0    0 -0.14188119129E-03 -0.22897235765E-01 -0.68489176910E-02  0.23900025303E-01  0.00000000000E+00 0. -1.
     999901    1    3    3    0    0  0.11761908004E+00  0.64069427244E-01 -0.23253648514E-01  0.89043802236E+00  0.88000000000E+00 0.  1.
        -11    1    4    4    0    0 -0.20027954035E-01 -0.15206095636E-01  0.73987924529E-02  0.26217313709E-01  0.51100000000E-03 0. -1.
         11    1    4    4    0    0 -0.97449244813E-01 -0.25966095843E-01  0.22703773752E-01  0.10337463863E+00  0.51100000000E-03 0.  1.
</event>
<event>
 8    1  0.1044719E+005  0.1043930E+01  0.7957747E-01            NaN
         13   -1    0    0    0    0  0.00000000000E+00  0.00000000000E+00  0.74505805969E-08  0.10566000000E+00  0.10566000000E+00 0.  1.
     999900   -1    0    0    0    0 -0.00000000000E+00 -0.00000000000E+00 -0.74505805969E-08  0.93827000000E+00  0.93827000000E+00 0. -1.
     999902    2    1    2    0    0 -0.97081664593E-02  0.48403160833E-02 -0.22959888100E-01  0.10185364257E+01  0.10182198273E+01 0.  0.
     999903    2    3    3    0    0 -0.12279146599E+00  0.25907475764E-01 -0.32018787607E-01  0.13100404794E+00  0.19695593368E-01 0.  0.
         14    1    1    2    0    0  0.97081664593E-02 -0.48403160833E-02  0.22959888100E-01  0.25393574332E-01  0.00000000000E+00 0.  1.
     999901    1    3    3    0    0  0.11308329953E+00 -0.21067159681E-01  0.90588995069E-02  0.88753237772E+00  0.88000000000E+00 0. -1.
        -11    1    4    4    0    0 -0.71750809551E-01  0.23912213082E-01 -0.23629562669E-01  0.79237553966E-01  0.51100000000E-03 0. -1.
         11    1    4    4    0    0 -0.51040656436E-01  0.19952626816E-02 -0.83892249378E-02  0.51766493977E-01  0.51100000000E-03 0.  1.
</event>
<event>
 8    1  0.1335196E+005  0.1043930E+01  0.7957747E-01            NaN
         13   -1    0    0    0    0  0.00000000000E+00  0.00000000000E+00  0.74505805969E-08  0.10566000000E+00  0.10566000000E+00 0.  1.
     999900   -1    0    0    0    0 -0.00000000000E+00 -0.00000000000E+00 -0.74505805969E-08  0.93827000000E+00  0.93827000000E+00 0. -1.
     999902    2    1    2    0    0 -0.10529699952E-01 -0.83095554739E-02  0.19359297446E-01  0.10203778092E+01  0.10201059591E+01 0.  0.
     999903    2    3    3    0    0  0.12740201272E+00 -0.10503474322E-01 -0.13695704980E-02  0.12938978651E+00  0.19956084536E-01 0.  0.
         14    1    1    2    0    0  0.10529699952E-01  0.83095554739E-02 -0.19359297446E-01  0.23552190787E-01  0.00000000000E+00 0. -1.
     999901    1    3    3    0    0 -0.13793171267E+00  0.21939188478E-02  0.20728867944E-01  0.89098802271E+00  0.88000000000E+00 0.  1.
        -11    1    4    4    0    0  0.48862105712E-01 -0.16155197617E-02  0.88598168349E-02  0.49687752556E-01  0.51100000000E-03 0.  1.
         11    1    4    4    0    0  0.78539907011E-01 -0.88879545600E-02 -0.10229387333E-01  0.79702033950E-01  0.51100000000E-03 0. -1.
</event>
<event>
 8    1  0.1044719E+005  0.1043930E+01  0.7957747E-01            NaN
         13   -1    0    0    0    0  0.00000000000E+00  0.00000000000E+00  0.74505805969E-08  0.10566000000E+00  0.10566000000E+00 0.  1.
     999900   -1    0    0    0    0 -0.00000000000E+00 -0.00000000000E+00 -0.74505805969E-08  0.93827000000E+00  0.93827000000E+00 0.  1.
     999902    2    1    2    0    0  0.24509117619E-02  0.23190959493E-01 -0.65573461470E-02  0.10197055008E+01  0.10194177172E+01 0.  0.
     999903    2    3    3    0    0  0.26153711667E-01  0.56563454614E-02 -0.12668824443E+00  0.13105443427E+00  0.20232216578E-01 0.  0.
         14    1    1    2    0    0 -0.24509117619E-02 -0.23190959493E-01  0.65573461470E-02  0.24224499152E-01  0.00000000000E+00 0.  1.
     999901    1    3    3    0    0 -0.23702799905E-01  0.17534614032E-01  0.12013089828E+00  0.88865106658E+00  0.88000000000E+00 0. -1.
        -11    1    4    4    0    0 -0.76330427067E-03  0.21509511251E-02 -0.43191290702E-01  0.43254571292E-01  0.51100000000E-03 0.  1.
         11    1    4    4    0    0  0.26917015937E-01  0.35053943363E-02 -0.83496953724E-01  0.87799862976E-01  0.51100000000E-03 0. -1.
</event>
<event>
 8    1  0.1044719E+005  0.1043930E+01  0.7957747E-01            NaN
         13   -1    0    0    0    0  0.00000000000E+00  0.00000000000E+00  0.74505805969E-08  0.10566000000E+00  0.10566000000E+00 0. -1.
     999900   -1    0    0    0    0 -0.00000000000E+00 -0.00000000000E+00 -0.74505805969E-08  0.93827000000E+00  0.93827000000E+00 0.  1.
     999902    2    1    2    0    0  0.93489966372E-02  0.22004193796E-01  0.23612562606E-03  0.10200209214E+01  0.10197406710E+01 0.  0.
     999903    2    3    3    0    0 -0.29765810014E-01 -0.12099618182E+00 -0.18585735788E-01  0.12742171798E+00  0.19099350235E-01 0.  0.
         14    1    1    2    0    0 -0.93489966372E-02 -0.22004193796E-01 -0.23612562606E-03  0.23909078570E-01  0.00000000000E+00 0. -1.
     999901    1    3    3    0    0  0.39114806652E-01  0.14300037561E+00  0.18821861414E-01  0.89259920345E+00  0.88000000000E+00 0. -1.
        -11    1    4    4    0    0 -0.41988785483E-02 -0.50643532490E-01 -0.12398421381E-01  0.52310419018E-01  0.51100000000E-03 0.  1.
         11    1    4    4    0    0 -0.25566931466E-01 -0.70352649327E-01 -0.61873144076E-02  0.75111298967E-01  0.51100000000E-03 0. -1.
</event>
<event>
 8    1  0.1044719E+005  0.1043930E+01  0.7957747E-01            NaN
         13   -1    0    0    0    0  0.00000000000E+00  0.00000000000E+00  0.74505805969E-08  0.10566000000E+00  0.10566000000E+00 0. -1.
     999900   -1    0    0    0    0 -0.00000000000E+00 -0.00000000000E+00 -0.74505805969E-08  0.93827000000E+00  0.93827000000E+00 0.  1.
     999902    2    1    2    0    0  0.18049174719E-01  0.82226120098E-02 -0.13316070159E-01  0.10200406346E+01  0.10197608516E+01 0.  0.
     999903    2    3    3    0    0 -0.11388998152E+00  0.33004583885E-01  0.44055229211E-01  0.12801285861E+00  0.19651928676E-01 0.  0.
         14    1    1    2    0    0 -0.18049174719E-01 -0.82226120098E-02  0.13316070159E-01  0.23889365433E-01  0.00000000000E+00 0. -1.
     999901    1    3    3    0    0  0.13193915624E+00 -0.24781971876E-01 -0.57371299370E-01  0.89202777595E+00  0.88000000000E+00 0.  1.
        -11    1    4    4    0    0 -0.41206336057E-01  0.12480304421E-01  0.26202775252E-01  0.50404034378E-01  0.51100000000E-03 0.  1.
         11    1    4    4    0    0 -0.72683645467E-01  0.20524279465E-01  0.17852453959E-01  0.77608824236E-01  0.51100000000E-03 0. -1.
</event>
<event>
 8    1  0.1044719E+005  0.1043930E+01  0.7957747E-01            NaN
         13   -1    0    0    0    0  0.00000000000E+00  0.00000000000E+00  0.74505805969E-08  0.10566000000E+00  0.10566000000E+00 0. -1.
     999900   -1    0    0    0    0 -0.00000000000E+00 -0.00000000000E+00 -0.74505805969E-08  0.93827000000E+00  0.93827000000E+00 0. -1.
     999902    2    1    2    0    0 -0.41742931402E-02 -0.18420230490E-01 -0.13029622279E-01  0.10209843976E+01  0.10207265253E+01 0.  0.
     999903    2    3    3    0    0  0.46362475343E-01  0.11845432252E+00 -0.72404753568E-02  0.12895181831E+00  0.19880677001E-01 0.  0.
         14    1    1    2    0    0  0.41742931402E-02  0.18420230490E-01  0.13029622279E-01  0.22945602439E-01  0.00000000000E+00 0. -1.
     999901    1    3    3    0    0 -0.50536768484E-01 -0.13687455301E+00 -0.57891469225E-02  0.89203257925E+00  0.88000000000E+00 0.  1.
        -11    1    4    4    0    0  0.41579242948E-01  0.10504389746E+00 -0.97201837805E-05  0.11297484257E+00  0.51100000000E-03 0.  1.
         11    1    4    4    0    0  0.47832323957E-02  0.13410425056E-01 -0.72307551730E-02  0.15976975737E-01  0.51100000000E-03 0. -1.
</event>
<event>
 8    1  0.1044719E+005  0.1043930E+01  0.7957747E-01            NaN
         13   -1    0    0    0    0  0.00000000000E+00  0.00000000000E+00  0.74505805969E-08  0.10566000000E+00  0.10566000000E+00 0.  1.
     999900   -1    0    0    0    0 -0.00000000000E+00 -0.00000000000E+00 -0.74505805969E-08  0.93827000000E+00  0.93827000000E+00 0.  1.
     999902    2    1    2    0    0  0.17027638606E-02 -0.13910100833E-01  0.22014734372E-01  0.10178332791E+01  0.10174986709E+01 0.  0.
     999903    2    3    3    0    0  0.12199508721E+00 -0.35641825712E-01 -0.84948315513E-02  0.12886008240E+00  0.19483778644E-01 0.  0.
         14    1    1    2    0    0 -0.17027638606E-02  0.13910100833E-01 -0.22014734372E-01  0.26096720855E-01  0.00000000000E+00 0. -1.
     999901    1    3    3    0    0 -0.12029232334E+00  0.21731724879E-01  0.30509565923E-01  0.88897319675E+00  0.88000000000E+00 0.  1.
        -11    1    4    4    0    0  0.54284708283E-01 -0.58433794921E-02 -0.36233750064E-02  0.54720787683E-01  0.51100000000E-03 0. -1.
         11    1    4    4    0    0  0.67710378922E-01 -0.29798446220E-01 -0.48714565449E-02  0.74139294714E-01  0.51100000000E-03 0.  1.
</event>
<event>
 8    1  0.1044719E+005  0.1043930E+01  0.7957747E-01            NaN
         13   -1    0    0    0    0  0.00000000000E+00  0.00000000000E+00  0.74505805969E-08  0.10566000000E+00  0.10566000000E+00 0. -1.
     999900   -1    0    0    0    0 -0.00000000000E+00 -0.00000000000E+00 -0.74505805969E-08  0.93827000000E+00  0.93827000000E+00 0. -1.
     999902    2    1    2    0    0  0.15554602370E-01 -0.44190767884E-03 -0.18470788422E-01  0.10197781686E+01  0.10194921295E+01 0.  0.
     999903    2    3    3    0    0  0.55912929891E-01 -0.10126475958E+00  0.54152288007E-01  0.13013320943E+00  0.24927387320E-01 0.  0.
         14    1    1    2    0    0 -0.15554602370E-01  0.44190767884E-03  0.18470788422E-01  0.24151831446E-01  0.00000000000E+00 0. -1.
     999901    1    3    3    0    0 -0.40358327521E-01  0.10082285190E+00 -0.72623076429E-01  0.88964495912E+00  0.88000000000E+00 0. -1.
        -11    1    4    4    0    0  0.14905857261E-01 -0.43615661732E-01  0.11446572780E-01  0.47495217427E-01  0.51100000000E-03 0.  1.
         11    1    4    4    0    0  0.41007072630E-01 -0.57649097846E-01  0.42705715227E-01  0.82637992003E-01  0.51100000000E-03 0. -1.
</event>
<event>
 8    1  0.1044719E+005  0.1043930E+01  0.7957747E-01            NaN
         13   -1    0    0    0    0  0.00000000000E+00  0.00000000000E+00  0.74505805969E-08  0.10566000000E+00  0.10566000000E+00 0. -1.
     999900   -1    0    0    0    0 -0.00000000000E+00 -0.00000000000E+00 -0.74505805969E-08  0.93827000000E+00  0.93827000000E+00 0. -1.
     999902    2    1    2    0    0 -0.11232115077E-01 -0.50867402176E-02 -0.19907478711E-01  0.10205132743E+01  0.10202445785E+01 0.  0.
     999903    2    3    3    0    0  0.12618740863E+00  0.45243781389E-02 -0.22503260440E-01  0.12979264626E+00  0.19899803974E-01 0.  0.
         14    1    1    2    0    0  0.11232115077E-01  0.50867402176E-02  0.19907478711E-01  0.23416725727E-01  0.00000000000E+00 0. -1.
     999901    1    3    3    0    0 -0.13741952370E+00 -0.96111183565E-02  0.25957817288E-02  0.89072062802E+00  0.88000000000E+00 0. -1.
        -11    1    4    4    0    0  0.68855120590E-01  0.10679318438E-01 -0.17915047607E-01  0.71946407315E-01  0.51100000000E-03 0. -1.
         11    1    4    4    0    0  0.57332288037E-01 -0.61549402996E-02 -0.45882128334E-02  0.57846238941E-01  0.51100000000E-03 0.  1.
</event>
<event>
 8    1  0.1044719E+005  0.1043930E+01  0.7957747E-01            NaN
         13   -1    0    0    0    0  0.00000000000E+00  0.00000000000E+00  0.74505805969E-08  0.10566000000E+00  0.10566000000E+00 0.  1.
     999900   -1    0    0    0    0 -0.00000000000E+00 -0.00000000000E+00 -0.74505805969E-08  0.93827000000E+00  0.93827000000E+00 0.  1.
     999902    2    1    2    0    0  0.19222542414E-01 -0.13095434025E-01  0.69028849144E-02  0.10196679649E+01  0.10193792779E+01 0.  0.
     999903    2    3    3    0    0  0.11332451264E-01  0.40600570007E-01  0.12184001294E+00  0.13053577121E+00  0.20439375622E-01 0.  0.
         14    1    1    2    0    0 -0.19222542414E-01  0.13095434025E-01 -0.69028849144E-02  0.24262035144E-01  0.00000000000E+00 0.  1.
     999901    1    3    3    0    0  0.78900911496E-02 -0.53696004033E-01 -0.11493712802E+00  0.88913219365E+00  0.88000000000E+00 0.  1.
        -11    1    4    4    0    0 -0.50195446342E-02  0.15195207672E-01  0.32618105832E-01  0.36335824108E-01  0.51100000000E-03 0. -1.
         11    1    4    4    0    0  0.16351995899E-01  0.25405362336E-01  0.89221907103E-01  0.94199947098E-01  0.51100000000E-03 0.  1.
</event>
<event>
 8    1  0.1044719E+005  0.1043930E+01  0.7957747E-01            NaN
         13   -1    0    0    0    0  0.00000000000E+00  0.00000000000E+00  0.74505805969E-08  0.10566000000E+00  0.10566000000E+00 0.  1.
     999900   -1    0    0    0    0 -0.00000000000E+00 -0.00000000000E+00 -0.74505805969E-08  0.93827000000E+00  0.93827000000E+00 0. -1.
     999902    2    1    2    0    0  0.13780002317E-01 -0.20222553857E-01  0.19673531101E-02  0.10193798345E+01  0.10190841655E+01 0.  0.
     999903    2    3    3    0    0 -0.99011200118E-01  0.33166698867E-01 -0.70714153339E-01  0.12760919748E+00  0.19503028903E-01 0.  0.
         14    1    1    2    0    0 -0.13780002317E-01  0.20222553857E-01 -0.19673531101E-02  0.24550165511E-01  0.00000000000E+00 0.  1.
     999901    1    3    3    0    0  0.11279120243E+00 -0.53389252724E-01  0.72681506449E-01  0.89177063701E+00  0.88000000000E+00 0.  1.
        -11    1    4    4    0    0 -0.17164318695E-01 -0.80218976945E-03 -0.74989439634E-02  0.18755069348E-01  0.51100000000E-03 0.  1.
         11    1    4    4    0    0 -0.81846881423E-01  0.33968888636E-01 -0.63215209375E-01  0.10885412813E+00  0.51100000000E-03 0. -1.
</event>
<event>
 8    1  0.1044719E+005  0.1043930E+01  0.7957747E-01            NaN
         13   -1    0    0    0    0  0.00000000000E+00  0.00000000000E+00  0.74505805969E-08  0.10566000000E+00  0.10566000000E+00 0. -1.
     999900   -1    0    0    0    0 -0.00000000000E+00 -0.00000000000E+00 -0.74505805969E-08  0.93827000000E+00  0.93827000000E+00 0. -1.
     999902    2    1    2    0    0  0.15553174857E-01  0.58158450790E-02 -0.14919644955E-01  0.10216068930E+01  0.10213629730E+01 0.  0.
     999903    2    3    3    0    0 -0.83451099285E-01  0.79191797043E-01 -0.61204801794E-01  0.13181579817E+00  0.19848178630E-01 0.  0.
         14    1    1    2    0    0 -0.15553174857E-01 -0.58158450790E-02  0.14919644955E-01  0.22323107035E-01  0.00000000000E+00 0. -1.
     999901    1    3    3    0    0  0.99004274142E-01 -0.73375951964E-01  0.46285156838E-01  0.88979109479E+00  0.88000000000E+00 0.  1.
        -11    1    4    4    0    0 -0.53028683702E-01  0.61885686797E-01 -0.46651633509E-01  0.93906951583E-01  0.51100000000E-03 0.  1.
         11    1    4    4    0    0 -0.30422415584E-01  0.17306110246E-01 -0.14553168285E-01  0.37908846592E-01  0.51100000000E-03 0. -1.
</event>
<event>
 7    1  0.1044719E+005  0.1043930E+01  0.7957747E-01            NaN
         13   -1    0    0    0    0  0.00000000000E+00  0.00000000000E+00  0.74505805969E-08  0.10566000000E+00  0.10566000000E+00 0.  1.
     999900   -1    0    0    0    0 -0.00000000000E+00 -0.00000000000E+00 -0.74505805969E-08  0.93827000000E+00  0.93827000000E+00 0. -1.
     999903    2    1    2    0    0  0.34480017562E-01 -0.61369019969E-01  0.23359803243E-01  0.76705614927E-01  0.19571477479E-01 0.  0.
         14    1    1    2    0    0  0.76032245460E-02 -0.71335177535E-01 -0.25915342620E-01  0.76276612146E-01  0.00000000000E+00 0. -1.
     999901    1    1    2    0    0 -0.42083242108E-01  0.13270419750E+00  0.25555393778E-02  0.89094777293E+00  0.88000000000E+00 0. -1.
        -11    1    3    3    0    0  0.22704405444E-01 -0.52579978825E-01  0.23734909922E-01  0.61997994079E-01  0.51100000000E-03 0. -1.
         11    1    3    3    0    0  0.11775612118E-01 -0.87890411444E-02 -0.37510667952E-03  0.14707620848E-01  0.51100000000E-03 0.  1.
</event>
<event>
 8    1  0.1044719E+005  0.1043930E+01  0.7957747E-01            NaN
         13   -1    0    0    0    0  0.00000000000E+00  0.00000000000E+00  0.74505805969E-08  0.10566000000E+00  0.10566000000E+00 0. -1.
     999900   -1    0    0    0    0 -0.00000000000E+00 -0.00000000000E+00 -0.74505805969E-08  0.93827000000E+00  0.93827000000E+00 0. -1.
     999902    2    1    2    0    0 -0.18748690840E-01 -0.12247580501E-01  0.73245300500E-02  0.10203680524E+01  0.10200959744E+01 0.  0.
     999903    2    3    3    0    0  0.26145394586E-01 -0.10101090090E+00 -0.75910452073E-01  0.13086118436E+00  0.21805253520E-01 0.  0.
         14    1    1    2    0    0  0.18748690840E-01  0.12247580501E-01 -0.73245300500E-02  0.23561947645E-01  0.00000000000E+00 0. -1.
     999901    1    3    3    0    0 -0.44894085426E-01  0.88763320396E-01  0.83234982123E-01  0.88950686799E+00  0.88000000000E+00 0.  1.
        -11    1    4    4    0    0  0.11091732006E-01 -0.75811462092E-01 -0.60981351812E-01  0.97925434353E-01  0.51100000000E-03 0.  1.
         11    1    4    4    0    0  0.15053662580E-01 -0.25199438806E-01 -0.14929100261E-01  0.32935750011E-01  0.51100000000E-03 0. -1.
</event>
<event>
 7    1  0.1044719E+005  0.1043930E+01  0.7957747E-01            NaN
         13   -1    0    0    0    0  0.00000000000E+00  0.00000000000E+00  0.74505805969E-08  0.10566000000E+00  0.10566000000E+00 0.  1.
     999900   -1    0    0    0    0 -0.00000000000E+00 -0.00000000000E+00 -0.74505805969E-08  0.93827000000E+00  0.93827000000E+00 0. -1.
     999902    2    1    2    0    0  0.12457637083E-03 -0.24359692884E-02 -0.24083945406E-01  0.10197228545E+01  0.10194354880E+01 0.  0.
         14    1    1    2    0    0 -0.12457637083E-03  0.24359692884E-02  0.24083945406E-01  0.24207145473E-01  0.00000000000E+00 0.  1.
     999901    1    3    3    0    0 -0.16009792210E-01 -0.12467201028E+00  0.18905013415E-01  0.88913262404E+00  0.88000000000E+00 0.  1.
        -11    1    3    3    0    0  0.92246482265E-02  0.71791281790E-01 -0.26053052625E-01  0.76929220378E-01  0.51100000000E-03 0.  1.
         11    1    3    3    0    0  0.69097203543E-02  0.50444759204E-01 -0.16935906196E-01  0.53661010112E-01  0.51100000000E-03 0. -1.
</event>
<event>
 8    1  0.1044719E+005  0.1043930E+01  0.7957747E-01            NaN
         13   -1    0    0    0    0  0.00000000000E+00  0.00000000000E+00  0.74505805969E-08  0.10566000000E+00  0.10566000000E+00 0. -1.
     999900   -1    0    0    0    0 -0.00000000000E+00 -0.00000000000E+00 -0.74505805969E-08  0.93827000000E+00  0.93827000000E+00 0. -1.
     999902    2    1    2    0    0 -0.15760148790E-02 -0.49181018363E-02 -0.22895419337E-01  0.10204593423E+01  0.10201893929E+01 0.  0.
     999903    2    3    3    0    0  0.82635814105E-01 -0.99322829204E-01 -0.10677834056E-01  0.13132878149E+00  0.20964983504E-01 0.  0.
         14    1    1    2    0    0  0.15760148790E-02  0.49181018363E-02  0.22895419337E-01  0.23470657750E-01  0.00000000000E+00 0. -1.
     999901    1    3    3    0    0 -0.84211828984E-01  0.94404727367E-01 -0.12217585282E-01  0.88913056076E+00  0.88000000000E+00 0. -1.
        -11    1    4    4    0    0  0.76548212900E-01 -0.84568939018E-01 -0.43502462644E-02  0.11415217960E+00  0.51100000000E-03 0. -1.
         11    1    4    4    0    0  0.60876012055E-02 -0.14753890186E-01 -0.63275877911E-02  0.17176601885E-01  0.51100000000E-03 0.  1.
</event>
<event>
 8    1  0.1044719E+005  0.1043930E+01  0.7957747E-01            NaN
         13   -1    0    0    0    0  0.00000000000E+00  0.00000000000E+00  0.74505805969E-08  0.10566000000E+00  0.10566000000E+00 0.  1.
     999900   -1    0    0    0    0 -0.00000000000E+00 -0.00000000000E+00 -0.74505805969E-08  0.93827000000E+00  0.93827000000E+00 0. -1.
     999902    2    1    2    0    0 -0.20856472877E-01 -0.97792924592E-02 -0.62519880331E-02  0.10200613097E+01  0.10197820165E+01 0.  0.
     999903    2    3    3    0    0  0.51477866425E-01 -0.87646019802E-01 -0.78152481164E-01  0.13075530794E+00  0.25638734824E-01 0.  0.
         14    1    1    2    0    0  0.20856472877E-01  0.97792924592E-02  0.62519880331E-02  0.23868690292E-01  0.00000000000E+00 0. -1.
     999901    1    3    3    0    0 -0.72334339302E-01  0.77866727343E-01  0.71900493131E-01  0.88930600177E+00  0.88000000000E+00 0.  1.
        -11    1    4    4    0    0  0.30918787173E-01 -0.53299939678E-01 -0.62508279383E-01  0.87774717785E-01  0.51100000000E-03 0.  1.
         11    1    4    4    0    0  0.20559079253E-01 -0.34346080124E-01 -0.15644201781E-01  0.42980590154E-01  0.51100000000E-03 0. -1.
</event>
<event>
 8    1  0.1044719E+005  0.1043930E+01  0.7957747E-01            NaN
         13   -1    0    0    0    0  0.00000000000E+00  0.00000000000E+00  0.74505805969E-08  0.10566000000E+00  0.10566000000E+00 0. -1.
     999900   -1    0    0    0    0 -0.00000000000E+00 -0.00000000000E+00 -0.74505805969E-08  0.93827000000E+00  0.93827000000E+00 0.  1.
     999902    2    1    2    0    0  0.12573907035E-01 -0.15769419068E-01  0.12097821869E-01  0.10204111775E+01  0.10201401062E+01 0.  0.
     999903    2    3    3    0    0 -0.31789935577E-01  0.11595883283E+00 -0.38767017456E-01  0.12805042383E+00  0.20904030374E-01 0.  0.
         14    1    1    2    0    0 -0.12573907035E-01  0.15769419068E-01 -0.12097821869E-01  0.23518822459E-01  0.00000000000E+00 0.  1.
     999901    1    3    3    0    0  0.44363842613E-01 -0.13172825190E+00  0.50864839326E-01  0.89236075371E+00  0.88000000000E+00 0.  1.
        -11    1    4    4    0    0 -0.49504089525E-02  0.49595794987E-01 -0.96594339387E-02  0.50772189377E-01  0.51100000000E-03 0.  1.
         11    1    4    4    0    0 -0.26839526625E-01  0.66363037844E-01 -0.29107583517E-01  0.77278234455E-01  0.51100000000E-03 0. -1.
</event>
<event>
 8    1  0.1044719E+005  0.1043930E+01  0.7957747E-01            NaN
         13   -1    0    0    0    0  0.00000000000E+00  0.00000000000E+00  0.74505805969E-08  0.10566000000E+00  0.10566000000E+00 0. -1.
     999900   -1    0    0    0    0 -0.00000000000E+00 -0.00000000000E+00 -0.74505805969E-08  0.93827000000E+00  0.93827000000E+00 0.  1.
     999902    2    1    2    0    0 -0.19969761193E-01  0.91290561549E-02  0.96289693318E-02  0.10199540104E+01  0.10196721705E+01 0.  0.
     999903    2    3    3    0    0 -0.70328144030E-01 -0.37304164813E-01 -0.10133684164E+00  0.13034430835E+00  0.19566161854E-01 0.  0.
         14    1    1    2    0    0  0.19969761193E-01 -0.91290561549E-02 -0.96289693318E-02  0.23975989630E-01  0.00000000000E+00 0.  1.
     999901    1    3    3    0    0  0.50358382837E-01  0.46433220968E-01  0.11096581097E+00  0.88960970202E+00  0.88000000000E+00 0. -1.
        -11    1    4    4    0    0 -0.16072204663E-01 -0.15778431318E-02 -0.28369009741E-01  0.32647621450E-01  0.51100000000E-03 0. -1.
         11    1    4    4    0    0 -0.54255939366E-01 -0.35726321682E-01 -0.72967831898E-01  0.97696686895E-01  0.51100000000E-03 0.  1.
</event>
<event>
 8    1  0.1044719E+005  0.1043930E+01  0.7957747E-01            NaN
         13   -1    0    0    0    0  0.00000000000E+00  0.00000000000E+00  0.74505805969E-08  0.10566000000E+00  0.10566000000E+00 0.  1.
     999900   -1    0    0    0    0 -0.00000000000E+00 -0.00000000000E+00 -0.74505805969E-08  0.93827000000E+00  0.93827000000E+00 0. -1.
     999902    2    1    2    0    0  0.49602154549E-03  0.22283836284E-01  0.85213206233E-02  0.10200673031E+01  0.10197881518E+01 0.  0.
     999903    2    3    3    0    0  0.34928309886E-01 -0.68298923459E-01 -0.10054193761E+00  0.12805518822E+00  0.20117659744E-01 0.  0.
         14    1    1    2    0    0 -0.49602154549E-03 -0.22283836284E-01 -0.85213206233E-02  0.23862696874E-01  0.00000000000E+00 0. -1.
     999901    1    3    3    0    0 -0.34432288341E-01  0.90582759743E-01  0.10906325824E+00  0.89201211491E+00  0.88000000000E+00 0. -1.
        -11    1    4    4    0    0  0.17684928455E-01 -0.14963506129E-01 -0.26854344207E-01  0.35469425339E-01  0.51100000000E-03 0.  1.
         11    1    4    4    0    0  0.17243381431E-01 -0.53335417331E-01 -0.73687593407E-01  0.92585762880E-01  0.51100000000E-03 0. -1.
</event>
<event>
 8    1  0.1044719E+005  0.1043930E+01  0.7957747E-01            NaN
         13   -1    0    0    0    0  0.00000000000E+00  0.00000000000E+00  0.74505805969E-08  0.10566000000E+00  0.10566000000E+00 0.  1.
     999900   -1    0    0    0    0 -0.00000000000E+00 -0.00000000000E+00 -0.74505805969E-08  0.93827000000E+00  0.93827000000E+00 0. -1.
     999902    2    1    2    0    0 -0.53508174929E-02  0.57654915994E-02  0.19564516637E-01  0.10228434533E+01  0.10226260741E+01 0.  0.
     999903    2    3    3    0    0 -0.11059222005E+00  0.67135037395E-01  0.30592315357E-01  0.13438209435E+00  0.19618999498E-01 0.  0.
         14    1    1    2    0    0  0.53508174929E-02 -0.57654915994E-02 -0.19564516637E-01  0.21086546718E-01  0.00000000000E+00 0. -1.
     999901    1    3    3    0    0  0.10524140256E+00 -0.61369545796E-01 -0.11027798720E-01  0.88846135893E+00  0.88000000000E+00 0.  1.
        -11    1    4    4    0    0 -0.63658334456E-01  0.27396048146E-01  0.14379732999E-01  0.70781105119E-01  0.51100000000E-03 0.  1.
         11    1    4    4    0    0 -0.46933885599E-01  0.39738989249E-01  0.16212582358E-01  0.63600989235E-01  0.51100000000E-03 0. -1.
</event>
<event>
 8    1  0.1044719E+005  0.1043930E+01  0.7957747E-01            NaN
         13   -1    0    0    0    0  0.00000000000E+00  0.00000000000E+00  0.74505805969E-08  0.10566000000E+00  0.10566000000E+00 0. -1.
     999900   -1    0    0    0    0 -0.00000000000E+00 -0.00000000000E+00 -0.74505805969E-08  0.93827000000E+00  0.93827000000E+00 0. -1.
     999902    2    1    2    0    0  0.13388696350E-02 -0.24153882952E-01  0.11342769578E-01  0.10172118216E+01  0.10168608700E+01 0.  0.
     999903    2    3    3    0    0  0.20842897464E-01  0.13246508563E-01  0.12488402730E+00  0.12891524189E+00  0.20327886088E-01 0.  0.
         14    1    1    2    0    0 -0.13388696350E-02  0.24153882952E-01 -0.11342769578E-01  0.26718178367E-01  0.00000000000E+00 0.  1.
     999901    1    3    3    0    0 -0.19504027829E-01 -0.37400391515E-01 -0.11354125772E+00  0.88829657975E+00  0.88000000000E+00 0. -1.
        -11    1    4    4    0    0 -0.28775939794E-02  0.67257582957E-02  0.25828040097E-01  0.26848931972E-01  0.51100000000E-03 0.  1.
         11    1    4    4    0    0  0.23720491444E-01  0.65207502672E-02  0.99055987199E-01  0.10206630991E+00  0.51100000000E-03 0. -1.
</event>
<event>
 8    1  0.1044719E+005  0.1043930E+01  0.7957747E-01            NaN
         13   -1    0    0    0    0  0.00000000000E+00  0.00000000000E+00  0.74505805969E-08  0.10566000000E+00  0.10566000000E+00 0.  1.
     999900   -1    0    0    0    0 -0.00000000000E+00 -0.00000000000E+00 -0.74505805969E-08  0.93827000000E+00  0.93827000000E+00 0.  1.
     999902    2    1    2    0    0 -0.10282145037E-01 -0.18814194214E-02 -0.19834336121E-01  0.10215098498E+01  0.10212637809E+01 0.  0.
     999903    2    3    3    0    0 -0.89906379544E-01  0.90531725105E-01  0.26659416807E-01  0.13187965862E+00  0.20059150521E-01 0.  0.
         14    1    1    2    0    0  0.10282145037E-01  0.18814194214E-02  0.19834336121E-01  0.22420150199E-01  0.00000000000E+00 0.  1.
     999901    1    3    3    0    0  0.79624234507E-01 -0.92413144526E-01 -0.46493752928E-01  0.88963019118E+00  0.88000000000E+00 0. -1.
        -11    1    4    4    0    0 -0.56463635370E-01  0.64157903102E-01  0.25801759697E-01  0.89276931926E-01  0.51100000000E-03 0.  1.
         11    1    4    4    0    0 -0.33442744174E-01  0.26373822003E-01  0.85765711021E-03  0.42602726692E-01  0.51100000000E-03 0. -1.
</event>
<event>
 8    1  0.1044719E+005  0.1043930E+01  0.7957747E-01            NaN
         13   -1    0    0    0    0  0.00000000000E+00  0.00000000000E+00  0.74505805969E-08  0.10566000000E+00  0.10566000000E+00 0. -1.
     999900   -1    0    0    0    0 -0.00000000000E+00 -0.00000000000E+00 -0.74505805969E-08  0.93827000000E+00  0.93827000000E+00 0. -1.
     999902    2    1    2    0    0 -0.10080287461E-01 -0.18455909982E-01 -0.83431982300E-02  0.10213060798E+01  0.10210554671E+01 0.  0.
     999903    2    3    3    0    0  0.16837764375E-01  0.75364637850E-01  0.10148741524E+00  0.12912356463E+00  0.20245012816E-01 0.  0.
         14    1    1    2    0    0  0.10080287461E-01  0.18455909982E-01  0.83431982300E-02  0.22623920201E-01  0.00000000000E+00 0.  1.
     999901    1    3    3    0    0 -0.26918051836E-01 -0.93820547832E-01 -0.10983061347E+00  0.89218251516E+00  0.88000000000E+00 0. -1.
        -11    1    4    4    0    0  0.11710786827E-01  0.38907231836E-01  0.68718826881E-01  0.79833912006E-01  0.51100000000E-03 0. -1.
         11    1    4    4    0    0  0.51269775479E-02  0.36457406014E-01  0.32768588361E-01  0.49289652628E-01  0.51100000000E-03 0.  1.
</event>
<event>
 8    1  0.1044719E+005  0.1043930E+01  0.7957747E-01            NaN
         13   -1    0    0    0    0  0.00000000000E+00  0.00000000000E+00  0.74505805969E-08  0.10566000000E+00  0.10566000000E+00 0. -1.
     999900   -1    0    0    0    0 -0.00000000000E+00 -0.00000000000E+00 -0.74505805969E-08  0.93827000000E+00  0.93827000000E+00 0.  1.
     999902    2    1    2    0    0 -0.54479730096E-02 -0.91402314587E-02 -0.21340114765E-01  0.10200841463E+01  0.10198053936E+01 0.  0.
     999903    2    3    3    0    0 -0.10537955925E+00 -0.40393695494E-01 -0.66696881314E-01  0.13271706485E+00  0.20708529216E-01 0.  0.
         14    1    1    2    0    0  0.54479730096E-02  0.91402314587E-02  0.21340114765E-01  0.23845853711E-01  0.00000000000E+00 0. -1.
     999901    1    3    3    0    0  0.99931586244E-01  0.31253464035E-01  0.45356766550E-01  0.88736708144E+00  0.88000000000E+00 0. -1.
        -11    1    4    4    0    0 -0.53748765687E-01 -0.26926477004E-01 -0.45085667585E-01  0.75146147734E-01  0.51100000000E-03 0.  1.
         11    1    4    4    0    0 -0.51630793566E-01 -0.13467218490E-01 -0.21611213729E-01  0.57570917120E-01  0.51100000000E-03 0. -1.
</event>
<event>
 8    1  0.1044719E+005  0.1043930E+01  0.7957747E-01            NaN
         13   -1    0    0    0    0  0.00000000000E+00  0.00000000000E+00  0.74505805969E-08  0.10566000000E+00  0.10566000000E+00 0.  1.
     999900   -1    0    0    0    0 -0.00000000000E+00 -0.00000000000E+00 -0.74505805969E-08  0.93827000000E+00  0.93827000000E+00 0. -1.
     999902    2    1    2    0    0 -0.87415881994E-02  0.20985934513E-01 -0.86914168749E-02  0.10195914393E+01  0.10193009062E+01 0.  0.
     999903    2    3    3    0    0 -0.38334529769E-01 -0.10657822780E-01  0.12067141989E+00  0.12907933204E+00  0.22732290307E-01 0.  0.
         14    1    1    2    0    0  0.87415881994E-02 -0.20985934513E-01  0.86914168749E-02  0.24338560741E-01  0.00000000000E+00 0. -1.
     999901    1    3    3    0    0  0.29592941570E-01  0.31643757293E-01 -0.12936283677E+00  0.89051210722E+00  0.88000000000E+00 0. -1.
        -11    1    4    4    0    0 -0.15956834986E-02 -0.23323670406E-02  0.22743648920E-03  0.28807967989E-02  0.51100000000E-03 0.  1.
         11    1    4    4    0    0 -0.36738846270E-01 -0.83254557390E-02  0.12044398340E+00  0.12619853524E+00  0.51100000000E-03 0. -1.
</event>
<event>
 8    1  0.1044719E+005  0.1043930E+01  0.7957747E-01            NaN
         13   -1    0    0    0    0  0.00000000000E+00  0.00000000000E+00  0.74505805969E-08  0.10566000000E+00  0.10566000000E+00 0.  1.
     999900   -1    0    0    0    0 -0.00000000000E+00 -0.00000000000E+00 -0.74505805969E-08  0.93827000000E+00  0.93827000000E+00 0.  1.
     999902    2    1    2    0    0  0.15498625477E-01  0.34193773731E-02 -0.18430335843E-01  0.10196076479E+01  0.10193175064E+01 0.  0.
     999903    2    3    3    0    0 -0.35651672407E-01 -0.13126488469E-01 -0.12437242107E+00  0.13162462773E+00  0.20327249129E-01 0.  0.
         14    1    1    2    0    0 -0.15498625477E-01 -0.34193773731E-02  0.18430335843E-01  0.24322352118E-01  0.00000000000E+00 0.  1.
     999901    1    3    3    0    0  0.51150297883E-01  0.16545865842E-01  0.10594208523E+00  0.88798302015E+00  0.88000000000E+00 0. -1.
        -11    1    4    4    0    0 -0.21828943868E-02  0.14759481334E-02 -0.34663978981E-01  0.34767743824E-01  0.51100000000E-03 0. -1.
         11    1    4    4    0    0 -0.33468778020E-01 -0.14602436603E-01 -0.89708442092E-01  0.96856883908E-01  0.51100000000E-03 0.  1.
</event>
<event>
 8    1  0.1044719E+005  0.1043930E+01  0.7957747E-01            NaN
         13   -1    0    0    0    0  0.00000000000E+00  0.00000000000E+00  0.74505805969E-08  0.10566000000E+00  0.10566000000E+00 0.  1.
     999900   -1    0    0    0    0 -0.00000000000E+00 -0.00000000000E+00 -0.74505805969E-08  0.93827000000E+00  0.93827000000E+00 0. -1.
     999902    2    1    2    0    0  0.15588337055E-01 -0.66354513964E-02 -0.16501689188E-01  0.10202798158E+01  0.10200056722E+01 0.  0.
     999903    2    3    3    0    0 -0.78255403635E-01  0.55546318795E-01 -0.85728462113E-01  0.13041152986E+00  0.21177728243E-01 0.  0.
         14    1    1    2    0    0 -0.15588337055E-01  0.66354513964E-02  0.16501689188E-01  0.23650184215E-01  0.00000000000E+00 0. -1.
     999901    1    3    3    0    0  0.93843740690E-01 -0.62181770191E-01  0.69226772925E-01  0.88986828593E+00  0.88000000000E+00 0.  1.
        -11    1    4    4    0    0 -0.66365465067E-01  0.45656769873E-01 -0.80985907764E-01  0.11422737836E+00  0.51100000000E-03 0.  1.
         11    1    4    4    0    0 -0.11889938569E-01  0.98895489215E-02 -0.47425543489E-02  0.16184151501E-01  0.51100000000E-03 0. -1.
</event>
<event>
 8    1  0.1044719E+005  0.1043930E+01  0.7957747E-01            NaN
         13   -1    0    0    0    0  0.00000000000E+00  0.00000000000E+00  0.74505805969E-08  0.10566000000E+00  0.10566000000E+00 0. -1.
     999900   -1    0    0    0    0 -0.00000000000E+00 -0.00000000000E+00 -0.74505805969E-08  0.93827000000E+00  0.93827000000E+00 0. -1.
     999902    2    1    2    0    0 -0.11370339578E-02  0.21099224633E-01 -0.12175610489E-01  0.10195432081E+01  0.10192515085E+01 0.  0.
     999903    2    3    3    0    0  0.79897932084E-02  0.13016323692E+00 -0.15074389734E-01  0.13275875819E+00  0.19782457106E-01 0.  0.
         14    1    1    2    0    0  0.11370339578E-02 -0.21099224633E-01  0.12175610489E-01  0.24386791857E-01  0.00000000000E+00 0. -1.
     999901    1    3    3    0    0 -0.91268271662E-02 -0.10906401229E+00  0.28987792455E-02  0.88678444995E+00  0.88000000000E+00 0. -1.
        -11    1    4    4    0    0 -0.38114603972E-02  0.75229559505E-02  0.99571311400E-03  0.85073299100E-02  0.51100000000E-03 0.  1.
         11    1    4    4    0    0  0.11801253606E-01  0.12264028097E+00 -0.16070102848E-01  0.12425142828E+00  0.51100000000E-03 0. -1.
</event>
<event>
 8    1  0.1044719E+005  0.1043930E+01  0.7957747E-01            NaN
         13   -1    0    0    0    0  0.00000000000E+00  0.00000000000E+00  0.74505805969E-08  0.10566000000E+00  0.10566000000E+00 0. -1.
     999900   -1    0    0    0    0 -0.00000000000E+00 -0.00000000000E+00 -0.74505805969E-08  0.93827000000E+00  0.93827000000E+00 0. -1.
     999902    2    1    2    0    0 -0.23846025172E-01  0.33440381838E-02 -0.15845180565E-02  0.10197985640E+01  0.10195130136E+01 0.  0.
     999903    2    3    3    0    0  0.43230568704E-01 -0.74731828604E-01 -0.93710306967E-01  0.12902234548E+00  0.20283385454E-01 0.  0.
         14    1    1    2    0    0  0.23846025172E-01 -0.33440381838E-02  0.15845180565E-02  0.24131436040E-01  0.00000000000E+00 0. -1.
     999901    1    3    3    0    0 -0.67076593875E-01  0.78075866787E-01  0.92125788911E-01  0.89077621848E+00  0.88000000000E+00 0.  1.
        -11    1    4    4    0    0  0.41792838466E-01 -0.59174177374E-01 -0.70881005567E-01  0.10135384890E+00  0.51100000000E-03 0.  1.
         11    1    4    4    0    0  0.14377302382E-02 -0.15557651230E-01 -0.22829301400E-01  0.27668496588E-01  0.51100000000E-03 0. -1.
</event>
<event>
 8    1  0.1044719E+005  0.1043930E+01  0.7957747E-01            NaN
         13   -1    0    0    0    0  0.00000000000E+00  0.00000000000E+00  0.74505805969E-08  0.10566000000E+00  0.10566000000E+00 0. -1.
     999900   -1    0    0    0    0 -0.00000000000E+00 -0.00000000000E+00 -0.74505805969E-08  0.93827000000E+00  0.93827000000E+00 0. -1.
     999902    2    1    2    0    0 -0.19541524277E-01 -0.10882536769E-01  0.64559494777E-02  0.10206495348E+01  0.10203839928E+01 0.  0.
     999903    2    3    3    0    0 -0.56684155260E-01 -0.21195994408E-01  0.11664767308E+00  0.13294003364E+00  0.20099981903E-01 0.  0.
         14    1    1    2    0    0  0.19541524277E-01  0.10882536769E-01 -0.64559494777E-02  0.23280465228E-01  0.00000000000E+00 0.  1.
     999901    1    3    3    0    0  0.37142630983E-01  0.10313457639E-01 -0.11019172361E+00  0.88770950113E+00  0.88000000000E+00 0. -1.
        -11    1    4    4    0    0 -0.15071929506E-01 -0.56184414541E-02  0.14981025325E-01  0.21986863901E-01  0.51100000000E-03 0. -1.
         11    1    4    4    0    0 -0.41612225754E-01 -0.15577552954E-01  0.10166664776E+00  0.11095316974E+00  0.51100000000E-03 0.  1.
</event>
<event>
 8    1  0.1044719E+005  0.1043930E+01  0.7957747E-01            NaN
         13   -1    0    0    0    0  0.00000000000E+00  0.00000000000E+00  0.74505805969E-08  0.10566000000E+00  0.10566000000E+00 0. -1.
     999900   -1    0    0    0    0 -0.00000000000E+00 -0.00000000000E+00 -0.74505805969E-08  0.93827000000E+00  0.93827000000E+00 0.  1.
     999902    2    1    2    0    0  0.16761062736E-01  0.43882672974E-02 -0.15943582574E-01  0.10203845559E+01  0.10201128633E+01 0.  0.
     999903    2    3    3    0    0 -0.12804586432E-02  0.11257471070E+00 -0.66706741169E-01  0.13212406407E+00  0.18228382422E-01 0.  0.
         14    1    1    2    0    0 -0.16761062736E-01 -0.43882672974E-02  0.15943582574E-01  0.23545444129E-01  0.00000000000E+00 0. -1.
     999901    1    3    3    0    0  0.18041521379E-01 -0.10818644340E+00  0.50763158595E-01  0.88826049180E+00  0.88000000000E+00 0. -1.
        -11    1    4    4    0    0 -0.18925115285E-02  0.78272786884E-01 -0.55708600348E-01  0.96093288216E-01  0.51100000000E-03 0. -1.
         11    1    4    4    0    0  0.61205288528E-03  0.34301923812E-01 -0.10998140821E-01  0.36030775852E-01  0.51100000000E-03 0.  1.
</event>
<event>
 8    1  0.1044719E+005  0.1043930E+01  0.7957747E-01            NaN
         13   -1    0    0    0    0  0.00000000000E+00  0.00000000000E+00  0.74505805969E-08  0.10566000000E+00  0.10566000000E+00 0. -1.
     999900   -1    0    0    0    0 -0.00000000000E+00 -0.00000000000E+00 -0.74505805969E-08  0.93827000000E+00  0.93827000000E+00 0.  1.
     999902    2    1    2    0    0  0.18768038599E-01  0.10323314653E-01  0.89029115449E-02  0.10207336224E+01  0.10204700172E+01 0.  0.
     999903    2    3    3    0    0  0.11623996540E+00 -0.51800928088E-01  0.32651020733E-01  0.13285740880E+00  0.19746802542E-01 0.  0.
         14    1    1    2    0    0 -0.18768038599E-01 -0.10323314653E-01 -0.89029115449E-02  0.23196377567E-01  0.00000000000E+00 0.  1.
     999901    1    3    3    0    0 -0.97471926800E-01  0.62124242741E-01 -0.23748109188E-01  0.88787621364E+00  0.88000000000E+00 0.  1.
        -11    1    4    4    0    0  0.94366829263E-01 -0.33914613647E-01  0.22038353820E-01  0.10267058802E+00  0.51100000000E-03 0. -1.
         11    1    4    4    0    0  0.21873136136E-01 -0.17886314441E-01  0.10612666913E-01  0.30186820779E-01  0.51100000000E-03 0.  1.
</event>
<event>
 8    1  0.1044719E+005  0.1043930E+01  0.7957747E-01            NaN
         13   -1    0    0    0    0  0.00000000000E+00  0.00000000000E+00  0.74505805969E-08  0.10566000000E+00  0.10566000000E+00 0.  1.
     999900   -1    0    0    0    0 -0.00000000000E+00 -0.00000000000E+00 -0.74505805969E-08  0.93827000000E+00  0.93827000000E+00 0.  1.
     999902    2    1    2    0    0 -0.14535075495E-01  0.16318495638E-01  0.80809722996E-02  0.10206305615E+01  0.10203645816E+01 0.  0.
     999903    2    3    3    0    0  0.86557411451E-01 -0.90101451504E-01  0.21235591794E-01  0.12837614710E+00  0.20470167186E-01 0.  0.
         14    1    1    2    0    0  0.14535075495E-01 -0.16318495638E-01 -0.80809722996E-02  0.23299438466E-01  0.00000000000E+00 0. -1.
     999901    1    3    3    0    0 -0.10109248695E+00  0.10641994714E+00 -0.13154619494E-01  0.89225441444E+00  0.88000000000E+00 0. -1.
        -11    1    4    4    0    0  0.40196132536E-01 -0.45190391665E-01  0.20370173902E-01  0.63820887454E-01  0.51100000000E-03 0. -1.
         11    1    4    4    0    0  0.46361278915E-01 -0.44911059839E-01  0.86541789225E-03  0.64555259643E-01  0.51100000000E-03 0.  1.
</event>
<event>
 8    1  0.1044719E+005  0.1043930E+01  0.7957747E-01            NaN
         13   -1    0    0    0    0  0.00000000000E+00  0.00000000000E+00  0.74505805969E-08  0.10566000000E+00  0.10566000000E+00 0.  1.
     999900   -1    0    0    0    0 -0.00000000000E+00 -0.00000000000E+00 -0.74505805969E-08  0.93827000000E+00  0.93827000000E+00 0.  1.
     999902    2    1    2    0    0 -0.13369229291E-01  0.51995219223E-02 -0.18549945713E-01  0.10204806545E+01  0.10202112008E+01 0.  0.
     999903    2    3    3    0    0  0.38980174494E-01  0.11932637342E+00 -0.33604121190E-01  0.13144070795E+00  0.19727781089E-01 0.  0.
         14    1    1    2    0    0  0.13369229291E-01 -0.51995219223E-02  0.18549945713E-01  0.23449345534E-01  0.00000000000E+00 0. -1.
     999901    1    3    3    0    0 -0.52349403785E-01 -0.11412685150E+00  0.15054175477E-01  0.88903994652E+00  0.88000000000E+00 0.  1.
        -11    1    4    4    0    0  0.37964347058E-01  0.10538141481E+00 -0.24240898955E-01  0.11460548215E+00  0.51100000000E-03 0. -1.
         11    1    4    4    0    0  0.10158274358E-02  0.13944958609E-01 -0.93632222353E-02  0.16835225796E-01  0.51100000000E-03 0.  1.
</event>
<event>
 8    1  0.1044719E+005  0.1043930E+01  0.7957747E-01            NaN
         13   -1    0    0    0    0  0.00000000000E+00  0.00000000000E+00  0.74505805969E-08  0.10566000000E+00  0.10566000000E+00 0.  1.
     999900   -1    0    0    0    0 -0.00000000000E+00 -0.00000000000E+00 -0.74505805969E-08  0.93827000000E+00  0.93827000000E+00 0.  1.
     999902    2    1    2    0    0  0.40264213219E-03  0.17324606634E-01 -0.17934040768E-01  0.10189913967E+01  0.10186861797E+01 0.  0.
     999903    2    3    3    0    0 -0.49526492010E-01  0.11575203212E+00  0.29050017463E-01  0.13085380700E+00  0.20673871018E-01 0.  0.
         14    1    1    2    0    0 -0.40264213219E-03 -0.17324606634E-01  0.17934040768E-01  0.24938603288E-01  0.00000000000E+00 0.  1.
     999901    1    3    3    0    0  0.49929134143E-01 -0.98427425483E-01 -0.46984058231E-01  0.88813758971E+00  0.88000000000E+00 0. -1.
        -11    1    4    4    0    0 -0.24508678759E-01  0.60693687277E-01  0.25575008885E-01  0.70276178114E-01  0.51100000000E-03 0. -1.
         11    1    4    4    0    0 -0.25017813251E-01  0.55058344840E-01  0.34750085775E-02  0.60577628890E-01  0.51100000000E-03 0.  1.
</event>
<event>
 8    1  0.1044719E+005  0.1043930E+01  0.7957747E-01            NaN
         13   -1    0    0    0    0  0.00000000000E+00  0.00000000000E+00  0.74505805969E-08  0.10566000000E+00  0.10566000000E+00 0.  1.
     999900   -1    0    0    0    0 -0.00000000000E+00 -0.00000000000E+00 -0.74505805969E-08  0.93827000000E+00  0.93827000000E+00 0.  1.
     999902    2    1    2    0    0 -0.12160978627E-01  0.10820683192E-01 -0.28048754942E-01  0.10114999331E+01  0.10109799233E+01 0.  0.
     999903    2    3    3    0    0 -0.37930517591E-01  0.22739355077E-01 -0.11695739775E+00  0.12656441530E+00  0.19588667629E-01 0.  0.
         14    1    1    2    0    0  0.12160978627E-01 -0.10820683192E-01  0.28048754942E-01  0.32430066908E-01  0.00000000000E+00 0.  1.
     999901    1    3    3    0    0  0.25769538964E-01 -0.11918671886E-01  0.88908642804E-01  0.88493551779E+00  0.88000000000E+00 0. -1.
        -11    1    4    4    0    0 -0.10949598551E-01  0.17292221248E-02 -0.12824581504E-01  0.16959213700E-01  0.51100000000E-03 0. -1.
         11    1    4    4    0    0 -0.26980919040E-01  0.21010132953E-01 -0.10413281624E+00  0.10960520160E+00  0.51100000000E-03 0.  1.
</event>
<event>
 8    1  0.1044719E+005  0.1043930E+01  0.7957747E-01            NaN
         13   -1    0    0    0    0  0.00000000000E+00  0.00000000000E+00  0.74505805969E-08  0.10566000000E+00  0.10566000000E+00 0.  1.
     999900   -1    0    0    0    0 -0.00000000000E+00 -0.00000000000E+00 -0.74505805969E-08  0.93827000000E+00  0.93827000000E+00 0. -1.
     999902    2    1    2    0    0 -0.66841875864E-02 -0.18859926564E-01  0.14133576477E-01  0.10194323842E+01  0.10191379950E+01 0.  0.
     999903    2    3    3    0    0 -0.94515670378E-01  0.82519669005E-01 -0.20112598383E-01  0.12860973508E+00  0.19830270408E-01 0.  0.
         14    1    1    2    0    0  0.66841875864E-02  0.18859926564E-01 -0.14133576477E-01  0.24497615756E-01  0.00000000000E+00 0. -1.
     999901    1    3    3    0    0  0.87831482792E-01 -0.10137959557E+00  0.34246174860E-01  0.89082264916E+00  0.88000000000E+00 0.  1.
        -11    1    4    4    0    0 -0.28831345737E-01  0.18488766338E-01  0.17862649940E-02  0.34300624504E-01  0.51100000000E-03 0. -1.
         11    1    4    4    0    0 -0.65684324641E-01  0.64030902667E-01 -0.21898863377E-01  0.94309110579E-01  0.51100000000E-03 0.  1.
</event>
<event>
 8    1  0.1044719E+005  0.1043930E+01  0.7957747E-01            NaN
         13   -1    0    0    0    0  0.00000000000E+00  0.00000000000E+00  0.74505805969E-08  0.10566000000E+00  0.10566000000E+00 0. -1.
     999900   -1    0    0    0    0 -0.00000000000E+00 -0.00000000000E+00 -0.74505805969E-08  0.93827000000E+00  0.93827000000E+00 0.  1.
     999902    2    1    2    0    0  0.10275069713E-01 -0.84709694039E-02  0.18508196219E-01  0.10211289538E+01  0.10208743569E+01 0.  0.
     999903    2    3    3    0    0  0.96140868022E-01 -0.85747116623E-01  0.29117307948E-01  0.13351581088E+00  0.19570887028E-01 0.  0.
         14    1    1    2    0    0 -0.10275069713E-01  0.84709694039E-02 -0.18508196219E-01  0.22801046194E-01  0.00000000000E+00 0.  1.
     999901    1    3    3    0    0 -0.85865798309E-01  0.77276147219E-01 -0.10609111729E-01  0.88761314293E+00  0.88000000000E+00 0. -1.
        -11    1    4    4    0    0  0.50357245050E-01 -0.38554927780E-01  0.55490923364E-02  0.63666224420E-01  0.51100000000E-03 0. -1.
         11    1    4    4    0    0  0.45783622972E-01 -0.47192188843E-01  0.23568215611E-01  0.69849586458E-01  0.51100000000E-03 0.  1.
</event>
<event>
 8    1  0.1044719E+005  0.1043930E+01  0.7957747E-01            NaN
         13   -1    0    0    0    0  0.00000000000E+00  0.00000000000E+00  0.74505805969E-08  0.10566000000E+00  0.10566000000E+00 0. -1.
     999900   -1    0    0    0    0 -0.00000000000E+00 -0.00000000000E+00 -0.74505805969E-08  0.93827000000E+00  0.93827000000E+00 0. -1.
     999902    2    1    2    0    0 -0.11715590119E-01  0.26231626495E-02 -0.20480933250E-01  0.10201896407E+01  0.10199133778E+01 0.  0.
     999903    2    3    3    0    0 -0.10099464935E+00 -0.26865314225E-01 -0.78450378744E-01  0.13328447252E+00  0.26241653617E-01 0.  0.
         14    1    1    2    0    0  0.11715590119E-01 -0.26231626495E-02  0.20480933250E-01  0.23740359326E-01  0.00000000000E+00 0. -1.
     999901    1    3    3    0    0  0.89279059231E-01  0.29488476874E-01  0.57969445494E-01  0.88690516815E+00  0.88000000000E+00 0.  1.
        -11    1    4    4    0    0 -0.40809982900E-01 -0.41387669867E-02 -0.44565839939E-01  0.60571934978E-01  0.51100000000E-03 0.  1.
         11    1    4    4    0    0 -0.60184666449E-01 -0.22726547238E-01 -0.33884538805E-01  0.72712537543E-01  0.51100000000E-03 0. -1.
</event>
<event>
 8    1  0.1044719E+005  0.1043930E+01  0.7957747E-01            NaN
         13   -1    0    0    0    0  0.00000000000E+00  0.00000000000E+00  0.74505805969E-08  0.10566000000E+00  0.10566000000E+00 0. -1.
     999900   -1    0    0    0    0 -0.00000000000E+00 -0.00000000000E+00 -0.74505805969E-08  0.93827000000E+00  0.93827000000E+00 0.  1.
     999902    2    1    2    0    0  0.14184639728E-01 -0.16785061904E-01  0.10425165012E-01  0.10196066291E+01  0.10193164630E+01 0.  0.
     999903    2    3    3    0    0  0.95026254515E-02 -0.78526486724E-01 -0.10215530124E+00  0.13027638323E+00  0.16718895003E-01 0.  0.
         14    1    1    2    0    0 -0.14184639728E-01  0.16785061904E-01 -0.10425165012E-01  0.24323370919E-01  0.00000000000E+00 0.  1.
     999901    1    3    3    0    0  0.46820142762E-02  0.61741424820E-01  0.11258046625E+00  0.88933024585E+00  0.88000000000E+00 0. -1.
        -11    1    4    4    0    0 -0.16177317391E-02 -0.89198136206E-02 -0.53941245150E-02  0.10561147253E-01  0.51100000000E-03 0. -1.
         11    1    4    4    0    0  0.11120357191E-01 -0.69606673103E-01 -0.96761176722E-01  0.11971523598E+00  0.51100000000E-03 0.  1.
</event>
<event>
 8    1  0.1044719E+005  0.1043930E+01  0.7957747E-01            NaN
         13   -1    0    0    0    0  0.00000000000E+00  0.00000000000E+00  0.74505805969E-08  0.10566000000E+00  0.10566000000E+00 0.  1.
     999900   -1    0    0    0    0 -0.00000000000E+00 -0.00000000000E+00 -0.74505805969E-08  0.93827000000E+00  0.93827000000E+00 0. -1.
     999902    2    1    2    0    0 -0.15535321011E-01  0.17468391590E-01  0.10423242192E-02  0.10205296294E+01  0.10202613132E+01 0.  0.
     999903    2    3    3    0    0 -0.53707614666E-01  0.63312805191E-01  0.10167633231E+00  0.13278752844E+00  0.20035767588E-01 0.  0.
         14    1    1    2    0    0  0.15535321011E-01 -0.17468391590E-01 -0.10423242192E-02  0.23400370583E-01  0.00000000000E+00 0. -1.
     999901    1    3    3    0    0  0.38172293655E-01 -0.45844413601E-01 -0.10063400809E+00  0.88774210098E+00  0.88000000000E+00 0. -1.
        -11    1    4    4    0    0 -0.51927754707E-01  0.50992994859E-01  0.83721921622E-01  0.11093420805E+00  0.51100000000E-03 0.  1.
         11    1    4    4    0    0 -0.17798599590E-02  0.12319810332E-01  0.17954410689E-01  0.21853320395E-01  0.51100000000E-03 0. -1.
</event>
<event>
 8    1  0.1044719E+005  0.1043930E+01  0.7957747E-01            NaN
         13   -1    0    0    0    0  0.00000000000E+00  0.00000000000E+00  0.74505805969E-08  0.10566000000E+00  0.10566000000E+00 0. -1.
     999900   -1    0    0    0    0 -0.00000000000E+00 -0.00000000000E+00 -0.74505805969E-08  0.93827000000E+00  0.93827000000E+00 0.  1.
     999902    2    1    2    0    0 -0.93147230076E-02  0.13236453998E-01 -0.18406418440E-01  0.10194195121E+01  0.10191248096E+01 0.  0.
     999903    2    3    3    0    0  0.51650995853E-01 -0.10220416333E+00  0.51060715776E-01  0.12708042980E+00  0.20705616805E-01 0.  0.
         14    1    1    2    0    0  0.93147230076E-02 -0.13236453998E-01  0.18406418440E-01  0.24510487938E-01  0.00000000000E+00 0. -1.
     999901    1    3    3    0    0 -0.60965718861E-01  0.11544061733E+00 -0.69467134217E-01  0.89233908227E+00  0.88000000000E+00 0.  1.
        -11    1    4    4    0    0  0.17555528958E-01 -0.56021838371E-01  0.21622230510E-01  0.62565365377E-01  0.51100000000E-03 0. -1.
         11    1    4    4    0    0  0.34095466895E-01 -0.46182324956E-01  0.29438485266E-01  0.64515064419E-01  0.51100000000E-03 0.  1.
</event>
<event>
 8    1  0.1044719E+005  0.1043930E+01  0.7957747E-01            NaN
         13   -1    0    0    0    0  0.00000000000E+00  0.00000000000E+00  0.74505805969E-08  0.10566000000E+00  0.10566000000E+00 0.  1.
     999900   -1    0    0    0    0 -0.00000000000E+00 -0.00000000000E+00 -0.74505805969E-08  0.93827000000E+00  0.93827000000E+00 0. -1.
     999902    2    1    2    0    0 -0.17667850737E-01 -0.23450421518E-02 -0.15409844207E-01  0.10203691114E+01  0.10200970582E+01 0.  0.
     999903    2    3    3    0    0  0.74631851513E-01 -0.51182965798E-01  0.88326951509E-01  0.12814397133E+00  0.20727223079E-01 0.  0.
         14    1    1    2    0    0  0.17667850737E-01  0.23450421518E-02  0.15409844207E-01  0.23560888583E-01  0.00000000000E+00 0.  1.
     999901    1    3    3    0    0 -0.92299702250E-01  0.48837923646E-01 -0.10373679572E+00  0.89222514009E+00  0.88000000000E+00 0. -1.
        -11    1    4    4    0    0  0.19734912950E-01 -0.14939001890E-01  0.37841099875E-01  0.45220023522E-01  0.51100000000E-03 0. -1.
         11    1    4    4    0    0  0.54896938563E-01 -0.36243963908E-01  0.50485851634E-01  0.82923947805E-01  0.51100000000E-03 0.  1.
</event>
<event>
 8    1  0.1044719E+005  0.1043930E+01  0.7957747E-01            NaN
         13   -1    0    0    0    0  0.00000000000E+00  0.00000000000E+00  0.74505805969E-08  0.10566000000E+00  0.10566000000E+00 0.  1.
     999900   -1    0    0    0    0 -0.00000000000E+00 -0.00000000000E+00 -0.74505805969E-08  0.93827000000E+00  0.93827000000E+00 0. -1.
     999902    2    1    2    0    0  0.14996362493E-01  0.39841120544E-02  0.19745101643E-01  0.10188175912E+01  0.10185080515E+01 0.  0.
     999903    2    3    3    0    0  0.36228018437E-01  0.96140996388E-01  0.80111498129E-01  0.13169427600E+00  0.19234596241E-01 0.  0.
         14    1    1    2    0    0 -0.14996362493E-01 -0.39841120544E-02 -0.19745101643E-01  0.25112408801E-01  0.00000000000E+00 0. -1.
     999901    1    3    3    0    0 -0.21231655944E-01 -0.92156884333E-01 -0.60366396487E-01  0.88712331520E+00  0.88000000000E+00 0. -1.
        -11    1    4    4    0    0  0.38161174371E-01  0.85701709067E-01  0.70341505322E-01  0.11725718169E+00  0.51100000000E-03 0.  1.
         11    1    4    4    0    0 -0.19331559339E-02  0.10439287321E-01  0.97699928071E-02  0.14437094309E-01  0.51100000000E-03 0. -1.
</event>
<event>
 8    1  0.1044719E+005  0.1043930E+01  0.7957747E-01            NaN
         13   -1    0    0    0    0  0.00000000000E+00  0.00000000000E+00  0.74505805969E-08  0.10566000000E+00  0.10566000000E+00 0.  1.
     999900   -1    0    0    0    0 -0.00000000000E+00 -0.00000000000E+00 -0.74505805969E-08  0.93827000000E+00  0.93827000000E+00 0.  1.
     999902    2    1    2    0    0  0.98332685218E-03 -0.15180266362E-01 -0.17847119989E-01  0.10204794753E+01  0.10202099942E+01 0.  0.
     999903    2    3    3    0    0  0.62742316180E-03 -0.17272260221E-01 -0.13069687491E+00  0.13327061018E+00  0.19510453443E-01 0.  0.
         14    1    1    2    0    0 -0.98332685218E-03  0.15180266362E-01  0.17847119989E-01  0.23450524737E-01  0.00000000000E+00 0.  1.
     999901    1    3    3    0    0  0.35590369038E-03  0.20919938594E-02  0.11284975492E+00  0.88720886509E+00  0.88000000000E+00 0. -1.
        -11    1    4    4    0    0  0.82165599557E-03 -0.21610446434E-01 -0.11191701542E+00  0.11398844667E+00  0.51100000000E-03 0. -1.
         11    1    4    4    0    0 -0.19423283377E-03  0.43381862124E-02 -0.18779859490E-01  0.19282163506E-01  0.51100000000E-03 0.  1.
</event>
<event>
 8    1  0.1044719E+005  0.1043930E+01  0.7957747E-01            NaN
         13   -1    0    0    0    0  0.00000000000E+00  0.00000000000E+00  0.74505805969E-08  0.10566000000E+00  0.10566000000E+00 0. -1.
     999900   -1    0    0    0    0 -0.00000000000E+00 -0.00000000000E+00 -0.74505805969E-08  0.93827000000E+00  0.93827000000E+00 0.  1.
     999902    2    1    2    0    0  0.93973133208E-02  0.68405113250E-02  0.20402367207E-01  0.10204489719E+01  0.10201787812E+01 0.  0.
     999903    2    3    3    0    0  0.84063789007E-01 -0.62307238549E-01 -0.73643838152E-01  0.12960601007E+00  0.20624993354E-01 0.  0.
         14    1    1    2    0    0 -0.93973133208E-02 -0.68405113250E-02 -0.20402367207E-01  0.23481028097E-01  0.00000000000E+00 0.  1.
     999901    1    3    3    0    0 -0.74666475686E-01  0.69147749874E-01  0.94046205359E-01  0.89084296183E+00  0.88000000000E+00 0. -1.
        -11    1    4    4    0    0  0.10131533472E-01 -0.49345768728E-02 -0.16393013008E-01  0.19899497880E-01  0.51100000000E-03 0. -1.
         11    1    4    4    0    0  0.73932255535E-01 -0.57372661676E-01 -0.57250825144E-01  0.10970651219E+00  0.51100000000E-03 0.  1.
</event>
<event>
 8    1  0.1044719E+005  0.1043930E+01  0.7957747E-01            NaN
         13   -1    0    0    0    0  0.00000000000E+00  0.00000000000E+00  0.74505805969E-08  0.10566000000E+00  0.10566000000E+00 0.  1.
     999900   -1    0    0    0    0 -0.00000000000E+00 -0.00000000000E+00 -0.74505805969E-08  0.93827000000E+00  0.93827000000E+00 0.  1.
     999902    2    1    2    0    0 -0.20310711468E-02 -0.18456630938E-01  0.15502588855E-01  0.10197411030E+01  0.10194541748E+01 0.  0.
     999903    2    3    3    0    0  0.35076826178E-01  0.76560396373E-01 -0.93194174937E-01  0.12720526734E+00  0.20103426814E-01 0.  0.
         14    1    1    2    0    0  0.20310711468E-02  0.18456630938E-01 -0.15502588855E-01  0.24188896974E-01  0.00000000000E+00 0. -1.
     999901    1    3    3    0    0 -0.37107897324E-01 -0.95017027312E-01  0.10869676379E+00  0.89253583568E+00  0.88000000000E+00 0. -1.
        -11    1    4    4    0    0  0.24995107075E-01  0.31269770886E-01 -0.46813211533E-01  0.61597823371E-01  0.51100000000E-03 0. -1.
         11    1    4    4    0    0  0.10081719102E-01  0.45290625487E-01 -0.46380963404E-01  0.65607443970E-01  0.51100000000E-03 0.  1.
</event>
<event>
 8    1  0.1044719E+005  0.1043930E+01  0.7957747E-01            NaN
         13   -1    0    0    0    0  0.00000000000E+00  0.00000000000E+00  0.74505805969E-08  0.10566000000E+00  0.10566000000E+00 0. -1.
     999900   -1    0    0    0    0 -0.00000000000E+00 -0.00000000000E+00 -0.74505805969E-08  0.93827000000E+00  0.93827000000E+00 0.  1.
     999902    2    1    2    0    0  0.18495088377E-02  0.13175470036E-01  0.20321316644E-01  0.10196407101E+01  0.10193513664E+01 0.  0.
     999903    2    3    3    0    0  0.26869695412E-01 -0.11934376684E+00  0.37021684703E-01  0.12921033092E+00  0.18968111765E-01 0.  0.
         14    1    1    2    0    0 -0.18495088377E-02 -0.13175470036E-01 -0.20321316644E-01  0.24289289899E-01  0.00000000000E+00 0. -1.
     999901    1    3    3    0    0 -0.25020186574E-01  0.13251923687E+00 -0.16700368058E-01  0.89043037918E+00  0.88000000000E+00 0. -1.
        -11    1    4    4    0    0  0.10171151790E-01 -0.77173901063E-01  0.29431848404E-01  0.83221140076E-01  0.51100000000E-03 0. -1.
         11    1    4    4    0    0  0.16698543622E-01 -0.42169865772E-01  0.75898362982E-02  0.45989190843E-01  0.51100000000E-03 0.  1.
</event>
<event>
 8    1  0.1044719E+005  0.1043930E+01  0.7957747E-01            NaN
         13   -1    0    0    0    0  0.00000000000E+00  0.00000000000E+00  0.74505805969E-08  0.10566000000E+00  0.10566000000E+00 0.  1.
     999900   -1    0    0    0    0 -0.00000000000E+00 -0.00000000000E+00 -0.74505805969E-08  0.93827000000E+00  0.93827000000E+00 0. -1.
     999902    2    1    2    0    0 -0.18706217305E-01 -0.54746936385E-02  0.15820610407E-01  0.10188264833E+01  0.10185171656E+01 0.  0.
     999903    2    3    3    0    0 -0.56304629836E-01  0.97339593185E-01 -0.59459534508E-01  0.12885372058E+00  0.20558144857E-01 0.  0.
         14    1    1    2    0    0  0.18706217305E-01  0.54746936385E-02 -0.15820610407E-01  0.25103516684E-01  0.00000000000E+00 0. -1.
     999901    1    3    3    0    0  0.37598412532E-01 -0.10281428682E+00  0.75280144915E-01  0.88997276274E+00  0.88000000000E+00 0. -1.
        -11    1    4    4    0    0 -0.39840656873E-01  0.73027335814E-01 -0.33581943724E-01  0.89712194163E-01  0.51100000000E-03 0.  1.
         11    1    4    4    0    0 -0.16463972963E-01  0.24312257370E-01 -0.25877590783E-01  0.39141526413E-01  0.51100000000E-03 0. -1.
</event>
<event>
 8    1  0.1051432E+005  0.1043930E+01  0.7957747E-01            NaN
         13   -1    0    0    0    0  0.00000000000E+00  0.00000000000E+00  0.74505805969E-08  0.10566000000E+00  0.10566000000E+00 0. -1.
     999900   -1    0    0    0    0 -0.00000000000E+00 -0.00000000000E+00 -0.74505805969E-08  0.93827000000E+00  0.93827000000E+00 0.  1.
     999902    2    1    2    0    0 -0.16675753726E-01 -0.84513100334E-02 -0.14150109202E-01  0.10204836571E+01  0.10202142733E+01 0.  0.
     999903    2    3    3    0    0 -0.44343939123E-01  0.67895371192E-01 -0.10256816831E+00  0.13233271422E+00  0.20385086124E-01 0.  0.
         14    1    1    2    0    0  0.16675753726E-01  0.84513100334E-02  0.14150109202E-01  0.23446342872E-01  0.00000000000E+00 0. -1.
     999901    1    3    3    0    0  0.27668185396E-01 -0.76346681225E-01  0.88418059104E-01  0.88815094291E+00  0.88000000000E+00 0.  1.
        -11    1    4    4    0    0 -0.19535915200E-01  0.14045933868E-01 -0.25031112809E-01  0.34724025838E-01  0.51100000000E-03 0.  1.
         11    1    4    4    0    0 -0.24808023923E-01  0.53849437324E-01 -0.77537055497E-01  0.97608688380E-01  0.51100000000E-03 0. -1.
</event>
<event>
 8    1  0.1044719E+005  0.1043930E+01  0.7957747E-01            NaN
         13   -1    0    0    0    0  0.00000000000E+00  0.00000000000E+00  0.74505805969E-08  0.10566000000E+00  0.10566000000E+00 0. -1.
     999900   -1    0    0    0    0 -0.00000000000E+00 -0.00000000000E+00 -0.74505805969E-08  0.93827000000E+00  0.93827000000E+00 0. -1.
     999902    2    1    2    0    0 -0.16559519528E-01  0.11039087641E-01  0.75931612802E-02  0.10226289380E+01  0.10224070665E+01 0.  0.
     999903    2    3    3    0    0 -0.13035757923E+00  0.15813984918E-01  0.24695367326E-01  0.13512384875E+00  0.20134864108E-01 0.  0.
         14    1    1    2    0    0  0.16559519528E-01 -0.11039087641E-01 -0.75931612802E-02  0.21301061973E-01  0.00000000000E+00 0.  1.
     999901    1    3    3    0    0  0.11379805970E+00 -0.47748972773E-02 -0.17102206045E-01  0.88750508927E+00  0.88000000000E+00 0. -1.
        -11    1    4    4    0    0 -0.76682312044E-01  0.16944174686E-01  0.21074866225E-01  0.81312318523E-01  0.51100000000E-03 0.  1.
         11    1    4    4    0    0 -0.53675267186E-01 -0.11301897682E-02  0.36205011006E-02  0.53811530230E-01  0.51100000000E-03 0. -1.
</event>
<event>
 8    1  0.1044719E+005  0.1043930E+01  0.7957747E-01            NaN
         13   -1    0    0    0    0  0.00000000000E+00  0.00000000000E+00  0.74505805969E-08  0.10566000000E+00  0.10566000000E+00 0. -1.
     999900   -1    0    0    0    0 -0.00000000000E+00 -0.00000000000E+00 -0.74505805969E-08  0.93827000000E+00  0.93827000000E+00 0. -1.
     999902    2    1    2    0    0  0.26147718840E-01  0.58101987544E-02  0.31053484479E-02  0.10169651192E+01  0.10166075687E+01 0.  0.
     999903    2    3    3    0    0  0.36253914325E-01 -0.97150317415E-01  0.72537777603E-01  0.12818850757E+00  0.20445875282E-01 0.  0.
         14    1    1    2    0    0 -0.26147718840E-01 -0.58101987544E-02 -0.31053484479E-02  0.26964880847E-01  0.00000000000E+00 0.  1.
     999901    1    3    3    0    0 -0.10106195485E-01  0.10296051617E+00 -0.69432429155E-01  0.88877661158E+00  0.88000000000E+00 0. -1.
        -11    1    4    4    0    0  0.13392526716E-01 -0.46424569920E-01  0.22280293506E-01  0.53209708361E-01  0.51100000000E-03 0.  1.
         11    1    4    4    0    0  0.22861387609E-01 -0.50725747494E-01  0.50257484097E-01  0.74978799210E-01  0.51100000000E-03 0. -1.
</event>
<event>
 8    1  0.1044719E+005  0.1043930E+01  0.7957747E-01            NaN
         13   -1    0    0    0    0  0.00000000000E+00  0.00000000000E+00  0.74505805969E-08  0.10566000000E+00  0.10566000000E+00 0.  1.
     999900   -1    0    0    0    0 -0.00000000000E+00 -0.00000000000E+00 -0.74505805969E-08  0.93827000000E+00  0.93827000000E+00 0. -1.
     999902    2    1    2    0    0  0.17042502062E-01 -0.11438609556E-01  0.12366937837E-01  0.10199669072E+01  0.10196853740E+01 0.  0.
     999903    2    3    3    0    0  0.11652270072E+00 -0.59893495480E-01 -0.54259580520E-02  0.13285881173E+00  0.21383457420E-01 0.  0.
         14    1    1    2    0    0 -0.17042502062E-01  0.11438609556E-01 -0.12366937837E-01  0.23963092800E-01  0.00000000000E+00 0. -1.
     999901    1    3    3    0    0 -0.99480198657E-01  0.48454885924E-01  0.17792895889E-01  0.88710809546E+00  0.88000000000E+00 0.  1.
        -11    1    4    4    0    0  0.12412169742E-01 -0.99948245725E-02 -0.69589361331E-02  0.17396735011E-01  0.51100000000E-03 0.  1.
         11    1    4    4    0    0  0.10411053098E+00 -0.49898670907E-01  0.15329780811E-02  0.11546207672E+00  0.51100000000E-03 0. -1.
</event>
<event>
 7    1  0.1044719E+005  0.1043930E+01  0.7957747E-01            NaN
         13   -1    0    0    0    0  0.00000000000E+00  0.00000000000E+00  0.74505805969E-08  0.10566000000E+00  0.10566000000E+00 0. -1.
     999900   -1    0    0    0    0 -0.00000000000E+00 -0.00000000000E+00 -0.74505805969E-08  0.93827000000E+00  0.93827000000E+00 0. -1.
     999903    2    1    2    0    0  0.94290696462E-01  0.42829462198E-01 -0.49938390383E-02  0.10566025662E+00  0.20348295472E-01 0.  0.
         14    1    1    2    0    0  0.34282502787E-01 -0.14798879855E-01  0.30357649412E-01  0.48123629540E-01  0.00000000000E+00 0. -1.
     999901    1    1    2    0    0 -0.12857319925E+00 -0.28030582343E-01 -0.25363810373E-01  0.89014611384E+00  0.88000000000E+00 0. -1.
        -11    1    3    3    0    0  0.29836182975E-01  0.57340795771E-02 -0.73176931689E-02  0.31255195367E-01  0.51100000000E-03 0.  1.
         11    1    3    3    0    0  0.64454513487E-01  0.37095382621E-01  0.23238541306E-02  0.74405061251E-01  0.51100000000E-03 0. -1.
</event>
<event>
 8    1  0.1044719E+005  0.1043930E+01  0.7957747E-01            NaN
         13   -1    0    0    0    0  0.00000000000E+00  0.00000000000E+00  0.74505805969E-08  0.10566000000E+00  0.10566000000E+00 0. -1.
     999900   -1    0    0    0    0 -0.00000000000E+00 -0.00000000000E+00 -0.74505805969E-08  0.93827000000E+00  0.93827000000E+00 0.  1.
     999902    2    1    2    0    0 -0.11916192692E-01  0.12651957917E-01  0.15937489492E-01  0.10203488368E+01  0.10200763096E+01 0.  0.
     999903    2    3    3    0    0  0.62105455989E-01 -0.11041706186E+00  0.10303532808E-01  0.12868918783E+00  0.20142717330E-01 0.  0.
         14    1    1    2    0    0  0.11916192692E-01 -0.12651957917E-01 -0.15937489492E-01  0.23581163218E-01  0.00000000000E+00 0. -1.
     999901    1    3    3    0    0 -0.74021648681E-01  0.12306901978E+00  0.56339566845E-02  0.89165964895E+00  0.88000000000E+00 0.  1.
        -11    1    4    4    0    0  0.19898028394E-01 -0.27460330660E-01 -0.52531168899E-02  0.34319930827E-01  0.51100000000E-03 0. -1.
         11    1    4    4    0    0  0.42207427595E-01 -0.82956731203E-01  0.15556649698E-01  0.94369257001E-01  0.51100000000E-03 0.  1.
</event>
<event>
 8    1  0.1044719E+005  0.1043930E+01  0.7957747E-01            NaN
         13   -1    0    0    0    0  0.00000000000E+00  0.00000000000E+00  0.74505805969E-08  0.10566000000E+00  0.10566000000E+00 0.  1.
     999900   -1    0    0    0    0 -0.00000000000E+00 -0.00000000000E+00 -0.74505805969E-08  0.93827000000E+00  0.93827000000E+00 0.  1.
     999902    2    1    2    0    0 -0.55922255473E-02  0.86364355502E-03 -0.22450105892E-01  0.10207777621E+01  0.10205151706E+01 0.  0.
     999903    2    3    3    0    0  0.56359583076E-01  0.39013878469E-01  0.10696403078E+00  0.12834205806E+00  0.18217976493E-01 0.  0.
         14    1    1    2    0    0  0.55922255473E-02 -0.86364355502E-03  0.22450105892E-01  0.23152237934E-01  0.00000000000E+00 0.  1.
     999901    1    3    3    0    0 -0.61951808624E-01 -0.38150234914E-01 -0.12941413668E+00  0.89243570401E+00  0.88000000000E+00 0.  1.
        -11    1    4    4    0    0  0.36248108154E-01  0.18230330479E-01  0.49479806282E-01  0.63990488706E-01  0.51100000000E-03 0. -1.
         11    1    4    4    0    0  0.20111474922E-01  0.20783547990E-01  0.57484224501E-01  0.64351569352E-01  0.51100000000E-03 0.  1.
</event>
<event>
 8    1  0.1044719E+005  0.1043930E+01  0.7957747E-01            NaN
         13   -1    0    0    0    0  0.00000000000E+00  0.00000000000E+00  0.74505805969E-08  0.10566000000E+00  0.10566000000E+00 0. -1.
     999900   -1    0    0    0    0 -0.00000000000E+00 -0.00000000000E+00 -0.74505805969E-08  0.93827000000E+00  0.93827000000E+00 0. -1.
     999902    2    1    2    0    0 -0.70268724444E-02  0.21035295218E-01 -0.78112190065E-02  0.10204166905E+01  0.10201457477E+01 0.  0.
     999903    2    3    3    0    0  0.15080380526E-01 -0.84945311712E-01 -0.94608577915E-01  0.12954385940E+00  0.19690216718E-01 0.  0.
         14    1    1    2    0    0  0.70268724444E-02 -0.21035295218E-01  0.78112190065E-02  0.23513309500E-01  0.00000000000E+00 0. -1.
     999901    1    3    3    0    0 -0.22107252971E-01  0.10598060693E+00  0.86797358909E-01  0.89087283110E+00  0.88000000000E+00 0.  1.
        -11    1    4    4    0    0  0.94860953318E-02 -0.48223397838E-01 -0.67757645915E-01  0.83706880271E-01  0.51100000000E-03 0. -1.
         11    1    4    4    0    0  0.55942851945E-02 -0.36721913874E-01 -0.26850932000E-01  0.45836979129E-01  0.51100000000E-03 0.  1.
</event>
<event>
 8    1  0.1044719E+005  0.1043930E+01  0.7957747E-01            NaN
         13   -1    0    0    0    0  0.00000000000E+00  0.00000000000E+00  0.74505805969E-08  0.10566000000E+00  0.10566000000E+00 0.  1.
     999900   -1    0    0    0    0 -0.00000000000E+00 -0.00000000000E+00 -0.74505805969E-08  0.93827000000E+00  0.93827000000E+00 0. -1.
     999902    2    1    2    0    0  0.84810115176E-02 -0.15329300064E-01 -0.15607643020E-01  0.10204669755E+01  0.10201972038E+01 0.  0.
     999903    2    3    3    0    0  0.27773629627E-01 -0.12278777559E+00  0.35192241141E-01  0.13226645914E+00  0.20191831051E-01 0.  0.
         14    1    1    2    0    0 -0.84810115176E-02  0.15329300064E-01  0.15607643020E-01  0.23463024474E-01  0.00000000000E+00 0.  1.
     999901    1    3    3    0    0 -0.19292618109E-01  0.10745847552E+00 -0.50799884161E-01  0.88820051638E+00  0.88000000000E+00 0. -1.
        -11    1    4    4    0    0  0.18047187194E-01 -0.37650057443E-01  0.13283116550E-01  0.43817006942E-01  0.51100000000E-03 0.  1.
         11    1    4    4    0    0  0.97264424332E-02 -0.85137718144E-01  0.21909124591E-01  0.88449452200E-01  0.51100000000E-03 0. -1.
</event>
<event>
 8    1  0.1044719E+005  0.1043930E+01  0.7957747E-01            NaN
         13   -1    0    0    0    0  0.00000000000E+00  0.00000000000E+00  0.74505805969E-08  0.10566000000E+00  0.10566000000E+00 0.  1.
     999900   -1    0    0    0    0 -0.00000000000E+00 -0.00000000000E+00 -0.74505805969E-08  0.93827000000E+00  0.93827000000E+00 0. -1.
     999902    2    1    2    0    0 -0.11449276456E-01 -0.14685650209E-01  0.14808237038E-01  0.10201384440E+01  0.10198609742E+01 0.  0.
     999903    2    3    3    0    0 -0.96470292185E-01 -0.68595135771E-01 -0.53608461855E-01  0.13176034293E+00  0.21797037883E-01 0.  0.
         14    1    1    2    0    0  0.11449276456E-01  0.14685650209E-01 -0.14808237038E-01  0.23791556015E-01  0.00000000000E+00 0. -1.
     999901    1    3    3    0    0  0.85021015728E-01  0.53909485563E-01  0.68416698894E-01  0.88837810106E+00  0.88000000000E+00 0. -1.
        -11    1    4    4    0    0 -0.48424224757E-01 -0.23092189547E-01 -0.30199574975E-01  0.61566469860E-01  0.51100000000E-03 0. -1.
         11    1    4    4    0    0 -0.48046067428E-01 -0.45502946224E-01 -0.23408886880E-01  0.70193873069E-01  0.51100000000E-03 0.  1.
</event>
<event>
 8    1  0.1044719E+005  0.1043930E+01  0.7957747E-01            NaN
         13   -1    0    0    0    0  0.00000000000E+00  0.00000000000E+00  0.74505805969E-08  0.10566000000E+00  0.10566000000E+00 0.  1.
     999900   -1    0    0    0    0 -0.00000000000E+00 -0.00000000000E+00 -0.74505805969E-08  0.93827000000E+00  0.93827000000E+00 0. -1.
     999902    2    1    2    0    0 -0.19058763316E-01 -0.13611704473E-01  0.41796865625E-03  0.10205058745E+01  0.10202370069E+01 0.  0.
     999903    2    3    3    0    0 -0.58088339672E-01  0.32643901857E-01 -0.11138392205E+00  0.13137002902E+00  0.20293518627E-01 0.  0.
         14    1    1    2    0    0  0.19058763316E-01  0.13611704473E-01 -0.41796865625E-03  0.23424125503E-01  0.00000000000E+00 0. -1.
     999901    1    3    3    0    0  0.39029576356E-01 -0.46255606330E-01  0.11180189071E+00  0.88913584548E+00  0.88000000000E+00 0.  1.
        -11    1    4    4    0    0 -0.22441027476E-01  0.53657197057E-02 -0.25036384118E-01  0.34051025136E-01  0.51100000000E-03 0.  1.
         11    1    4    4    0    0 -0.35647312197E-01  0.27278182151E-01 -0.86347537935E-01  0.97319003883E-01  0.51100000000E-03 0. -1.
</event>
<event>
 8    1  0.1044719E+005  0.1043930E+01  0.7957747E-01            NaN
         13   -1    0    0    0    0  0.00000000000E+00  0.00000000000E+00  0.74505805969E-08  0.10566000000E+00  0.10566000000E+00 0. -1.
     999900   -1    0    0    0    0 -0.00000000000E+00 -0.00000000000E+00 -0.74505805969E-08  0.93827000000E+00  0.93827000000E+00 0. -1.
     999902    2    1    2    0    0  0.14132910605E-01  0.20625973215E-01 -0.89471132493E-03  0.10189105987E+01  0.10186033760E+01 0.  0.
     999903    2    3    3    0    0 -0.86368554697E-01  0.59169261884E-01  0.72873727363E-01  0.12928825625E+00  0.21079475154E-01 0.  0.
         14    1    1    2    0    0 -0.14132910605E-01 -0.20625973215E-01  0.89471132493E-03  0.25019401303E-01  0.00000000000E+00 0. -1.
     999901    1    3    3    0    0  0.10050146530E+00 -0.38543288669E-01 -0.73768438688E-01  0.88962234244E+00  0.88000000000E+00 0. -1.
        -11    1    4    4    0    0 -0.30928581265E-01  0.16495138160E-01  0.13636126451E-01  0.37614781504E-01  0.51100000000E-03 0. -1.
         11    1    4    4    0    0 -0.55439973432E-01  0.42674123725E-01  0.59237600912E-01  0.91673474749E-01  0.51100000000E-03 0.  1.
</event>
<event>
 8    1  0.1044719E+005  0.1043930E+01  0.7957747E-01            NaN
         13   -1    0    0    0    0  0.00000000000E+00  0.00000000000E+00  0.74505805969E-08  0.10566000000E+00  0.10566000000E+00 0.  1.
     999900   -1    0    0    0    0 -0.00000000000E+00 -0.00000000000E+00 -0.74505805969E-08  0.93827000000E+00  0.93827000000E+00 0.  1.
     999902    2    1    2    0    0  0.40200787807E-02 -0.16521951033E-01 -0.17048478990E-01  0.10198512431E+01  0.10195669529E+01 0.  0.
     999903    2    3    3    0    0  0.57243289952E-01  0.94327250534E-01  0.61442573017E-01  0.12784165739E+00  0.19846288028E-01 0.  0.
         14    1    1    2    0    0 -0.40200787807E-02  0.16521951033E-01  0.17048478990E-01  0.24078756928E-01  0.00000000000E+00 0.  1.
     999901    1    3    3    0    0 -0.53223211171E-01 -0.11084920157E+00 -0.78491052007E-01  0.89200958568E+00  0.88000000000E+00 0.  1.
        -11    1    4    4    0    0  0.15412773759E-01  0.37412081961E-01  0.30761099768E-01  0.50830343807E-01  0.51100000000E-03 0.  1.
         11    1    4    4    0    0  0.41830516193E-01  0.56915168574E-01  0.30681473248E-01  0.77011313587E-01  0.51100000000E-03 0. -1.
</event>
<event>
 8    1  0.1044719E+005  0.1043930E+01  0.7957747E-01            NaN
         13   -1    0    0    0    0  0.00000000000E+00  0.00000000000E+00  0.74505805969E-08  0.10566000000E+00  0.10566000000E+00 0.  1.
     999900   -1    0    0    0    0 -0.00000000000E+00 -0.00000000000E+00 -0.74505805969E-08  0.93827000000E+00  0.93827000000E+00 0. -1.
     999902    2    1    2    0    0 -0.78869164212E-02 -0.12999766430E-01  0.19884564978E-01  0.10188981542E+01  0.10185906221E+01 0.  0.
     999903    2    3    3    0    0  0.38150981354E-01 -0.27360791541E-01 -0.11637055782E+00  0.12710715543E+00  0.20248751592E-01 0.  0.
         14    1    1    2    0    0  0.78869164212E-02  0.12999766430E-01 -0.19884564978E-01  0.25031845761E-01  0.00000000000E+00 0. -1.
     999901    1    3    3    0    0 -0.46037897775E-01  0.14361025110E-01  0.13625512280E+00  0.89179099881E+00  0.88000000000E+00 0.  1.
        -11    1    4    4    0    0  0.29799071002E-01 -0.11463704269E-01 -0.60359912305E-01  0.68286025530E-01  0.51100000000E-03 0.  1.
         11    1    4    4    0    0  0.83519103519E-02 -0.15897087271E-01 -0.56010645515E-01  0.58821129896E-01  0.51100000000E-03 0. -1.
</event>
<event>
 8    1  0.1044719E+005  0.1043930E+01  0.7957747E-01            NaN
         13   -1    0    0    0    0  0.00000000000E+00  0.00000000000E+00  0.74505805969E-08  0.10566000000E+00  0.10566000000E+00 0. -1.
     999900   -1    0    0    0    0 -0.00000000000E+00 -0.00000000000E+00 -0.74505805969E-08  0.93827000000E+00  0.93827000000E+00 0.  1.
     999902    2    1    2    0    0 -0.22098616939E-01  0.26414955419E-02  0.11512077089E-01  0.10188729793E+01  0.10185648205E+01 0.  0.
     999903    2    3    3    0    0 -0.94285518779E-02  0.34179204432E-01 -0.12133075156E+00  0.12825388293E+00  0.21697732760E-01 0.  0.
         14    1    1    2    0    0  0.22098616939E-01 -0.26414955419E-02 -0.11512077089E-01  0.25057020737E-01  0.00000000000E+00 0.  1.
     999901    1    3    3    0    0 -0.12670065062E-01 -0.31537708890E-01  0.13284282865E+00  0.89061909633E+00  0.88000000000E+00 0. -1.
        -11    1    4    4    0    0  0.31960411152E-03  0.19822087698E-01 -0.92478647670E-01  0.94581069477E-01  0.51100000000E-03 0. -1.
         11    1    4    4    0    0 -0.97481559894E-02  0.14357116733E-01 -0.28852103887E-01  0.33672813452E-01  0.51100000000E-03 0.  1.
</event>
<event>
 8    1  0.1044719E+005  0.1043930E+01  0.7957747E-01            NaN
         13   -1    0    0    0    0  0.00000000000E+00  0.00000000000E+00  0.74505805969E-08  0.10566000000E+00  0.10566000000E+00 0. -1.
     999900   -1    0    0    0    0 -0.00000000000E+00 -0.00000000000E+00 -0.74505805969E-08  0.93827000000E+00  0.93827000000E+00 0.  1.
     999902    2    1    2    0    0  0.79142356331E-02 -0.65972755041E-02 -0.21539590552E-01  0.10200529581E+01  0.10197734671E+01 0.  0.
     999903    2    3    3    0    0  0.20397025097E-01  0.42476175124E-01  0.11734907719E+00  0.12772225390E+00  0.17941687146E-01 0.  0.
         14    1    1    2    0    0 -0.79142356331E-02  0.65972755041E-02  0.21539590552E-01  0.23877041921E-01  0.00000000000E+00 0. -1.
     999901    1    3    3    0    0 -0.12482789463E-01 -0.49073450628E-01 -0.13888866775E+00  0.89233070418E+00  0.88000000000E+00 0.  1.
        -11    1    4    4    0    0  0.22252182585E-01  0.32620158380E-01  0.82658541817E-01  0.91607477964E-01  0.51100000000E-03 0. -1.
         11    1    4    4    0    0 -0.18551574886E-02  0.98560167443E-02  0.34690535377E-01  0.36114775939E-01  0.51100000000E-03 0.  1.
</event>
<event>
 8    1  0.1044719E+005  0.1043930E+01  0.7957747E-01            NaN
         13   -1    0    0    0    0  0.00000000000E+00  0.00000000000E+00  0.74505805969E-08  0.10566000000E+00  0.10566000000E+00 0.  1.
     999900   -1    0    0    0    0 -0.00000000000E+00 -0.00000000000E+00 -0.74505805969E-08  0.93827000000E+00  0.93827000000E+00 0. -1.
     999902    2    1    2    0    0 -0.94404584608E-02 -0.15858848650E-01  0.13054952211E-01  0.10213234276E+01  0.10210732034E+01 0.  0.
     999903    2    3    3    0    0  0.10243257286E+00 -0.38174461974E-01 -0.67919610932E-01  0.13027323736E+00  0.20206961494E-01 0.  0.
         14    1    1    2    0    0  0.94404584608E-02  0.15858848650E-01 -0.13054952211E-01  0.22606572356E-01  0.00000000000E+00 0.  1.
     999901    1    3    3    0    0 -0.11187303132E+00  0.22315613324E-01  0.80974563143E-01  0.89105019029E+00  0.88000000000E+00 0.  1.
        -11    1    4    4    0    0  0.20908745433E-01 -0.13568211281E-01 -0.81326605269E-02  0.26223525339E-01  0.51100000000E-03 0. -1.
         11    1    4    4    0    0  0.81523827426E-01 -0.24606250693E-01 -0.59786950405E-01  0.10404971202E+00  0.51100000000E-03 0.  1.
</event>
<event>
 8    1  0.1044719E+005  0.1043930E+01  0.7957747E-01            NaN
         13   -1    0    0    0    0  0.00000000000E+00  0.00000000000E+00  0.74505805969E-08  0.10566000000E+00  0.10566000000E+00 0.  1.
     999900   -1    0    0    0    0 -0.00000000000E+00 -0.00000000000E+00 -0.74505805969E-08  0.93827000000E+00  0.93827000000E+00 0.  1.
     999902    2    1    2    0    0  0.60713353949E-02  0.81639171480E-02 -0.23714752343E-01  0.10181249591E+01  0.10177978838E+01 0.  0.
     999903    2    3    3    0    0 -0.79833105903E-01 -0.88862768027E-01 -0.42856302941E-01  0.12842829753E+00  0.19678632182E-01 0.  0.
         14    1    1    2    0    0 -0.60713353949E-02 -0.81639171480E-02  0.23714752343E-01  0.25805040890E-01  0.00000000000E+00 0.  1.
     999901    1    3    3    0    0  0.85904441298E-01  0.97026685175E-01  0.19141550598E-01  0.88969666158E+00  0.88000000000E+00 0.  1.
        -11    1    4    4    0    0 -0.32870471934E-01 -0.25923757212E-01 -0.21404127105E-01  0.47020281701E-01  0.51100000000E-03 0.  1.
         11    1    4    4    0    0 -0.46962633969E-01 -0.62939010816E-01 -0.21452175836E-01  0.81408015827E-01  0.51100000000E-03 0. -1.
</event>
<event>
 8    1  0.1044719E+005  0.1043930E+01  0.7957747E-01            NaN
         13   -1    0    0    0    0  0.00000000000E+00  0.00000000000E+00  0.74505805969E-08  0.10566000000E+00  0.10566000000E+00 0.  1.
     999900   -1    0    0    0    0 -0.00000000000E+00 -0.00000000000E+00 -0.74505805969E-08  0.93827000000E+00  0.93827000000E+00 0. -1.
     999902    2    1    2    0    0  0.12874205550E-01 -0.18070552308E-01  0.78193157013E-02  0.10204048703E+01  0.10201336518E+01 0.  0.
     999903    2    3    3    0    0 -0.80733201676E-01  0.45906660452E-01 -0.86317486083E-01  0.12815088859E+00  0.18619090066E-01 0.  0.
         14    1    1    2    0    0 -0.12874205550E-01  0.18070552308E-01 -0.78193157013E-02  0.23525129698E-01  0.00000000000E+00 0. -1.
     999901    1    3    3    0    0  0.93607407225E-01 -0.63977212760E-01  0.94136801784E-01  0.89225398172E+00  0.88000000000E+00 0.  1.
        -11    1    4    4    0    0 -0.57522312148E-01  0.23673568840E-01 -0.62165059649E-01  0.87943220424E-01  0.51100000000E-03 0. -1.
         11    1    4    4    0    0 -0.23210889528E-01  0.22233091612E-01 -0.24152426434E-01  0.40207668161E-01  0.51100000000E-03 0.  1.
</event>
<event>
 8    1  0.1044719E+005  0.1043930E+01  0.7957747E-01            NaN
         13   -1    0    0    0    0  0.00000000000E+00  0.00000000000E+00  0.74505805969E-08  0.10566000000E+00  0.10566000000E+00 0. -1.
     999900   -1    0    0    0    0 -0.00000000000E+00 -0.00000000000E+00 -0.74505805969E-08  0.93827000000E+00  0.93827000000E+00 0.  1.
     999902    2    1    2    0    0 -0.18708822845E-01 -0.18777877542E-02  0.12959962011E-01  0.10210934776E+01  0.10208380789E+01 0.  0.
     999903    2    3    3    0    0 -0.75688633869E-01  0.12439478625E-01  0.10808327415E+00  0.13401956441E+00  0.19893204066E-01 0.  0.
         14    1    1    2    0    0  0.18708822845E-01  0.18777877542E-02 -0.12959962011E-01  0.22836522381E-01  0.00000000000E+00 0.  1.
     999901    1    3    3    0    0  0.56979811024E-01 -0.14317266380E-01 -0.95123312142E-01  0.88707391321E+00  0.88000000000E+00 0.  1.
        -11    1    4    4    0    0 -0.64647597820E-01  0.44383406884E-02  0.95810652686E-01  0.11566742437E+00  0.51100000000E-03 0. -1.
         11    1    4    4    0    0 -0.11041036049E-01  0.80011379369E-02  0.12272621467E-01  0.18352140038E-01  0.51100000000E-03 0.  1.
</event>
<event>
 8    1  0.1044719E+005  0.1043930E+01  0.7957747E-01            NaN
         13   -1    0    0    0    0  0.00000000000E+00  0.00000000000E+00  0.74505805969E-08  0.10566000000E+00  0.10566000000E+00 0. -1.
     999900   -1    0    0    0    0 -0.00000000000E+00 -0.00000000000E+00 -0.74505805969E-08  0.93827000000E+00  0.93827000000E+00 0.  1.
     999902    2    1    2    0    0  0.50617958020E-02  0.10157371028E-01 -0.20331259837E-01  0.10206457974E+01  0.10203801692E+01 0.  0.
     999903    2    3    3    0    0 -0.72908299568E-01 -0.74847550639E-01 -0.76864354834E-01  0.13131955621E+00  0.20467555238E-01 0.  0.
         14    1    1    2    0    0 -0.50617958020E-02 -0.10157371028E-01  0.20331259837E-01  0.23284202574E-01  0.00000000000E+00 0. -1.
     999901    1    3    3    0    0  0.77970095370E-01  0.85004921667E-01  0.56533094997E-01  0.88932624121E+00  0.88000000000E+00 0.  1.
        -11    1    4    4    0    0 -0.21013488622E-01 -0.34872276527E-01 -0.25147719876E-01  0.47857197057E-01  0.51100000000E-03 0. -1.
         11    1    4    4    0    0 -0.51894810946E-01 -0.39975274112E-01 -0.51716634958E-01  0.83462359156E-01  0.51100000000E-03 0.  1.
</event>
<event>
 8    1  0.1044719E+005  0.1043930E+01  0.7957747E-01            NaN
         13   -1    0    0    0    0  0.00000000000E+00  0.00000000000E+00  0.74505805969E-08  0.10566000000E+00  0.10566000000E+00 0. -1.
     999900   -1    0    0    0    0 -0.00000000000E+00 -0.00000000000E+00 -0.74505805969E-08  0.93827000000E+00  0.93827000000E+00 0.  1.
     999902    2    1    2    0    0 -0.53340188455E-02 -0.15565034581E-01  0.16954066053E-01  0.10203045389E+01  0.10200309748E+01 0.  0.
     999903    2    3    3    0    0 -0.12824558677E+00 -0.21128845311E-01  0.70010454868E-02  0.13168917092E+00  0.19991609978E-01 0.  0.
         14    1    1    2    0    0  0.53340188455E-02  0.15565034581E-01 -0.16954066053E-01  0.23625461144E-01  0.00000000000E+00 0.  1.
     999901    1    3    3    0    0  0.12291156792E+00  0.55638107301E-02  0.99530205662E-02  0.88861536794E+00  0.88000000000E+00 0. -1.
        -11    1    4    4    0    0 -0.75292747579E-01 -0.22223293627E-01  0.27846458793E-02  0.78554999786E-01  0.51100000000E-03 0. -1.
         11    1    4    4    0    0 -0.52952839188E-01  0.10944483162E-02  0.42163996075E-02  0.53134171131E-01  0.51100000000E-03 0.  1.
</event>
<event>
 8    1  0.1044719E+005  0.1043930E+01  0.7957747E-01            NaN
         13   -1    0    0    0    0  0.00000000000E+00  0.00000000000E+00  0.74505805969E-08  0.10566000000E+00  0.10566000000E+00 0.  1.
     999900   -1    0    0    0    0 -0.00000000000E+00 -0.00000000000E+00 -0.74505805969E-08  0.93827000000E+00  0.93827000000E+00 0. -1.
     999902    2    1    2    0    0  0.29342039606E-02  0.95152484944E-02  0.21589216449E-01  0.10201551441E+01  0.10198780683E+01 0.  0.
     999903    2    3    3    0    0 -0.13678543063E-01 -0.52387901637E-02  0.13082392712E+00  0.13312307757E+00  0.19806726435E-01 0.  0.
         14    1    1    2    0    0 -0.29342039606E-02 -0.95152484944E-02 -0.21589216449E-01  0.23774855913E-01  0.00000000000E+00 0. -1.
     999901    1    3    3    0    0  0.16612747023E-01  0.14754038658E-01 -0.10923471067E+00  0.88703206652E+00  0.88000000000E+00 0. -1.
        -11    1    4    4    0    0 -0.48084845840E-02 -0.11895986095E-01  0.54284313449E-01  0.55782468723E-01  0.51100000000E-03 0. -1.
         11    1    4    4    0    0 -0.88700584786E-02  0.66571959311E-02  0.76539613667E-01  0.77340608844E-01  0.51100000000E-03 0.  1.
</event>
<event>
 8    1  0.1044719E+005  0.1043930E+01  0.7957747E-01            NaN
         13   -1    0    0    0    0  0.00000000000E+00  0.00000000000E+00  0.74505805969E-08  0.10566000000E+00  0.10566000000E+00 0. -1.
     999900   -1    0    0    0    0 -0.00000000000E+00 -0.00000000000E+00 -0.74505805969E-08  0.93827000000E+00  0.93827000000E+00 0. -1.
     999902    2    1    2    0    0 -0.24483965329E-01 -0.65767896790E-02 -0.60331390965E-02  0.10178701173E+01  0.10175364653E+01 0.  0.
     999903    2    3    3    0    0  0.75738323458E-01  0.12650009082E-01 -0.99323665106E-01  0.12707423762E+00  0.19655916300E-01 0.  0.
         14    1    1    2    0    0  0.24483965329E-01  0.65767896790E-02  0.60331390965E-02  0.26059882733E-01  0.00000000000E+00 0.  1.
     999901    1    3    3    0    0 -0.10022228879E+00 -0.19226798761E-01  0.93290526009E-01  0.89079587965E+00  0.88000000000E+00 0.  1.
        -11    1    4    4    0    0  0.27780919623E-01 -0.32155544063E-02 -0.27171961627E-01  0.38996101150E-01  0.51100000000E-03 0. -1.
         11    1    4    4    0    0  0.47957403834E-01  0.15865563488E-01 -0.72151703479E-01  0.88078136465E-01  0.51100000000E-03 0.  1.
</event>
<event>
 8    1  0.1044719E+005  0.1043930E+01  0.7957747E-01            NaN
         13   -1    0    0    0    0  0.00000000000E+00  0.00000000000E+00  0.74505805969E-08  0.10566000000E+00  0.10566000000E+00 0. -1.
     999900   -1    0    0    0    0 -0.00000000000E+00 -0.00000000000E+00 -0.74505805969E-08  0.93827000000E+00  0.93827000000E+00 0.  1.
     999902    2    1    2    0    0  0.99238605714E-02 -0.86260418918E-02  0.18700338876E-01  0.10210696789E+01  0.10208137415E+01 0.  0.
     999903    2    3    3    0    0 -0.19975031373E-01 -0.43789479048E-01  0.12300777781E+00  0.13370816695E+00  0.20747051706E-01 0.  0.
         14    1    1    2    0    0 -0.99238605714E-02  0.86260418918E-02 -0.18700338876E-01  0.22860321114E-01  0.00000000000E+00 0.  1.
     999901    1    3    3    0    0  0.29898891944E-01  0.35163437156E-01 -0.10430743893E+00  0.88736151194E+00  0.88000000000E+00 0.  1.
        -11    1    4    4    0    0 -0.13672059583E-01 -0.77935057107E-02  0.33022976340E-01  0.36584724023E-01  0.51100000000E-03 0.  1.
         11    1    4    4    0    0 -0.63029717890E-02 -0.35995973338E-01  0.89984801466E-01  0.97123442925E-01  0.51100000000E-03 0. -1.
</event>
<event>
 8    1  0.1044719E+005  0.1043930E+01  0.7957747E-01            NaN
         13   -1    0    0    0    0  0.00000000000E+00  0.00000000000E+00  0.74505805969E-08  0.10566000000E+00  0.10566000000E+00 0.  1.
     999900   -1    0    0    0    0 -0.00000000000E+00 -0.00000000000E+00 -0.74505805969E-08  0.93827000000E+00  0.93827000000E+00 0. -1.
     999902    2    1    2    0    0  0.85934988039E-03  0.19712552495E-01  0.14482875713E-01  0.10194539526E+01  0.10191600878E+01 0.  0.
     999903    2    3    3    0    0 -0.74541648310E-01 -0.87220315228E-01 -0.51679128000E-01  0.12732315530E+00  0.19406516534E-01 0.  0.
         14    1    1    2    0    0 -0.85934988039E-03 -0.19712552495E-01 -0.14482875713E-01  0.24476047414E-01  0.00000000000E+00 0. -1.
     999901    1    3    3    0    0  0.75400998191E-01  0.10693286772E+00  0.66162003713E-01  0.89213079728E+00  0.88000000000E+00 0. -1.
        -11    1    4    4    0    0 -0.45509847173E-01 -0.61477585668E-01 -0.42271882660E-01  0.87394581719E-01  0.51100000000E-03 0. -1.
         11    1    4    4    0    0 -0.29031801137E-01 -0.25742729560E-01 -0.94072453396E-02  0.39928573583E-01  0.51100000000E-03 0.  1.
</event>
<event>
 8    1  0.1044719E+005  0.1043930E+01  0.7957747E-01            NaN
         13   -1    0    0    0    0  0.00000000000E+00  0.00000000000E+00  0.74505805969E-08  0.10566000000E+00  0.10566000000E+00 0. -1.
     999900   -1    0    0    0    0 -0.00000000000E+00 -0.00000000000E+00 -0.74505805969E-08  0.93827000000E+00  0.93827000000E+00 0.  1.
     999902    2    1    2    0    0  0.10443652087E-01 -0.16144464050E-01 -0.14561716630E-01  0.10198103570E+01  0.10195250890E+01 0.  0.
     999903    2    3    3    0    0  0.11692443980E+00  0.52542802770E-01  0.12143607182E-01  0.13033339095E+00  0.20180556335E-01 0.  0.
         14    1    1    2    0    0 -0.10443652087E-01  0.16144464050E-01  0.14561716630E-01  0.24119643024E-01  0.00000000000E+00 0. -1.
     999901    1    3    3    0    0 -0.10648078772E+00 -0.68687266821E-01 -0.26705323812E-01  0.88947696603E+00  0.88000000000E+00 0.  1.
        -11    1    4    4    0    0  0.10371529673E+00  0.49562209336E-01  0.51047965958E-02  0.11506344093E+00  0.51100000000E-03 0.  1.
         11    1    4    4    0    0  0.13209143079E-01  0.29805934342E-02  0.70388105864E-02  0.15269950018E-01  0.51100000000E-03 0. -1.
</event>
<event>
 8    1  0.1044719E+005  0.1043930E+01  0.7957747E-01            NaN
         13   -1    0    0    0    0  0.00000000000E+00  0.00000000000E+00  0.74505805969E-08  0.10566000000E+00  0.10566000000E+00 0.  1.
     999900   -1    0    0    0    0 -0.00000000000E+00 -0.00000000000E+00 -0.74505805969E-08  0.93827000000E+00  0.93827000000E+00 0. -1.
     999902    2    1    2    0    0  0.16987001733E-01  0.16133924131E-01 -0.99997087392E-04  0.10205019882E+01  0.10202330304E+01 0.  0.
     999903    2    3    3    0    0  0.11903619576E+00  0.53363201717E-01 -0.19004213200E-01  0.13362125979E+00  0.21822780506E-01 0.  0.
         14    1    1    2    0    0 -0.16987001733E-01 -0.16133924131E-01  0.99997087392E-04  0.23428011762E-01  0.00000000000E+00 0.  1.
     999901    1    3    3    0    0 -0.10204919403E+00 -0.37229277586E-01  0.18904216112E-01  0.88688072845E+00  0.88000000000E+00 0.  1.
        -11    1    4    4    0    0  0.52921143050E-01  0.12996396850E-01 -0.34179676007E-02  0.54603089073E-01  0.51100000000E-03 0.  1.
         11    1    4    4    0    0  0.66115052710E-01  0.40366804866E-01 -0.15586245599E-01  0.79018170713E-01  0.51100000000E-03 0. -1.
</event>
<event>
 8    1  0.1044719E+005  0.1043930E+01  0.7957747E-01            NaN
         13   -1    0    0    0    0  0.00000000000E+00  0.00000000000E+00  0.74505805969E-08  0.10566000000E+00  0.10566000000E+00 0. -1.
     999900   -1    0    0    0    0 -0.00000000000E+00 -0.00000000000E+00 -0.74505805969E-08  0.93827000000E+00  0.93827000000E+00 0.  1.
     999902    2    1    2    0    0  0.14053835617E-01  0.17642315499E-01 -0.67273895196E-02  0.10203923841E+01  0.10201208743E+01 0.  0.
     999903    2    3    3    0    0 -0.10294005255E+00 -0.69947116128E-01  0.20905098006E-01  0.12791099340E+00  0.20855350308E-01 0.  0.
         14    1    1    2    0    0 -0.14053835617E-01 -0.17642315499E-01  0.67273895196E-02  0.23537615884E-01  0.00000000000E+00 0. -1.
     999901    1    3    3    0    0  0.11699388817E+00  0.87589431628E-01 -0.27632487525E-01  0.89248139071E+00  0.88000000000E+00 0. -1.
        -11    1    4    4    0    0 -0.70749378655E-01 -0.56675742992E-01  0.21151067492E-01  0.93087288073E-01  0.51100000000E-03 0. -1.
         11    1    4    4    0    0 -0.32190673898E-01 -0.13271373136E-01 -0.24596948619E-03  0.34823705330E-01  0.51100000000E-03 0.  1.
</event>
<event>
 8    1  0.1044719E+005  0.1043930E+01  0.7957747E-01            NaN
         13   -1    0    0    0    0  0.00000000000E+00  0.00000000000E+00  0.74505805969E-08  0.10566000000E+00  0.10566000000E+00 0.  1.
     999900   -1    0    0    0    0 -0.00000000000E+00 -0.00000000000E+00 -0.74505805969E-08  0.93827000000E+00  0.93827000000E+00 0. -1.
     999902    2    1    2    0    0 -0.21341730939E-01  0.56053658753E-03 -0.10423085996E-01  0.10201723822E+01  0.10198957128E+01 0.  0.
     999903    2    3    3    0    0 -0.51819827998E-01  0.62442290065E-01 -0.10289484043E+00  0.13264250037E+00  0.20551169190E-01 0.  0.
         14    1    1    2    0    0  0.21341730939E-01 -0.56053658753E-03  0.10423085996E-01  0.23757617777E-01  0.00000000000E+00 0.  1.
     999901    1    3    3    0    0  0.30478097059E-01 -0.61881753477E-01  0.92471754434E-01  0.88752988185E+00  0.88000000000E+00 0.  1.
        -11    1    4    4    0    0 -0.16556811345E-01  0.24685191937E-01 -0.53276400302E-01  0.61009201380E-01  0.51100000000E-03 0. -1.
         11    1    4    4    0    0 -0.35263016653E-01  0.37757098128E-01 -0.49618440128E-01  0.71633298991E-01  0.51100000000E-03 0.  1.
</event>
<event>
 8    1  0.1044719E+005  0.1043930E+01  0.7957747E-01            NaN
         13   -1    0    0    0    0  0.00000000000E+00  0.00000000000E+00  0.74505805969E-08  0.10566000000E+00  0.10566000000E+00 0. -1.
     999900   -1    0    0    0    0 -0.00000000000E+00 -0.00000000000E+00 -0.74505805969E-08  0.93827000000E+00  0.93827000000E+00 0.  1.
     999902    2    1    2    0    0 -0.85429448404E-02 -0.15254487762E-01  0.21115635951E-01  0.10165155625E+01  0.10161458249E+01 0.  0.
     999903    2    3    3    0    0 -0.19614634220E-01 -0.44123195527E-01  0.11931395511E+00  0.13051392902E+00  0.21598044451E-01 0.  0.
         14    1    1    2    0    0  0.85429448404E-02  0.15254487762E-01 -0.21115635951E-01  0.27414437529E-01  0.00000000000E+00 0.  1.
     999901    1    3    3    0    0  0.11071689380E-01  0.28868707765E-01 -0.98198319162E-01  0.88600163345E+00  0.88000000000E+00 0.  1.
        -11    1    4    4    0    0 -0.19732104266E-01 -0.18716558044E-01  0.54925784797E-01  0.61292482739E-01  0.51100000000E-03 0.  1.
         11    1    4    4    0    0  0.11747004540E-03 -0.25406637484E-01  0.64388170316E-01  0.69221446280E-01  0.51100000000E-03 0. -1.
</event>
<event>
 8    1  0.1044719E+005  0.1043930E+01  0.7957747E-01            NaN
         13   -1    0    0    0    0  0.00000000000E+00  0.00000000000E+00  0.74505805969E-08  0.10566000000E+00  0.10566000000E+00 0.  1.
     999900   -1    0    0    0    0 -0.00000000000E+00 -0.00000000000E+00 -0.74505805969E-08  0.93827000000E+00  0.93827000000E+00 0.  1.
     999902    2    1    2    0    0  0.24219315959E-01 -0.75162735255E-02  0.28851648082E-02  0.10184075822E+01  0.10180877220E+01 0.  0.
     999903    2    3    3    0    0  0.71266347874E-01  0.31324140142E-01  0.10325799921E+00  0.13060315171E+00  0.18299583081E-01 0.  0.
         14    1    1    2    0    0 -0.24219315959E-01  0.75162735255E-02 -0.28851648082E-02  0.25522417777E-01  0.00000000000E+00 0.  1.
     999901    1    3    3    0    0 -0.47047031916E-01 -0.38840413667E-01 -0.10037283441E+00  0.88780443051E+00  0.88000000000E+00 0.  1.
        -11    1    4    4    0    0  0.74208582251E-02  0.36151793678E-02  0.22605500997E-01  0.24070904740E-01  0.51100000000E-03 0.  1.
         11    1    4    4    0    0  0.63845489649E-01  0.27708960774E-01  0.80652498217E-01  0.10653224697E+00  0.51100000000E-03 0. -1.
</event>
<event>
 8    1  0.1044719E+005  0.1043930E+01  0.7957747E-01            NaN
         13   -1    0    0    0    0  0.00000000000E+00  0.00000000000E+00  0.74505805969E-08  0.10566000000E+00  0.10566000000E+00 0.  1.
     999900   -1    0    0    0    0 -0.00000000000E+00 -0.00000000000E+00 -0.74505805969E-08  0.93827000000E+00  0.93827000000E+00 0.  1.
     999902    2    1    2    0    0  0.50196294442E-02  0.24278573005E-01  0.36059331801E-02  0.10188770852E+01  0.10185690287E+01 0.  0.
     999903    2    3    3    0    0  0.11229034815E+00 -0.45293589165E-01 -0.37621828873E-01  0.12868215079E+00  0.21978680992E-01 0.  0.
         14    1    1    2    0    0 -0.50196294442E-02 -0.24278573005E-01 -0.36059331801E-02  0.25052914820E-01  0.00000000000E+00 0. -1.
     999901    1    3    3    0    0 -0.10727071871E+00  0.69572162169E-01  0.41227762053E-01  0.89019493438E+00  0.88000000000E+00 0. -1.
        -11    1    4    4    0    0  0.92070323367E-01 -0.28144288835E-01 -0.25978753979E-01  0.99720620828E-01  0.51100000000E-03 0.  1.
         11    1    4    4    0    0  0.20220024784E-01 -0.17149300330E-01 -0.11643074894E-01  0.28961529967E-01  0.51100000000E-03 0. -1.
</event>
<event>
 8    1  0.1044719E+005  0.1043930E+01  0.7957747E-01            NaN
         13   -1    0    0    0    0  0.00000000000E+00  0.00000000000E+00  0.74505805969E-08  0.10566000000E+00  0.10566000000E+00 0. -1.
     999900   -1    0    0    0    0 -0.00000000000E+00 -0.00000000000E+00 -0.74505805969E-08  0.93827000000E+00  0.93827000000E+00 0.  1.
     999902    2    1    2    0    0 -0.12033456049E-02 -0.23671199310E-01 -0.23765487329E-02  0.10201093850E+01  0.10198312290E+01 0.  0.
     999903    2    3    3    0    0  0.22243449199E-01  0.92247088047E-01 -0.84576942441E-01  0.12840107712E+00  0.18146105019E-01 0.  0.
         14    1    1    2    0    0  0.12033456049E-02  0.23671199310E-01  0.23765487329E-02  0.23820615048E-01  0.00000000000E+00 0. -1.
     999901    1    3    3    0    0 -0.23446794804E-01 -0.11591828736E+00  0.82200393709E-01  0.89170830783E+00  0.88000000000E+00 0. -1.
        -11    1    4    4    0    0  0.61163499845E-02  0.54282270438E-02 -0.55405431886E-02  0.98911134761E-02  0.51100000000E-03 0. -1.
         11    1    4    4    0    0  0.16127099214E-01  0.86818861004E-01 -0.79036399253E-01  0.11850996364E+00  0.51100000000E-03 0.  1.
</event>
<event>
 8    1  0.1044719E+005  0.1043930E+01  0.7957747E-01            NaN
         13   -1    0    0    0    0  0.00000000000E+00  0.00000000000E+00  0.74505805969E-08  0.10566000000E+00  0.10566000000E+00 0.  1.
     999900   -1    0    0    0    0 -0.00000000000E+00 -0.00000000000E+00 -0.74505805969E-08  0.93827000000E+00  0.93827000000E+00 0. -1.
     999902    2    1    2    0    0  0.74000346503E-02 -0.74397983242E-02 -0.21055966852E-01  0.10204041663E+01  0.10201329314E+01 0.  0.
     999903    2    3    3    0    0  0.68003235018E-01  0.94615954123E-01  0.52782900643E-01  0.12937088809E+00  0.19343560592E-01 0.  0.
         14    1    1    2    0    0 -0.74000346503E-02  0.74397983242E-02  0.21055966852E-01  0.23525833716E-01  0.00000000000E+00 0.  1.
     999901    1    3    3    0    0 -0.60603200368E-01 -0.10205575245E+00 -0.73838867496E-01  0.89103327820E+00  0.88000000000E+00 0. -1.
        -11    1    4    4    0    0  0.32242497250E-01  0.44169677157E-01  0.35365507815E-01  0.65126947365E-01  0.51100000000E-03 0. -1.
         11    1    4    4    0    0  0.35760737768E-01  0.50446276967E-01  0.17417392828E-01  0.64243940722E-01  0.51100000000E-03 0.  1.
</event>
<event>
 8    1  0.1044719E+005  0.1043930E+01  0.7957747E-01            NaN
         13   -1    0    0    0    0  0.00000000000E+00  0.00000000000E+00  0.74505805969E-08  0.10566000000E+00  0.10566000000E+00 0. -1.
     999900   -1    0    0    0    0 -0.00000000000E+00 -0.00000000000E+00 -0.74505805969E-08  0.93827000000E+00  0.93827000000E+00 0.  1.
     999902    2    1    2    0    0 -0.50557939838E-02  0.20546454550E-01 -0.12832097473E-01  0.10191836756E+01  0.10188832043E+01 0.  0.
     999903    2    3    3    0    0  0.48794977427E-01  0.99264550191E-01 -0.69611540678E-01  0.13221110027E+00  0.19990189884E-01 0.  0.
         14    1    1    2    0    0  0.50557939838E-02 -0.20546454550E-01  0.12832097473E-01  0.24746324433E-01  0.00000000000E+00 0.  1.
     999901    1    3    3    0    0 -0.53850771411E-01 -0.78718095641E-01  0.56779443205E-01  0.88697257530E+00  0.88000000000E+00 0.  1.
        -11    1    4    4    0    0  0.24538449111E-01  0.71064861147E-01 -0.47646334772E-01  0.89010023665E-01  0.51100000000E-03 0. -1.
         11    1    4    4    0    0  0.24256528316E-01  0.28199689045E-01 -0.21965205906E-01  0.43201076603E-01  0.51100000000E-03 0.  1.
</event>
<event>
 8    1  0.1044719E+005  0.1043930E+01  0.7957747E-01            NaN
         13   -1    0    0    0    0  0.00000000000E+00  0.00000000000E+00  0.74505805969E-08  0.10566000000E+00  0.10566000000E+00 0.  1.
     999900   -1    0    0    0    0 -0.00000000000E+00 -0.00000000000E+00 -0.74505805969E-08  0.93827000000E+00  0.93827000000E+00 0. -1.
     999902    2    1    2    0    0  0.19596047276E-01 -0.98516207343E-02 -0.11467919916E-01  0.10191797942E+01  0.10188792275E+01 0.  0.
     999903    2    3    3    0    0  0.16428117123E-01 -0.96975469828E-01 -0.85607205275E-01  0.13176938492E+00  0.18985584713E-01 0.  0.
         14    1    1    2    0    0 -0.19596047276E-01  0.98516207343E-02  0.11467919916E-01  0.24750205800E-01  0.00000000000E+00 0.  1.
     999901    1    3    3    0    0  0.31679301534E-02  0.87123849094E-01  0.74139285359E-01  0.88741040928E+00  0.88000000000E+00 0.  1.
        -11    1    4    4    0    0  0.16762144057E-01 -0.43877597909E-01 -0.43099192486E-01  0.63749624199E-01  0.51100000000E-03 0. -1.
         11    1    4    4    0    0 -0.33402693416E-03 -0.53097871920E-01 -0.42508012790E-01  0.68019760722E-01  0.51100000000E-03 0.  1.
</event>
<event>
 8    1  0.1044719E+005  0.1043930E+01  0.7957747E-01            NaN
         13   -1    0    0    0    0  0.00000000000E+00  0.00000000000E+00  0.74505805969E-08  0.10566000000E+00  0.10566000000E+00 0.  1.
     999900   -1    0    0    0    0 -0.00000000000E+00 -0.00000000000E+00 -0.74505805969E-08  0.93827000000E+00  0.93827000000E+00 0. -1.
     999902    2    1    2    0    0  0.50336776751E-02 -0.20064809758E-01 -0.11444867559E-01  0.10202885217E+01  0.10200145823E+01 0.  0.
     999903    2    3    3    0    0  0.22871999134E-01 -0.23429124812E-01 -0.12706866150E+00  0.13253946594E+00  0.18660467852E-01 0.  0.
         14    1    1    2    0    0 -0.50336776751E-02  0.20064809758E-01  0.11444867559E-01  0.23641478274E-01  0.00000000000E+00 0.  1.
     999901    1    3    3    0    0 -0.17838321459E-01  0.33643150546E-02  0.11562379395E+00  0.88774905579E+00  0.88000000000E+00 0.  1.
        -11    1    4    4    0    0 -0.21666109503E-03 -0.67632568988E-02 -0.48418264110E-01  0.48891492167E-01  0.51100000000E-03 0.  1.
         11    1    4    4    0    0  0.23088660229E-01 -0.16665867913E-01 -0.78650397395E-01  0.83647973770E-01  0.51100000000E-03 0. -1.
</event>
<event>
 8    1  0.1044719E+005  0.1043930E+01  0.7957747E-01            NaN
         13   -1    0    0    0    0  0.00000000000E+00  0.00000000000E+00  0.74505805969E-08  0.10566000000E+00  0.10566000000E+00 0.  1.
     999900   -1    0    0    0    0 -0.00000000000E+00 -0.00000000000E+00 -0.74505805969E-08  0.93827000000E+00  0.93827000000E+00 0.  1.
     999902    2    1    2    0    0 -0.10640201824E-01  0.82850906220E-02  0.18980605750E-01  0.10206465291E+01  0.10203809178E+01 0.  0.
     999903    2    3    3    0    0  0.10144346209E+00  0.76404888340E-01 -0.19626470933E-01  0.13008852375E+00  0.20232219029E-01 0.  0.
         14    1    1    2    0    0  0.10640201824E-01 -0.82850906220E-02 -0.18980605750E-01  0.23283470877E-01  0.00000000000E+00 0.  1.
     999901    1    3    3    0    0 -0.11208366392E+00 -0.68119797718E-01  0.38607076683E-01  0.89055800537E+00  0.88000000000E+00 0.  1.
        -11    1    4    4    0    0  0.55133817497E-01  0.34395033104E-01 -0.18438181523E-01  0.67549861531E-01  0.51100000000E-03 0. -1.
         11    1    4    4    0    0  0.46309644598E-01  0.42009855236E-01 -0.11882894101E-02  0.62538662221E-01  0.51100000000E-03 0.  1.
</event>
<event>
 8    1  0.1044719E+005  0.1043930E+01  0.7957747E-01            NaN
         13   -1    0    0    0    0  0.00000000000E+00  0.00000000000E+00  0.74505805969E-08  0.10566000000E+00  0.10566000000E+00 0.  1.
     999900   -1    0    0    0    0 -0.00000000000E+00 -0.00000000000E+00 -0.74505805969E-08  0.93827000000E+00  0.93827000000E+00 0.  1.
     999902    2    1    2    0    0 -0.14803684812E-01 -0.14884459507E-01 -0.10045330709E-01  0.10206575939E+01  0.10203922378E+01 0.  0.
     999903    2    3    3    0    0 -0.51189405822E-02  0.12748540242E+00  0.25424325910E-02  0.12907393337E+00  0.19361945387E-01 0.  0.
         14    1    1    2    0    0  0.14803684812E-01  0.14884459507E-01  0.10045330709E-01  0.23272406148E-01  0.00000000000E+00 0.  1.
     999901    1    3    3    0    0 -0.96847442302E-02 -0.14236986193E+00 -0.12587763300E-01  0.89158366048E+00  0.88000000000E+00 0.  1.
        -11    1    4    4    0    0  0.47183562027E-02  0.64032384182E-01 -0.50869090018E-02  0.64409214197E-01  0.51100000000E-03 0. -1.
         11    1    4    4    0    0 -0.98372967849E-02  0.63453018237E-01  0.76293415928E-02  0.64664719172E-01  0.51100000000E-03 0.  1.
</event>
<event>
 8    1  0.1044719E+005  0.1043930E+01  0.7957747E-01            NaN
         13   -1    0    0    0    0  0.00000000000E+00  0.00000000000E+00  0.74505805969E-08  0.10566000000E+00  0.10566000000E+00 0. -1.
     999900   -1    0    0    0    0 -0.00000000000E+00 -0.00000000000E+00 -0.74505805969E-08  0.93827000000E+00  0.93827000000E+00 0. -1.
     999902    2    1    2    0    0  0.47192533379E-02 -0.22625249150E-01  0.18163149421E-02  0.10207465522E+01  0.10204832442E+01 0.  0.
     999903    2    3    3    0    0 -0.92620495876E-01  0.48305045193E-01 -0.73576452303E-01  0.12934865970E+00  0.20140699713E-01 0.  0.
         14    1    1    2    0    0 -0.47192533379E-02  0.22625249150E-01 -0.18163149421E-02  0.23183447784E-01  0.00000000000E+00 0. -1.
     999901    1    3    3    0    0  0.97339749213E-01 -0.70930294343E-01  0.75392767245E-01  0.89139789252E+00  0.88000000000E+00 0.  1.
        -11    1    4    4    0    0 -0.30168623652E-01  0.25050040752E-01 -0.21151006977E-01  0.44556442989E-01  0.51100000000E-03 0.  1.
         11    1    4    4    0    0 -0.62451872224E-01  0.23255004441E-01 -0.52425445326E-01  0.84792216709E-01  0.51100000000E-03 0. -1.
</event>
<event>
 8    1  0.1044719E+005  0.1043930E+01  0.7957747E-01            NaN
         13   -1    0    0    0    0  0.00000000000E+00  0.00000000000E+00  0.74505805969E-08  0.10566000000E+00  0.10566000000E+00 0. -1.
     999900   -1    0    0    0    0 -0.00000000000E+00 -0.00000000000E+00 -0.74505805969E-08  0.93827000000E+00  0.93827000000E+00 0.  1.
     999902    2    1    2    0    0  0.36357138840E-02  0.38851904492E-02  0.21161349185E-01  0.10221099216E+01  0.10218769868E+01 0.  0.
     999903    2    3    3    0    0 -0.10525159842E+00  0.67929564208E-01 -0.34175612941E-01  0.13136848443E+00  0.19934430479E-01 0.  0.
         14    1    1    2    0    0 -0.36357138840E-02 -0.38851904492E-02 -0.21161349185E-01  0.21820078359E-01  0.00000000000E+00 0.  1.
     999901    1    3    3    0    0  0.10888731230E+00 -0.64044373759E-01  0.55336962125E-01  0.89074143721E+00  0.88000000000E+00 0.  1.
        -11    1    4    4    0    0 -0.89623135933E-01  0.48852350667E-01 -0.29617182171E-01  0.10628404048E+00  0.51100000000E-03 0. -1.
         11    1    4    4    0    0 -0.15628462483E-01  0.19077213542E-01 -0.45584307697E-02  0.25084443948E-01  0.51100000000E-03 0.  1.
</event>
<event>
 8    1  0.1044719E+005  0.1043930E+01  0.7957747E-01            NaN
         13   -1    0    0    0    0  0.00000000000E+00  0.00000000000E+00  0.74505805969E-08  0.10566000000E+00  0.10566000000E+00 0. -1.
     999900   -1    0    0    0    0 -0.00000000000E+00 -0.00000000000E+00 -0.74505805969E-08  0.93827000000E+00  0.93827000000E+00 0.  1.
     999902    2    1    2    0    0 -0.16027812069E-01  0.16261942761E-01 -0.73079387075E-03  0.10210854032E+01  0.10208298218E+01 0.  0.
     999903    2    3    3    0    0 -0.53037621514E-01  0.10901873748E+00  0.52715661959E-01  0.13382553565E+00  0.20790828739E-01 0.  0.
         14    1    1    2    0    0  0.16027812069E-01 -0.16261942761E-01  0.73079387075E-03  0.22844596775E-01  0.00000000000E+00 0.  1.
     999901    1    3    3    0    0  0.37009809444E-01 -0.92756794719E-01 -0.53446455830E-01  0.88725986757E+00  0.88000000000E+00 0.  1.
        -11    1    4    4    0    0 -0.34981073275E-01  0.60947176357E-01  0.40234143806E-01  0.80977041451E-01  0.51100000000E-03 0.  1.
         11    1    4    4    0    0 -0.18056548239E-01  0.48071561123E-01  0.12481518154E-01  0.52848494203E-01  0.51100000000E-03 0. -1.
</event>
<event>
 8    1  0.1044719E+005  0.1043930E+01  0.7957747E-01            NaN
         13   -1    0    0    0    0  0.00000000000E+00  0.00000000000E+00  0.74505805969E-08  0.10566000000E+00  0.10566000000E+00 0.  1.
     999900   -1    0    0    0    0 -0.00000000000E+00 -0.00000000000E+00 -0.74505805969E-08  0.93827000000E+00  0.93827000000E+00 0.  1.
     999902    2    1    2    0    0 -0.22504864463E-01  0.79614265491E-02 -0.21322111393E-03  0.10200574488E+01  0.10197780642E+01 0.  0.
     999903    2    3    3    0    0  0.94460500436E-01 -0.75336422568E-01  0.36085707635E-01  0.12768026371E+00  0.20042672915E-01 0.  0.
         14    1    1    2    0    0  0.22504864463E-01 -0.79614265491E-02  0.21322111393E-03  0.23872551193E-01  0.00000000000E+00 0.  1.
     999901    1    3    3    0    0 -0.11696536490E+00  0.83297849117E-01 -0.36298928749E-01  0.89237718510E+00  0.88000000000E+00 0.  1.
        -11    1    4    4    0    0  0.67099230607E-01 -0.60450801069E-01  0.19534288267E-01  0.92403764193E-01  0.51100000000E-03 0. -1.
         11    1    4    4    0    0  0.27361269830E-01 -0.14885621499E-01  0.16551419368E-01  0.35276499517E-01  0.51100000000E-03 0.  1.
</event>
<event>
 8    1  0.1044719E+005  0.1043930E+01  0.7957747E-01            NaN
         13   -1    0    0    0    0  0.00000000000E+00  0.00000000000E+00  0.74505805969E-08  0.10566000000E+00  0.10566000000E+00 0.  1.
     999900   -1    0    0    0    0 -0.00000000000E+00 -0.00000000000E+00 -0.74505805969E-08  0.93827000000E+00  0.93827000000E+00 0.  1.
     999902    2    1    2    0    0 -0.15083180770E-01  0.41739390392E-02 -0.17053444690E-01  0.10207838538E+01  0.10205214021E+01 0.  0.
     999903    2    3    3    0    0 -0.90614294493E-01  0.61842240222E-01 -0.73772924134E-01  0.13385224342E+00  0.20941960048E-01 0.  0.
         14    1    1    2    0    0  0.15083180770E-01 -0.41739390392E-02  0.17053444690E-01  0.23146146225E-01  0.00000000000E+00 0.  1.
     999901    1    3    3    0    0  0.75531113723E-01 -0.57668301183E-01  0.56719479444E-01  0.88693161036E+00  0.88000000000E+00 0. -1.
        -11    1    4    4    0    0 -0.81370908430E-01  0.47332988740E-01 -0.58442288087E-01  0.11080342377E+00  0.51100000000E-03 0.  1.
         11    1    4    4    0    0 -0.92433860637E-02  0.14509251482E-01 -0.15330636047E-01  0.23048819646E-01  0.51100000000E-03 0. -1.
</event>
<event>
 8    1  0.1044719E+005  0.1043930E+01  0.7957747E-01            NaN
         13   -1    0    0    0    0  0.00000000000E+00  0.00000000000E+00  0.74505805969E-08  0.10566000000E+00  0.10566000000E+00 0. -1.
     999900   -1    0    0    0    0 -0.00000000000E+00 -0.00000000000E+00 -0.74505805969E-08  0.93827000000E+00  0.93827000000E+00 0. -1.
     999902    2    1    2    0    0  0.22069776391E-01  0.21159516742E-02 -0.93893261524E-02  0.10198527965E+01  0.10195685435E+01 0.  0.
     999903    2    3    3    0    0 -0.88135804178E-01  0.81798431208E-01  0.39160316278E-01  0.12808397261E+00  0.20324132020E-01 0.  0.
         14    1    1    2    0    0 -0.22069776391E-01 -0.21159516742E-02  0.93893261524E-02  0.24077203472E-01  0.00000000000E+00 0. -1.
     999901    1    3    3    0    0  0.11020558057E+00 -0.79682479534E-01 -0.48549642430E-01  0.89176882392E+00  0.88000000000E+00 0. -1.
        -11    1    4    4    0    0 -0.17720758761E-01  0.28243069880E-01  0.80430153590E-02  0.34302295906E-01  0.51100000000E-03 0. -1.
         11    1    4    4    0    0 -0.70415045416E-01  0.53555361328E-01  0.31117300919E-01  0.93781676704E-01  0.51100000000E-03 0.  1.
</event>
<event>
 8    1  0.1044719E+005  0.1043930E+01  0.7957747E-01            NaN
         13   -1    0    0    0    0  0.00000000000E+00  0.00000000000E+00  0.74505805969E-08  0.10566000000E+00  0.10566000000E+00 0. -1.
     999900   -1    0    0    0    0 -0.00000000000E+00 -0.00000000000E+00 -0.74505805969E-08  0.93827000000E+00  0.93827000000E+00 0.  1.
     999902    2    1    2    0    0  0.22095936471E-01 -0.58527495464E-02 -0.82244296320E-02  0.10196374841E+01  0.10193480626E+01 0.  0.
     999903    2    3    3    0    0 -0.61971368553E-01 -0.10813937584E+00 -0.28887072693E-01  0.12949322023E+00  0.19986395104E-01 0.  0.
         14    1    1    2    0    0 -0.22095936471E-01  0.58527495464E-02  0.82244296320E-02  0.24292515895E-01  0.00000000000E+00 0. -1.
     999901    1    3    3    0    0  0.84067305023E-01  0.10228662629E+00  0.20662643061E-01  0.89014426388E+00  0.88000000000E+00 0.  1.
        -11    1    4    4    0    0 -0.36804240999E-01 -0.53501729985E-01 -0.23632402517E-01  0.69106720633E-01  0.51100000000E-03 0. -1.
         11    1    4    4    0    0 -0.25167127554E-01 -0.54637645854E-01 -0.52546701759E-02  0.60386499596E-01  0.51100000000E-03 0.  1.
</event>
<event>
 8    1  0.1044719E+005  0.1043930E+01  0.7957747E-01            NaN
         13   -1    0    0    0    0  0.00000000000E+00  0.00000000000E+00  0.74505805969E-08  0.10566000000E+00  0.10566000000E+00 0.  1.
     999900   -1    0    0    0    0 -0.00000000000E+00 -0.00000000000E+00 -0.74505805969E-08  0.93827000000E+00  0.93827000000E+00 0.  1.
     999902    2    1    2    0    0  0.20783244097E-01  0.89097093292E-02 -0.69443283867E-02  0.10202751939E+01  0.10200009419E+01 0.  0.
     999903    2    3    3    0    0 -0.11580453606E+00  0.72797731046E-02  0.49735458342E-01  0.12793474506E+00  0.20736381327E-01 0.  0.
         14    1    1    2    0    0 -0.20783244097E-01 -0.89097093292E-02  0.69443283867E-02  0.23654806114E-01  0.00000000000E+00 0.  1.
     999901    1    3    3    0    0  0.13658778015E+00  0.16299362246E-02 -0.56679786729E-01  0.89234044882E+00  0.88000000000E+00 0.  1.
        -11    1    4    4    0    0 -0.34722322990E-01 -0.67362857030E-02  0.18504038392E-01  0.39920894488E-01  0.51100000000E-03 0.  1.
         11    1    4    4    0    0 -0.81082213066E-01  0.14016058808E-01  0.31231419950E-01  0.88013850577E-01  0.51100000000E-03 0. -1.
</event>
<event>
 8    1  0.1044719E+005  0.1043930E+01  0.7957747E-01            NaN
         13   -1    0    0    0    0  0.00000000000E+00  0.00000000000E+00  0.74505805969E-08  0.10566000000E+00  0.10566000000E+00 0.  1.
     999900   -1    0    0    0    0 -0.00000000000E+00 -0.00000000000E+00 -0.74505805969E-08  0.93827000000E+00  0.93827000000E+00 0. -1.
     999902    2    1    2    0    0  0.39922279954E-02 -0.17464833148E-01  0.15685499941E-01  0.10201183812E+01  0.10198404378E+01 0.  0.
     999903    2    3    3    0    0  0.12551695749E+00  0.26052462509E-01 -0.10543639625E-01  0.13031504189E+00  0.20918995782E-01 0.  0.
         14    1    1    2    0    0 -0.39922279954E-02  0.17464833148E-01 -0.15685499941E-01  0.23811618795E-01  0.00000000000E+00 0.  1.
     999901    1    3    3    0    0 -0.12152472950E+00 -0.43517295656E-01  0.26229139565E-01  0.88980333932E+00  0.88000000000E+00 0. -1.
        -11    1    4    4    0    0  0.17822994850E-01  0.86635901941E-02 -0.74618799954E-02  0.21181541836E-01  0.51100000000E-03 0. -1.
         11    1    4    4    0    0  0.10769396264E+00  0.17388872315E-01 -0.30817596293E-02  0.10913350005E+00  0.51100000000E-03 0.  1.
</event>
<event>
 8    1  0.1044719E+005  0.1043930E+01  0.7957747E-01            NaN
         13   -1    0    0    0    0  0.00000000000E+00  0.00000000000E+00  0.74505805969E-08  0.10566000000E+00  0.10566000000E+00 0.  1.
     999900   -1    0    0    0    0 -0.00000000000E+00 -0.00000000000E+00 -0.74505805969E-08  0.93827000000E+00  0.93827000000E+00 0. -1.
     999902    2    1    2    0    0 -0.31846536000E-02 -0.21830710914E-01 -0.12459420465E-01  0.10185930879E+01  0.10182779186E+01 0.  0.
     999903    2    3    3    0    0 -0.12625308005E+00 -0.24918312179E-02 -0.21840100465E-01  0.12976924312E+00  0.20420994701E-01 0.  0.
         14    1    1    2    0    0  0.31846536000E-02  0.21830710914E-01  0.12459420465E-01  0.25336912123E-01  0.00000000000E+00 0. -1.
     999901    1    3    3    0    0  0.12306842645E+00 -0.19338879697E-01  0.93806800002E-02  0.88882384476E+00  0.88000000000E+00 0. -1.
        -11    1    4    4    0    0 -0.43630397547E-01  0.53409802532E-02 -0.39570884648E-04  0.43959075821E-01  0.51100000000E-03 0.  1.
         11    1    4    4    0    0 -0.82622682508E-01 -0.78328114711E-02 -0.21800529581E-01  0.85810167296E-01  0.51100000000E-03 0. -1.
</event>
<event>
 8    1  0.1044719E+005  0.1043930E+01  0.7957747E-01            NaN
         13   -1    0    0    0    0  0.00000000000E+00  0.00000000000E+00  0.74505805969E-08  0.10566000000E+00  0.10566000000E+00 0. -1.
     999900   -1    0    0    0    0 -0.00000000000E+00 -0.00000000000E+00 -0.74505805969E-08  0.93827000000E+00  0.93827000000E+00 0.  1.
     999902    2    1    2    0    0  0.14554872013E-01  0.11688343201E-01  0.15051419971E-01  0.10199506983E+01  0.10196687796E+01 0.  0.
     999903    2    3    3    0    0 -0.96583939069E-01  0.22760934235E-02  0.85134455872E-01  0.13014619299E+00  0.18881686532E-01 0.  0.
         14    1    1    2    0    0 -0.14554872013E-01 -0.11688343201E-01 -0.15051419971E-01  0.23979301684E-01  0.00000000000E+00 0.  1.
     999901    1    3    3    0    0  0.11113881108E+00  0.94122497773E-02 -0.70083035900E-01  0.88980450532E+00  0.88000000000E+00 0.  1.
        -11    1    4    4    0    0 -0.59343215427E-01  0.10445629675E-01  0.50086155296E-01  0.78355679245E-01  0.51100000000E-03 0. -1.
         11    1    4    4    0    0 -0.37240723642E-01 -0.81695362520E-02  0.35048300576E-01  0.51790513747E-01  0.51100000000E-03 0.  1.
</event>
<event>
 8    1  0.1044719E+005  0.1043930E+01  0.7957747E-01            NaN
         13   -1    0    0    0    0  0.00000000000E+00  0.00000000000E+00  0.74505805969E-08  0.10566000000E+00  0.10566000000E+00 0.  1.
     999900   -1    0    0    0    0 -0.00000000000E+00 -0.00000000000E+00 -0.74505805969E-08  0.93827000000E+00  0.93827000000E+00 0. -1.
     999902    2    1    2    0    0  0.68537942115E-02  0.10977004920E-01  0.20837699404E-01  0.10194008572E+01  0.10191057005E+01 0.  0.
     999903    2    3    3    0    0  0.68811385340E-01 -0.10139997661E+00 -0.32986837429E-01  0.12846628614E+00  0.19962294956E-01 0.  0.
         14    1    1    2    0    0 -0.68537942115E-02 -0.10977004920E-01 -0.20837699404E-01  0.24529142842E-01  0.00000000000E+00 0.  1.
     999901    1    3    3    0    0 -0.61957591129E-01  0.11237698153E+00  0.53824536833E-01  0.89093457102E+00  0.88000000000E+00 0.  1.
        -11    1    4    4    0    0  0.25273401818E-01 -0.48062493870E-01 -0.22662138088E-01  0.58843706377E-01  0.51100000000E-03 0. -1.
         11    1    4    4    0    0  0.43537983522E-01 -0.53337482744E-01 -0.10324699341E-01  0.69622579758E-01  0.51100000000E-03 0.  1.
</event>
<event>
 8    1  0.1044719E+005  0.1043930E+01  0.7957747E-01            NaN
         13   -1    0    0    0    0  0.00000000000E+00  0.00000000000E+00  0.74505805969E-08  0.10566000000E+00  0.10566000000E+00 0.  1.
     999900   -1    0    0    0    0 -0.00000000000E+00 -0.00000000000E+00 -0.74505805969E-08  0.93827000000E+00  0.93827000000E+00 0. -1.
     999902    2    1    2    0    0  0.21747769950E-01  0.36325782875E-02  0.81603129034E-02  0.10204193252E+01  0.10201484438E+01 0.  0.
     999903    2    3    3    0    0 -0.63265615998E-01  0.31941869699E-01  0.10755146488E+00  0.13030287616E+00  0.19715494645E-01 0.  0.
         14    1    1    2    0    0 -0.21747769950E-01 -0.36325782875E-02 -0.81603129034E-02  0.23510674799E-01  0.00000000000E+00 0. -1.
     999901    1    3    3    0    0  0.85013385949E-01 -0.28309291412E-01 -0.99391151976E-01  0.89011644905E+00  0.88000000000E+00 0. -1.
        -11    1    4    4    0    0  0.29388143921E-03 -0.13322035595E-04  0.75752060188E-02  0.75981189122E-02  0.51100000000E-03 0.  1.
         11    1    4    4    0    0 -0.63559497437E-01  0.31955191735E-01  0.99976258860E-01  0.12270475724E+00  0.51100000000E-03 0. -1.
</event>
<event>
 8    1  0.1044719E+005  0.1043930E+01  0.7957747E-01            NaN
         13   -1    0    0    0    0  0.00000000000E+00  0.00000000000E+00  0.74505805969E-08  0.10566000000E+00  0.10566000000E+00 0. -1.
     999900   -1    0    0    0    0 -0.00000000000E+00 -0.00000000000E+00 -0.74505805969E-08  0.93827000000E+00  0.93827000000E+00 0.  1.
     999902    2    1    2    0    0 -0.19198345423E-01  0.13168535669E-01 -0.45495847318E-02  0.10202090068E+01  0.10199331998E+01 0.  0.
     999903    2    3    3    0    0 -0.66611972882E-01  0.92586376809E-01 -0.64516873381E-01  0.13333172029E+00  0.24607490396E-01 0.  0.
         14    1    1    2    0    0  0.19198345423E-01 -0.13168535669E-01  0.45495847318E-02  0.23720993231E-01  0.00000000000E+00 0.  1.
     999901    1    3    3    0    0  0.47413627459E-01 -0.79417841140E-01  0.59967288649E-01  0.88687728648E+00  0.88000000000E+00 0. -1.
        -11    1    4    4    0    0 -0.32566608289E-01  0.54584855880E-01 -0.48166511742E-01  0.79751893026E-01  0.51100000000E-03 0.  1.
         11    1    4    4    0    0 -0.34045364593E-01  0.38001520929E-01 -0.16350361638E-01  0.53579827266E-01  0.51100000000E-03 0. -1.
</event>
<event>
 8    1  0.1044719E+005  0.1043930E+01  0.7957747E-01            NaN
         13   -1    0    0    0    0  0.00000000000E+00  0.00000000000E+00  0.74505805969E-08  0.10566000000E+00  0.10566000000E+00 0.  1.
     999900   -1    0    0    0    0 -0.00000000000E+00 -0.00000000000E+00 -0.74505805969E-08  0.93827000000E+00  0.93827000000E+00 0. -1.
     999902    2    1    2    0    0 -0.72315789781E-02  0.21057063949E-01 -0.10739155298E-01  0.10192110774E+01  0.10189112794E+01 0.  0.
     999903    2    3    3    0    0 -0.10376184363E+00  0.42504784120E-01  0.63734241036E-01  0.13054669564E+00  0.20179430040E-01 0.  0.
         14    1    1    2    0    0  0.72315789781E-02 -0.21057063949E-01  0.10739155298E-01  0.24718922573E-01  0.00000000000E+00 0.  1.
     999901    1    3    3    0    0  0.96530264647E-01 -0.21447720171E-01 -0.74473396335E-01  0.88866438179E+00  0.88000000000E+00 0. -1.
        -11    1    4    4    0    0 -0.82331552028E-01  0.33296114374E-01  0.59325815057E-01  0.10680322629E+00  0.51100000000E-03 0. -1.
         11    1    4    4    0    0 -0.21430291598E-01  0.92086697452E-02  0.44084259790E-02  0.23743469356E-01  0.51100000000E-03 0.  1.
</event>
<event>
 8    1  0.1044719E+005  0.1043930E+01  0.7957747E-01            NaN
         13   -1    0    0    0    0  0.00000000000E+00  0.00000000000E+00  0.74505805969E-08  0.10566000000E+00  0.10566000000E+00 0. -1.
     999900   -1    0    0    0    0 -0.00000000000E+00 -0.00000000000E+00 -0.74505805969E-08  0.93827000000E+00  0.93827000000E+00 0.  1.
     999902    2    1    2    0    0 -0.13004335468E-01  0.11016193703E-01  0.16260732604E-01  0.10203740944E+01  0.10201021575E+01 0.  0.
     999903    2    3    3    0    0  0.53108388726E-02  0.12171748598E+00  0.48392384519E-01  0.13266768752E+00  0.20384823515E-01 0.  0.
         14    1    1    2    0    0  0.13004335468E-01 -0.11016193703E-01 -0.16260732604E-01  0.23555905618E-01  0.00000000000E+00 0.  1.
     999901    1    3    3    0    0 -0.18315174341E-01 -0.11070129228E+00 -0.32131651915E-01  0.88770640686E+00  0.88000000000E+00 0.  1.
        -11    1    4    4    0    0  0.13014350047E-01  0.83386812355E-01  0.34394696880E-01  0.91137204677E-01  0.51100000000E-03 0. -1.
         11    1    4    4    0    0 -0.77035111742E-02  0.38330673628E-01  0.13997687639E-01  0.41530482846E-01  0.51100000000E-03 0.  1.
</event>
<event>
 8    1  0.1044719E+005  0.1043930E+01  0.7957747E-01            NaN
         13   -1    0    0    0    0  0.00000000000E+00  0.00000000000E+00  0.74505805969E-08  0.10566000000E+00  0.10566000000E+00 0.  1.
     999900   -1    0    0    0    0 -0.00000000000E+00 -0.00000000000E+00 -0.74505805969E-08  0.93827000000E+00  0.93827000000E+00 0. -1.
     999902    2    1    2    0    0 -0.19294918810E-01  0.10712512684E-01 -0.75718954870E-02  0.10205979315E+01  0.10203311974E+01 0.  0.
     999903    2    3    3    0    0 -0.25368873819E-01 -0.12464296296E+00  0.17086300675E-01  0.12988696582E+00  0.19980846987E-01 0.  0.
         14    1    1    2    0    0  0.19294918810E-01 -0.10712512684E-01  0.75718954870E-02  0.23332068514E-01  0.00000000000E+00 0. -1.
     999901    1    3    3    0    0  0.60739550096E-02  0.13535547564E+00 -0.24658196162E-01  0.89071096566E+00  0.88000000000E+00 0. -1.
        -11    1    4    4    0    0 -0.23992685828E-01 -0.70869013964E-01  0.12948041234E-01  0.75934043790E-01  0.51100000000E-03 0. -1.
         11    1    4    4    0    0 -0.13761879914E-02 -0.53773948993E-01  0.41382594407E-02  0.53952922033E-01  0.51100000000E-03 0.  1.
</event>
<event>
 8    1  0.1044719E+005  0.1043930E+01  0.7957747E-01            NaN
         13   -1    0    0    0    0  0.00000000000E+00  0.00000000000E+00  0.74505805969E-08  0.10566000000E+00  0.10566000000E+00 0. -1.
     999900   -1    0    0    0    0 -0.00000000000E+00 -0.00000000000E+00 -0.74505805969E-08  0.93827000000E+00  0.93827000000E+00 0.  1.
     999902    2    1    2    0    0 -0.22320566185E-02 -0.16748551502E-01  0.87359424302E-02  0.10249086240E+01  0.10247320991E+01 0.  0.
     999903    2    3    3    0    0 -0.52804116680E-01  0.10476090559E+00 -0.58321914181E-01  0.13259767062E+00  0.20434639736E-01 0.  0.
         14    1    1    2    0    0  0.22320566185E-02  0.16748551502E-01 -0.87359424302E-02  0.19021375984E-01  0.00000000000E+00 0. -1.
     999901    1    3    3    0    0  0.50572060062E-01 -0.12150945709E+00  0.67057856611E-01  0.89231095340E+00  0.88000000000E+00 0.  1.
        -11    1    4    4    0    0 -0.52648555989E-01  0.89712094709E-01 -0.50615889376E-01  0.11568214972E+00  0.51100000000E-03 0. -1.
         11    1    4    4    0    0 -0.15556069127E-03  0.15048810880E-01 -0.77060248045E-02  0.16915520900E-01  0.51100000000E-03 0.  1.
</event>
<event>
 8    1  0.1044719E+005  0.1043930E+01  0.7957747E-01            NaN
         13   -1    0    0    0    0  0.00000000000E+00  0.00000000000E+00  0.74505805969E-08  0.10566000000E+00  0.10566000000E+00 0. -1.
     999900   -1    0    0    0    0 -0.00000000000E+00 -0.00000000000E+00 -0.74505805969E-08  0.93827000000E+00  0.93827000000E+00 0. -1.
     999902    2    1    2    0    0  0.21915079448E-01  0.54399359629E-02  0.86899123897E-03  0.10213331251E+01  0.10210831179E+01 0.  0.
     999903    2    3    3    0    0 -0.12607712553E+00 -0.61776045608E-02  0.15731993001E-01  0.12877636565E+00  0.20056230061E-01 0.  0.
         14    1    1    2    0    0 -0.21915079448E-01 -0.54399359629E-02 -0.86899123897E-03  0.22596874923E-01  0.00000000000E+00 0. -1.
     999901    1    3    3    0    0  0.14799220498E+00  0.11617540524E-01 -0.14863001762E-01  0.89255675943E+00  0.88000000000E+00 0. -1.
        -11    1    4    4    0    0 -0.10345529825E+00 -0.18291404798E-02  0.19877698166E-01  0.10536474028E+00  0.51100000000E-03 0. -1.
         11    1    4    4    0    0 -0.22621827290E-01 -0.43484640810E-02 -0.41457051651E-02  0.23411625362E-01  0.51100000000E-03 0.  1.
</event>
<event>
 8    1  0.1044719E+005  0.1043930E+01  0.7957747E-01            NaN
         13   -1    0    0    0    0  0.00000000000E+00  0.00000000000E+00  0.74505805969E-08  0.10566000000E+00  0.10566000000E+00 0.  1.
     999900   -1    0    0    0    0 -0.00000000000E+00 -0.00000000000E+00 -0.74505805969E-08  0.93827000000E+00  0.93827000000E+00 0.  1.
     999902    2    1    2    0    0 -0.13582023478E-01  0.15349692811E-01 -0.10998842860E-01  0.10206693256E+01  0.10204042401E+01 0.  0.
     999903    2    3    3    0    0 -0.59401385179E-01 -0.19165903639E-01 -0.11535264219E+00  0.13264879892E+00  0.19839742196E-01 0.  0.
         14    1    1    2    0    0  0.13582023478E-01 -0.15349692811E-01  0.10998842860E-01  0.23260674440E-01  0.00000000000E+00 0.  1.
     999901    1    3    3    0    0  0.45819361701E-01  0.34515596450E-01  0.10435379933E+00  0.88802052664E+00  0.88000000000E+00 0. -1.
        -11    1    4    4    0    0 -0.54747156113E-01 -0.11393989914E-01 -0.92914228299E-01  0.10844532747E+00  0.51100000000E-03 0. -1.
         11    1    4    4    0    0 -0.46542290663E-02 -0.77719137255E-02 -0.22438413891E-01  0.24203471447E-01  0.51100000000E-03 0.  1.
</event>
<event>
 8    1  0.1044719E+005  0.1043930E+01  0.7957747E-01            NaN
         13   -1    0    0    0    0  0.00000000000E+00  0.00000000000E+00  0.74505805969E-08  0.10566000000E+00  0.10566000000E+00 0. -1.
     999900   -1    0    0    0    0 -0.00000000000E+00 -0.00000000000E+00 -0.74505805969E-08  0.93827000000E+00  0.93827000000E+00 0.  1.
     999902    2    1    2    0    0  0.21176172534E-01 -0.49349592839E-02 -0.93454168874E-02  0.10202631260E+01  0.10199885908E+01 0.  0.
     999903    2    3    3    0    0  0.55693297322E-01 -0.84805315642E-02 -0.11858922139E+00  0.13282962892E+00  0.20165418559E-01 0.  0.
         14    1    1    2    0    0 -0.21176172534E-01  0.49349592839E-02  0.93454168874E-02  0.23666873962E-01  0.00000000000E+00 0. -1.
     999901    1    3    3    0    0 -0.34517124788E-01  0.35455722802E-02  0.10924380451E+00  0.88743349712E+00  0.88000000000E+00 0. -1.
        -11    1    4    4    0    0  0.51509093242E-03  0.33225948743E-02 -0.71861640007E-02  0.79502848636E-02  0.51100000000E-03 0. -1.
         11    1    4    4    0    0  0.55178206390E-01 -0.11803126438E-01 -0.11140305739E+00  0.12487934406E+00  0.51100000000E-03 0.  1.
</event>
<event>
 8    1  0.1044719E+005  0.1043930E+01  0.7957747E-01            NaN
         13   -1    0    0    0    0  0.00000000000E+00  0.00000000000E+00  0.74505805969E-08  0.10566000000E+00  0.10566000000E+00 0. -1.
     999900   -1    0    0    0    0 -0.00000000000E+00 -0.00000000000E+00 -0.74505805969E-08  0.93827000000E+00  0.93827000000E+00 0.  1.
     999902    2    1    2    0    0 -0.98222228208E-02 -0.13138837553E-01 -0.16707133777E-01  0.10205156148E+01  0.10202469734E+01 0.  0.
     999903    2    3    3    0    0 -0.76860435831E-02 -0.98603606381E-01 -0.86870000252E-01  0.13359306027E+00  0.22780745184E-01 0.  0.
         14    1    1    2    0    0  0.98222228208E-02  0.13138837553E-01  0.16707133777E-01  0.23414385161E-01  0.00000000000E+00 0. -1.
     999901    1    3    3    0    0 -0.21361792378E-02  0.85464768828E-01  0.70162866475E-01  0.88692255457E+00  0.88000000000E+00 0. -1.
        -11    1    4    4    0    0 -0.99940959683E-02 -0.59497215823E-01 -0.39465012205E-01  0.72094028562E-01  0.51100000000E-03 0. -1.
         11    1    4    4    0    0  0.23080523852E-02 -0.39106390558E-01 -0.47404988047E-01  0.61499031708E-01  0.51100000000E-03 0.  1.
</event>
<event>
 8    1  0.1044719E+005  0.1043930E+01  0.7957747E-01            NaN
         13   -1    0    0    0    0  0.00000000000E+00  0.00000000000E+00  0.74505805969E-08  0.10566000000E+00  0.10566000000E+00 0.  1.
     999900   -1    0    0    0    0 -0.00000000000E+00 -0.00000000000E+00 -0.74505805969E-08  0.93827000000E+00  0.93827000000E+00 0. -1.
     999902    2    1    2    0    0 -0.17048072887E-01  0.12454665748E-01 -0.11536264432E-01  0.10198708877E+01  0.10195870667E+01 0.  0.
     999903    2    3    3    0    0 -0.44569798678E-02 -0.91899004934E-01  0.86994306549E-01  0.12815540749E+00  0.19761258063E-01 0.  0.
         14    1    1    2    0    0  0.17048072887E-01 -0.12454665748E-01  0.11536264432E-01  0.24059112309E-01  0.00000000000E+00 0.  1.
     999901    1    3    3    0    0 -0.12591093019E-01  0.10435367068E+00 -0.98530570981E-01  0.89171548020E+00  0.88000000000E+00 0. -1.
        -11    1    4    4    0    0 -0.11252131112E-01 -0.66754401710E-01  0.57683324074E-01  0.88940359790E-01  0.51100000000E-03 0.  1.
         11    1    4    4    0    0  0.67951512437E-02 -0.25144603224E-01  0.29310982475E-01  0.39215047703E-01  0.51100000000E-03 0. -1.
</event>
<event>
 8    1  0.1044719E+005  0.1043930E+01  0.7957747E-01            NaN
         13   -1    0    0    0    0  0.00000000000E+00  0.00000000000E+00  0.74505805969E-08  0.10566000000E+00  0.10566000000E+00 0. -1.
     999900   -1    0    0    0    0 -0.00000000000E+00 -0.00000000000E+00 -0.74505805969E-08  0.93827000000E+00  0.93827000000E+00 0. -1.
     999902    2    1    2    0    0 -0.13963314026E-01  0.61724936003E-02  0.16945901404E-01  0.10211212870E+01  0.10208665169E+01 0.  0.
     999903    2    3    3    0    0 -0.24905654139E-01 -0.24994547394E-01  0.12720850777E+00  0.13362539311E+00  0.20705608621E-01 0.  0.
         14    1    1    2    0    0  0.13963314026E-01 -0.61724936003E-02 -0.16945901404E-01  0.22808713033E-01  0.00000000000E+00 0.  1.
     999901    1    3    3    0    0  0.10942340114E-01  0.31167040994E-01 -0.11026260636E+00  0.88749589386E+00  0.88000000000E+00 0. -1.
        -11    1    4    4    0    0 -0.81816041276E-02 -0.89015658790E-05  0.51761746088E-01  0.52406852647E-01  0.51100000000E-03 0. -1.
         11    1    4    4    0    0 -0.16724050012E-01 -0.24985645828E-01  0.75446761677E-01  0.81218540462E-01  0.51100000000E-03 0.  1.
</event>
<event>
 8    1  0.1044719E+005  0.1043930E+01  0.7957747E-01            NaN
         13   -1    0    0    0    0  0.00000000000E+00  0.00000000000E+00  0.74505805969E-08  0.10566000000E+00  0.10566000000E+00 0. -1.
     999900   -1    0    0    0    0 -0.00000000000E+00 -0.00000000000E+00 -0.74505805969E-08  0.93827000000E+00  0.93827000000E+00 0. -1.
     999902    2    1    2    0    0  0.12000357093E-01  0.12947569914E-01 -0.17829320044E-01  0.10188395080E+01  0.10185305151E+01 0.  0.
     999903    2    3    3    0    0  0.64081715297E-01 -0.43190174974E-01 -0.10434398721E+00  0.13128742392E+00  0.19412948314E-01 0.  0.
         14    1    1    2    0    0 -0.12000357093E-01 -0.12947569914E-01  0.17829320044E-01  0.25090492029E-01  0.00000000000E+00 0.  1.
     999901    1    3    3    0    0 -0.52081358204E-01  0.56137744888E-01  0.86514667166E-01  0.88755208405E+00  0.88000000000E+00 0. -1.
        -11    1    4    4    0    0  0.57393301934E-01 -0.35707691458E-01 -0.78700100218E-01  0.10374486605E+00  0.51100000000E-03 0.  1.
         11    1    4    4    0    0  0.66884133629E-02 -0.74824835158E-02 -0.25643886992E-01  0.27542557868E-01  0.51100000000E-03 0. -1.
</event>
<event>
 8    1  0.1044719E+005  0.1043930E+01  0.7957747E-01            NaN
         13   -1    0    0    0    0  0.00000000000E+00  0.00000000000E+00  0.74505805969E-08  0.10566000000E+00  0.10566000000E+00 0.  1.
     999900   -1    0    0    0    0 -0.00000000000E+00 -0.00000000000E+00 -0.74505805969E-08  0.93827000000E+00  0.93827000000E+00 0. -1.
     999902    2    1    2    0    0  0.15128277354E-01 -0.12796941302E-01  0.14247469467E-01  0.10195247369E+01  0.10192325899E+01 0.  0.
     999903    2    3    3    0    0  0.17939009352E-01 -0.43909855631E-01 -0.11835690627E+00  0.12904181501E+00  0.19838076585E-01 0.  0.
         14    1    1    2    0    0 -0.15128277354E-01  0.12796941302E-01 -0.14247469467E-01  0.24405263133E-01  0.00000000000E+00 0. -1.
     999901    1    3    3    0    0 -0.28107319982E-02  0.31112914328E-01  0.13260437573E+00  0.89048292186E+00  0.88000000000E+00 0.  1.
        -11    1    4    4    0    0  0.89698007681E-02 -0.36426180728E-01 -0.71469289689E-01  0.80718303116E-01  0.51100000000E-03 0.  1.
         11    1    4    4    0    0  0.89692085842E-02 -0.74836749027E-02 -0.46887616577E-01  0.48323511895E-01  0.51100000000E-03 0. -1.
</event>
<event>
 8    1  0.1044719E+005  0.1043930E+01  0.7957747E-01            NaN
         13   -1    0    0    0    0  0.00000000000E+00  0.00000000000E+00  0.74505805969E-08  0.10566000000E+00  0.10566000000E+00 0.  1.
     999900   -1    0    0    0    0 -0.00000000000E+00 -0.00000000000E+00 -0.74505805969E-08  0.93827000000E+00  0.93827000000E+00 0. -1.
     999902    2    1    2    0    0  0.74623351475E-02 -0.21195316407E-01  0.80002556226E-02  0.10200777051E+01  0.10197988000E+01 0.  0.
     999903    2    3    3    0    0 -0.11372145584E+00 -0.21138718139E-01 -0.54374422105E-01  0.12958564176E+00  0.21364593333E-01 0.  0.
         14    1    1    2    0    0 -0.74623351475E-02  0.21195316407E-01 -0.80002556226E-02  0.23852294931E-01  0.00000000000E+00 0.  1.
     999901    1    3    3    0    0  0.12118379098E+00 -0.56598267469E-04  0.62374677728E-01  0.89049206331E+00  0.88000000000E+00 0.  1.
        -11    1    4    4    0    0 -0.44944850982E-01 -0.10581203291E-02 -0.29346758083E-01  0.53690339722E-01  0.51100000000E-03 0.  1.
         11    1    4    4    0    0 -0.68776604854E-01 -0.20080597810E-01 -0.25027664022E-01  0.75895302035E-01  0.51100000000E-03 0. -1.
</event>
<event>
 8    1  0.1044719E+005  0.1043930E+01  0.7957747E-01            NaN
         13   -1    0    0    0    0  0.00000000000E+00  0.00000000000E+00  0.74505805969E-08  0.10566000000E+00  0.10566000000E+00 0.  1.
     999900   -1    0    0    0    0 -0.00000000000E+00 -0.00000000000E+00 -0.74505805969E-08  0.93827000000E+00  0.93827000000E+00 0. -1.
     999902    2    1    2    0    0 -0.89109899542E-02  0.20462659518E-01  0.54563209736E-02  0.10209539774E+01  0.10206954131E+01 0.  0.
     999903    2    3    3    0    0  0.87767937319E-01 -0.18200035685E-01 -0.91180672931E-01  0.12956162406E+00  0.20924798513E-01 0.  0.
         14    1    1    2    0    0  0.89109899542E-02 -0.20462659518E-01 -0.54563209736E-02  0.22976022612E-01  0.00000000000E+00 0. -1.
     999901    1    3    3    0    0 -0.96678927273E-01  0.38662695203E-01  0.96636993905E-01  0.89139235333E+00  0.88000000000E+00 0. -1.
        -11    1    4    4    0    0  0.37537237926E-01  0.87122829514E-03 -0.45834046426E-01  0.59252208420E-01  0.51100000000E-03 0.  1.
         11    1    4    4    0    0  0.50230699393E-01 -0.19071263980E-01 -0.45346626505E-01  0.70309415640E-01  0.51100000000E-03 0. -1.
</event>
<event>
 8    1  0.1044719E+005  0.1043930E+01  0.7957747E-01            NaN
         13   -1    0    0    0    0  0.00000000000E+00  0.00000000000E+00  0.74505805969E-08  0.10566000000E+00  0.10566000000E+00 0. -1.
     999900   -1    0    0    0    0 -0.00000000000E+00 -0.00000000000E+00 -0.74505805969E-08  0.93827000000E+00  0.93827000000E+00 0.  1.
     999902    2    1    2    0    0 -0.54551972493E-02 -0.11976784369E-01  0.19833128387E-01  0.10201275732E+01  0.10198498468E+01 0.  0.
     999903    2    3    3    0    0  0.10356905823E+00  0.69434654310E-01  0.29121714885E-01  0.12962188063E+00  0.20150350311E-01 0.  0.
         14    1    1    2    0    0  0.54551972493E-02  0.11976784369E-01 -0.19833128387E-01  0.23802426819E-01  0.00000000000E+00 0.  1.
     999901    1    3    3    0    0 -0.10902425548E+00 -0.81411438678E-01 -0.92885864981E-02  0.89050569255E+00  0.88000000000E+00 0. -1.
        -11    1    4    4    0    0  0.49815200937E-01  0.44846380553E-01  0.12162628218E-01  0.68124465057E-01  0.51100000000E-03 0. -1.
         11    1    4    4    0    0  0.53753857294E-01  0.24588273756E-01  0.16959086668E-01  0.61497415571E-01  0.51100000000E-03 0.  1.
</event>
<event>
 8    1  0.1044719E+005  0.1043930E+01  0.7957747E-01            NaN
         13   -1    0    0    0    0  0.00000000000E+00  0.00000000000E+00  0.74505805969E-08  0.10566000000E+00  0.10566000000E+00 0. -1.
     999900   -1    0    0    0    0 -0.00000000000E+00 -0.00000000000E+00 -0.74505805969E-08  0.93827000000E+00  0.93827000000E+00 0. -1.
     999902    2    1    2    0    0  0.13128329242E-01 -0.13384293875E-01  0.14828691010E-01  0.10200263930E+01  0.10197462723E+01 0.  0.
     999903    2    3    3    0    0  0.50787996201E-01 -0.11403749567E+00  0.41343135978E-01  0.13309216017E+00  0.20501151910E-01 0.  0.
         14    1    1    2    0    0 -0.13128329242E-01  0.13384293875E-01 -0.14828691010E-01  0.23903607014E-01  0.00000000000E+00 0.  1.
     999901    1    3    3    0    0 -0.37659666959E-01  0.10065320180E+00 -0.26514444968E-01  0.88693423281E+00  0.88000000000E+00 0. -1.
        -11    1    4    4    0    0  0.20480943317E-01 -0.67447969122E-01  0.17623314327E-01  0.72660442517E-01  0.51100000000E-03 0. -1.
         11    1    4    4    0    0  0.30307052884E-01 -0.46589526548E-01  0.23719821651E-01  0.60431717654E-01  0.51100000000E-03 0.  1.
</event>
<event>
 8    1  0.1044719E+005  0.1043930E+01  0.7957747E-01            NaN
         13   -1    0    0    0    0  0.00000000000E+00  0.00000000000E+00  0.74505805969E-08  0.10566000000E+00  0.10566000000E+00 0.  1.
     999900   -1    0    0    0    0 -0.00000000000E+00 -0.00000000000E+00 -0.74505805969E-08  0.93827000000E+00  0.93827000000E+00 0. -1.
     999902    2    1    2    0    0 -0.44051765712E-02 -0.21112492264E-01  0.92612852976E-02  0.10204584360E+01  0.10201884656E+01 0.  0.
     999903    2    3    3    0    0 -0.11383990290E+00 -0.61869948733E-01  0.19949310164E-01  0.13267954268E+00  0.20456588733E-01 0.  0.
         14    1    1    2    0    0  0.44051765712E-02  0.21112492264E-01 -0.92612852976E-02  0.23471563979E-01  0.00000000000E+00 0. -1.
     999901    1    3    3    0    0  0.10943472632E+00  0.40757456469E-01 -0.10688024866E-01  0.88777889334E+00  0.88000000000E+00 0.  1.
        -11    1    4    4    0    0 -0.55883071958E-01 -0.41711823342E-01  0.84317890779E-02  0.70243505935E-01  0.51100000000E-03 0.  1.
         11    1    4    4    0    0 -0.57956830938E-01 -0.20158125391E-01  0.11517521086E-01  0.62436036747E-01  0.51100000000E-03 0. -1.
</event>
<event>
 8    1  0.1044719E+005  0.1043930E+01  0.7957747E-01            NaN
         13   -1    0    0    0    0  0.00000000000E+00  0.00000000000E+00  0.74505805969E-08  0.10566000000E+00  0.10566000000E+00 0.  1.
     999900   -1    0    0    0    0 -0.00000000000E+00 -0.00000000000E+00 -0.74505805969E-08  0.93827000000E+00  0.93827000000E+00 0.  1.
     999902    2    1    2    0    0 -0.57040238836E-02 -0.44985398283E-02 -0.22484686860E-01  0.10203009100E+01  0.10200272610E+01 0.  0.
     999903    2    3    3    0    0  0.10922700546E+00 -0.60741333424E-01 -0.33178079869E-01  0.13098277687E+00  0.20872339227E-01 0.  0.
         14    1    1    2    0    0  0.57040238836E-02  0.44985398283E-02  0.22484686860E-01  0.23629089958E-01  0.00000000000E+00 0.  1.
     999901    1    3    3    0    0 -0.11493102934E+00  0.56242793595E-01  0.10693393009E-01  0.88931813317E+00  0.88000000000E+00 0. -1.
        -11    1    4    4    0    0  0.23590679338E-01 -0.55213432631E-02 -0.11413693231E-01  0.26786916530E-01  0.51100000000E-03 0. -1.
         11    1    4    4    0    0  0.85636326121E-01 -0.55219990160E-01 -0.21764386638E-01  0.10419586034E+00  0.51100000000E-03 0.  1.
</event>
<event>
 8    1  0.1044719E+005  0.1043930E+01  0.7957747E-01            NaN
         13   -1    0    0    0    0  0.00000000000E+00  0.00000000000E+00  0.74505805969E-08  0.10566000000E+00  0.10566000000E+00 0.  1.
     999900   -1    0    0    0    0 -0.00000000000E+00 -0.00000000000E+00 -0.74505805969E-08  0.93827000000E+00  0.93827000000E+00 0. -1.
     999902    2    1    2    0    0  0.10686097931E-01 -0.69495772160E-02  0.11912341097E-01  0.10264831326E+01  0.10263348519E+01 0.  0.
     999903    2    3    3    0    0  0.10181082886E+00  0.75791498113E-01  0.47966816522E-01  0.13718581034E+00  0.20232029363E-01 0.  0.
         14    1    1    2    0    0 -0.10686097931E-01  0.69495772160E-02 -0.11912341097E-01  0.17446867423E-01  0.00000000000E+00 0. -1.
     999901    1    3    3    0    0 -0.91124730933E-01 -0.82741075329E-01 -0.36054475425E-01  0.88929732223E+00  0.88000000000E+00 0. -1.
        -11    1    4    4    0    0  0.24601692439E-01  0.14507509798E-01  0.26365977533E-02  0.28686649858E-01  0.51100000000E-03 0.  1.
         11    1    4    4    0    0  0.77209136425E-01  0.61283988314E-01  0.45330218768E-01  0.10849916048E+00  0.51100000000E-03 0. -1.
</event>
<event>
 8    1  0.1044719E+005  0.1043930E+01  0.7957747E-01            NaN
         13   -1    0    0    0    0  0.00000000000E+00  0.00000000000E+00  0.74505805969E-08  0.10566000000E+00  0.10566000000E+00 0.  1.
     999900   -1    0    0    0    0 -0.00000000000E+00 -0.00000000000E+00 -0.74505805969E-08  0.93827000000E+00  0.93827000000E+00 0. -1.
     999902    2    1    2    0    0  0.12511973782E-01  0.11757129931E-01 -0.17774306150E-01  0.10192175426E+01  0.10189179033E+01 0.  0.
     999903    2    3    3    0    0 -0.88397033676E-01  0.75161033725E-01  0.52044774250E-01  0.12844406589E+00  0.18055552682E-01 0.  0.
         14    1    1    2    0    0 -0.12511973782E-01 -0.11757129931E-01  0.17774306150E-01  0.24712457410E-01  0.00000000000E+00 0.  1.
     999901    1    3    3    0    0  0.10090900746E+00 -0.63403903794E-01 -0.69819080399E-01  0.89077347670E+00  0.88000000000E+00 0.  1.
        -11    1    4    4    0    0 -0.15729939598E-01  0.17104723275E-01  0.34368106335E-02  0.23496283672E-01  0.51100000000E-03 0. -1.
         11    1    4    4    0    0 -0.72667094078E-01  0.58056310450E-01  0.48607963616E-01  0.10494778222E+00  0.51100000000E-03 0.  1.
</event>
<event>
 8    1  0.1044719E+005  0.1043930E+01  0.7957747E-01            NaN
         13   -1    0    0    0    0  0.00000000000E+00  0.00000000000E+00  0.74505805969E-08  0.10566000000E+00  0.10566000000E+00 0. -1.
     999900   -1    0    0    0    0 -0.00000000000E+00 -0.00000000000E+00 -0.74505805969E-08  0.93827000000E+00  0.93827000000E+00 0. -1.
     999902    2    1    2    0    0 -0.48700471530E-03 -0.21160227897E-01  0.12700000041E-01  0.10192463532E+01  0.10189474207E+01 0.  0.
     999903    2    3    3    0    0 -0.10381043715E+00  0.69195992805E-01  0.23883793341E-01  0.12853593138E+00  0.19655986124E-01 0.  0.
         14    1    1    2    0    0  0.48700471530E-03  0.21160227897E-01 -0.12700000041E-01  0.24683646799E-01  0.00000000000E+00 0.  1.
     999901    1    3    3    0    0  0.10332343243E+00 -0.90356220702E-01 -0.11183793300E-01  0.89071042182E+00  0.88000000000E+00 0.  1.
        -11    1    4    4    0    0 -0.89488496031E-01  0.51356698179E-01  0.16492369910E-01  0.10448904611E+00  0.51100000000E-03 0. -1.
         11    1    4    4    0    0 -0.14321941115E-01  0.17839294626E-01  0.73914234304E-02  0.24046885275E-01  0.51100000000E-03 0.  1.
</event>
<event>
 8    1  0.1044719E+005  0.1043930E+01  0.7957747E-01            NaN
         13   -1    0    0    0    0  0.00000000000E+00  0.00000000000E+00  0.74505805969E-08  0.10566000000E+00  0.10566000000E+00 0.  1.
     999900   -1    0    0    0    0 -0.00000000000E+00 -0.00000000000E+00 -0.74505805969E-08  0.93827000000E+00  0.93827000000E+00 0.  1.
     999902    2    1    2    0    0 -0.13865626429E-01  0.32750745400E-02 -0.20406569083E-01  0.10190420557E+01  0.10187380927E+01 0.  0.
     999903    2    3    3    0    0 -0.78983689453E-01 -0.99866846116E-01 -0.22317789390E-01  0.13062646000E+00  0.18798355671E-01 0.  0.
         14    1    1    2    0    0  0.13865626429E-01 -0.32750745400E-02  0.20406569083E-01  0.24887944296E-01  0.00000000000E+00 0.  1.
     999901    1    3    3    0    0  0.65118063024E-01  0.10314192066E+00  0.19112203067E-02  0.88841559570E+00  0.88000000000E+00 0. -1.
        -11    1    4    4    0    0 -0.31922561633E-01 -0.53084141985E-01 -0.15922906647E-01  0.63959175640E-01  0.51100000000E-03 0. -1.
         11    1    4    4    0    0 -0.47061127820E-01 -0.46782704131E-01 -0.63948827434E-02  0.66667284359E-01  0.51100000000E-03 0.  1.
</event>
<event>
 8    1  0.1044719E+005  0.1043930E+01  0.7957747E-01            NaN
         13   -1    0    0    0    0  0.00000000000E+00  0.00000000000E+00  0.74505805969E-08  0.10566000000E+00  0.10566000000E+00 0. -1.
     999900   -1    0    0    0    0 -0.00000000000E+00 -0.00000000000E+00 -0.74505805969E-08  0.93827000000E+00  0.93827000000E+00 0.  1.
     999902    2    1    2    0    0  0.23967299682E-01 -0.36306781552E-03  0.11065313577E-01  0.10175291584E+01  0.10171866022E+01 0.  0.
     999903    2    3    3    0    0  0.41968713772E-01 -0.11730668641E+00 -0.26368835455E-01  0.12882157075E+00  0.19428072340E-01 0.  0.
         14    1    1    2    0    0 -0.23967299682E-01  0.36306781552E-03 -0.11065313577E-01  0.26400841594E-01  0.00000000000E+00 0. -1.
     999901    1    3    3    0    0 -0.18001414090E-01  0.11694361860E+00  0.37434149032E-01  0.88870758765E+00  0.88000000000E+00 0. -1.
        -11    1    4    4    0    0  0.85283074289E-02 -0.43997159262E-01 -0.29808759054E-02  0.44918023030E-01  0.51100000000E-03 0. -1.
         11    1    4    4    0    0  0.33440406343E-01 -0.73309527152E-01 -0.23387959549E-01  0.83903547723E-01  0.51100000000E-03 0.  1.
</event>
<event>
 8    1  0.1044719E+005  0.1043930E+01  0.7957747E-01            NaN
         13   -1    0    0    0    0  0.00000000000E+00  0.00000000000E+00  0.74505805969E-08  0.10566000000E+00  0.10566000000E+00 0.  1.
     999900   -1    0    0    0    0 -0.00000000000E+00 -0.00000000000E+00 -0.74505805969E-08  0.93827000000E+00  0.93827000000E+00 0. -1.
     999902    2    1    2    0    0  0.10057010421E-01 -0.20622639055E-01 -0.36635113085E-02  0.10206951551E+01  0.10204306648E+01 0.  0.
     999903    2    3    3    0    0 -0.11624303660E+00 -0.20023960898E-01 -0.51971195873E-01  0.13036617512E+00  0.19517475403E-01 0.  0.
         14    1    1    2    0    0 -0.10057010421E-01  0.20622639055E-01  0.36635113085E-02  0.23234844852E-01  0.00000000000E+00 0. -1.
     999901    1    3    3    0    0  0.12630004702E+00 -0.59867815723E-03  0.48307684565E-01  0.89032898003E+00  0.88000000000E+00 0.  1.
        -11    1    4    4    0    0 -0.23399925650E-01 -0.10628908718E-01 -0.62787855680E-02  0.26461566283E-01  0.51100000000E-03 0.  1.
         11    1    4    4    0    0 -0.92843110951E-01 -0.93950521798E-02 -0.45692410305E-01  0.10390460883E+00  0.51100000000E-03 0. -1.
</event>
<event>
 8    1  0.1044719E+005  0.1043930E+01  0.7957747E-01            NaN
         13   -1    0    0    0    0  0.00000000000E+00  0.00000000000E+00  0.74505805969E-08  0.10566000000E+00  0.10566000000E+00 0. -1.
     999900   -1    0    0    0    0 -0.00000000000E+00 -0.00000000000E+00 -0.74505805969E-08  0.93827000000E+00  0.93827000000E+00 0. -1.
     999902    2    1    2    0    0 -0.96954255628E-02 -0.21677963895E-01 -0.21794342670E-02  0.10200828759E+01  0.10198040931E+01 0.  0.
     999903    2    3    3    0    0  0.11486869936E+00  0.67877195120E-02 -0.55558315258E-01  0.12925414863E+00  0.19468366989E-01 0.  0.
         14    1    1    2    0    0  0.96954255628E-02  0.21677963895E-01  0.21794342670E-02  0.23847124129E-01  0.00000000000E+00 0. -1.
     999901    1    3    3    0    0 -0.12456412493E+00 -0.28465683407E-01  0.53378880991E-01  0.89082872725E+00  0.88000000000E+00 0.  1.
        -11    1    4    4    0    0  0.10156084140E-01  0.62949023112E-02 -0.65910440714E-02  0.13655578461E-01  0.51100000000E-03 0.  1.
         11    1    4    4    0    0  0.10471261522E+00  0.49281720075E-03 -0.48967271187E-01  0.11559857016E+00  0.51100000000E-03 0. -1.
</event>
<event>
 8    1  0.1044719E+005  0.1043930E+01  0.7957747E-01            NaN
         13   -1    0    0    0    0  0.00000000000E+00  0.00000000000E+00  0.74505805969E-08  0.10566000000E+00  0.10566000000E+00 0.  1.
     999900   -1    0    0    0    0 -0.00000000000E+00 -0.00000000000E+00 -0.74505805969E-08  0.93827000000E+00  0.93827000000E+00 0.  1.
     999902    2    1    2    0    0  0.11704438368E-01 -0.85465000879E-02  0.18071596980E-01  0.10207649583E+01  0.10205020729E+01 0.  0.
     999903    2    3    3    0    0 -0.70907240141E-01  0.24107769713E-01  0.10670647839E+00  0.13186275163E+00  0.19811397526E-01 0.  0.
         14    1    1    2    0    0 -0.11704438368E-01  0.85465000879E-02 -0.18071596980E-01  0.23165041737E-01  0.00000000000E+00 0. -1.
     999901    1    3    3    0    0  0.82611678509E-01 -0.32654269801E-01 -0.88634881405E-01  0.88890220664E+00  0.88000000000E+00 0. -1.
        -11    1    4    4    0    0 -0.75743196490E-02  0.10045908604E-01  0.17512389244E-01  0.21569318392E-01  0.51100000000E-03 0. -1.
         11    1    4    4    0    0 -0.63332920492E-01  0.14061861109E-01  0.89194089141E-01  0.11029343323E+00  0.51100000000E-03 0.  1.
</event>
<event>
 8    1  0.1044719E+005  0.1043930E+01  0.7957747E-01            NaN
         13   -1    0    0    0    0  0.00000000000E+00  0.00000000000E+00  0.74505805969E-08  0.10566000000E+00  0.10566000000E+00 0.  1.
     999900   -1    0    0    0    0 -0.00000000000E+00 -0.00000000000E+00 -0.74505805969E-08  0.93827000000E+00  0.93827000000E+00 0. -1.
     999902    2    1    2    0    0 -0.67149898247E-03 -0.74209659650E-02  0.22698028748E-01  0.10200402081E+01  0.10197604150E+01 0.  0.
     999903    2    3    3    0    0 -0.10834694782E+00  0.63297928960E-01  0.30263495018E-01  0.13062894180E+00  0.20058723596E-01 0.  0.
         14    1    1    2    0    0  0.67149898247E-03  0.74209659650E-02 -0.22698028748E-01  0.23889791874E-01  0.00000000000E+00 0. -1.
     999901    1    3    3    0    0  0.10767544884E+00 -0.70718894925E-01 -0.75654662699E-02  0.88941126632E+00  0.88000000000E+00 0.  1.
        -11    1    4    4    0    0 -0.79516052454E-01  0.56046994559E-01  0.21514475143E-01  0.99635344927E-01  0.51100000000E-03 0. -1.
         11    1    4    4    0    0 -0.28830895370E-01  0.72509344012E-02  0.87490198746E-02  0.30993596876E-01  0.51100000000E-03 0.  1.
</event>
<event>
 8    1  0.1044719E+005  0.1043930E+01  0.7957747E-01            NaN
         13   -1    0    0    0    0  0.00000000000E+00  0.00000000000E+00  0.74505805969E-08  0.10566000000E+00  0.10566000000E+00 0. -1.
     999900   -1    0    0    0    0 -0.00000000000E+00 -0.00000000000E+00 -0.74505805969E-08  0.93827000000E+00  0.93827000000E+00 0. -1.
     999902    2    1    2    0    0  0.14866124193E-02  0.22129500840E-01  0.25992518828E-02  0.10215988349E+01  0.10213547369E+01 0.  0.
     999903    2    3    3    0    0 -0.89906454362E-01 -0.82052213819E-01 -0.40194034829E-01  0.12972564453E+00  0.19936049892E-01 0.  0.
         14    1    1    2    0    0 -0.14866124193E-02 -0.22129500840E-01 -0.25992518828E-02  0.22331165090E-01  0.00000000000E+00 0.  1.
     999901    1    3    3    0    0  0.91393066782E-01  0.10418171466E+00  0.42793286712E-01  0.89187319038E+00  0.88000000000E+00 0.  1.
        -11    1    4    4    0    0 -0.45555838192E-02 -0.11560113416E-01 -0.18411297665E-02  0.12571413840E-01  0.51100000000E-03 0. -1.
         11    1    4    4    0    0 -0.85350870543E-01 -0.70492100402E-01 -0.38352905062E-01  0.11715423069E+00  0.51100000000E-03 0.  1.
</event>
<event>
 8    1  0.1044719E+005  0.1043930E+01  0.7957747E-01            NaN
         13   -1    0    0    0    0  0.00000000000E+00  0.00000000000E+00  0.74505805969E-08  0.10566000000E+00  0.10566000000E+00 0. -1.
     999900   -1    0    0    0    0 -0.00000000000E+00 -0.00000000000E+00 -0.74505805969E-08  0.93827000000E+00  0.93827000000E+00 0. -1.
     999902    2    1    2    0    0  0.56910502691E-02  0.21321989030E-01 -0.94417662634E-02  0.10199266207E+01  0.10196441288E+01 0.  0.
     999903    2    3    3    0    0  0.56368896356E-01  0.58472040367E-01 -0.10384799508E+00  0.13264937739E+00  0.14663534952E-01 0.  0.
         14    1    1    2    0    0 -0.56910502691E-02 -0.21321989030E-01  0.94417662634E-02  0.24003379335E-01  0.00000000000E+00 0. -1.
     999901    1    3    3    0    0 -0.50677846086E-01 -0.37150051338E-01  0.94406228820E-01  0.88727724328E+00  0.88000000000E+00 0.  1.
        -11    1    4    4    0    0  0.24293527232E-01  0.22989672824E-01 -0.54320343740E-01  0.63793897725E-01  0.51100000000E-03 0. -1.
         11    1    4    4    0    0  0.32075369124E-01  0.35482367543E-01 -0.49527651343E-01  0.68855479662E-01  0.51100000000E-03 0.  1.
</event>
<event>
 8    1  0.1044719E+005  0.1043930E+01  0.7957747E-01            NaN
         13   -1    0    0    0    0  0.00000000000E+00  0.00000000000E+00  0.74505805969E-08  0.10566000000E+00  0.10566000000E+00 0.  1.
     999900   -1    0    0    0    0 -0.00000000000E+00 -0.00000000000E+00 -0.74505805969E-08  0.93827000000E+00  0.93827000000E+00 0.  1.
     999902    2    1    2    0    0  0.16590376579E-01  0.69848686145E-02 -0.14580820166E-01  0.10207647393E+01  0.10205018490E+01 0.  0.
     999903    2    3    3    0    0  0.74378217506E-01 -0.53364325008E-01 -0.94305631429E-01  0.13321896291E+00  0.21768544676E-01 0.  0.
         14    1    1    2    0    0 -0.16590376579E-01 -0.69848686145E-02  0.14580820166E-01  0.23165260657E-01  0.00000000000E+00 0.  1.
     999901    1    3    3    0    0 -0.57787840927E-01  0.60349193622E-01  0.79724811262E-01  0.88754577643E+00  0.88000000000E+00 0. -1.
        -11    1    4    4    0    0  0.18593935784E-01 -0.25889093753E-01 -0.30370262232E-01  0.44029462549E-01  0.51100000000E-03 0. -1.
         11    1    4    4    0    0  0.55784281721E-01 -0.27475231254E-01 -0.63935369197E-01  0.89189500363E-01  0.51100000000E-03 0.  1.
</event>
<event>
 8    1  0.1044719E+005  0.1043930E+01  0.7957747E-01            NaN
         13   -1    0    0    0    0  0.00000000000E+00  0.00000000000E+00  0.74505805969E-08  0.10566000000E+00  0.10566000000E+00 0.  1.
     999900   -1    0    0    0    0 -0.00000000000E+00 -0.00000000000E+00 -0.74505805969E-08  0.93827000000E+00  0.93827000000E+00 0.  1.
     999902    2    1    2    0    0 -0.20391595251E-01  0.66656937758E-02 -0.90400068266E-02  0.10206497433E+01  0.10203842061E+01 0.  0.
     999903    2    3    3    0    0 -0.10619106076E+00 -0.46451077956E-01  0.60295594475E-01  0.13217331401E+00  0.19999554882E-01 0.  0.
         14    1    1    2    0    0  0.20391595251E-01 -0.66656937758E-02  0.90400068266E-02  0.23280256739E-01  0.00000000000E+00 0.  1.
     999901    1    3    3    0    0  0.85799465509E-01  0.53116771732E-01 -0.69335601302E-01  0.88847642925E+00  0.88000000000E+00 0. -1.
        -11    1    4    4    0    0 -0.61417844923E-01 -0.17886308765E-01  0.39193629724E-01  0.75023152747E-01  0.51100000000E-03 0.  1.
         11    1    4    4    0    0 -0.44773215838E-01 -0.28564769192E-01  0.21101964751E-01  0.57150161266E-01  0.51100000000E-03 0. -1.
</event>
<event>
 8    1  0.1044719E+005  0.1043930E+01  0.7957747E-01            NaN
         13   -1    0    0    0    0  0.00000000000E+00  0.00000000000E+00  0.74505805969E-08  0.10566000000E+00  0.10566000000E+00 0.  1.
     999900   -1    0    0    0    0 -0.00000000000E+00 -0.00000000000E+00 -0.74505805969E-08  0.93827000000E+00  0.93827000000E+00 0.  1.
     999902    2    1    2    0    0 -0.16967259186E-02 -0.21753161072E-01  0.64965632810E-02  0.10211641433E+01  0.10209103405E+01 0.  0.
     999903    2    3    3    0    0  0.11229753164E+00  0.30898208559E-01 -0.55204494180E-01  0.13011202478E+00  0.17781111029E-01 0.  0.
         14    1    1    2    0    0  0.16967259186E-02  0.21753161072E-01 -0.64965632810E-02  0.22765856670E-01  0.00000000000E+00 0. -1.
     999901    1    3    3    0    0 -0.11399425756E+00 -0.52651369631E-01  0.61701057461E-01  0.89105211855E+00  0.88000000000E+00 0. -1.
        -11    1    4    4    0    0  0.65968435344E-01  0.22794768239E-01 -0.24643521185E-01  0.74020268698E-01  0.51100000000E-03 0. -1.
         11    1    4    4    0    0  0.46329096299E-01  0.81034403200E-02 -0.30560972995E-01  0.56091756081E-01  0.51100000000E-03 0.  1.
</event>
<event>
 8    1  0.1044719E+005  0.1043930E+01  0.7957747E-01            NaN
         13   -1    0    0    0    0  0.00000000000E+00  0.00000000000E+00  0.74505805969E-08  0.10566000000E+00  0.10566000000E+00 0.  1.
     999900   -1    0    0    0    0 -0.00000000000E+00 -0.00000000000E+00 -0.74505805969E-08  0.93827000000E+00  0.93827000000E+00 0. -1.
     999902    2    1    2    0    0  0.15343819100E-01 -0.12670196429E-01  0.12758377460E-01  0.10202922578E+01  0.10200184059E+01 0.  0.
     999903    2    3    3    0    0  0.11783611840E-01 -0.76665313310E-01 -0.10293841951E+00  0.13040810864E+00  0.19837661510E-01 0.  0.
         14    1    1    2    0    0 -0.15343819100E-01  0.12670196429E-01 -0.12758377460E-01  0.23637742226E-01  0.00000000000E+00 0.  1.
     999901    1    3    3    0    0  0.35602072595E-02  0.63995116881E-01  0.11569679697E+00  0.88988414914E+00  0.88000000000E+00 0.  1.
        -11    1    4    4    0    0 -0.55188400864E-03 -0.49778959755E-01 -0.72620339948E-01  0.88046716608E-01  0.51100000000E-03 0. -1.
         11    1    4    4    0    0  0.12335495849E-01 -0.26886353555E-01 -0.30318079560E-01  0.42361392027E-01  0.51100000000E-03 0.  1.
</event>
<event>
 8    1  0.1044719E+005  0.1043930E+01  0.7957747E-01            NaN
         13   -1    0    0    0    0  0.00000000000E+00  0.00000000000E+00  0.74505805969E-08  0.10566000000E+00  0.10566000000E+00 0.  1.
     999900   -1    0    0    0    0 -0.00000000000E+00 -0.00000000000E+00 -0.74505805969E-08  0.93827000000E+00  0.93827000000E+00 0.  1.
     999902    2    1    2    0    0  0.10661031156E-01  0.66689639768E-02 -0.19395676554E-01  0.10208145304E+01  0.10205527818E+01 0.  0.
     999903    2    3    3    0    0  0.28433588271E-01 -0.20262511536E-01  0.12250797084E+00  0.12886284264E+00  0.19452274367E-01 0.  0.
         14    1    1    2    0    0 -0.10661031156E-01 -0.66689639768E-02  0.19395676554E-01  0.23115469600E-01  0.00000000000E+00 0.  1.
     999901    1    3    3    0    0 -0.17772557115E-01  0.26931475513E-01 -0.14190364739E+00  0.89195168776E+00  0.88000000000E+00 0.  1.
        -11    1    4    4    0    0  0.11068158319E-01 -0.62867664339E-03  0.18251455303E-01  0.21360620416E-01  0.51100000000E-03 0. -1.
         11    1    4    4    0    0  0.17365429952E-01 -0.19633834893E-01  0.10425651553E+00  0.10750222222E+00  0.51100000000E-03 0.  1.
</event>
<event>
 8    1  0.1044719E+005  0.1043930E+01  0.7957747E-01            NaN
         13   -1    0    0    0    0  0.00000000000E+00  0.00000000000E+00  0.74505805969E-08  0.10566000000E+00  0.10566000000E+00 0. -1.
     999900   -1    0    0    0    0 -0.00000000000E+00 -0.00000000000E+00 -0.74505805969E-08  0.93827000000E+00  0.93827000000E+00 0.  1.
     999902    2    1    2    0    0 -0.93862591493E-02 -0.20256986406E-01 -0.75189850921E-02  0.10203719335E+01  0.10200999462E+01 0.  0.
     999903    2    3    3    0    0  0.20869563460E-01  0.11791832960E+00  0.39997903558E-01  0.12781062613E+00  0.19885993299E-01 0.  0.
         14    1    1    2    0    0  0.93862591493E-02  0.20256986406E-01  0.75189850921E-02  0.23558066472E-01  0.00000000000E+00 0. -1.
     999901    1    3    3    0    0 -0.30255822609E-01 -0.13817531600E+00 -0.47516888650E-01  0.89256130740E+00  0.88000000000E+00 0.  1.
        -11    1    4    4    0    0  0.71856867198E-02  0.15857416826E-01  0.21715447963E-03  0.17418382218E-01  0.51100000000E-03 0. -1.
         11    1    4    4    0    0  0.13683876740E-01  0.10206091277E+00  0.39780749078E-01  0.11039224391E+00  0.51100000000E-03 0.  1.
</event>
<event>
 8    1  0.1044719E+005  0.1043930E+01  0.7957747E-01            NaN
         13   -1    0    0    0    0  0.00000000000E+00  0.00000000000E+00  0.74505805969E-08  0.10566000000E+00  0.10566000000E+00 0. -1.
     999900   -1    0    0    0    0 -0.00000000000E+00 -0.00000000000E+00 -0.74505805969E-08  0.93827000000E+00  0.93827000000E+00 0. -1.
     999902    2    1    2    0    0 -0.22391203599E-01  0.78611345395E-02  0.12910839025E-02  0.10201638406E+01  0.10198869699E+01 0.  0.
     999903    2    3    3    0    0  0.12128863431E+00  0.69149906138E-02 -0.34051392845E-01  0.12781083777E+00  0.20429463728E-01 0.  0.
         14    1    1    2    0    0  0.22391203599E-01 -0.78611345395E-02 -0.12910839025E-02  0.23766159398E-01  0.00000000000E+00 0. -1.
     999901    1    3    3    0    0 -0.14367983791E+00  0.94614392575E-03  0.35342476748E-01  0.89235300284E+00  0.88000000000E+00 0.  1.
        -11    1    4    4    0    0  0.14666131150E-01 -0.16982097507E-02  0.20447790160E-02  0.14913804394E-01  0.51100000000E-03 0. -1.
         11    1    4    4    0    0  0.10662250316E+00  0.86132003645E-02 -0.36096171861E-01  0.11289703337E+00  0.51100000000E-03 0.  1.
</event>
<event>
 8    1  0.1044719E+005  0.1043930E+01  0.7957747E-01            NaN
         13   -1    0    0    0    0  0.00000000000E+00  0.00000000000E+00  0.74505805969E-08  0.10566000000E+00  0.10566000000E+00 0.  1.
     999900   -1    0    0    0    0 -0.00000000000E+00 -0.00000000000E+00 -0.74505805969E-08  0.93827000000E+00  0.93827000000E+00 0.  1.
     999902    2    1    2    0    0 -0.60327097173E-02 -0.98908302757E-02 -0.20836772689E-01  0.10200890016E+01  0.10198103637E+01 0.  0.
     999903    2    3    3    0    0  0.48560243381E-01 -0.47653606629E-01  0.10771955343E+00  0.12827447669E+00  0.14895493131E-01 0.  0.
         14    1    1    2    0    0  0.60327097173E-02  0.98908302757E-02  0.20836772689E-01  0.23840998430E-01  0.00000000000E+00 0.  1.
     999901    1    3    3    0    0 -0.54592953098E-01  0.37762776353E-01 -0.12855632612E+00  0.89181452488E+00  0.88000000000E+00 0.  1.
        -11    1    4    4    0    0  0.13267149922E-01 -0.16517792389E-01  0.22418095779E-01  0.30849422552E-01  0.51100000000E-03 0. -1.
         11    1    4    4    0    0  0.35293093459E-01 -0.31135814240E-01  0.85301457654E-01  0.97425054135E-01  0.51100000000E-03 0.  1.
</event>
<event>
 8    1  0.1044719E+005  0.1043930E+01  0.7957747E-01            NaN
         13   -1    0    0    0    0  0.00000000000E+00  0.00000000000E+00  0.74505805969E-08  0.10566000000E+00  0.10566000000E+00 0. -1.
     999900   -1    0    0    0    0 -0.00000000000E+00 -0.00000000000E+00 -0.74505805969E-08  0.93827000000E+00  0.93827000000E+00 0.  1.
     999902    2    1    2    0    0 -0.22368011866E-01 -0.31084449175E-02  0.56190891778E-02  0.10206584606E+01  0.10203931245E+01 0.  0.
     999903    2    3    3    0    0 -0.11268126641E+00  0.31327319679E-01 -0.60035800030E-01  0.13293504062E+00  0.19722043045E-01 0.  0.
         14    1    1    2    0    0  0.22368011866E-01  0.31084449175E-02 -0.56190891778E-02  0.23271539438E-01  0.00000000000E+00 0. -1.
     999901    1    3    3    0    0  0.90313254546E-01 -0.34435764596E-01  0.65654889208E-01  0.88772341994E+00  0.88000000000E+00 0. -1.
        -11    1    4    4    0    0 -0.74226977170E-01  0.15633437328E-01 -0.47689096416E-01  0.89602229551E-01  0.51100000000E-03 0. -1.
         11    1    4    4    0    0 -0.38454289242E-01  0.15693882351E-01 -0.12346703614E-01  0.43332811073E-01  0.51100000000E-03 0.  1.
</event>
<event>
 8    1  0.1044719E+005  0.1043930E+01  0.7957747E-01            NaN
         13   -1    0    0    0    0  0.00000000000E+00  0.00000000000E+00  0.74505805969E-08  0.10566000000E+00  0.10566000000E+00 0.  1.
     999900   -1    0    0    0    0 -0.00000000000E+00 -0.00000000000E+00 -0.74505805969E-08  0.93827000000E+00  0.93827000000E+00 0. -1.
     999902    2    1    2    0    0  0.11557893622E-01 -0.48124058461E-02 -0.20042123935E-01  0.10202988577E+01  0.10200251605E+01 0.  0.
     999903    2    3    3    0    0 -0.81933579696E-01  0.17033252856E-01 -0.98234729024E-01  0.13163020635E+00  0.25946214606E-01 0.  0.
         14    1    1    2    0    0 -0.11557893622E-01  0.48124058461E-02  0.20042123935E-01  0.23631142309E-01  0.00000000000E+00 0.  1.
     999901    1    3    3    0    0  0.93491473318E-01 -0.21845658702E-01  0.78192605089E-01  0.88866865134E+00  0.88000000000E+00 0.  1.
        -11    1    4    4    0    0 -0.42786410327E-01  0.19880091960E-02 -0.66216276496E-01  0.78863714617E-01  0.51100000000E-03 0.  1.
         11    1    4    4    0    0 -0.39147169369E-01  0.15045243660E-01 -0.32018452528E-01  0.52766491732E-01  0.51100000000E-03 0. -1.
</event>
<event>
 8    1  0.1044719E+005  0.1043930E+01  0.7957747E-01            NaN
         13   -1    0    0    0    0  0.00000000000E+00  0.00000000000E+00  0.74505805969E-08  0.10566000000E+00  0.10566000000E+00 0.  1.
     999900   -1    0    0    0    0 -0.00000000000E+00 -0.00000000000E+00 -0.74505805969E-08  0.93827000000E+00  0.93827000000E+00 0. -1.
     999902    2    1    2    0    0  0.15720775848E-01 -0.18946239293E-01  0.62733629512E-02  0.10185241373E+01  0.10182072286E+01 0.  0.
     999903    2    3    3    0    0  0.10718159124E+00 -0.17553600224E-01  0.71179914750E-01  0.13140527229E+00  0.20118224062E-01 0.  0.
         14    1    1    2    0    0 -0.15720775848E-01  0.18946239293E-01 -0.62733629512E-02  0.25405862696E-01  0.00000000000E+00 0. -1.
     999901    1    3    3    0    0 -0.91460815396E-01 -0.13926390693E-02 -0.64906551799E-01  0.88711886501E+00  0.88000000000E+00 0. -1.
        -11    1    4    4    0    0  0.90407044801E-01 -0.86332064178E-02  0.53265920533E-01  0.10528763182E+00  0.51100000000E-03 0. -1.
         11    1    4    4    0    0  0.16774546444E-01 -0.89203938057E-02  0.17913994216E-01  0.26117640472E-01  0.51100000000E-03 0.  1.
</event>
<event>
 7    1  0.1044719E+005  0.1043930E+01  0.7957747E-01            NaN
         13   -1    0    0    0    0  0.00000000000E+00  0.00000000000E+00  0.74505805969E-08  0.10566000000E+00  0.10566000000E+00 0.  1.
     999900   -1    0    0    0    0 -0.00000000000E+00 -0.00000000000E+00 -0.74505805969E-08  0.93827000000E+00  0.93827000000E+00 0. -1.
     999903    2    1    2    0    0 -0.10101204804E+00  0.48775045788E-01  0.17700553336E-01  0.11561427232E+00  0.21700493892E-01 0.  0.
         14    1    1    2    0    0 -0.13429813619E-01 -0.27475530782E-01  0.25180641470E-01  0.39614762279E-01  0.00000000000E+00 0. -1.
     999901    1    1    2    0    0  0.11444186166E+00 -0.21299515006E-01 -0.42881194806E-01  0.88870096540E+00  0.88000000000E+00 0. -1.
        -11    1    3    3    0    0 -0.28455915556E-01  0.50908555959E-02 -0.80222257448E-03  0.28923357738E-01  0.51100000000E-03 0. -1.
         11    1    3    3    0    0 -0.72556132481E-01  0.43684190192E-01  0.18502775910E-01  0.86690914580E-01  0.51100000000E-03 0.  1.
</event>
<event>
 8    1  0.1044719E+005  0.1043930E+01  0.7957747E-01            NaN
         13   -1    0    0    0    0  0.00000000000E+00  0.00000000000E+00  0.74505805969E-08  0.10566000000E+00  0.10566000000E+00 0.  1.
     999900   -1    0    0    0    0 -0.00000000000E+00 -0.00000000000E+00 -0.74505805969E-08  0.93827000000E+00  0.93827000000E+00 0.  1.
     999902    2    1    2    0    0 -0.17925336740E-01 -0.11542693604E-01  0.13676522250E-02  0.10225659661E+01  0.10223427669E+01 0.  0.
     999903    2    3    3    0    0  0.67831791438E-01  0.78525548975E-01  0.76758983744E-01  0.13062963078E+00  0.20118277270E-01 0.  0.
         14    1    1    2    0    0  0.17925336740E-01  0.11542693604E-01 -0.13676522250E-02  0.21364033924E-01  0.00000000000E+00 0. -1.
     999901    1    3    3    0    0 -0.85757128179E-01 -0.90068242580E-01 -0.75391331519E-01  0.89193633530E+00  0.88000000000E+00 0.  1.
        -11    1    4    4    0    0  0.59888571973E-01  0.62953944083E-01  0.55507180492E-01  0.10310746014E+00  0.51100000000E-03 0.  1.
         11    1    4    4    0    0  0.79432194649E-02  0.15571604892E-01  0.21251803252E-01  0.27522170642E-01  0.51100000000E-03 0. -1.
</event>
<event>
 8    1  0.1044719E+005  0.1043930E+01  0.7957747E-01            NaN
         13   -1    0    0    0    0  0.00000000000E+00  0.00000000000E+00  0.74505805969E-08  0.10566000000E+00  0.10566000000E+00 0.  1.
     999900   -1    0    0    0    0 -0.00000000000E+00 -0.00000000000E+00 -0.74505805969E-08  0.93827000000E+00  0.93827000000E+00 0.  1.
     999902    2    1    2    0    0 -0.34683258339E-02 -0.11793065179E-01 -0.17869373710E-01  0.10222408279E+01  0.10220107093E+01 0.  0.
     999903    2    3    3    0    0 -0.12055289651E+00 -0.48380181496E-01  0.20132396055E-01  0.13291999248E+00  0.19717205955E-01 0.  0.
         14    1    1    2    0    0  0.34683258339E-02  0.11793065179E-01  0.17869373710E-01  0.21689172119E-01  0.00000000000E+00 0.  1.
     999901    1    3    3    0    0  0.11708457068E+00  0.36587116317E-01 -0.38001769765E-01  0.88932083540E+00  0.88000000000E+00 0.  1.
        -11    1    4    4    0    0 -0.33602797798E-01 -0.23080273571E-01  0.43948030136E-02  0.41005151658E-01  0.51100000000E-03 0.  1.
         11    1    4    4    0    0 -0.86950098716E-01 -0.25299907925E-01  0.15737593041E-01  0.91914840822E-01  0.51100000000E-03 0. -1.
</event>
<event>
 8    1  0.1044719E+005  0.1043930E+01  0.7957747E-01            NaN
         13   -1    0    0    0    0  0.00000000000E+00  0.00000000000E+00  0.74505805969E-08  0.10566000000E+00  0.10566000000E+00 0. -1.
     999900   -1    0    0    0    0 -0.00000000000E+00 -0.00000000000E+00 -0.74505805969E-08  0.93827000000E+00  0.93827000000E+00 0. -1.
     999902    2    1    2    0    0  0.17028044265E-02  0.62365874629E-02  0.22586025295E-01  0.10204369562E+01  0.10201664857E+01 0.  0.
     999903    2    3    3    0    0 -0.99218480507E-01  0.79438514134E-01 -0.21900711594E-01  0.13053656992E+00  0.20133815272E-01 0.  0.
         14    1    1    2    0    0 -0.17028044265E-02 -0.62365874629E-02 -0.22586025295E-01  0.23493043751E-01  0.00000000000E+00 0.  1.
     999901    1    3    3    0    0  0.10092128493E+00 -0.73201926671E-01  0.44486736889E-01  0.88990038632E+00  0.88000000000E+00 0.  1.
        -11    1    4    4    0    0 -0.93761118921E-01  0.79338460366E-01 -0.22961028434E-01  0.12495282575E+00  0.51100000000E-03 0. -1.
         11    1    4    4    0    0 -0.54573615855E-02  0.10005376812E-03  0.10603168395E-02  0.55837441768E-02  0.51100000000E-03 0.  1.
</event>
<event>
 8    1  0.1044719E+005  0.1043930E+01  0.7957747E-01            NaN
         13   -1    0    0    0    0  0.00000000000E+00  0.00000000000E+00  0.74505805969E-08  0.10566000000E+00  0.10566000000E+00 0. -1.
     999900   -1    0    0    0    0 -0.00000000000E+00 -0.00000000000E+00 -0.74505805969E-08  0.93827000000E+00  0.93827000000E+00 0.  1.
     999902    2    1    2    0    0  0.17218614243E-01 -0.30406077327E-02 -0.14982669800E-01  0.10209037896E+01  0.10206440816E+01 0.  0.
     999903    2    3    3    0    0 -0.87668253970E-01 -0.62692069692E-01 -0.72488305881E-01  0.13081028314E+00  0.15516356789E-01 0.  0.
         14    1    1    2    0    0 -0.17218614243E-01  0.30406077327E-02  0.14982669800E-01  0.23026210417E-01  0.00000000000E+00 0.  1.
     999901    1    3    3    0    0  0.10488686821E+00  0.59651461960E-01  0.57505636081E-01  0.89009350645E+00  0.88000000000E+00 0.  1.
        -11    1    4    4    0    0 -0.52974283370E-01 -0.35056188303E-01 -0.51292250205E-01  0.81647823541E-01  0.51100000000E-03 0. -1.
         11    1    4    4    0    0 -0.34693970600E-01 -0.27635881389E-01 -0.21196055677E-01  0.49162459595E-01  0.51100000000E-03 0.  1.
</event>
<event>
 8    1  0.1044719E+005  0.1043930E+01  0.7957747E-01            NaN
         13   -1    0    0    0    0  0.00000000000E+00  0.00000000000E+00  0.74505805969E-08  0.10566000000E+00  0.10566000000E+00 0.  1.
     999900   -1    0    0    0    0 -0.00000000000E+00 -0.00000000000E+00 -0.74505805969E-08  0.93827000000E+00  0.93827000000E+00 0. -1.
     999902    2    1    2    0    0  0.20476903633E-01  0.38105182328E-03  0.96925048877E-02  0.10212718131E+01  0.10210204321E+01 0.  0.
     999903    2    3    3    0    0  0.22704141951E-01 -0.12163825855E+00 -0.39811585319E-01  0.13147165146E+00  0.19710119431E-01 0.  0.
         14    1    1    2    0    0 -0.20476903633E-01 -0.38105182328E-03 -0.96925048877E-02  0.22658186906E-01  0.00000000000E+00 0. -1.
     999901    1    3    3    0    0 -0.22272383179E-02  0.12201931037E+00  0.49504090207E-01  0.88980016163E+00  0.88000000000E+00 0.  1.
        -11    1    4    4    0    0  0.23047590482E-01 -0.11460940543E+00 -0.32561454661E-01  0.12135492034E+00  0.51100000000E-03 0.  1.
         11    1    4    4    0    0 -0.34344853126E-03 -0.70288531229E-02 -0.72501306577E-02  0.10116731126E-01  0.51100000000E-03 0. -1.
</event>
<event>
 8    1  0.1044719E+005  0.1043930E+01  0.7957747E-01            NaN
         13   -1    0    0    0    0  0.00000000000E+00  0.00000000000E+00  0.74505805969E-08  0.10566000000E+00  0.10566000000E+00 0. -1.
     999900   -1    0    0    0    0 -0.00000000000E+00 -0.00000000000E+00 -0.74505805969E-08  0.93827000000E+00  0.93827000000E+00 0.  1.
     999902    2    1    2    0    0 -0.22584288697E-01 -0.35308254662E-02  0.51308228224E-02  0.10205026193E+01  0.10202336761E+01 0.  0.
     999903    2    3    3    0    0 -0.12893956115E+00 -0.21506644786E-01 -0.18477761690E-01  0.13360243362E+00  0.20499668135E-01 0.  0.
         14    1    1    2    0    0  0.22584288697E-01  0.35308254662E-02 -0.51308228224E-02  0.23427380717E-01  0.00000000000E+00 0. -1.
     999901    1    3    3    0    0  0.10635527245E+00  0.17975819320E-01  0.23608584512E-01  0.88690018566E+00  0.88000000000E+00 0. -1.
        -11    1    4    4    0    0 -0.11519345766E+00 -0.20260836594E-01 -0.22729672580E-01  0.11915088469E+00  0.51100000000E-03 0.  1.
         11    1    4    4    0    0 -0.13746103495E-01 -0.12458081926E-02  0.42519108901E-02  0.14451548933E-01  0.51100000000E-03 0. -1.
</event>
<event>
 8    1  0.1044719E+005  0.1043930E+01  0.7957747E-01            NaN
         13   -1    0    0    0    0  0.00000000000E+00  0.00000000000E+00  0.74505805969E-08  0.10566000000E+00  0.10566000000E+00 0. -1.
     999900   -1    0    0    0    0 -0.00000000000E+00 -0.00000000000E+00 -0.74505805969E-08  0.93827000000E+00  0.93827000000E+00 0. -1.
     999902    2    1    2    0    0 -0.40111169077E-02 -0.15832499642E-01 -0.17921064785E-01  0.10196829040E+01  0.10193945767E+01 0.  0.
     999903    2    3    3    0    0  0.12682818884E+00 -0.17546971429E-01 -0.80582617356E-02  0.12995309203E+00  0.20726428922E-01 0.  0.
         14    1    1    2    0    0  0.40111169077E-02  0.15832499642E-01  0.17921064785E-01  0.24247096049E-01  0.00000000000E+00 0.  1.
     999901    1    3    3    0    0 -0.13083930574E+00  0.17144717879E-02 -0.98628030498E-02  0.88972981192E+00  0.88000000000E+00 0.  1.
        -11    1    4    4    0    0  0.88203917519E-01 -0.66628854400E-02 -0.13405269042E-01  0.89466683559E-01  0.51100000000E-03 0. -1.
         11    1    4    4    0    0  0.38624271317E-01 -0.10884085989E-01  0.53470073059E-02  0.40486408469E-01  0.51100000000E-03 0.  1.
</event>
<event>
 8    1  0.1044719E+005  0.1043930E+01  0.7957747E-01            NaN
         13   -1    0    0    0    0  0.00000000000E+00  0.00000000000E+00  0.74505805969E-08  0.10566000000E+00  0.10566000000E+00 0. -1.
     999900   -1    0    0    0    0 -0.00000000000E+00 -0.00000000000E+00 -0.74505805969E-08  0.93827000000E+00  0.93827000000E+00 0.  1.
     999902    2    1    2    0    0 -0.14054725820E-01 -0.81214921035E-02  0.24607537042E-01  0.10144507729E+01  0.10140223596E+01 0.  0.
     999903    2    3    3    0    0 -0.46011983075E-03  0.11959834936E+00 -0.24997827854E-01  0.12374438836E+00  0.19590951275E-01 0.  0.
         14    1    1    2    0    0  0.14054725820E-01  0.81214921035E-02 -0.24607537042E-01  0.29479227112E-01  0.00000000000E+00 0.  1.
     999901    1    3    3    0    0 -0.13594605989E-01 -0.12771984147E+00  0.49605364896E-01  0.89070638453E+00  0.88000000000E+00 0.  1.
        -11    1    4    4    0    0  0.68755157373E-02  0.83034244823E-01 -0.11644361829E-01  0.84129726099E-01  0.51100000000E-03 0. -1.
         11    1    4    4    0    0 -0.73356355680E-02  0.36564104540E-01 -0.13353466025E-01  0.39614662259E-01  0.51100000000E-03 0.  1.
</event>
<event>
 8    1  0.1044719E+005  0.1043930E+01  0.7957747E-01            NaN
         13   -1    0    0    0    0  0.00000000000E+00  0.00000000000E+00  0.74505805969E-08  0.10566000000E+00  0.10566000000E+00 0. -1.
     999900   -1    0    0    0    0 -0.00000000000E+00 -0.00000000000E+00 -0.74505805969E-08  0.93827000000E+00  0.93827000000E+00 0.  1.
     999902    2    1    2    0    0 -0.16286496484E-01  0.19250789696E-02  0.43488531006E-02  0.10269633144E+01  0.10268231497E+01 0.  0.
     999903    2    3    3    0    0 -0.12434209552E+00 -0.41783291914E-01  0.39867554035E-01  0.13856699953E+00  0.20114454817E-01 0.  0.
         14    1    1    2    0    0  0.16286496484E-01 -0.19250789696E-02 -0.43488531006E-02  0.16966685594E-01  0.00000000000E+00 0.  1.
     999901    1    3    3    0    0  0.10805559904E+00  0.43708370883E-01 -0.35518700934E-01  0.88839631488E+00  0.88000000000E+00 0. -1.
        -11    1    4    4    0    0 -0.80794361491E-01 -0.37026046583E-01  0.25508098226E-01  0.92463945245E-01  0.51100000000E-03 0. -1.
         11    1    4    4    0    0 -0.43547734030E-01 -0.47572453305E-02  0.14359455809E-01  0.46103054285E-01  0.51100000000E-03 0.  1.
</event>
<event>
 8    1  0.1044719E+005  0.1043930E+01  0.7957747E-01            NaN
         13   -1    0    0    0    0  0.00000000000E+00  0.00000000000E+00  0.74505805969E-08  0.10566000000E+00  0.10566000000E+00 0. -1.
     999900   -1    0    0    0    0 -0.00000000000E+00 -0.00000000000E+00 -0.74505805969E-08  0.93827000000E+00  0.93827000000E+00 0. -1.
     999902    2    1    2    0    0 -0.12737033375E-01  0.17818347797E-01 -0.89273748149E-02  0.10202778636E+01  0.10200036742E+01 0.  0.
     999903    2    3    3    0    0  0.43485722678E-02 -0.72501079914E-01  0.10384230619E+00  0.12833250766E+00  0.20265519931E-01 0.  0.
         14    1    1    2    0    0  0.12737033375E-01 -0.17818347797E-01  0.89273748149E-02  0.23652136447E-01  0.00000000000E+00 0. -1.
     999901    1    3    3    0    0 -0.17085605643E-01  0.90319427710E-01 -0.11276968101E+00  0.89194535589E+00  0.88000000000E+00 0.  1.
        -11    1    4    4    0    0 -0.31050781501E-02 -0.15434253491E-01  0.36455319419E-01  0.39712833267E-01  0.51100000000E-03 0. -1.
         11    1    4    4    0    0  0.74536504179E-02 -0.57066826423E-01  0.67386986773E-01  0.88619674395E-01  0.51100000000E-03 0.  1.
</event>
<event>
 8    1  0.1044719E+005  0.1043930E+01  0.7957747E-01            NaN
         13   -1    0    0    0    0  0.00000000000E+00  0.00000000000E+00  0.74505805969E-08  0.10566000000E+00  0.10566000000E+00 0. -1.
     999900   -1    0    0    0    0 -0.00000000000E+00 -0.00000000000E+00 -0.74505805969E-08  0.93827000000E+00  0.93827000000E+00 0. -1.
     999902    2    1    2    0    0 -0.16809562881E-01  0.39242029563E-02  0.16240360628E-01  0.10202295762E+01  0.10199542530E+01 0.  0.
     999903    2    3    3    0    0 -0.98201142131E-01 -0.12729443146E-01  0.87222654965E-01  0.13347119922E+00  0.20031636080E-01 0.  0.
         14    1    1    2    0    0  0.16809562881E-01 -0.39242029563E-02 -0.16240360628E-01  0.23700423760E-01  0.00000000000E+00 0.  1.
     999901    1    3    3    0    0  0.81391579250E-01  0.16653646103E-01 -0.70982294336E-01  0.88675837702E+00  0.88000000000E+00 0. -1.
        -11    1    4    4    0    0 -0.54406672099E-01 -0.71145084546E-02  0.61285580610E-01  0.82261082604E-01  0.51100000000E-03 0.  1.
         11    1    4    4    0    0 -0.43794470032E-01 -0.56149346919E-02  0.25937074355E-01  0.51210116619E-01  0.51100000000E-03 0. -1.
</event>
<event>
 8    1  0.1044719E+005  0.1043930E+01  0.7957747E-01            NaN
         13   -1    0    0    0    0  0.00000000000E+00  0.00000000000E+00  0.74505805969E-08  0.10566000000E+00  0.10566000000E+00 0.  1.
     999900   -1    0    0    0    0 -0.00000000000E+00 -0.00000000000E+00 -0.74505805969E-08  0.93827000000E+00  0.93827000000E+00 0.  1.
     999902    2    1    2    0    0  0.13298641150E-01  0.10420296805E-01 -0.15837265201E-01  0.10207728108E+01  0.10205101057E+01 0.  0.
     999903    2    3    3    0    0 -0.70846992153E-01  0.53261924224E-01 -0.93727053931E-01  0.13230068867E+00  0.29369758494E-01 0.  0.
         14    1    1    2    0    0 -0.13298641150E-01 -0.10420296805E-01  0.15837265201E-01  0.23157189186E-01  0.00000000000E+00 0.  1.
     999901    1    3    3    0    0  0.84145633303E-01 -0.42841627419E-01  0.77889788730E-01  0.88847212215E+00  0.88000000000E+00 0.  1.
        -11    1    4    4    0    0 -0.25149754071E-01  0.10092711047E-01 -0.13219851366E-01  0.30156235462E-01  0.51100000000E-03 0. -1.
         11    1    4    4    0    0 -0.45697238082E-01  0.43169213177E-01 -0.80507202565E-01  0.10214445320E+00  0.51100000000E-03 0.  1.
</event>
<event>
 8    1  0.1044719E+005  0.1043930E+01  0.7957747E-01            NaN
         13   -1    0    0    0    0  0.00000000000E+00  0.00000000000E+00  0.74505805969E-08  0.10566000000E+00  0.10566000000E+00 0.  1.
     999900   -1    0    0    0    0 -0.00000000000E+00 -0.00000000000E+00 -0.74505805969E-08  0.93827000000E+00  0.93827000000E+00 0.  1.
     999902    2    1    2    0    0  0.75366169921E-02  0.10372169453E-01 -0.17988975737E-01  0.10218396007E+01  0.10216007947E+01 0.  0.
     999903    2    3    3    0    0  0.94452156477E-01 -0.80410586490E-01 -0.42232232426E-01  0.13257948389E+00  0.20166452609E-01 0.  0.
         14    1    1    2    0    0 -0.75366169921E-02 -0.10372169453E-01  0.17988975737E-01  0.22090399338E-01  0.00000000000E+00 0.  1.
     999901    1    3    3    0    0 -0.86915539485E-01  0.90782755943E-01  0.24243256689E-01  0.88926011677E+00  0.88000000000E+00 0. -1.
        -11    1    4    4    0    0  0.69541124284E-01 -0.61767232317E-01 -0.40395737178E-01  0.10140629003E+00  0.51100000000E-03 0.  1.
         11    1    4    4    0    0  0.24911032193E-01 -0.18643354173E-01 -0.18364952482E-02  0.31173193861E-01  0.51100000000E-03 0. -1.
</event>
<event>
 8    1  0.1044719E+005  0.1043930E+01  0.7957747E-01            NaN
         13   -1    0    0    0    0  0.00000000000E+00  0.00000000000E+00  0.74505805969E-08  0.10566000000E+00  0.10566000000E+00 0.  1.
     999900   -1    0    0    0    0 -0.00000000000E+00 -0.00000000000E+00 -0.74505805969E-08  0.93827000000E+00  0.93827000000E+00 0. -1.
     999902    2    1    2    0    0  0.16294167864E-01 -0.12747956335E-01  0.15294405702E-01  0.10182020163E+01  0.10178769164E+01 0.  0.
     999903    2    3    3    0    0  0.12423386278E+00  0.29971274670E-01  0.18133863380E-01  0.13057373099E+00  0.19706147701E-01 0.  0.
         14    1    1    2    0    0 -0.16294167864E-01  0.12747956335E-01 -0.15294405702E-01  0.25727983654E-01  0.00000000000E+00 0. -1.
     999901    1    3    3    0    0 -0.10793969492E+00 -0.42719231005E-01 -0.28394576776E-02  0.88762828535E+00  0.88000000000E+00 0.  1.
        -11    1    4    4    0    0  0.36627743836E-01  0.16488937954E-01  0.10988938841E-01  0.41647263911E-01  0.51100000000E-03 0. -1.
         11    1    4    4    0    0  0.87606118947E-01  0.13482336717E-01  0.71449245385E-02  0.88926467084E-01  0.51100000000E-03 0.  1.
</event>
<event>
 8    1  0.1044719E+005  0.1043930E+01  0.7957747E-01            NaN
         13   -1    0    0    0    0  0.00000000000E+00  0.00000000000E+00  0.74505805969E-08  0.10566000000E+00  0.10566000000E+00 0. -1.
     999900   -1    0    0    0    0 -0.00000000000E+00 -0.00000000000E+00 -0.74505805969E-08  0.93827000000E+00  0.93827000000E+00 0. -1.
     999902    2    1    2    0    0 -0.13039729070E-01  0.27294831538E-02 -0.18879977603E-01  0.10208228979E+01  0.10205613410E+01 0.  0.
     999903    2    3    3    0    0  0.66452234791E-02 -0.50590241849E-01 -0.12117056174E+00  0.13307639466E+00  0.20578877999E-01 0.  0.
         14    1    1    2    0    0  0.13039729070E-01 -0.27294831538E-02  0.18879977603E-01  0.23107102086E-01  0.00000000000E+00 0. -1.
     999901    1    3    3    0    0 -0.19684952549E-01  0.53319725002E-01  0.10229058413E+00  0.88774650325E+00  0.88000000000E+00 0.  1.
        -11    1    4    4    0    0  0.11659786009E-02 -0.38004164859E-01 -0.10598369695E+00  0.11259876196E+00  0.51100000000E-03 0.  1.
         11    1    4    4    0    0  0.54792448781E-02 -0.12586076989E-01 -0.15186864782E-01  0.20477632708E-01  0.51100000000E-03 0. -1.
</event>
<event>
 8    1  0.1044719E+005  0.1043930E+01  0.7957747E-01            NaN
         13   -1    0    0    0    0  0.00000000000E+00  0.00000000000E+00  0.74505805969E-08  0.10566000000E+00  0.10566000000E+00 0.  1.
     999900   -1    0    0    0    0 -0.00000000000E+00 -0.00000000000E+00 -0.74505805969E-08  0.93827000000E+00  0.93827000000E+00 0. -1.
     999902    2    1    2    0    0 -0.18936399854E-01 -0.13861062036E-01 -0.37140070795E-02  0.10201705781E+01  0.10198938662E+01 0.  0.
     999903    2    3    3    0    0 -0.35547902164E-01  0.43679697290E-01 -0.11650016260E+00  0.13095317057E+00  0.20121523078E-01 0.  0.
         14    1    1    2    0    0  0.18936399854E-01  0.13861062036E-01  0.37140070795E-02  0.23759421895E-01  0.00000000000E+00 0.  1.
     999901    1    3    3    0    0  0.16611502309E-01 -0.57540759326E-01  0.11278615552E+00  0.88921740754E+00  0.88000000000E+00 0.  1.
        -11    1    4    4    0    0 -0.82297658702E-02  0.13352467581E-01 -0.54558067595E-01  0.56770250109E-01  0.51100000000E-03 0. -1.
         11    1    4    4    0    0 -0.27318136294E-01  0.30327229710E-01 -0.61942095008E-01  0.74182920456E-01  0.51100000000E-03 0.  1.
</event>
<event>
 8    1  0.1044719E+005  0.1043930E+01  0.7957747E-01            NaN
         13   -1    0    0    0    0  0.00000000000E+00  0.00000000000E+00  0.74505805969E-08  0.10566000000E+00  0.10566000000E+00 0. -1.
     999900   -1    0    0    0    0 -0.00000000000E+00 -0.00000000000E+00 -0.74505805969E-08  0.93827000000E+00  0.93827000000E+00 0. -1.
     999902    2    1    2    0    0  0.14169123628E-01 -0.38738098760E-02  0.18360210475E-01  0.10204168591E+01  0.10201459202E+01 0.  0.
     999903    2    3    3    0    0 -0.26936610712E-01 -0.97521450811E-01  0.82762726208E-01  0.13215606062E+00  0.19481815713E-01 0.  0.
         14    1    1    2    0    0 -0.14169123628E-01  0.38738098760E-02 -0.18360210475E-01  0.23513140922E-01  0.00000000000E+00 0. -1.
     999901    1    3    3    0    0  0.41105734341E-01  0.93647640935E-01 -0.64402515734E-01  0.88826079846E+00  0.88000000000E+00 0. -1.
        -11    1    4    4    0    0 -0.17008935639E-01 -0.36473095398E-01  0.41453097903E-01  0.57777253537E-01  0.51100000000E-03 0.  1.
         11    1    4    4    0    0 -0.99276750730E-02 -0.61048355413E-01  0.41309628305E-01  0.74378807080E-01  0.51100000000E-03 0. -1.
</event>
<event>
 8    1  0.1044719E+005  0.1043930E+01  0.7957747E-01            NaN
         13   -1    0    0    0    0  0.00000000000E+00  0.00000000000E+00  0.74505805969E-08  0.10566000000E+00  0.10566000000E+00 0. -1.
     999900   -1    0    0    0    0 -0.00000000000E+00 -0.00000000000E+00 -0.74505805969E-08  0.93827000000E+00  0.93827000000E+00 0.  1.
     999902    2    1    2    0    0  0.22524767513E-01  0.46031352532E-02 -0.51754680669E-02  0.10203643582E+01  0.10200921938E+01 0.  0.
     999903    2    3    3    0    0  0.72416612663E-01  0.63244801398E-01  0.88301528885E-01  0.13207049339E+00  0.20034583306E-01 0.  0.
         14    1    1    2    0    0 -0.22524767513E-01 -0.46031352532E-02  0.51754680669E-02  0.23565641841E-01  0.00000000000E+00 0. -1.
     999901    1    3    3    0    0 -0.49891845151E-01 -0.58641666145E-01 -0.93476996952E-01  0.88829386477E+00  0.88000000000E+00 0.  1.
        -11    1    4    4    0    0  0.17466210964E-01  0.26504681574E-01  0.23458156487E-01  0.39472938801E-01  0.51100000000E-03 0.  1.
         11    1    4    4    0    0  0.54950401700E-01  0.36740119823E-01  0.64843372398E-01  0.92597554593E-01  0.51100000000E-03 0. -1.
</event>
<event>
 8    1  0.1044719E+005  0.1043930E+01  0.7957747E-01            NaN
         13   -1    0    0    0    0  0.00000000000E+00  0.00000000000E+00  0.74505805969E-08  0.10566000000E+00  0.10566000000E+00 0. -1.
     999900   -1    0    0    0    0 -0.00000000000E+00 -0.00000000000E+00 -0.74505805969E-08  0.93827000000E+00  0.93827000000E+00 0.  1.
     999902    2    1    2    0    0  0.22366940085E-01  0.57129986624E-02 -0.58650209232E-02  0.10201115863E+01  0.10198334823E+01 0.  0.
     999903    2    3    3    0    0  0.58091846876E-02 -0.72115626850E-01 -0.10691993952E+00  0.13076151414E+00  0.20791581234E-01 0.  0.
         14    1    1    2    0    0 -0.22366940085E-01 -0.57129986624E-02  0.58650209232E-02  0.23818413737E-01  0.00000000000E+00 0.  1.
     999901    1    3    3    0    0  0.16557755398E-01  0.77828625513E-01  0.10105491860E+00  0.88935007212E+00  0.88000000000E+00 0. -1.
        -11    1    4    4    0    0 -0.10907597666E-02 -0.46511935041E-01 -0.52025989576E-01  0.69796236076E-01  0.51100000000E-03 0. -1.
         11    1    4    4    0    0  0.68999444542E-02 -0.25603691810E-01 -0.54893949946E-01  0.60965278064E-01  0.51100000000E-03 0.  1.
</event>
<event>
 8    1  0.1044719E+005  0.1043930E+01  0.7957747E-01            NaN
         13   -1    0    0    0    0  0.00000000000E+00  0.00000000000E+00  0.74505805969E-08  0.10566000000E+00  0.10566000000E+00 0.  1.
     999900   -1    0    0    0    0 -0.00000000000E+00 -0.00000000000E+00 -0.74505805969E-08  0.93827000000E+00  0.93827000000E+00 0. -1.
     999902    2    1    2    0    0  0.19131092090E-01 -0.41649416486E-02 -0.11191498813E-01  0.10213779476E+01  0.10211289422E+01 0.  0.
     999903    2    3    3    0    0  0.14376694959E-01 -0.75190753565E-01  0.10442550222E+00  0.13096536837E+00  0.19669860702E-01 0.  0.
         14    1    1    2    0    0 -0.19131092090E-01  0.41649416486E-02  0.11191498813E-01  0.22552052438E-01  0.00000000000E+00 0.  1.
     999901    1    3    3    0    0  0.47543971310E-02  0.71025811917E-01 -0.11561700103E+00  0.89041257919E+00  0.88000000000E+00 0. -1.
        -11    1    4    4    0    0  0.44605022006E-02 -0.34644426688E-01  0.32022116758E-01  0.47389972178E-01  0.51100000000E-03 0. -1.
         11    1    4    4    0    0  0.99161927585E-02 -0.40546326878E-01  0.72403385460E-01  0.83575396195E-01  0.51100000000E-03 0.  1.
</event>
<event>
 8    1  0.1044719E+005  0.1043930E+01  0.7957747E-01            NaN
         13   -1    0    0    0    0  0.00000000000E+00  0.00000000000E+00  0.74505805969E-08  0.10566000000E+00  0.10566000000E+00 0. -1.
     999900   -1    0    0    0    0 -0.00000000000E+00 -0.00000000000E+00 -0.74505805969E-08  0.93827000000E+00  0.93827000000E+00 0. -1.
     999902    2    1    2    0    0  0.10511657077E-01  0.16559048742E-01 -0.14257631149E-01  0.10196817614E+01  0.10193934066E+01 0.  0.
     999903    2    3    3    0    0  0.45897712245E-02  0.11372740413E+00 -0.65590191751E-01  0.13282676208E+00  0.19644007251E-01 0.  0.
         14    1    1    2    0    0 -0.10511657077E-01 -0.16559048742E-01  0.14257631149E-01  0.24248238611E-01  0.00000000000E+00 0.  1.
     999901    1    3    3    0    0  0.59218858530E-02 -0.97168355387E-01  0.51332560601E-01  0.88685499931E+00  0.88000000000E+00 0.  1.
        -11    1    4    4    0    0 -0.38423878193E-02  0.58393135063E-01 -0.42254563955E-01  0.72181933077E-01  0.51100000000E-03 0.  1.
         11    1    4    4    0    0  0.84321590438E-02  0.55334269066E-01 -0.23335627796E-01  0.60644829003E-01  0.51100000000E-03 0. -1.
</event>
<event>
 8    1  0.1044719E+005  0.1043930E+01  0.7957747E-01            NaN
         13   -1    0    0    0    0  0.00000000000E+00  0.00000000000E+00  0.74505805969E-08  0.10566000000E+00  0.10566000000E+00 0. -1.
     999900   -1    0    0    0    0 -0.00000000000E+00 -0.00000000000E+00 -0.74505805969E-08  0.93827000000E+00  0.93827000000E+00 0. -1.
     999902    2    1    2    0    0 -0.22324090835E-01 -0.86221215980E-02  0.62963227049E-03  0.10199904417E+01  0.10197094678E+01 0.  0.
     999903    2    3    3    0    0  0.11537160958E+00 -0.48038497375E-01  0.21180508357E-01  0.12817426389E+00  0.19019002653E-01 0.  0.
         14    1    1    2    0    0  0.22324090835E-01  0.86221215980E-02 -0.62963227049E-03  0.23939558251E-01  0.00000000000E+00 0.  1.
     999901    1    3    3    0    0 -0.13769570041E+00  0.39416375777E-01 -0.20550876087E-01  0.89181617786E+00  0.88000000000E+00 0.  1.
        -11    1    4    4    0    0  0.97593681939E-01 -0.40137866431E-01  0.24746216507E-01  0.10838916656E+00  0.51100000000E-03 0. -1.
         11    1    4    4    0    0  0.17777927637E-01 -0.79006309439E-02 -0.35657081498E-02  0.19785097321E-01  0.51100000000E-03 0.  1.
</event>
<event>
 8    1  0.1044719E+005  0.1043930E+01  0.7957747E-01            NaN
         13   -1    0    0    0    0  0.00000000000E+00  0.00000000000E+00  0.74505805969E-08  0.10566000000E+00  0.10566000000E+00 0.  1.
     999900   -1    0    0    0    0 -0.00000000000E+00 -0.00000000000E+00 -0.74505805969E-08  0.93827000000E+00  0.93827000000E+00 0. -1.
     999902    2    1    2    0    0  0.96430863858E-02  0.20166025927E-01  0.78169883821E-02  0.10202495645E+01  0.10199747109E+01 0.  0.
     999903    2    3    3    0    0 -0.89528325336E-01  0.36491138740E-01 -0.84095601999E-01  0.12977249998E+00  0.20540380532E-01 0.  0.
         14    1    1    2    0    0 -0.96430863858E-02 -0.20166025927E-01 -0.78169883821E-02  0.23680435471E-01  0.00000000000E+00 0. -1.
     999901    1    3    3    0    0  0.99171411722E-01 -0.16325112813E-01  0.91912590381E-01  0.89047706455E+00  0.88000000000E+00 0.  1.
        -11    1    4    4    0    0 -0.19850785597E-01  0.66383533136E-02 -0.30253012667E-01  0.36791674601E-01  0.51100000000E-03 0.  1.
         11    1    4    4    0    0 -0.69677539739E-01  0.29852785426E-01 -0.53842589332E-01  0.92980825382E-01  0.51100000000E-03 0. -1.
</event>
<event>
 8    1  0.1044719E+005  0.1043930E+01  0.7957747E-01            NaN
         13   -1    0    0    0    0  0.00000000000E+00  0.00000000000E+00  0.74505805969E-08  0.10566000000E+00  0.10566000000E+00 0. -1.
     999900   -1    0    0    0    0 -0.00000000000E+00 -0.00000000000E+00 -0.74505805969E-08  0.93827000000E+00  0.93827000000E+00 0.  1.
     999902    2    1    2    0    0  0.23108022742E-01 -0.27846517134E-03 -0.30962226734E-02  0.10206138071E+01  0.10203474400E+01 0.  0.
     999903    2    3    3    0    0  0.70892308727E-01 -0.33943053469E-02  0.10931451993E+00  0.13217178786E+00  0.21965347527E-01 0.  0.
         14    1    1    2    0    0 -0.23108022742E-01  0.27846517134E-03  0.30962226734E-02  0.23316192929E-01  0.00000000000E+00 0.  1.
     999901    1    3    3    0    0 -0.47784285985E-01  0.31158401756E-02 -0.11241074261E+00  0.88844201921E+00  0.88000000000E+00 0.  1.
        -11    1    4    4    0    0  0.53755930395E-01 -0.56996758742E-02  0.64645675666E-01  0.84270462566E-01  0.51100000000E-03 0.  1.
         11    1    4    4    0    0  0.17136378332E-01  0.23053705273E-02  0.44668844268E-01  0.47901325293E-01  0.51100000000E-03 0. -1.
</event>
<event>
 8    1  0.1044719E+005  0.1043930E+01  0.7957747E-01            NaN
         13   -1    0    0    0    0  0.00000000000E+00  0.00000000000E+00  0.74505805969E-08  0.10566000000E+00  0.10566000000E+00 0.  1.
     999900   -1    0    0    0    0 -0.00000000000E+00 -0.00000000000E+00 -0.74505805969E-08  0.93827000000E+00  0.93827000000E+00 0. -1.
     999902    2    1    2    0    0 -0.13417147602E-02 -0.25784881222E-02  0.23889829254E-01  0.10198639920E+01  0.10195800064E+01 0.  0.
     999903    2    3    3    0    0 -0.20644811254E-02  0.12235401699E+00 -0.35625467138E-01  0.12904935150E+00  0.20243360832E-01 0.  0.
         14    1    1    2    0    0  0.13417147602E-02  0.25784881222E-02 -0.23889829254E-01  0.24066008005E-01  0.00000000000E+00 0. -1.
     999901    1    3    3    0    0  0.72276636520E-03 -0.12493250511E+00  0.59515296392E-01  0.89081464050E+00  0.88000000000E+00 0.  1.
        -11    1    4    4    0    0 -0.40318645102E-02  0.66173492503E-01 -0.92085145910E-02  0.66934631570E-01  0.51100000000E-03 0.  1.
         11    1    4    4    0    0  0.19673833848E-02  0.56180524483E-01 -0.26416952547E-01  0.62114719926E-01  0.51100000000E-03 0. -1.
</event>
<event>
 7    1  0.1044719E+005  0.1043930E+01  0.7957747E-01            NaN
         13   -1    0    0    0    0  0.00000000000E+00  0.00000000000E+00  0.74505805969E-08  0.10566000000E+00  0.10566000000E+00 0.  1.
     999900   -1    0    0    0    0 -0.00000000000E+00 -0.00000000000E+00 -0.74505805969E-08  0.93827000000E+00  0.93827000000E+00 0.  1.
     999902    2    1    2    0    0 -0.16478527218E-01 -0.13264731114E-01  0.96674977806E-02  0.10206715507E+01  0.10204065165E+01 0.  0.
         14    1    1    2    0    0  0.16478527218E-01  0.13264731114E-01 -0.96674977806E-02  0.23258449306E-01  0.00000000000E+00 0.  1.
     999901    1    3    3    0    0  0.92957688054E-01 -0.46790982234E-02 -0.37022672289E-01  0.88568262035E+00  0.88000000000E+00 0.  1.
        -11    1    3    3    0    0 -0.33825368964E-01  0.12672823266E-01  0.43273755770E-01  0.56370516181E-01  0.51100000000E-03 0.  1.
         11    1    3    3    0    0 -0.75610846308E-01 -0.21258456156E-01  0.34164142991E-02  0.78618414161E-01  0.51100000000E-03 0. -1.
</event>
<event>
 8    1  0.1044719E+005  0.1043930E+01  0.7957747E-01            NaN
         13   -1    0    0    0    0  0.00000000000E+00  0.00000000000E+00  0.74505805969E-08  0.10566000000E+00  0.10566000000E+00 0.  1.
     999900   -1    0    0    0    0 -0.00000000000E+00 -0.00000000000E+00 -0.74505805969E-08  0.93827000000E+00  0.93827000000E+00 0. -1.
     999902    2    1    2    0    0  0.17323061969E-01  0.23208378101E-01  0.84611151920E-02  0.10137586931E+01  0.10133096171E+01 0.  0.
     999903    2    3    3    0    0  0.57332139597E-01  0.11040932921E+00 -0.21860046074E-01  0.12802503957E+00  0.20865160802E-01 0.  0.
         14    1    1    2    0    0 -0.17323061969E-01 -0.23208378101E-01 -0.84611151920E-02  0.30171306905E-01  0.00000000000E+00 0.  1.
     999901    1    3    3    0    0 -0.40009077627E-01 -0.87200951108E-01  0.30321161266E-01  0.88573365353E+00  0.88000000000E+00 0. -1.
        -11    1    4    4    0    0  0.26168354284E-01  0.30527900738E-01 -0.37461473255E-02  0.40386015280E-01  0.51100000000E-03 0. -1.
         11    1    4    4    0    0  0.31163785313E-01  0.79881428471E-01 -0.18113898749E-01  0.87639024290E-01  0.51100000000E-03 0.  1.
</event>
<event>
 8    1  0.1044719E+005  0.1043930E+01  0.7957747E-01            NaN
         13   -1    0    0    0    0  0.00000000000E+00  0.00000000000E+00  0.74505805969E-08  0.10566000000E+00  0.10566000000E+00 0. -1.
     999900   -1    0    0    0    0 -0.00000000000E+00 -0.00000000000E+00 -0.74505805969E-08  0.93827000000E+00  0.93827000000E+00 0.  1.
     999902    2    1    2    0    0 -0.13071481263E-01 -0.13620309099E-01 -0.15325838504E-01  0.10196142074E+01  0.10193242243E+01 0.  0.
     999903    2    3    3    0    0 -0.12408070289E+00  0.60779882467E-02  0.36181379190E-01  0.13092750016E+00  0.19998883152E-01 0.  0.
         14    1    1    2    0    0  0.13071481263E-01  0.13620309099E-01  0.15325838504E-01  0.24315792568E-01  0.00000000000E+00 0. -1.
     999901    1    3    3    0    0  0.11100922163E+00 -0.19698297346E-01 -0.51507217694E-01  0.88868670727E+00  0.88000000000E+00 0. -1.
        -11    1    4    4    0    0 -0.35698707304E-01 -0.46801796856E-02  0.17136536508E-01  0.39877610129E-01  0.51100000000E-03 0. -1.
         11    1    4    4    0    0 -0.88381995587E-01  0.10758167932E-01  0.19044842682E-01  0.91049890033E-01  0.51100000000E-03 0.  1.
</event>
<event>
 8    1  0.1044719E+005  0.1043930E+01  0.7957747E-01            NaN
         13   -1    0    0    0    0  0.00000000000E+00  0.00000000000E+00  0.74505805969E-08  0.10566000000E+00  0.10566000000E+00 0.  1.
     999900   -1    0    0    0    0 -0.00000000000E+00 -0.00000000000E+00 -0.74505805969E-08  0.93827000000E+00  0.93827000000E+00 0. -1.
     999902    2    1    2    0    0 -0.14872072111E-03 -0.45851884570E-02  0.19984080380E-01  0.10234261092E+01  0.10232206953E+01 0.  0.
     999903    2    3    3    0    0 -0.24734936438E-01 -0.12627662929E+00 -0.28306435141E-01  0.13340068106E+00  0.20901752342E-01 0.  0.
         14    1    1    2    0    0  0.14872072111E-03  0.45851884570E-02 -0.19984080380E-01  0.20503890842E-01  0.00000000000E+00 0. -1.
     999901    1    3    3    0    0  0.24586215717E-01  0.12169144083E+00  0.48290515520E-01  0.89002542810E+00  0.88000000000E+00 0.  1.
        -11    1    4    4    0    0 -0.22355531045E-01 -0.77301707930E-01 -0.24951947667E-01  0.84250724807E-01  0.51100000000E-03 0.  1.
         11    1    4    4    0    0 -0.23794053930E-02 -0.48974921360E-01 -0.33544874738E-02  0.49149956251E-01  0.51100000000E-03 0. -1.
</event>
<event>
 8    1  0.1044719E+005  0.1043930E+01  0.7957747E-01            NaN
         13   -1    0    0    0    0  0.00000000000E+00  0.00000000000E+00  0.74505805969E-08  0.10566000000E+00  0.10566000000E+00 0. -1.
     999900   -1    0    0    0    0 -0.00000000000E+00 -0.00000000000E+00 -0.74505805969E-08  0.93827000000E+00  0.93827000000E+00 0. -1.
     999902    2    1    2    0    0  0.11398984770E-01  0.22653264865E-01  0.62574813038E-02  0.10178098290E+01  0.10174746113E+01 0.  0.
     999903    2    3    3    0    0 -0.55448179569E-01  0.61059421408E-01 -0.96696071141E-01  0.12846006076E+00  0.18684310959E-01 0.  0.
         14    1    1    2    0    0 -0.11398984770E-01 -0.22653264865E-01 -0.62574813038E-02  0.26120171039E-01  0.00000000000E+00 0.  1.
     999901    1    3    3    0    0  0.66847164338E-01 -0.38406156543E-01  0.10295355244E+00  0.88934976820E+00  0.88000000000E+00 0.  1.
        -11    1    4    4    0    0 -0.95931189462E-02  0.19589159642E-01 -0.34058651667E-01  0.40447694384E-01  0.51100000000E-03 0.  1.
         11    1    4    4    0    0 -0.45855060622E-01  0.41470261765E-01 -0.62637419474E-01  0.88012366375E-01  0.51100000000E-03 0. -1.
</event>
<event>
 8    1  0.1044719E+005  0.1043930E+01  0.7957747E-01            NaN
         13   -1    0    0    0    0  0.00000000000E+00  0.00000000000E+00  0.74505805969E-08  0.10566000000E+00  0.10566000000E+00 0. -1.
     999900   -1    0    0    0    0 -0.00000000000E+00 -0.00000000000E+00 -0.74505805969E-08  0.93827000000E+00  0.93827000000E+00 0.  1.
     999902    2    1    2    0    0 -0.10259555719E-01 -0.24477563822E-02 -0.20882933745E-01  0.10205345535E+01  0.10202663515E+01 0.  0.
     999903    2    3    3    0    0 -0.11800960434E+00 -0.40763055538E-01  0.35672345471E-01  0.13133455647E+00  0.19706752097E-01 0.  0.
         14    1    1    2    0    0  0.10259555719E-01  0.24477563822E-02  0.20882933745E-01  0.23395446494E-01  0.00000000000E+00 0.  1.
     999901    1    3    3    0    0  0.10775004862E+00  0.38315299156E-01 -0.56555279217E-01  0.88919999704E+00  0.88000000000E+00 0. -1.
        -11    1    4    4    0    0 -0.63708981888E-01 -0.11775206731E-01  0.16421251966E-01  0.66838675211E-01  0.51100000000E-03 0.  1.
         11    1    4    4    0    0 -0.54300622449E-01 -0.28987848807E-01  0.19251093505E-01  0.64495881256E-01  0.51100000000E-03 0. -1.
</event>
<event>
 8    1  0.1044719E+005  0.1043930E+01  0.7957747E-01            NaN
         13   -1    0    0    0    0  0.00000000000E+00  0.00000000000E+00  0.74505805969E-08  0.10566000000E+00  0.10566000000E+00 0.  1.
     999900   -1    0    0    0    0 -0.00000000000E+00 -0.00000000000E+00 -0.74505805969E-08  0.93827000000E+00  0.93827000000E+00 0.  1.
     999902    2    1    2    0    0  0.21078848828E-01 -0.77904900081E-02  0.70067421861E-02  0.10203905854E+01  0.10201190336E+01 0.  0.
     999903    2    3    3    0    0  0.58480156206E-01 -0.76716880491E-01  0.89139247135E-01  0.13309387436E+00  0.21511987120E-01 0.  0.
         14    1    1    2    0    0 -0.21078848828E-01  0.77904900081E-02 -0.70067421861E-02  0.23539414575E-01  0.00000000000E+00 0. -1.
     999901    1    3    3    0    0 -0.37401307378E-01  0.68926390483E-01 -0.82132504949E-01  0.88729671107E+00  0.88000000000E+00 0.  1.
        -11    1    4    4    0    0  0.25567933732E-01 -0.17491384834E-01  0.25316073263E-01  0.40010404462E-01  0.51100000000E-03 0.  1.
         11    1    4    4    0    0  0.32912222475E-01 -0.59225495657E-01  0.63823173872E-01  0.93083469897E-01  0.51100000000E-03 0. -1.
</event>
<event>
 8    1  0.1044719E+005  0.1043930E+01  0.7957747E-01            NaN
         13   -1    0    0    0    0  0.00000000000E+00  0.00000000000E+00  0.74505805969E-08  0.10566000000E+00  0.10566000000E+00 0. -1.
     999900   -1    0    0    0    0 -0.00000000000E+00 -0.00000000000E+00 -0.74505805969E-08  0.93827000000E+00  0.93827000000E+00 0. -1.
     999902    2    1    2    0    0 -0.19351773935E-01 -0.14026212478E-02 -0.12059596985E-01  0.10210850360E+01  0.10208294463E+01 0.  0.
     999903    2    3    3    0    0 -0.85874383722E-01 -0.65673207560E-01  0.72874450420E-01  0.13217010290E+00  0.21699553122E-01 0.  0.
         14    1    1    2    0    0  0.19351773935E-01  0.14026212478E-02  0.12059596985E-01  0.22844964001E-01  0.00000000000E+00 0.  1.
     999901    1    3    3    0    0  0.66522609787E-01  0.64270586312E-01 -0.84934047405E-01  0.88891493310E+00  0.88000000000E+00 0. -1.
        -11    1    4    4    0    0 -0.56208252493E-01 -0.38896386499E-01  0.33722590320E-01  0.76221852181E-01  0.51100000000E-03 0.  1.
         11    1    4    4    0    0 -0.29666131229E-01 -0.26776821061E-01  0.39151860100E-01  0.55948250719E-01  0.51100000000E-03 0. -1.
</event>
<event>
 8    1  0.1044719E+005  0.1043930E+01  0.7957747E-01            NaN
         13   -1    0    0    0    0  0.00000000000E+00  0.00000000000E+00  0.74505805969E-08  0.10566000000E+00  0.10566000000E+00 0. -1.
     999900   -1    0    0    0    0 -0.00000000000E+00 -0.00000000000E+00 -0.74505805969E-08  0.93827000000E+00  0.93827000000E+00 0. -1.
     999902    2    1    2    0    0  0.51034621890E-02  0.19907162836E-01 -0.11285471812E-01  0.10204842684E+01  0.10202148987E+01 0.  0.
     999903    2    3    3    0    0  0.98989148362E-01 -0.39035353249E-01 -0.74236959807E-01  0.13129833048E+00  0.20137405204E-01 0.  0.
         14    1    1    2    0    0 -0.51034621890E-02 -0.19907162836E-01  0.11285471812E-01  0.23445731649E-01  0.00000000000E+00 0. -1.
     999901    1    3    3    0    0 -0.93885686172E-01  0.58942516086E-01  0.62951487995E-01  0.88918593787E+00  0.88000000000E+00 0.  1.
        -11    1    4    4    0    0  0.77500036451E-01 -0.26674635865E-01 -0.47074280956E-01  0.94520055528E-01  0.51100000000E-03 0. -1.
         11    1    4    4    0    0  0.21489111910E-01 -0.12360717384E-01 -0.27162678851E-01  0.36778274950E-01  0.51100000000E-03 0.  1.
</event>
<event>
 8    1  0.1044719E+005  0.1043930E+01  0.7957747E-01            NaN
         13   -1    0    0    0    0  0.00000000000E+00  0.00000000000E+00  0.74505805969E-08  0.10566000000E+00  0.10566000000E+00 0.  1.
     999900   -1    0    0    0    0 -0.00000000000E+00 -0.00000000000E+00 -0.74505805969E-08  0.93827000000E+00  0.93827000000E+00 0.  1.
     999902    2    1    2    0    0  0.19723286206E-01  0.59144150652E-02  0.12721352762E-01  0.10197262577E+01  0.10194389729E+01 0.  0.
     999903    2    3    3    0    0 -0.14387645673E-01 -0.12351832733E+00  0.29262732662E-01  0.12945101504E+00  0.20915932641E-01 0.  0.
         14    1    1    2    0    0 -0.19723286206E-01 -0.59144150652E-02 -0.12721352762E-01  0.24203742281E-01  0.00000000000E+00 0. -1.
     999901    1    3    3    0    0  0.34110931879E-01  0.12943274239E+00 -0.16541379900E-01  0.89027524268E+00  0.88000000000E+00 0.  1.
        -11    1    4    4    0    0  0.30224125146E-02 -0.52770299368E-01  0.17277884972E-01  0.55611382854E-01  0.51100000000E-03 0. -1.
         11    1    4    4    0    0 -0.17410058188E-01 -0.70748027960E-01  0.11984847690E-01  0.73839632187E-01  0.51100000000E-03 0.  1.
</event>
<event>
 8    1  0.1044719E+005  0.1043930E+01  0.7957747E-01            NaN
         13   -1    0    0    0    0  0.00000000000E+00  0.00000000000E+00  0.74505805969E-08  0.10566000000E+00  0.10566000000E+00 0. -1.
     999900   -1    0    0    0    0 -0.00000000000E+00 -0.00000000000E+00 -0.74505805969E-08  0.93827000000E+00  0.93827000000E+00 0.  1.
     999902    2    1    2    0    0 -0.16036288960E-01 -0.12776975804E-02 -0.18759692399E-01  0.10192172273E+01  0.10189175802E+01 0.  0.
     999903    2    3    3    0    0  0.38748339235E-01 -0.11993794671E+00 -0.22812944890E-01  0.12955547189E+00  0.19433090034E-01 0.  0.
         14    1    1    2    0    0  0.16036288960E-01  0.12776975804E-02  0.18759692399E-01  0.24712772682E-01  0.00000000000E+00 0.  1.
     999901    1    3    3    0    0 -0.54784628195E-01  0.11866024913E+00  0.40532524913E-02  0.88966175543E+00  0.88000000000E+00 0. -1.
        -11    1    4    4    0    0  0.24958454177E-01 -0.66869289504E-01 -0.22090395277E-01  0.74717287144E-01  0.51100000000E-03 0.  1.
         11    1    4    4    0    0  0.13789885059E-01 -0.53068657207E-01 -0.72254961301E-03  0.54838184749E-01  0.51100000000E-03 0. -1.
</event>
<event>
 8    1  0.1044719E+005  0.1043930E+01  0.7957747E-01            NaN
         13   -1    0    0    0    0  0.00000000000E+00  0.00000000000E+00  0.74505805969E-08  0.10566000000E+00  0.10566000000E+00 0. -1.
     999900   -1    0    0    0    0 -0.00000000000E+00 -0.00000000000E+00 -0.74505805969E-08  0.93827000000E+00  0.93827000000E+00 0. -1.
     999902    2    1    2    0    0 -0.10929950328E-01 -0.18748024854E-01 -0.11010487464E-01  0.10195951878E+01  0.10193047454E+01 0.  0.
     999903    2    3    3    0    0  0.33116324185E-01 -0.37110646622E-01 -0.12010103687E+00  0.13157603929E+00  0.20349546330E-01 0.  0.
         14    1    1    2    0    0  0.10929950328E-01  0.18748024854E-01  0.11010487464E-01  0.24334812189E-01  0.00000000000E+00 0. -1.
     999901    1    3    3    0    0 -0.44046274513E-01  0.18362621768E-01  0.10909054941E+00  0.88801914853E+00  0.88000000000E+00 0.  1.
        -11    1    4    4    0    0  0.18275934174E-01 -0.10769631963E-01 -0.31699458645E-01  0.38145924316E-01  0.51100000000E-03 0. -1.
         11    1    4    4    0    0  0.14840390011E-01 -0.26341014659E-01 -0.88401578228E-01  0.93430114970E-01  0.51100000000E-03 0.  1.
</event>
<event>
 8    1  0.1044719E+005  0.1043930E+01  0.7957747E-01            NaN
         13   -1    0    0    0    0  0.00000000000E+00  0.00000000000E+00  0.74505805969E-08  0.10566000000E+00  0.10566000000E+00 0. -1.
     999900   -1    0    0    0    0 -0.00000000000E+00 -0.00000000000E+00 -0.74505805969E-08  0.93827000000E+00  0.93827000000E+00 0.  1.
     999902    2    1    2    0    0 -0.12316070366E-01  0.64959028838E-02 -0.19285586195E-01  0.10201431091E+01  0.10198657494E+01 0.  0.
     999903    2    3    3    0    0 -0.96023751478E-01  0.77856363654E-01  0.35419244607E-01  0.13160953644E+00  0.28006659644E-01 0.  0.
         14    1    1    2    0    0  0.12316070366E-01 -0.64959028838E-02  0.19285586195E-01  0.23786890895E-01  0.00000000000E+00 0. -1.
     999901    1    3    3    0    0  0.83707681111E-01 -0.71360460771E-01 -0.54704830802E-01  0.88853357266E+00  0.88000000000E+00 0. -1.
        -11    1    4    4    0    0 -0.63894152956E-01  0.43652108304E-01  0.34354117082E-01  0.84666615751E-01  0.51100000000E-03 0.  1.
         11    1    4    4    0    0 -0.32129598522E-01  0.34204255350E-01  0.10651275254E-02  0.46942920690E-01  0.51100000000E-03 0. -1.
</event>
<event>
 8    1  0.1044719E+005  0.1043930E+01  0.7957747E-01            NaN
         13   -1    0    0    0    0  0.00000000000E+00  0.00000000000E+00  0.74505805969E-08  0.10566000000E+00  0.10566000000E+00 0.  1.
     999900   -1    0    0    0    0 -0.00000000000E+00 -0.00000000000E+00 -0.74505805969E-08  0.93827000000E+00  0.93827000000E+00 0.  1.
     999902    2    1    2    0    0  0.10067469705E-01  0.22111155289E-01 -0.17422610292E-02  0.10195724014E+01  0.10192814082E+01 0.  0.
     999903    2    3    3    0    0 -0.80922893049E-01  0.95226937255E-01  0.34362720204E-01  0.13113065694E+00  0.19944133259E-01 0.  0.
         14    1    1    2    0    0 -0.10067469705E-01 -0.22111155289E-01  0.17422610292E-02  0.24357598568E-01  0.00000000000E+00 0. -1.
     999901    1    3    3    0    0  0.90990362754E-01 -0.73115781965E-01 -0.36104981233E-01  0.88844174449E+00  0.88000000000E+00 0.  1.
        -11    1    4    4    0    0 -0.10408700944E-01  0.16292051733E-01  0.12567705534E-01  0.23064699183E-01  0.51100000000E-03 0.  1.
         11    1    4    4    0    0 -0.70514192105E-01  0.78934885522E-01  0.21795014670E-01  0.10806595776E+00  0.51100000000E-03 0. -1.
</event>
<event>
 8    1  0.1044719E+005  0.1043930E+01  0.7957747E-01            NaN
         13   -1    0    0    0    0  0.00000000000E+00  0.00000000000E+00  0.74505805969E-08  0.10566000000E+00  0.10566000000E+00 0. -1.
     999900   -1    0    0    0    0 -0.00000000000E+00 -0.00000000000E+00 -0.74505805969E-08  0.93827000000E+00  0.93827000000E+00 0.  1.
     999902    2    1    2    0    0  0.12156002711E-01  0.92978420110E-02  0.17600388211E-01  0.10206063654E+01  0.10203398263E+01 0.  0.
     999903    2    3    3    0    0  0.89621619452E-01  0.12940732799E-01  0.96508359269E-01  0.13367871310E+00  0.18884853439E-01 0.  0.
         14    1    1    2    0    0 -0.12156002711E-01 -0.92978420110E-02 -0.17600388211E-01  0.23323634647E-01  0.00000000000E+00 0.  1.
     999901    1    3    3    0    0 -0.77465616741E-01 -0.36428907879E-02 -0.78907971058E-01  0.88692765225E+00  0.88000000000E+00 0.  1.
        -11    1    4    4    0    0  0.81686455893E-01  0.77744811386E-02  0.79767427271E-01  0.11443873124E+00  0.51100000000E-03 0.  1.
         11    1    4    4    0    0  0.79351635594E-02  0.51662516603E-02  0.16740931998E-01  0.19239981864E-01  0.51100000000E-03 0. -1.
</event>
<event>
 8    1  0.1058047E+005  0.1043930E+01  0.7957747E-01            NaN
         13   -1    0    0    0    0  0.00000000000E+00  0.00000000000E+00  0.74505805969E-08  0.10566000000E+00  0.10566000000E+00 0.  1.
     999900   -1    0    0    0    0 -0.00000000000E+00 -0.00000000000E+00 -0.74505805969E-08  0.93827000000E+00  0.93827000000E+00 0. -1.
     999902    2    1    2    0    0  0.25372447017E-01  0.63467474475E-02  0.30072067173E-02  0.10176034818E+01  0.10172628768E+01 0.  0.
     999903    2    3    3    0    0 -0.82897941551E-01 -0.49557196327E-01  0.78154226613E-01  0.12603475049E+00  0.21182322153E-01 0.  0.
         14    1    1    2    0    0 -0.25372447017E-01 -0.63467474475E-02 -0.30072067173E-02  0.26326518247E-01  0.00000000000E+00 0.  1.
     999901    1    3    3    0    0  0.10827038857E+00  0.55903943775E-01 -0.75147019895E-01  0.89156873126E+00  0.88000000000E+00 0. -1.
        -11    1    4    4    0    0 -0.51980047726E-01 -0.19037783188E-01  0.46158109298E-01  0.72077699223E-01  0.51100000000E-03 0.  1.
         11    1    4    4    0    0 -0.30917893826E-01 -0.30519413140E-01  0.31996117315E-01  0.53957051265E-01  0.51100000000E-03 0. -1.
</event>
<event>
 8    1  0.1044719E+005  0.1043930E+01  0.7957747E-01            NaN
         13   -1    0    0    0    0  0.00000000000E+00  0.00000000000E+00  0.74505805969E-08  0.10566000000E+00  0.10566000000E+00 0. -1.
     999900   -1    0    0    0    0 -0.00000000000E+00 -0.00000000000E+00 -0.74505805969E-08  0.93827000000E+00  0.93827000000E+00 0.  1.
     999902    2    1    2    0    0 -0.11941038394E-01  0.19737218046E-01  0.71294351021E-02  0.10197851244E+01  0.10194992520E+01 0.  0.
     999903    2    3    3    0    0  0.20778003230E-01 -0.43700140900E-01 -0.11697564651E+00  0.12821521378E+00  0.20357097887E-01 0.  0.
         14    1    1    2    0    0  0.11941038394E-01 -0.19737218046E-01 -0.71294351021E-02  0.24144875626E-01  0.00000000000E+00 0.  1.
     999901    1    3    3    0    0 -0.32719041624E-01  0.63437358946E-01  0.12410508162E+00  0.89156991059E+00  0.88000000000E+00 0. -1.
        -11    1    4    4    0    0  0.92135126146E-02 -0.97879990523E-02 -0.55046026728E-01  0.56665862031E-01  0.51100000000E-03 0.  1.
         11    1    4    4    0    0  0.11564490615E-01 -0.33912141848E-01 -0.61929619786E-01  0.71549351749E-01  0.51100000000E-03 0. -1.
</event>
<event>
 8    1  0.1044719E+005  0.1043930E+01  0.7957747E-01            NaN
         13   -1    0    0    0    0  0.00000000000E+00  0.00000000000E+00  0.74505805969E-08  0.10566000000E+00  0.10566000000E+00 0.  1.
     999900   -1    0    0    0    0 -0.00000000000E+00 -0.00000000000E+00 -0.74505805969E-08  0.93827000000E+00  0.93827000000E+00 0. -1.
     999902    2    1    2    0    0 -0.79395389816E-02 -0.11223357504E-01 -0.19868609629E-01  0.10197688394E+01  0.10194825767E+01 0.  0.
     999903    2    3    3    0    0 -0.18653338736E-01 -0.41904911871E-01 -0.12355913636E+00  0.13308520438E+00  0.18461927313E-01 0.  0.
         14    1    1    2    0    0  0.79395389816E-02  0.11223357504E-01  0.19868609629E-01  0.24161160599E-01  0.00000000000E+00 0.  1.
     999901    1    3    3    0    0  0.10713799754E-01  0.30681554367E-01  0.10369052674E+00  0.88668363502E+00  0.88000000000E+00 0.  1.
        -11    1    4    4    0    0 -0.38118095974E-04 -0.11036779271E-01 -0.14549457021E-01  0.18269093307E-01  0.51100000000E-03 0. -1.
         11    1    4    4    0    0 -0.18615220640E-01 -0.30868132600E-01 -0.10900967934E+00  0.11481611107E+00  0.51100000000E-03 0.  1.
</event>
<event>
 8    1  0.1044719E+005  0.1043930E+01  0.7957747E-01            NaN
         13   -1    0    0    0    0  0.00000000000E+00  0.00000000000E+00  0.74505805969E-08  0.10566000000E+00  0.10566000000E+00 0. -1.
     999900   -1    0    0    0    0 -0.00000000000E+00 -0.00000000000E+00 -0.74505805969E-08  0.93827000000E+00  0.93827000000E+00 0. -1.
     999902    2    1    2    0    0 -0.17911519361E-01  0.12206534458E-01  0.47376361802E-02  0.10217429045E+01  0.10215019803E+01 0.  0.
     999903    2    3    3    0    0 -0.38286891359E-01  0.12562744561E+00  0.18260726833E-01  0.13412680910E+00  0.20209048319E-01 0.  0.
         14    1    1    2    0    0  0.17911519361E-01 -0.12206534458E-01 -0.47376361802E-02  0.22187095481E-01  0.00000000000E+00 0. -1.
     999901    1    3    3    0    0  0.20375371998E-01 -0.11342091115E+00 -0.13523090653E-01  0.88761609542E+00  0.88000000000E+00 0. -1.
        -11    1    4    4    0    0 -0.80529545225E-02  0.56558772790E-01  0.12687201232E-01  0.58523252235E-01  0.51100000000E-03 0. -1.
         11    1    4    4    0    0 -0.30233936836E-01  0.69068672819E-01  0.55735256006E-02  0.75603556863E-01  0.51100000000E-03 0.  1.
</event>
<event>
 8    1  0.1044719E+005  0.1043930E+01  0.7957747E-01            NaN
         13   -1    0    0    0    0  0.00000000000E+00  0.00000000000E+00  0.74505805969E-08  0.10566000000E+00  0.10566000000E+00 0.  1.
     999900   -1    0    0    0    0 -0.00000000000E+00 -0.00000000000E+00 -0.74505805969E-08  0.93827000000E+00  0.93827000000E+00 0. -1.
     999902    2    1    2    0    0  0.18619342651E-01 -0.25933055373E-02 -0.14146900485E-01  0.10204025703E+01  0.10201312982E+01 0.  0.
     999903    2    3    3    0    0  0.38500943333E-02  0.12757794615E-01 -0.13043001017E+00  0.13249742416E+00  0.19131003767E-01 0.  0.
         14    1    1    2    0    0 -0.18619342651E-01  0.25933055373E-02  0.14146900485E-01  0.23527429687E-01  0.00000000000E+00 0.  1.
     999901    1    3    3    0    0  0.14769248317E-01 -0.15351100152E-01  0.11628310969E+00  0.88790514616E+00  0.88000000000E+00 0.  1.
        -11    1    4    4    0    0 -0.49661379016E-02 -0.23702028540E-02 -0.23422070148E-01  0.24065221342E-01  0.51100000000E-03 0.  1.
         11    1    4    4    0    0  0.88162322349E-02  0.15127997469E-01 -0.10700794002E+00  0.10843220281E+00  0.51100000000E-03 0. -1.
</event>
<event>
 8    1  0.1044719E+005  0.1043930E+01  0.7957747E-01            NaN
         13   -1    0    0    0    0  0.00000000000E+00  0.00000000000E+00  0.74505805969E-08  0.10566000000E+00  0.10566000000E+00 0.  1.
     999900   -1    0    0    0    0 -0.00000000000E+00 -0.00000000000E+00 -0.74505805969E-08  0.93827000000E+00  0.93827000000E+00 0.  1.
     999902    2    1    2    0    0 -0.18439769669E-01 -0.13635183744E-01 -0.45007973461E-02  0.10205590668E+01  0.10202914330E+01 0.  0.
     999903    2    3    3    0    0 -0.22480536840E-01  0.87299238919E-01 -0.92110985857E-01  0.13045815646E+00  0.20208048398E-01 0.  0.
         14    1    1    2    0    0  0.18439769669E-01  0.13635183744E-01  0.45007973461E-02  0.23370933185E-01  0.00000000000E+00 0. -1.
     999901    1    3    3    0    0  0.40407671716E-02 -0.10093442266E+00  0.87610188510E-01  0.89010091035E+00  0.88000000000E+00 0. -1.
        -11    1    4    4    0    0 -0.46502497429E-03  0.24466830787E-01 -0.15557958604E-01  0.29002642188E-01  0.51100000000E-03 0. -1.
         11    1    4    4    0    0 -0.22015511866E-01  0.62832408132E-01 -0.76553027253E-01  0.10145551428E+00  0.51100000000E-03 0.  1.
</event>
<event>
 8    1  0.1044719E+005  0.1043930E+01  0.7957747E-01            NaN
         13   -1    0    0    0    0  0.00000000000E+00  0.00000000000E+00  0.74505805969E-08  0.10566000000E+00  0.10566000000E+00 0. -1.
     999900   -1    0    0    0    0 -0.00000000000E+00 -0.00000000000E+00 -0.74505805969E-08  0.93827000000E+00  0.93827000000E+00 0.  1.
     999902    2    1    2    0    0  0.16145018386E-01 -0.81442796102E-02 -0.15899656472E-01  0.10198511714E+01  0.10195668796E+01 0.  0.
     999903    2    3    3    0    0  0.40711282130E-01  0.10114939496E+00  0.65950703341E-01  0.12898188247E+00  0.19955504057E-01 0.  0.
         14    1    1    2    0    0 -0.16145018386E-01  0.81442796102E-02  0.15899656472E-01  0.24078828563E-01  0.00000000000E+00 0. -1.
     999901    1    3    3    0    0 -0.24566263745E-01 -0.10929367457E+00 -0.81850359813E-01  0.89086928896E+00  0.88000000000E+00 0.  1.
        -11    1    4    4    0    0  0.94090565269E-02  0.31343649946E-01  0.30210220043E-01  0.44540692100E-01  0.51100000000E-03 0.  1.
         11    1    4    4    0    0  0.31302225604E-01  0.69805745013E-01  0.35740483298E-01  0.84441190375E-01  0.51100000000E-03 0. -1.
</event>
<event>
 8    1  0.1044719E+005  0.1043930E+01  0.7957747E-01            NaN
         13   -1    0    0    0    0  0.00000000000E+00  0.00000000000E+00  0.74505805969E-08  0.10566000000E+00  0.10566000000E+00 0.  1.
     999900   -1    0    0    0    0 -0.00000000000E+00 -0.00000000000E+00 -0.74505805969E-08  0.93827000000E+00  0.93827000000E+00 0. -1.
     999902    2    1    2    0    0 -0.23486797974E-01 -0.78037403726E-03  0.10522284955E-01  0.10181820458E+01  0.10178564345E+01 0.  0.
     999903    2    3    3    0    0 -0.10389753136E+00  0.44090616188E-01 -0.62131288742E-01  0.13039950852E+00  0.20125986247E-01 0.  0.
         14    1    1    2    0    0  0.23486797974E-01  0.78037403726E-03 -0.10522284955E-01  0.25747954159E-01  0.00000000000E+00 0. -1.
     999901    1    3    3    0    0  0.80410733385E-01 -0.44870990226E-01  0.72653573696E-01  0.88778253732E+00  0.88000000000E+00 0.  1.
        -11    1    4    4    0    0 -0.38409820878E-01  0.66777443536E-02 -0.25159680810E-01  0.46402341201E-01  0.51100000000E-03 0. -1.
         11    1    4    4    0    0 -0.65487710481E-01  0.37412871835E-01 -0.36971607932E-01  0.83997167316E-01  0.51100000000E-03 0.  1.
</event>
<event>
 8    1  0.1044719E+005  0.1043930E+01  0.7957747E-01            NaN
         13   -1    0    0    0    0  0.00000000000E+00  0.00000000000E+00  0.74505805969E-08  0.10566000000E+00  0.10566000000E+00 0.  1.
     999900   -1    0    0    0    0 -0.00000000000E+00 -0.00000000000E+00 -0.74505805969E-08  0.93827000000E+00  0.93827000000E+00 0. -1.
     999902    2    1    2    0    0 -0.14113799805E-01  0.17221938142E-01  0.17710609087E-01  0.10154789864E+01  0.10150803474E+01 0.  0.
     999903    2    3    3    0    0 -0.43711636201E-01  0.11799043218E+00 -0.18233973219E-01  0.12850529218E+00  0.18673058487E-01 0.  0.
         14    1    1    2    0    0  0.14113799805E-01 -0.17221938142E-01 -0.17710609087E-01  0.28451013559E-01  0.00000000000E+00 0. -1.
     999901    1    3    3    0    0  0.29597836396E-01 -0.10076849404E+00  0.35944582306E-01  0.88697369426E+00  0.88000000000E+00 0. -1.
        -11    1    4    4    0    0 -0.22927826269E-01  0.82927954292E-01 -0.17119645086E-01  0.87727271640E-01  0.51100000000E-03 0. -1.
         11    1    4    4    0    0 -0.20783809932E-01  0.35062477891E-01 -0.11143281332E-02  0.40778020542E-01  0.51100000000E-03 0.  1.
</event>
<event>
 8    1  0.1044719E+005  0.1043930E+01  0.7957747E-01            NaN
         13   -1    0    0    0    0  0.00000000000E+00  0.00000000000E+00  0.74505805969E-08  0.10566000000E+00  0.10566000000E+00 0. -1.
     999900   -1    0    0    0    0 -0.00000000000E+00 -0.00000000000E+00 -0.74505805969E-08  0.93827000000E+00  0.93827000000E+00 0.  1.
     999902    2    1    2    0    0  0.23536976237E-01 -0.11495886747E-02  0.16294012347E-02  0.10203087013E+01  0.10200352348E+01 0.  0.
     999903    2    3    3    0    0 -0.11720066660E+00 -0.44394310275E-01  0.16308067712E-01  0.12795638672E+00  0.20000819878E-01 0.  0.
         14    1    1    2    0    0 -0.23536976237E-01  0.11495886747E-02 -0.16294012347E-02  0.23621298713E-01  0.00000000000E+00 0.  1.
     999901    1    3    3    0    0  0.14073764283E+00  0.43244721600E-01 -0.14678666477E-01  0.89235231456E+00  0.88000000000E+00 0. -1.
        -11    1    4    4    0    0 -0.99933574186E-01 -0.41051503991E-01  0.20264233215E-01  0.10992199734E+00  0.51100000000E-03 0.  1.
         11    1    4    4    0    0 -0.17267092409E-01 -0.33428062846E-02 -0.39561655030E-02  0.18034389388E-01  0.51100000000E-03 0. -1.
</event>
<event>
 8    1  0.1044719E+005  0.1043930E+01  0.7957747E-01            NaN
         13   -1    0    0    0    0  0.00000000000E+00  0.00000000000E+00  0.74505805969E-08  0.10566000000E+00  0.10566000000E+00 0.  1.
     999900   -1    0    0    0    0 -0.00000000000E+00 -0.00000000000E+00 -0.74505805969E-08  0.93827000000E+00  0.93827000000E+00 0.  1.
     999902    2    1    2    0    0 -0.16271221239E-01  0.30617953520E-02 -0.15711981580E-01  0.10211047158E+01  0.10208495713E+01 0.  0.
     999903    2    3    3    0    0 -0.29030086155E-01 -0.12234361511E+00 -0.34288641076E-01  0.13192846904E+00  0.20462257356E-01 0.  0.
         14    1    1    2    0    0  0.16271221239E-01 -0.30617953520E-02  0.15711981580E-01  0.22825284151E-01  0.00000000000E+00 0.  1.
     999901    1    3    3    0    0  0.12758864915E-01  0.12540541046E+00  0.18576659495E-01  0.88917624681E+00  0.88000000000E+00 0. -1.
        -11    1    4    4    0    0 -0.16084344530E-01 -0.96649972954E-01 -0.20871397962E-01  0.10017883901E+00  0.51100000000E-03 0. -1.
         11    1    4    4    0    0 -0.12945741625E-01 -0.25693642158E-01 -0.13417243114E-01  0.31749630034E-01  0.51100000000E-03 0.  1.
</event>
<event>
 8    1  0.1044719E+005  0.1043930E+01  0.7957747E-01            NaN
         13   -1    0    0    0    0  0.00000000000E+00  0.00000000000E+00  0.74505805969E-08  0.10566000000E+00  0.10566000000E+00 0.  1.
     999900   -1    0    0    0    0 -0.00000000000E+00 -0.00000000000E+00 -0.74505805969E-08  0.93827000000E+00  0.93827000000E+00 0.  1.
     999902    2    1    2    0    0  0.15733812708E-01 -0.17460319464E-01 -0.98044710351E-02  0.10184634873E+01  0.10181450445E+01 0.  0.
     999903    2    3    3    0    0  0.60691170082E-01  0.10672534537E+00 -0.31642012055E-01  0.12833983208E+00  0.19904223247E-01 0.  0.
         14    1    1    2    0    0 -0.15733812708E-01  0.17460319464E-01  0.98044710351E-02  0.25466512726E-01  0.00000000000E+00 0.  1.
     999901    1    3    3    0    0 -0.44957357374E-01 -0.12418566483E+00  0.21837541020E-01  0.89012365519E+00  0.88000000000E+00 0.  1.
        -11    1    4    4    0    0  0.57250817333E-01  0.87807419888E-01 -0.30013106116E-01  0.10903598824E+00  0.51100000000E-03 0.  1.
         11    1    4    4    0    0  0.34403527488E-02  0.18917925478E-01 -0.16289059383E-02  0.19303843839E-01  0.51100000000E-03 0. -1.
</event>
<event>
 8    1  0.1044719E+005  0.1043930E+01  0.7957747E-01            NaN
         13   -1    0    0    0    0  0.00000000000E+00  0.00000000000E+00  0.74505805969E-08  0.10566000000E+00  0.10566000000E+00 0. -1.
     999900   -1    0    0    0    0 -0.00000000000E+00 -0.00000000000E+00 -0.74505805969E-08  0.93827000000E+00  0.93827000000E+00 0. -1.
     999902    2    1    2    0    0  0.17610218169E-01 -0.11470560767E-01 -0.93444811219E-02  0.10209297201E+01  0.10206706033E+01 0.  0.
     999903    2    3    3    0    0  0.10586389891E-01 -0.10607715093E+00 -0.76699431982E-01  0.13327188598E+00  0.22675077182E-01 0.  0.
         14    1    1    2    0    0 -0.17610218169E-01  0.11470560767E-01  0.93444811219E-02  0.23000279905E-01  0.00000000000E+00 0. -1.
     999901    1    3    3    0    0  0.70238282784E-02  0.94606590163E-01  0.67354950860E-01  0.88765783412E+00  0.88000000000E+00 0.  1.
        -11    1    4    4    0    0  0.48675442290E-02 -0.38926339453E-01 -0.15330297333E-01  0.42121633721E-01  0.51100000000E-03 0.  1.
         11    1    4    4    0    0  0.57188456617E-02 -0.67150811477E-01 -0.61369134649E-01  0.91150252256E-01  0.51100000000E-03 0. -1.
</event>
<event>
 8    1  0.1044719E+005  0.1043930E+01  0.7957747E-01            NaN
         13   -1    0    0    0    0  0.00000000000E+00  0.00000000000E+00  0.74505805969E-08  0.10566000000E+00  0.10566000000E+00 0.  1.
     999900   -1    0    0    0    0 -0.00000000000E+00 -0.00000000000E+00 -0.74505805969E-08  0.93827000000E+00  0.93827000000E+00 0.  1.
     999902    2    1    2    0    0 -0.11150036501E-01  0.83727150761E-02 -0.19140941268E-01  0.10202487563E+01  0.10199738837E+01 0.  0.
     999903    2    3    3    0    0 -0.71920780801E-01  0.90961913913E-01  0.57721792737E-01  0.13096705793E+00  0.19336401248E-01 0.  0.
         14    1    1    2    0    0  0.11150036501E-01 -0.83727150761E-02  0.19140941268E-01  0.23681243724E-01  0.00000000000E+00 0.  1.
     999901    1    3    3    0    0  0.60770744300E-01 -0.82589198837E-01 -0.76862734005E-01  0.88928169834E+00  0.88000000000E+00 0.  1.
        -11    1    4    4    0    0 -0.33606448467E-01  0.54584233726E-01  0.24909282241E-01  0.68771835898E-01  0.51100000000E-03 0.  1.
         11    1    4    4    0    0 -0.38314332334E-01  0.36377680187E-01  0.32812510496E-01  0.62195222035E-01  0.51100000000E-03 0. -1.
</event>
<event>
 8    1  0.1044719E+005  0.1043930E+01  0.7957747E-01            NaN
         13   -1    0    0    0    0  0.00000000000E+00  0.00000000000E+00  0.74505805969E-08  0.10566000000E+00  0.10566000000E+00 0. -1.
     999900   -1    0    0    0    0 -0.00000000000E+00 -0.00000000000E+00 -0.74505805969E-08  0.93827000000E+00  0.93827000000E+00 0. -1.
     999902    2    1    2    0    0 -0.13408531247E-01 -0.13988462133E-01  0.13001869196E-01  0.10205951680E+01  0.10203283699E+01 0.  0.
     999903    2    3    3    0    0 -0.44220643307E-02 -0.88284875951E-01  0.98058135547E-01  0.13333236466E+00  0.18664070963E-01 0.  0.
         14    1    1    2    0    0  0.13408531247E-01  0.13988462133E-01 -0.13001869196E-01  0.23334832026E-01  0.00000000000E+00 0. -1.
     999901    1    3    3    0    0 -0.89864669168E-02  0.74296413818E-01 -0.85056266351E-01  0.88726280331E+00  0.88000000000E+00 0. -1.
        -11    1    4    4    0    0  0.28870299633E-02 -0.75386456025E-01  0.79995702091E-01  0.10995920229E+00  0.51100000000E-03 0. -1.
         11    1    4    4    0    0 -0.73090942940E-02 -0.12898419927E-01  0.18062433456E-01  0.23373162374E-01  0.51100000000E-03 0.  1.
</event>
<event>
 8    1  0.1044719E+005  0.1043930E+01  0.7957747E-01            NaN
         13   -1    0    0    0    0  0.00000000000E+00  0.00000000000E+00  0.74505805969E-08  0.10566000000E+00  0.10566000000E+00 0.  1.
     999900   -1    0    0    0    0 -0.00000000000E+00 -0.00000000000E+00 -0.74505805969E-08  0.93827000000E+00  0.93827000000E+00 0. -1.
     999902    2    1    2    0    0 -0.16282499292E-01  0.16373737927E-01  0.26587655392E-02  0.10206859016E+01  0.10204211981E+01 0.  0.
     999903    2    3    3    0    0 -0.40681119864E-02 -0.33349516507E-01 -0.12408179472E+00  0.13013283584E+00  0.20236684429E-01 0.  0.
         14    1    1    2    0    0  0.16282499292E-01 -0.16373737927E-01 -0.26587655392E-02  0.23244098415E-01  0.00000000000E+00 0.  1.
     999901    1    3    3    0    0 -0.12214387306E-01  0.49723254435E-01  0.12674056026E+00  0.89055306574E+00  0.88000000000E+00 0.  1.
        -11    1    4    4    0    0  0.57303801669E-02 -0.12938552515E-01 -0.71384142930E-01  0.72774998323E-01  0.51100000000E-03 0. -1.
         11    1    4    4    0    0 -0.97984921533E-02 -0.20410963992E-01 -0.52697651791E-01  0.57357837519E-01  0.51100000000E-03 0.  1.
</event>
<event>
 8    1  0.1044719E+005  0.1043930E+01  0.7957747E-01            NaN
         13   -1    0    0    0    0  0.00000000000E+00  0.00000000000E+00  0.74505805969E-08  0.10566000000E+00  0.10566000000E+00 0. -1.
     999900   -1    0    0    0    0 -0.00000000000E+00 -0.00000000000E+00 -0.74505805969E-08  0.93827000000E+00  0.93827000000E+00 0.  1.
     999902    2    1    2    0    0  0.23928167126E-01  0.44331099964E-02  0.48103925414E-02  0.10191237604E+01  0.10188218144E+01 0.  0.
     999903    2    3    3    0    0  0.98999215002E-01 -0.32058534914E-01  0.79484889237E-01  0.13202535390E+00  0.16859781226E-01 0.  0.
         14    1    1    2    0    0 -0.23928167126E-01 -0.44331099964E-02 -0.48103925414E-02  0.24806239591E-01  0.00000000000E+00 0. -1.
     999901    1    3    3    0    0 -0.75071047876E-01  0.36491644911E-01 -0.74674496695E-01  0.88709840651E+00  0.88000000000E+00 0.  1.
        -11    1    4    4    0    0  0.96081990182E-01 -0.33762502716E-01  0.78087357703E-01  0.12833375231E+00  0.51100000000E-03 0. -1.
         11    1    4    4    0    0  0.29172248201E-02  0.17039678021E-02  0.13975315337E-02  0.36916015914E-02  0.51100000000E-03 0.  1.
</event>
<event>
 8    1  0.1044719E+005  0.1043930E+01  0.7957747E-01            NaN
         13   -1    0    0    0    0  0.00000000000E+00  0.00000000000E+00  0.74505805969E-08  0.10566000000E+00  0.10566000000E+00 0. -1.
     999900   -1    0    0    0    0 -0.00000000000E+00 -0.00000000000E+00 -0.74505805969E-08  0.93827000000E+00  0.93827000000E+00 0. -1.
     999902    2    1    2    0    0 -0.22780399039E-01  0.49389920113E-02  0.49358735350E-02  0.10201034797E+01  0.10198251841E+01 0.  0.
     999903    2    3    3    0    0 -0.99345947427E-01 -0.36898113719E-01 -0.76114825847E-01  0.13208217224E+00  0.20521828478E-01 0.  0.
         14    1    1    2    0    0  0.22780399039E-01 -0.49389920113E-02 -0.49358735350E-02  0.23826520309E-01  0.00000000000E+00 0.  1.
     999901    1    3    3    0    0  0.76565548388E-01  0.41837105731E-01  0.81050699382E-01  0.88802130745E+00  0.88000000000E+00 0.  1.
        -11    1    4    4    0    0 -0.38512366475E-01 -0.21907820461E-01 -0.22900155392E-01  0.49878183677E-01  0.51100000000E-03 0.  1.
         11    1    4    4    0    0 -0.60833580951E-01 -0.14990293258E-01 -0.53214670454E-01  0.82203988564E-01  0.51100000000E-03 0. -1.
</event>
<event>
 8    1  0.1044719E+005  0.1043930E+01  0.7957747E-01            NaN
         13   -1    0    0    0    0  0.00000000000E+00  0.00000000000E+00  0.74505805969E-08  0.10566000000E+00  0.10566000000E+00 0.  1.
     999900   -1    0    0    0    0 -0.00000000000E+00 -0.00000000000E+00 -0.74505805969E-08  0.93827000000E+00  0.93827000000E+00 0.  1.
     999902    2    1    2    0    0 -0.58820281287E-02 -0.22158092469E-01 -0.12634334017E-01  0.10177535657E+01  0.10174168835E+01 0.  0.
     999903    2    3    3    0    0  0.86141557231E-01  0.20865366910E-01 -0.90709126603E-01  0.12847575109E+00  0.20546083567E-01 0.  0.
         14    1    1    2    0    0  0.58820281287E-02  0.22158092469E-01  0.12634334017E-01  0.26176434303E-01  0.00000000000E+00 0.  1.
     999901    1    3    3    0    0 -0.92023585359E-01 -0.43023459379E-01  0.78074792586E-01  0.88927781461E+00  0.88000000000E+00 0. -1.
        -11    1    4    4    0    0  0.10534855217E-01  0.10100703280E-01 -0.13932895458E-01  0.20184005500E-01  0.51100000000E-03 0.  1.
         11    1    4    4    0    0  0.75606702013E-01  0.10764663630E-01 -0.76776231146E-01  0.10829174559E+00  0.51100000000E-03 0. -1.
</event>
<event>
 8    1  0.1044719E+005  0.1043930E+01  0.7957747E-01            NaN
         13   -1    0    0    0    0  0.00000000000E+00  0.00000000000E+00  0.74505805969E-08  0.10566000000E+00  0.10566000000E+00 0. -1.
     999900   -1    0    0    0    0 -0.00000000000E+00 -0.00000000000E+00 -0.74505805969E-08  0.93827000000E+00  0.93827000000E+00 0.  1.
     999902    2    1    2    0    0 -0.75014405313E-02  0.11625229663E-01 -0.18594954712E-01  0.10207526422E+01  0.10204894740E+01 0.  0.
     999903    2    3    3    0    0 -0.12200703842E+00  0.45371903546E-01 -0.16151381648E-01  0.13268938937E+00  0.20031971137E-01 0.  0.
         14    1    1    2    0    0  0.75014405313E-02 -0.11625229663E-01  0.18594954712E-01  0.23177357820E-01  0.00000000000E+00 0. -1.
     999901    1    3    3    0    0  0.11450559788E+00 -0.33746673883E-01 -0.24435730636E-02  0.88806325281E+00  0.88000000000E+00 0. -1.
        -11    1    4    4    0    0 -0.76237346671E-01  0.36360807885E-01 -0.16370558600E-01  0.86037768959E-01  0.51100000000E-03 0.  1.
         11    1    4    4    0    0 -0.45769691744E-01  0.90110956610E-02  0.21917695106E-03  0.46651620410E-01  0.51100000000E-03 0. -1.
</event>
<event>
 8    1  0.1044719E+005  0.1043930E+01  0.7957747E-01            NaN
         13   -1    0    0    0    0  0.00000000000E+00  0.00000000000E+00  0.74505805969E-08  0.10566000000E+00  0.10566000000E+00 0.  1.
     999900   -1    0    0    0    0 -0.00000000000E+00 -0.00000000000E+00 -0.74505805969E-08  0.93827000000E+00  0.93827000000E+00 0.  1.
     999902    2    1    2    0    0 -0.12384595692E-01  0.41247993877E-02  0.19377838436E-01  0.10205656510E+01  0.10202981698E+01 0.  0.
     999903    2    3    3    0    0 -0.21188561380E-03 -0.49323213311E-01 -0.11817686464E+00  0.12819456159E+00  0.59371725772E-02 0.  0.
         14    1    1    2    0    0  0.12384595692E-01 -0.41247993877E-02 -0.19377838436E-01  0.23364348972E-01  0.00000000000E+00 0. -1.
     999901    1    3    3    0    0 -0.12172710078E-01  0.53448012699E-01  0.13755470307E+00  0.89237108944E+00  0.88000000000E+00 0. -1.
        -11    1    4    4    0    0 -0.27441339790E-02 -0.25679160079E-01 -0.58254983743E-01  0.63724828643E-01  0.51100000000E-03 0. -1.
         11    1    4    4    0    0  0.25322483652E-02 -0.23644053232E-01 -0.59921880894E-01  0.64469732944E-01  0.51100000000E-03 0.  1.
</event>
<event>
 8    1  0.1044719E+005  0.1043930E+01  0.7957747E-01            NaN
         13   -1    0    0    0    0  0.00000000000E+00  0.00000000000E+00  0.74505805969E-08  0.10566000000E+00  0.10566000000E+00 0. -1.
     999900   -1    0    0    0    0 -0.00000000000E+00 -0.00000000000E+00 -0.74505805969E-08  0.93827000000E+00  0.93827000000E+00 0. -1.
     999902    2    1    2    0    0 -0.19962576142E-01 -0.58873794413E-02 -0.90529860238E-02  0.10212336955E+01  0.10209814585E+01 0.  0.
     999903    2    3    3    0    0 -0.12908453736E+00  0.23147836805E-01  0.16010586476E-01  0.13366463965E+00  0.20279469411E-01 0.  0.
         14    1    1    2    0    0  0.19962576142E-01  0.58873794413E-02  0.90529860238E-02  0.22696304520E-01  0.00000000000E+00 0. -1.
     999901    1    3    3    0    0  0.10912196122E+00 -0.29035216247E-01 -0.25063572500E-01  0.88756905583E+00  0.88000000000E+00 0. -1.
        -11    1    4    4    0    0 -0.11449398246E+00  0.17121078351E-01  0.82370929706E-02  0.11606082097E+00  0.51100000000E-03 0.  1.
         11    1    4    4    0    0 -0.14590554899E-01  0.60267584543E-02  0.77734935053E-02  0.17603818677E-01  0.51100000000E-03 0. -1.
</event>
<event>
 8    1  0.1044719E+005  0.1043930E+01  0.7957747E-01            NaN
         13   -1    0    0    0    0  0.00000000000E+00  0.00000000000E+00  0.74505805969E-08  0.10566000000E+00  0.10566000000E+00 0.  1.
     999900   -1    0    0    0    0 -0.00000000000E+00 -0.00000000000E+00 -0.74505805969E-08  0.93827000000E+00  0.93827000000E+00 0.  1.
     999902    2    1    2    0    0  0.15451878034E-01  0.18303832853E-01 -0.41020404363E-02  0.10196273753E+01  0.10193377099E+01 0.  0.
     999903    2    3    3    0    0  0.94506268918E-01 -0.62012054549E-01  0.61013260402E-01  0.13005430865E+00  0.20361126699E-01 0.  0.
         14    1    1    2    0    0 -0.15451878034E-01 -0.18303832853E-01  0.41020404363E-02  0.24302624706E-01  0.00000000000E+00 0.  1.
     999901    1    3    3    0    0 -0.79054390884E-01  0.80315887402E-01 -0.65115300839E-01  0.88957306664E+00  0.88000000000E+00 0. -1.
        -11    1    4    4    0    0  0.33700222852E-01 -0.11815531689E-01  0.23351610013E-01  0.42671660626E-01  0.51100000000E-03 0. -1.
         11    1    4    4    0    0  0.60806046066E-01 -0.50196522860E-01  0.37661650389E-01  0.87382648028E-01  0.51100000000E-03 0.  1.
</event>
<event>
 8    1  0.1044719E+005  0.1043930E+01  0.7957747E-01            NaN
         13   -1    0    0    0    0  0.00000000000E+00  0.00000000000E+00  0.74505805969E-08  0.10566000000E+00  0.10566000000E+00 0. -1.
     999900   -1    0    0    0    0 -0.00000000000E+00 -0.00000000000E+00 -0.74505805969E-08  0.93827000000E+00  0.93827000000E+00 0. -1.
     999902    2    1    2    0    0 -0.23361685654E-01  0.10843444819E-01 -0.37539211442E-02  0.10179023114E+01  0.10175694939E+01 0.  0.
     999903    2    3    3    0    0 -0.10148476675E-01  0.47554772985E-01 -0.11845587474E+00  0.12960120888E+00  0.20005775926E-01 0.  0.
         14    1    1    2    0    0  0.23361685654E-01 -0.10843444819E-01  0.37539211442E-02  0.26027688643E-01  0.00000000000E+00 0. -1.
     999901    1    3    3    0    0 -0.13213208979E-01 -0.36711328166E-01  0.11470195359E+00  0.88830110248E+00  0.88000000000E+00 0.  1.
        -11    1    4    4    0    0 -0.38962321600E-02  0.31293502910E-01 -0.96766303198E-01  0.10177643394E+00  0.51100000000E-03 0. -1.
         11    1    4    4    0    0 -0.62522445150E-02  0.16261270076E-01 -0.21689571539E-01  0.27824774940E-01  0.51100000000E-03 0.  1.
</event>
<event>
 8    1  0.1044719E+005  0.1043930E+01  0.7957747E-01            NaN
         13   -1    0    0    0    0  0.00000000000E+00  0.00000000000E+00  0.74505805969E-08  0.10566000000E+00  0.10566000000E+00 0.  1.
     999900   -1    0    0    0    0 -0.00000000000E+00 -0.00000000000E+00 -0.74505805969E-08  0.93827000000E+00  0.93827000000E+00 0. -1.
     999902    2    1    2    0    0  0.21613484947E-01 -0.35358944333E-02 -0.96616140965E-02  0.10199927473E+01  0.10197118281E+01 0.  0.
     999903    2    3    3    0    0  0.10431749388E+00 -0.45746982751E-01 -0.66352745800E-01  0.13329346709E+00  0.19736654574E-01 0.  0.
         14    1    1    2    0    0 -0.21613484947E-01  0.35358944333E-02  0.96616140965E-02  0.23937252723E-01  0.00000000000E+00 0.  1.
     999901    1    3    3    0    0 -0.82704008931E-01  0.42211088318E-01  0.56691131704E-01  0.88669928019E+00  0.88000000000E+00 0.  1.
        -11    1    4    4    0    0  0.44711259003E-01 -0.22334703735E-01 -0.18292358151E-01  0.53224121978E-01  0.51100000000E-03 0.  1.
         11    1    4    4    0    0  0.59606234874E-01 -0.23412279016E-01 -0.48060387649E-01  0.80069345111E-01  0.51100000000E-03 0. -1.
</event>
<event>
 8    1  0.1044719E+005  0.1043930E+01  0.7957747E-01            NaN
         13   -1    0    0    0    0  0.00000000000E+00  0.00000000000E+00  0.74505805969E-08  0.10566000000E+00  0.10566000000E+00 0.  1.
     999900   -1    0    0    0    0 -0.00000000000E+00 -0.00000000000E+00 -0.74505805969E-08  0.93827000000E+00  0.93827000000E+00 0. -1.
     999902    2    1    2    0    0  0.69034777294E-02 -0.15483617272E-01 -0.16226491917E-01  0.10204630136E+01  0.10201931497E+01 0.  0.
     999903    2    3    3    0    0 -0.47176412732E-01  0.11732525619E+00 -0.13718659889E-01  0.12885260509E+00  0.20590350952E-01 0.  0.
         14    1    1    2    0    0 -0.69034777294E-02  0.15483617272E-01  0.16226491917E-01  0.23466986354E-01  0.00000000000E+00 0.  1.
     999901    1    3    3    0    0  0.54079890461E-01 -0.13280887346E+00 -0.25078320281E-02  0.89161040855E+00  0.88000000000E+00 0. -1.
        -11    1    4    4    0    0 -0.17984985808E-01  0.24478234904E-01  0.11135580082E-02  0.30399750508E-01  0.51100000000E-03 0.  1.
         11    1    4    4    0    0 -0.29191426924E-01  0.92847021282E-01 -0.14832217898E-01  0.98452854583E-01  0.51100000000E-03 0. -1.
</event>
<event>
 8    1  0.1044719E+005  0.1043930E+01  0.7957747E-01            NaN
         13   -1    0    0    0    0  0.00000000000E+00  0.00000000000E+00  0.74505805969E-08  0.10566000000E+00  0.10566000000E+00 0. -1.
     999900   -1    0    0    0    0 -0.00000000000E+00 -0.00000000000E+00 -0.74505805969E-08  0.93827000000E+00  0.93827000000E+00 0.  1.
     999902    2    1    2    0    0  0.31088108890E-02 -0.23933104907E-01 -0.39483134402E-03  0.10197925994E+01  0.10195069062E+01 0.  0.
     999903    2    3    3    0    0 -0.10745120701E+00 -0.68803756614E-01  0.21980244875E-01  0.13145846352E+00  0.22770104378E-01 0.  0.
         14    1    1    2    0    0 -0.31088108890E-02  0.23933104907E-01  0.39483134402E-03  0.24137400594E-01  0.00000000000E+00 0.  1.
     999901    1    3    3    0    0  0.11056001790E+00  0.44870651708E-01 -0.22375076219E-01  0.88833413589E+00  0.88000000000E+00 0. -1.
        -11    1    4    4    0    0 -0.17398899947E-01 -0.17778943063E-01  0.11544758034E-01  0.27429092126E-01  0.51100000000E-03 0.  1.
         11    1    4    4    0    0 -0.90052307068E-01 -0.51024813551E-01  0.10435486840E-01  0.10402937139E+00  0.51100000000E-03 0. -1.
</event>
<event>
 8    1  0.1044719E+005  0.1043930E+01  0.7957747E-01            NaN
         13   -1    0    0    0    0  0.00000000000E+00  0.00000000000E+00  0.74505805969E-08  0.10566000000E+00  0.10566000000E+00 0. -1.
     999900   -1    0    0    0    0 -0.00000000000E+00 -0.00000000000E+00 -0.74505805969E-08  0.93827000000E+00  0.93827000000E+00 0.  1.
     999902    2    1    2    0    0 -0.27899115290E-02  0.17159225349E-02 -0.25039217097E-01  0.10186774677E+01  0.10183644204E+01 0.  0.
     999903    2    3    3    0    0 -0.11820155561E+00 -0.44646502009E-01  0.43123587928E-02  0.12944699304E+00  0.27803051570E-01 0.  0.
         14    1    1    2    0    0  0.27899115290E-02 -0.17159225349E-02  0.25039217097E-01  0.25252532335E-01  0.00000000000E+00 0. -1.
     999901    1    3    3    0    0  0.11541164409E+00  0.46362424544E-01 -0.29351575890E-01  0.88923047463E+00  0.88000000000E+00 0.  1.
        -11    1    4    4    0    0 -0.10085032491E+00 -0.36752997751E-01  0.13667869871E-01  0.10820648163E+00  0.51100000000E-03 0.  1.
         11    1    4    4    0    0 -0.17351230703E-01 -0.78935042582E-02 -0.93555110787E-02  0.21240511409E-01  0.51100000000E-03 0. -1.
</event>
<event>
 8    1  0.1044719E+005  0.1043930E+01  0.7957747E-01            NaN
         13   -1    0    0    0    0  0.00000000000E+00  0.00000000000E+00  0.74505805969E-08  0.10566000000E+00  0.10566000000E+00 0.  1.
     999900   -1    0    0    0    0 -0.00000000000E+00 -0.00000000000E+00 -0.74505805969E-08  0.93827000000E+00  0.93827000000E+00 0. -1.
     999902    2    1    2    0    0 -0.12272286376E-01 -0.11199974846E-01 -0.17065632002E-01  0.10201122704E+01  0.10198341826E+01 0.  0.
     999903    2    3    3    0    0 -0.54084768030E-01 -0.16486621545E-01 -0.11891350327E+00  0.13323616789E+00  0.20358888757E-01 0.  0.
         14    1    1    2    0    0  0.12272286376E-01  0.11199974846E-01  0.17065632002E-01  0.23817729638E-01  0.00000000000E+00 0. -1.
     999901    1    3    3    0    0  0.41812481654E-01  0.52866466987E-02  0.10184787127E+00  0.88687610247E+00  0.88000000000E+00 0.  1.
        -11    1    4    4    0    0 -0.35867874774E-01 -0.22534724011E-02 -0.59925790579E-01  0.69878065773E-01  0.51100000000E-03 0.  1.
         11    1    4    4    0    0 -0.18216893256E-01 -0.14233149144E-01 -0.58987712690E-01  0.63358102117E-01  0.51100000000E-03 0. -1.
</event>
<event>
 8    1  0.1044719E+005  0.1043930E+01  0.7957747E-01            NaN
         13   -1    0    0    0    0  0.00000000000E+00  0.00000000000E+00  0.74505805969E-08  0.10566000000E+00  0.10566000000E+00 0.  1.
     999900   -1    0    0    0    0 -0.00000000000E+00 -0.00000000000E+00 -0.74505805969E-08  0.93827000000E+00  0.93827000000E+00 0.  1.
     999902    2    1    2    0    0 -0.60283425006E-02 -0.48913436370E-02 -0.20875863242E-01  0.10216574200E+01  0.10214146151E+01 0.  0.
     999903    2    3    3    0    0 -0.13200314712E-01  0.79098359521E-02  0.12668302969E+00  0.12925115918E+00  0.20505080451E-01 0.  0.
         14    1    1    2    0    0  0.60283425006E-02  0.48913436370E-02  0.20875863242E-01  0.22272580048E-01  0.00000000000E+00 0.  1.
     999901    1    3    3    0    0  0.71719722110E-02 -0.12801179589E-01 -0.14755889293E+00  0.89240626077E+00  0.88000000000E+00 0.  1.
        -11    1    4    4    0    0 -0.34710401138E-03 -0.63779919279E-02  0.30655967538E-01  0.31318504577E-01  0.51100000000E-03 0. -1.
         11    1    4    4    0    0 -0.12853210700E-01  0.14287827880E-01  0.96027062152E-01  0.97932654602E-01  0.51100000000E-03 0.  1.
</event>
<event>
 8    1  0.1044719E+005  0.1043930E+01  0.7957747E-01            NaN
         13   -1    0    0    0    0  0.00000000000E+00  0.00000000000E+00  0.74505805969E-08  0.10566000000E+00  0.10566000000E+00 0.  1.
     999900   -1    0    0    0    0 -0.00000000000E+00 -0.00000000000E+00 -0.74505805969E-08  0.93827000000E+00  0.93827000000E+00 0.  1.
     999902    2    1    2    0    0  0.82173284824E-02  0.18294833985E-01  0.15031031329E-01  0.10188669327E+01  0.10185586234E+01 0.  0.
     999903    2    3    3    0    0 -0.10794684497E-01 -0.12004375330E+00  0.36830193534E-01  0.12759019409E+00  0.19893882343E-01 0.  0.
         14    1    1    2    0    0 -0.82173284824E-02 -0.18294833985E-01 -0.15031031329E-01  0.25063067265E-01  0.00000000000E+00 0. -1.
     999901    1    3    3    0    0  0.19012012980E-01  0.13833858728E+00 -0.21799162204E-01  0.89127673864E+00  0.88000000000E+00 0. -1.
        -11    1    4    4    0    0 -0.73093379649E-02 -0.34656790130E-01  0.19342110986E-01  0.40359607307E-01  0.51100000000E-03 0. -1.
         11    1    4    4    0    0 -0.34853465325E-02 -0.85386963165E-01  0.17488082548E-01  0.87230586787E-01  0.51100000000E-03 0.  1.
</event>
<event>
 8    1  0.1044719E+005  0.1043930E+01  0.7957747E-01            NaN
         13   -1    0    0    0    0  0.00000000000E+00  0.00000000000E+00  0.74505805969E-08  0.10566000000E+00  0.10566000000E+00 0.  1.
     999900   -1    0    0    0    0 -0.00000000000E+00 -0.00000000000E+00 -0.74505805969E-08  0.93827000000E+00  0.93827000000E+00 0.  1.
     999902    2    1    2    0    0  0.20376081436E-01  0.34868521043E-02 -0.10643257748E-01  0.10206787255E+01  0.10204138566E+01 0.  0.
     999903    2    3    3    0    0  0.26403910601E-02 -0.12823132203E+00  0.12598924776E-01  0.13039538227E+00  0.19848909206E-01 0.  0.
         14    1    1    2    0    0 -0.20376081436E-01 -0.34868521043E-02  0.10643257748E-01  0.23251274541E-01  0.00000000000E+00 0.  1.
     999901    1    3    3    0    0  0.17735690376E-01  0.13171817414E+00 -0.23242182523E-01  0.89028334319E+00  0.88000000000E+00 0. -1.
        -11    1    4    4    0    0  0.89346615284E-02 -0.75379408905E-01  0.13804920346E-01  0.77153874888E-01  0.51100000000E-03 0. -1.
         11    1    4    4    0    0 -0.62942704683E-02 -0.52851913128E-01 -0.12059955709E-02  0.53241507383E-01  0.51100000000E-03 0.  1.
</event>
<event>
 8    1  0.1044719E+005  0.1043930E+01  0.7957747E-01            NaN
         13   -1    0    0    0    0  0.00000000000E+00  0.00000000000E+00  0.74505805969E-08  0.10566000000E+00  0.10566000000E+00 0. -1.
     999900   -1    0    0    0    0 -0.00000000000E+00 -0.00000000000E+00 -0.74505805969E-08  0.93827000000E+00  0.93827000000E+00 0. -1.
     999902    2    1    2    0    0  0.52085270712E-04  0.23668863624E-01 -0.32054729291E-04  0.10202610574E+01  0.10199864736E+01 0.  0.
     999903    2    3    3    0    0  0.85021975901E-01  0.84010227875E-01 -0.53573693490E-01  0.13249550856E+00  0.19961572614E-01 0.  0.
         14    1    1    2    0    0 -0.52085270712E-04 -0.23668863624E-01  0.32054729291E-04  0.23668942639E-01  0.00000000000E+00 0.  1.
     999901    1    3    3    0    0 -0.84969890631E-01 -0.60341364251E-01  0.53541638761E-01  0.88776554880E+00  0.88000000000E+00 0. -1.
        -11    1    4    4    0    0  0.40433438166E-01  0.53870879325E-01 -0.29524814976E-01  0.73545294761E-01  0.51100000000E-03 0. -1.
         11    1    4    4    0    0  0.44588537735E-01  0.30139348551E-01 -0.24048878514E-01  0.58950213801E-01  0.51100000000E-03 0.  1.
</event>
<event>
 8    1  0.1044719E+005  0.1043930E+01  0.7957747E-01            NaN
         13   -1    0    0    0    0  0.00000000000E+00  0.00000000000E+00  0.74505805969E-08  0.10566000000E+00  0.10566000000E+00 0.  1.
     999900   -1    0    0    0    0 -0.00000000000E+00 -0.00000000000E+00 -0.74505805969E-08  0.93827000000E+00  0.93827000000E+00 0.  1.
     999902    2    1    2    0    0 -0.10480976916E-01 -0.20014329196E-01 -0.14369389011E-01  0.10171549446E+01  0.10168024773E+01 0.  0.
     999903    2    3    3    0    0 -0.10007052350E+00  0.51211392526E-01 -0.58814827166E-01  0.12863100725E+00  0.21214045719E-01 0.  0.
         14    1    1    2    0    0  0.10480976916E-01  0.20014329196E-01  0.14369389011E-01  0.26775055384E-01  0.00000000000E+00 0.  1.
     999901    1    3    3    0    0  0.89589546579E-01 -0.71225721721E-01  0.44445438155E-01  0.88852393736E+00  0.88000000000E+00 0. -1.
        -11    1    4    4    0    0 -0.61862811729E-01  0.42905049698E-01 -0.38035541038E-01  0.84349358431E-01  0.51100000000E-03 0.  1.
         11    1    4    4    0    0 -0.38207711766E-01  0.83063428274E-02 -0.20779286128E-01  0.44281648824E-01  0.51100000000E-03 0. -1.
</event>
<event>
 8    1  0.1044719E+005  0.1043930E+01  0.7957747E-01            NaN
         13   -1    0    0    0    0  0.00000000000E+00  0.00000000000E+00  0.74505805969E-08  0.10566000000E+00  0.10566000000E+00 0. -1.
     999900   -1    0    0    0    0 -0.00000000000E+00 -0.00000000000E+00 -0.74505805969E-08  0.93827000000E+00  0.93827000000E+00 0. -1.
     999902    2    1    2    0    0 -0.15649460433E-01 -0.17559341375E-01  0.12354654947E-02  0.10203766041E+01  0.10201047259E+01 0.  0.
     999903    2    3    3    0    0  0.54106817789E-01 -0.11722722078E+00 -0.17150379530E-01  0.13181728489E+00  0.20295123930E-01 0.  0.
         14    1    1    2    0    0  0.15649460433E-01  0.17559341375E-01 -0.12354654947E-02  0.23553395856E-01  0.00000000000E+00 0.  1.
     999901    1    3    3    0    0 -0.69756278222E-01  0.99667879402E-01  0.18385845025E-01  0.88855931925E+00  0.88000000000E+00 0.  1.
        -11    1    4    4    0    0  0.20112286842E-01 -0.62632089431E-01 -0.23791267753E-02  0.65827077056E-01  0.51100000000E-03 0. -1.
         11    1    4    4    0    0  0.33994530947E-01 -0.54595131346E-01 -0.14771252755E-01  0.65990207834E-01  0.51100000000E-03 0.  1.
</event>
<event>
 8    1  0.1044719E+005  0.1043930E+01  0.7957747E-01            NaN
         13   -1    0    0    0    0  0.00000000000E+00  0.00000000000E+00  0.74505805969E-08  0.10566000000E+00  0.10566000000E+00 0.  1.
     999900   -1    0    0    0    0 -0.00000000000E+00 -0.00000000000E+00 -0.74505805969E-08  0.93827000000E+00  0.93827000000E+00 0. -1.
     999902    2    1    2    0    0 -0.18776178648E-01 -0.11943883133E-01 -0.79173309503E-02  0.10203104031E+01  0.10200369764E+01 0.  0.
     999903    2    3    3    0    0 -0.10432174006E+00 -0.66898060770E-01 -0.45835441569E-01  0.13364485857E+00  0.20042069153E-01 0.  0.
         14    1    1    2    0    0  0.18776178648E-01  0.11943883133E-01  0.79173309503E-02  0.23619596913E-01  0.00000000000E+00 0.  1.
     999901    1    3    3    0    0  0.85545561408E-01  0.54954177637E-01  0.37918110618E-01  0.88666554451E+00  0.88000000000E+00 0.  1.
        -11    1    4    4    0    0 -0.39552484017E-01 -0.35508555618E-01 -0.14177584854E-01  0.55013830510E-01  0.51100000000E-03 0.  1.
         11    1    4    4    0    0 -0.64769256039E-01 -0.31389505152E-01 -0.31657856714E-01  0.78631028063E-01  0.51100000000E-03 0. -1.
</event>
<event>
 8    1  0.1044719E+005  0.1043930E+01  0.7957747E-01            NaN
         13   -1    0    0    0    0  0.00000000000E+00  0.00000000000E+00  0.74505805969E-08  0.10566000000E+00  0.10566000000E+00 0. -1.
     999900   -1    0    0    0    0 -0.00000000000E+00 -0.00000000000E+00 -0.74505805969E-08  0.93827000000E+00  0.93827000000E+00 0.  1.
     999902    2    1    2    0    0  0.31621934049E-02 -0.22915627037E-01 -0.23205904710E-02  0.10206811168E+01  0.10204163031E+01 0.  0.
     999903    2    3    3    0    0 -0.29690335864E-01 -0.20628950602E-01 -0.12493812040E+00  0.13156943866E+00  0.19847257057E-01 0.  0.
         14    1    1    2    0    0 -0.31621934049E-02  0.22915627037E-01  0.23205904710E-02  0.23248883194E-01  0.00000000000E+00 0.  1.
     999901    1    3    3    0    0  0.32852529269E-01 -0.22866764353E-02  0.12261752993E+00  0.88911167815E+00  0.88000000000E+00 0. -1.
        -11    1    4    4    0    0 -0.27109562523E-01 -0.13397420935E-01 -0.72283861097E-01  0.78355835545E-01  0.51100000000E-03 0. -1.
         11    1    4    4    0    0 -0.25807733417E-02 -0.72315296669E-02 -0.52654259307E-01  0.53213603115E-01  0.51100000000E-03 0.  1.
</event>
<event>
 8    1  0.1044719E+005  0.1043930E+01  0.7957747E-01            NaN
         13   -1    0    0    0    0  0.00000000000E+00  0.00000000000E+00  0.74505805969E-08  0.10566000000E+00  0.10566000000E+00 0. -1.
     999900   -1    0    0    0    0 -0.00000000000E+00 -0.00000000000E+00 -0.74505805969E-08  0.93827000000E+00  0.93827000000E+00 0. -1.
     999902    2    1    2    0    0  0.15162667319E-01  0.15133169566E-01  0.11022750422E-01  0.10198380858E+01  0.10195534812E+01 0.  0.
     999903    2    3    3    0    0 -0.90476247908E-01  0.67316670193E-01 -0.59580295175E-01  0.12918243509E+00  0.20513518519E-01 0.  0.
         14    1    1    2    0    0 -0.15162667319E-01 -0.15133169566E-01 -0.11022750422E-01  0.24091914167E-01  0.00000000000E+00 0.  1.
     999901    1    3    3    0    0  0.10563891523E+00 -0.52183500627E-01  0.70603045597E-01  0.89065565074E+00  0.88000000000E+00 0. -1.
        -11    1    4    4    0    0 -0.41213407477E-01  0.32934041913E-01 -0.16580408179E-01  0.55302505630E-01  0.51100000000E-03 0.  1.
         11    1    4    4    0    0 -0.49262840432E-01  0.34382628280E-01 -0.42999886996E-01  0.73879929463E-01  0.51100000000E-03 0. -1.
</event>
<event>
 8    1  0.1044719E+005  0.1043930E+01  0.7957747E-01            NaN
         13   -1    0    0    0    0  0.00000000000E+00  0.00000000000E+00  0.74505805969E-08  0.10566000000E+00  0.10566000000E+00 0.  1.
     999900   -1    0    0    0    0 -0.00000000000E+00 -0.00000000000E+00 -0.74505805969E-08  0.93827000000E+00  0.93827000000E+00 0.  1.
     999902    2    1    2    0    0  0.17434764619E-01 -0.61994190838E-02  0.14339717635E-01  0.10205199313E+01  0.10202513900E+01 0.  0.
     999903    2    3    3    0    0 -0.27590048007E-03 -0.14585153459E-01 -0.12661834314E+00  0.12908672400E+00  0.20454209102E-01 0.  0.
         14    1    1    2    0    0 -0.17434764619E-01  0.61994190838E-02 -0.14339717635E-01  0.23410068691E-01  0.00000000000E+00 0.  1.
     999901    1    3    3    0    0  0.17710665099E-01  0.83857343750E-02  0.14095806078E+00  0.89143320731E+00  0.88000000000E+00 0. -1.
        -11    1    4    4    0    0 -0.89326818197E-02 -0.13677969818E-01 -0.86713523400E-01  0.88240443813E-01  0.51100000000E-03 0.  1.
         11    1    4    4    0    0  0.86567813396E-02 -0.90718364051E-03 -0.39904819741E-01  0.40846280184E-01  0.51100000000E-03 0. -1.
</event>
<event>
 8    1  0.1044719E+005  0.1043930E+01  0.7957747E-01            NaN
         13   -1    0    0    0    0  0.00000000000E+00  0.00000000000E+00  0.74505805969E-08  0.10566000000E+00  0.10566000000E+00 0. -1.
     999900   -1    0    0    0    0 -0.00000000000E+00 -0.00000000000E+00 -0.74505805969E-08  0.93827000000E+00  0.93827000000E+00 0. -1.
     999902    2    1    2    0    0 -0.10087283554E-01 -0.19626026316E-01 -0.65535546206E-02  0.10209108063E+01  0.10206512584E+01 0.  0.
     999903    2    3    3    0    0  0.28051227372E-01 -0.12704887629E+00  0.19129878467E-01  0.13318683266E+00  0.21082974658E-01 0.  0.
         14    1    1    2    0    0  0.10087283554E-01  0.19626026316E-01  0.65535546206E-02  0.23019193657E-01  0.00000000000E+00 0.  1.
     999901    1    3    3    0    0 -0.38138510927E-01  0.10742284998E+00 -0.25683433087E-01  0.88772397368E+00  0.88000000000E+00 0.  1.
        -11    1    4    4    0    0  0.88700902802E-02 -0.55721139210E-01  0.18300693094E-01  0.59318634047E-01  0.51100000000E-03 0.  1.
         11    1    4    4    0    0  0.19181137092E-01 -0.71327737081E-01  0.82918537221E-03  0.73868198615E-01  0.51100000000E-03 0. -1.
</event>
<event>
 8    1  0.1044719E+005  0.1043930E+01  0.7957747E-01            NaN
         13   -1    0    0    0    0  0.00000000000E+00  0.00000000000E+00  0.74505805969E-08  0.10566000000E+00  0.10566000000E+00 0.  1.
     999900   -1    0    0    0    0 -0.00000000000E+00 -0.00000000000E+00 -0.74505805969E-08  0.93827000000E+00  0.93827000000E+00 0.  1.
     999902    2    1    2    0    0  0.16470707273E-01 -0.16318866983E-01  0.76010592061E-02  0.10195298828E+01  0.10192378605E+01 0.  0.
     999903    2    3    3    0    0  0.98029295617E-01 -0.87401036518E-01 -0.60311868772E-04  0.13287145097E+00  0.20152787917E-01 0.  0.
         14    1    1    2    0    0 -0.16470707273E-01  0.16318866983E-01 -0.76010592061E-02  0.24400117187E-01  0.00000000000E+00 0. -1.
     999901    1    3    3    0    0 -0.81558588343E-01  0.71082169535E-01  0.76613710749E-02  0.88665843185E+00  0.88000000000E+00 0.  1.
        -11    1    4    4    0    0  0.18253877021E-01 -0.26901140890E-01 -0.34133656539E-02  0.32692317042E-01  0.51100000000E-03 0.  1.
         11    1    4    4    0    0  0.79775418596E-01 -0.60499895628E-01  0.33530537851E-02  0.10017913392E+00  0.51100000000E-03 0. -1.
</event>
<event>
 8    1  0.1044719E+005  0.1043930E+01  0.7957747E-01            NaN
         13   -1    0    0    0    0  0.00000000000E+00  0.00000000000E+00  0.74505805969E-08  0.10566000000E+00  0.10566000000E+00 0. -1.
     999900   -1    0    0    0    0 -0.00000000000E+00 -0.00000000000E+00 -0.74505805969E-08  0.93827000000E+00  0.93827000000E+00 0.  1.
     999902    2    1    2    0    0  0.16689296342E-01 -0.15822026217E-01 -0.59634190078E-02  0.10201722330E+01  0.10198955601E+01 0.  0.
     999903    2    3    3    0    0 -0.31236352698E-01 -0.12607288929E+00  0.12196355978E-01  0.13181312878E+00  0.18864428867E-01 0.  0.
         14    1    1    2    0    0 -0.16689296342E-01  0.15822026217E-01  0.59634190078E-02  0.23757766988E-01  0.00000000000E+00 0.  1.
     999901    1    3    3    0    0  0.47925649040E-01  0.11025086307E+00 -0.18159774986E-01  0.88835910423E+00  0.88000000000E+00 0. -1.
        -11    1    4    4    0    0 -0.20218355712E-01 -0.61307241327E-01 -0.20435995680E-02  0.64589450896E-01  0.51100000000E-03 0.  1.
         11    1    4    4    0    0 -0.11017996985E-01 -0.64765647960E-01  0.14239955546E-01  0.67223677884E-01  0.51100000000E-03 0. -1.
</event>
<event>
 8    1  0.1044719E+005  0.1043930E+01  0.7957747E-01            NaN
         13   -1    0    0    0    0  0.00000000000E+00  0.00000000000E+00  0.74505805969E-08  0.10566000000E+00  0.10566000000E+00 0.  1.
     999900   -1    0    0    0    0 -0.00000000000E+00 -0.00000000000E+00 -0.74505805969E-08  0.93827000000E+00  0.93827000000E+00 0.  1.
     999902    2    1    2    0    0  0.55955245506E-02 -0.88670520143E-02 -0.21285884262E-01  0.10202018864E+01  0.10199259118E+01 0.  0.
     999903    2    3    3    0    0  0.82096218221E-01  0.22524128662E-01  0.94481947108E-01  0.12877608851E+00  0.20231589760E-01 0.  0.
         14    1    1    2    0    0 -0.55955245506E-02  0.88670520143E-02  0.21285884262E-01  0.23728113605E-01  0.00000000000E+00 0.  1.
     999901    1    3    3    0    0 -0.76500693670E-01 -0.31391180676E-01 -0.11576783137E+00  0.89142579789E+00  0.88000000000E+00 0.  1.
        -11    1    4    4    0    0  0.52416160273E-01  0.52767580704E-02  0.63721709271E-01  0.82680199485E-01  0.51100000000E-03 0. -1.
         11    1    4    4    0    0  0.29680057947E-01  0.17247370591E-01  0.30760237838E-01  0.46095889024E-01  0.51100000000E-03 0.  1.
</event>
<event>
 8    1  0.1044719E+005  0.1043930E+01  0.7957747E-01            NaN
         13   -1    0    0    0    0  0.00000000000E+00  0.00000000000E+00  0.74505805969E-08  0.10566000000E+00  0.10566000000E+00 0. -1.
     999900   -1    0    0    0    0 -0.00000000000E+00 -0.00000000000E+00 -0.74505805969E-08  0.93827000000E+00  0.93827000000E+00 0.  1.
     999902    2    1    2    0    0 -0.85186309531E-02 -0.11214686040E-01 -0.19035415085E-01  0.10202512483E+01  0.10199764342E+01 0.  0.
     999903    2    3    3    0    0  0.10172319171E+00  0.79314327835E-02 -0.79772907054E-01  0.13108935285E+00  0.20253058334E-01 0.  0.
         14    1    1    2    0    0  0.85186309531E-02  0.11214686040E-01  0.19035415085E-01  0.23678751735E-01  0.00000000000E+00 0. -1.
     999901    1    3    3    0    0 -0.11024182267E+00 -0.19146118824E-01  0.60737491970E-01  0.88916189542E+00  0.88000000000E+00 0.  1.
        -11    1    4    4    0    0  0.35332348675E-01  0.40387780311E-02 -0.40303857544E-01  0.53752661746E-01  0.51100000000E-03 0.  1.
         11    1    4    4    0    0  0.66390843038E-01  0.38926547524E-02 -0.39469049511E-01  0.77336691102E-01  0.51100000000E-03 0. -1.
</event>
<event>
 8    1  0.1044719E+005  0.1043930E+01  0.7957747E-01            NaN
         13   -1    0    0    0    0  0.00000000000E+00  0.00000000000E+00  0.74505805969E-08  0.10566000000E+00  0.10566000000E+00 0.  1.
     999900   -1    0    0    0    0 -0.00000000000E+00 -0.00000000000E+00 -0.74505805969E-08  0.93827000000E+00  0.93827000000E+00 0. -1.
     999902    2    1    2    0    0 -0.10556658713E-01  0.19869444170E-01 -0.14783114805E-01  0.10170082924E+01  0.10166519014E+01 0.  0.
     999903    2    3    3    0    0  0.12462186994E+00  0.12290422705E-02 -0.12552889143E-01  0.12648840321E+00  0.17596025378E-01 0.  0.
         14    1    1    2    0    0  0.10556658713E-01 -0.19869444170E-01  0.14783114805E-01  0.26921707564E-01  0.00000000000E+00 0. -1.
     999901    1    3    3    0    0 -0.13517852866E+00  0.18640401899E-01 -0.22302256623E-02  0.89051988922E+00  0.88000000000E+00 0.  1.
        -11    1    4    4    0    0  0.11924846602E-01 -0.22909051898E-02 -0.59765336165E-02  0.13543643828E-01  0.51100000000E-03 0. -1.
         11    1    4    4    0    0  0.11269702334E+00  0.35199474604E-02 -0.65763555265E-02  0.11294475939E+00  0.51100000000E-03 0.  1.
</event>
<event>
 8    1  0.1044719E+005  0.1043930E+01  0.7957747E-01            NaN
         13   -1    0    0    0    0  0.00000000000E+00  0.00000000000E+00  0.74505805969E-08  0.10566000000E+00  0.10566000000E+00 0.  1.
     999900   -1    0    0    0    0 -0.00000000000E+00 -0.00000000000E+00 -0.74505805969E-08  0.93827000000E+00  0.93827000000E+00 0.  1.
     999902    2    1    2    0    0 -0.20070596915E-01 -0.75148509345E-02  0.10897247427E-01  0.10198872912E+01  0.10196038618E+01 0.  0.
     999903    2    3    3    0    0 -0.52119984740E-01 -0.69826210450E-01 -0.95472135485E-01  0.13071671453E+00  0.19486875815E-01 0.  0.
         14    1    1    2    0    0  0.20070596915E-01  0.75148509345E-02 -0.10897247427E-01  0.24042708803E-01  0.00000000000E+00 0. -1.
     999901    1    3    3    0    0  0.32049387824E-01  0.62311359516E-01  0.10636938291E+00  0.88917057666E+00  0.88000000000E+00 0. -1.
        -11    1    4    4    0    0 -0.32616523323E-01 -0.36355785534E-01 -0.40427208367E-01  0.63405055263E-01  0.51100000000E-03 0. -1.
         11    1    4    4    0    0 -0.19503461417E-01 -0.33470424916E-01 -0.55044927118E-01  0.67311659270E-01  0.51100000000E-03 0.  1.
</event>
<event>
 8    1  0.1044719E+005  0.1043930E+01  0.7957747E-01            NaN
         13   -1    0    0    0    0  0.00000000000E+00  0.00000000000E+00  0.74505805969E-08  0.10566000000E+00  0.10566000000E+00 0. -1.
     999900   -1    0    0    0    0 -0.00000000000E+00 -0.00000000000E+00 -0.74505805969E-08  0.93827000000E+00  0.93827000000E+00 0. -1.
     999902    2    1    2    0    0 -0.31466586079E-02  0.18953350937E-01 -0.13797504525E-01  0.10202762032E+01  0.10200019749E+01 0.  0.
     999903    2    3    3    0    0  0.56925289120E-01 -0.17853170701E-01 -0.11556756652E+00  0.13161400390E+00  0.20178189871E-01 0.  0.
         14    1    1    2    0    0  0.31466586079E-02 -0.18953350937E-01  0.13797504525E-01  0.23653796804E-01  0.00000000000E+00 0. -1.
     999901    1    3    3    0    0 -0.60071947728E-01  0.36806521638E-01  0.10177006199E+00  0.88866219930E+00  0.88000000000E+00 0.  1.
        -11    1    4    4    0    0  0.31240997855E-01 -0.17386162781E-01 -0.52565470009E-01  0.63574117072E-01  0.51100000000E-03 0. -1.
         11    1    4    4    0    0  0.25684291266E-01 -0.46700791999E-03 -0.63002096508E-01  0.68039886828E-01  0.51100000000E-03 0.  1.
</event>
<event>
 8    1  0.1044719E+005  0.1043930E+01  0.7957747E-01            NaN
         13   -1    0    0    0    0  0.00000000000E+00  0.00000000000E+00  0.74505805969E-08  0.10566000000E+00  0.10566000000E+00 0.  1.
     999900   -1    0    0    0    0 -0.00000000000E+00 -0.00000000000E+00 -0.74505805969E-08  0.93827000000E+00  0.93827000000E+00 0.  1.
     999902    2    1    2    0    0  0.89339829512E-02  0.20372268816E-01 -0.81326340807E-02  0.10202448754E+01  0.10199699117E+01 0.  0.
     999903    2    3    3    0    0  0.64671514456E-01 -0.10851345057E+00 -0.17890454402E-01  0.12905835393E+00  0.19452933526E-01 0.  0.
         14    1    1    2    0    0 -0.89339829512E-02 -0.20372268816E-01  0.81326340807E-02  0.23685124555E-01  0.00000000000E+00 0. -1.
     999901    1    3    3    0    0 -0.55737531504E-01  0.12888571939E+00  0.97578203211E-02  0.89118652152E+00  0.88000000000E+00 0. -1.
        -11    1    4    4    0    0  0.64292808921E-02 -0.26152380032E-01 -0.35233214465E-02  0.27165374084E-01  0.51100000000E-03 0.  1.
         11    1    4    4    0    0  0.58242233563E-01 -0.82361070538E-01 -0.14367132955E-01  0.10189297984E+00  0.51100000000E-03 0. -1.
</event>
<event>
 8    1  0.1044719E+005  0.1043930E+01  0.7957747E-01            NaN
         13   -1    0    0    0    0  0.00000000000E+00  0.00000000000E+00  0.74505805969E-08  0.10566000000E+00  0.10566000000E+00 0.  1.
     999900   -1    0    0    0    0 -0.00000000000E+00 -0.00000000000E+00 -0.74505805969E-08  0.93827000000E+00  0.93827000000E+00 0. -1.
     999902    2    1    2    0    0  0.19902872997E-01  0.10685107874E-01 -0.66582025827E-02  0.10203794683E+01  0.10201076569E+01 0.  0.
     999903    2    3    3    0    0  0.28709652805E-01 -0.20470828213E-01 -0.12540310359E+00  0.13181399333E+00  0.20141784316E-01 0.  0.
         14    1    1    2    0    0 -0.19902872997E-01 -0.10685107874E-01  0.66582025827E-02  0.23550531744E-01  0.00000000000E+00 0.  1.
     999901    1    3    3    0    0 -0.88067798087E-02  0.31155936086E-01  0.11874490100E+00  0.88856547493E+00  0.88000000000E+00 0.  1.
        -11    1    4    4    0    0  0.36464249286E-02 -0.12328621184E-01 -0.26492401606E-01  0.29451651548E-01  0.51100000000E-03 0. -1.
         11    1    4    4    0    0  0.25063227877E-01 -0.81422070284E-02 -0.98910701980E-01  0.10236234178E+00  0.51100000000E-03 0.  1.
</event>
<event>
 8    1  0.1044719E+005  0.1043930E+01  0.7957747E-01            NaN
         13   -1    0    0    0    0  0.00000000000E+00  0.00000000000E+00  0.74505805969E-08  0.10566000000E+00  0.10566000000E+00 0.  1.
     999900   -1    0    0    0    0 -0.00000000000E+00 -0.00000000000E+00 -0.74505805969E-08  0.93827000000E+00  0.93827000000E+00 0.  1.
     999902    2    1    2    0    0 -0.16498809852E-01  0.10019914091E-01 -0.15008160457E-01  0.10194789410E+01  0.10191856832E+01 0.  0.
     999903    2    3    3    0    0  0.61220063899E-01 -0.10194725670E+00  0.40531173662E-01  0.12725616149E+00  0.20253770666E-01 0.  0.
         14    1    1    2    0    0  0.16498809852E-01 -0.10019914091E-01  0.15008160457E-01  0.24451058980E-01  0.00000000000E+00 0.  1.
     999901    1    3    3    0    0 -0.77718873751E-01  0.11196717080E+00 -0.55539334119E-01  0.89222277953E+00  0.88000000000E+00 0.  1.
        -11    1    4    4    0    0  0.73790514876E-03 -0.11385016596E-01  0.65961603943E-02  0.13188387311E-01  0.51100000000E-03 0. -1.
         11    1    4    4    0    0  0.60482158750E-01 -0.90562240108E-01  0.33935013268E-01  0.11406777418E+00  0.51100000000E-03 0.  1.
</event>
<event>
 8    1  0.1044719E+005  0.1043930E+01  0.7957747E-01            NaN
         13   -1    0    0    0    0  0.00000000000E+00  0.00000000000E+00  0.74505805969E-08  0.10566000000E+00  0.10566000000E+00 0.  1.
     999900   -1    0    0    0    0 -0.00000000000E+00 -0.00000000000E+00 -0.74505805969E-08  0.93827000000E+00  0.93827000000E+00 0.  1.
     999902    2    1    2    0    0 -0.20622528910E-01  0.80930887243E-02 -0.98526150074E-02  0.10196841590E+01  0.10193958619E+01 0.  0.
     999903    2    3    3    0    0 -0.60543957520E-02 -0.28793688127E-01  0.12374007795E+00  0.12871846244E+00  0.19776336833E-01 0.  0.
         14    1    1    2    0    0  0.20622528910E-01 -0.80930887243E-02  0.98526150074E-02  0.24245841009E-01  0.00000000000E+00 0. -1.
     999901    1    3    3    0    0 -0.14568133158E-01  0.36886776851E-01 -0.13359269296E+00  0.89096569655E+00  0.88000000000E+00 0.  1.
        -11    1    4    4    0    0 -0.78147261506E-03 -0.25681635966E-01  0.68922877518E-01  0.73558013103E-01  0.51100000000E-03 0.  1.
         11    1    4    4    0    0 -0.52729231369E-02 -0.31120521607E-02  0.54817200435E-01  0.55160449341E-01  0.51100000000E-03 0. -1.
</event>
<event>
 8    1  0.1044719E+005  0.1043930E+01  0.7957747E-01            NaN
         13   -1    0    0    0    0  0.00000000000E+00  0.00000000000E+00  0.74505805969E-08  0.10566000000E+00  0.10566000000E+00 0.  1.
     999900   -1    0    0    0    0 -0.00000000000E+00 -0.00000000000E+00 -0.74505805969E-08  0.93827000000E+00  0.93827000000E+00 0. -1.
     999902    2    1    2    0    0  0.56092865585E-03  0.28896275604E-02 -0.22415708765E-01  0.10213218469E+01  0.10210715873E+01 0.  0.
     999903    2    3    3    0    0  0.16646524422E-01 -0.12843712915E+00 -0.78577372739E-02  0.13131207280E+00  0.20196868754E-01 0.  0.
         14    1    1    2    0    0 -0.56092865585E-03 -0.28896275604E-02  0.22415708765E-01  0.22608153127E-01  0.00000000000E+00 0.  1.
     999901    1    3    3    0    0 -0.16085595766E-01  0.13132675671E+00 -0.14557971491E-01  0.89000977408E+00  0.88000000000E+00 0.  1.
        -11    1    4    4    0    0  0.47793755828E-02 -0.96494019852E-01 -0.13898460746E-02  0.96623656996E-01  0.51100000000E-03 0.  1.
         11    1    4    4    0    0  0.11867148839E-01 -0.31943109297E-01 -0.64678911992E-02  0.34688415799E-01  0.51100000000E-03 0. -1.
</event>
<event>
 8    1  0.1044719E+005  0.1043930E+01  0.7957747E-01            NaN
         13   -1    0    0    0    0  0.00000000000E+00  0.00000000000E+00  0.74505805969E-08  0.10566000000E+00  0.10566000000E+00 0.  1.
     999900   -1    0    0    0    0 -0.00000000000E+00 -0.00000000000E+00 -0.74505805969E-08  0.93827000000E+00  0.93827000000E+00 0. -1.
     999902    2    1    2    0    0  0.12556486353E-01 -0.11967891975E-01 -0.16112429325E-01  0.10202549886E+01  0.10199802623E+01 0.  0.
     999903    2    3    3    0    0 -0.38085938152E-01  0.50906575350E-01  0.10866338624E+00  0.12779386451E+00  0.21943614027E-01 0.  0.
         14    1    1    2    0    0 -0.12556486353E-01  0.11967891975E-01  0.16112429325E-01  0.23675011439E-01  0.00000000000E+00 0.  1.
     999901    1    3    3    0    0  0.50642424505E-01 -0.62874467324E-01 -0.12477581557E+00  0.89246112406E+00  0.88000000000E+00 0. -1.
        -11    1    4    4    0    0 -0.88698344665E-02  0.13211399202E-01  0.11773868219E-01  0.19801518280E-01  0.51100000000E-03 0. -1.
         11    1    4    4    0    0 -0.29216103685E-01  0.37695176148E-01  0.96889518024E-01  0.10799234623E+00  0.51100000000E-03 0.  1.
</event>
<event>
 8    1  0.1044719E+005  0.1043930E+01  0.7957747E-01            NaN
         13   -1    0    0    0    0  0.00000000000E+00  0.00000000000E+00  0.74505805969E-08  0.10566000000E+00  0.10566000000E+00 0. -1.
     999900   -1    0    0    0    0 -0.00000000000E+00 -0.00000000000E+00 -0.74505805969E-08  0.93827000000E+00  0.93827000000E+00 0.  1.
     999902    2    1    2    0    0  0.20154120671E-01  0.69187076202E-02  0.87102871126E-02  0.10209098741E+01  0.10206503049E+01 0.  0.
     999903    2    3    3    0    0 -0.76380555462E-01  0.66503444593E-01 -0.77931982234E-01  0.12940767701E+00  0.20402343436E-01 0.  0.
         14    1    1    2    0    0 -0.20154120671E-01 -0.69187076202E-02 -0.87102871126E-02  0.23020125906E-01  0.00000000000E+00 0.  1.
     999901    1    3    3    0    0  0.96534676133E-01 -0.59584736973E-01  0.86642269346E-01  0.89150219709E+00  0.88000000000E+00 0. -1.
        -11    1    4    4    0    0 -0.60326581610E-01  0.54748971927E-01 -0.51732532193E-01  0.96505245370E-01  0.51100000000E-03 0.  1.
         11    1    4    4    0    0 -0.16053973852E-01  0.11754472666E-01 -0.26199450041E-01  0.32902431636E-01  0.51100000000E-03 0. -1.
</event>
<event>
 8    1  0.1044719E+005  0.1043930E+01  0.7957747E-01            NaN
         13   -1    0    0    0    0  0.00000000000E+00  0.00000000000E+00  0.74505805969E-08  0.10566000000E+00  0.10566000000E+00 0. -1.
     999900   -1    0    0    0    0 -0.00000000000E+00 -0.00000000000E+00 -0.74505805969E-08  0.93827000000E+00  0.93827000000E+00 0. -1.
     999902    2    1    2    0    0  0.16068663860E-01  0.12676705965E-01 -0.44852628921E-02  0.10229772337E+01  0.10227626324E+01 0.  0.
     999903    2    3    3    0    0  0.24249045736E-01  0.12831705217E+00 -0.27666267926E-01  0.13507128862E+00  0.20628827680E-01 0.  0.
         14    1    1    2    0    0 -0.16068663860E-01 -0.12676705965E-01  0.44852628921E-02  0.20952766299E-01  0.00000000000E+00 0.  1.
     999901    1    3    3    0    0 -0.81803818763E-02 -0.11564034621E+00  0.23181005034E-01  0.88790594508E+00  0.88000000000E+00 0. -1.
        -11    1    4    4    0    0  0.10785775282E-01  0.33932523640E-01  0.64617811833E-03  0.35614993699E-01  0.51100000000E-03 0.  1.
         11    1    4    4    0    0  0.13463270455E-01  0.94384528530E-01 -0.28312446045E-01  0.99456294920E-01  0.51100000000E-03 0. -1.
</event>
<event>
 8    1  0.1044719E+005  0.1043930E+01  0.7957747E-01            NaN
         13   -1    0    0    0    0  0.00000000000E+00  0.00000000000E+00  0.74505805969E-08  0.10566000000E+00  0.10566000000E+00 0. -1.
     999900   -1    0    0    0    0 -0.00000000000E+00 -0.00000000000E+00 -0.74505805969E-08  0.93827000000E+00  0.93827000000E+00 0.  1.
     999902    2    1    2    0    0 -0.78102924232E-02 -0.12174245781E-01  0.17580590737E-01  0.10211640144E+01  0.10209102087E+01 0.  0.
     999903    2    3    3    0    0 -0.12307646934E+00  0.27098213882E-01  0.28009005333E-01  0.13271740970E+00  0.30777848484E-01 0.  0.
         14    1    1    2    0    0  0.78102924232E-02  0.12174245781E-01 -0.17580590737E-01  0.22765985565E-01  0.00000000000E+00 0.  1.
     999901    1    3    3    0    0  0.11526617692E+00 -0.39272459663E-01 -0.10428414596E-01  0.88844660473E+00  0.88000000000E+00 0. -1.
        -11    1    4    4    0    0 -0.79123671132E-01  0.29152731324E-01  0.27549750902E-01  0.88711256179E-01  0.51100000000E-03 0.  1.
         11    1    4    4    0    0 -0.43952798209E-01 -0.20545174419E-02  0.45925443156E-03  0.44006153524E-01  0.51100000000E-03 0. -1.
</event>
<event>
 8    1  0.1044719E+005  0.1043930E+01  0.7957747E-01            NaN
         13   -1    0    0    0    0  0.00000000000E+00  0.00000000000E+00  0.74505805969E-08  0.10566000000E+00  0.10566000000E+00 0. -1.
     999900   -1    0    0    0    0 -0.00000000000E+00 -0.00000000000E+00 -0.74505805969E-08  0.93827000000E+00  0.93827000000E+00 0. -1.
     999902    2    1    2    0    0  0.23394608605E-01 -0.10113595634E-03  0.68259943130E-02  0.10195596874E+01  0.10192683866E+01 0.  0.
     999903    2    3    3    0    0 -0.62988639686E-02  0.24124269705E-01 -0.12485164337E+00  0.12893767277E+00  0.20379757875E-01 0.  0.
         14    1    1    2    0    0 -0.23394608605E-01  0.10113595634E-03 -0.68259943130E-02  0.24370312650E-01  0.00000000000E+00 0. -1.
     999901    1    3    3    0    0  0.29693472574E-01 -0.24225405661E-01  0.13167763768E+00  0.89062201458E+00  0.88000000000E+00 0.  1.
        -11    1    4    4    0    0 -0.10118889524E-01  0.24766243520E-01 -0.90746264463E-01  0.94609219309E-01  0.51100000000E-03 0. -1.
         11    1    4    4    0    0  0.38200255550E-02 -0.64197381545E-03 -0.34105378906E-01  0.34328453460E-01  0.51100000000E-03 0.  1.
</event>
<event>
 8    1  0.1044719E+005  0.1043930E+01  0.7957747E-01            NaN
         13   -1    0    0    0    0  0.00000000000E+00  0.00000000000E+00  0.74505805969E-08  0.10566000000E+00  0.10566000000E+00 0. -1.
     999900   -1    0    0    0    0 -0.00000000000E+00 -0.00000000000E+00 -0.74505805969E-08  0.93827000000E+00  0.93827000000E+00 0. -1.
     999902    2    1    2    0    0  0.24161287877E-01  0.11902299741E-01  0.31293970717E-02  0.10168149544E+01  0.10164533564E+01 0.  0.
     999903    2    3    3    0    0 -0.99457670110E-01 -0.63449623882E-02 -0.72320671800E-01  0.12479067098E+00  0.20256981570E-01 0.  0.
         14    1    1    2    0    0 -0.24161287877E-01 -0.11902299741E-01 -0.31293970717E-02  0.27115045584E-01  0.00000000000E+00 0. -1.
     999901    1    3    3    0    0  0.12361895799E+00  0.18247262130E-01  0.75450068871E-01  0.89202428344E+00  0.88000000000E+00 0.  1.
        -11    1    4    4    0    0 -0.66125711632E-01 -0.17381528793E-02 -0.36141190534E-01  0.75379557497E-01  0.51100000000E-03 0.  1.
         11    1    4    4    0    0 -0.33331958479E-01 -0.46068095089E-02 -0.36179481265E-01  0.49411113482E-01  0.51100000000E-03 0. -1.
</event>
<event>
 8    1  0.1044719E+005  0.1043930E+01  0.7957747E-01            NaN
         13   -1    0    0    0    0  0.00000000000E+00  0.00000000000E+00  0.74505805969E-08  0.10566000000E+00  0.10566000000E+00 0.  1.
     999900   -1    0    0    0    0 -0.00000000000E+00 -0.00000000000E+00 -0.74505805969E-08  0.93827000000E+00  0.93827000000E+00 0.  1.
     999902    2    1    2    0    0 -0.15153775170E-01  0.15337211973E-01 -0.95566149624E-02  0.10203461949E+01  0.10200736060E+01 0.  0.
     999903    2    3    3    0    0  0.48203869934E-01 -0.38010317768E-02 -0.12010902455E+00  0.13096309476E+00  0.19674691678E-01 0.  0.
         14    1    1    2    0    0  0.15153775170E-01 -0.15337211973E-01  0.95566149624E-02  0.23583805091E-01  0.00000000000E+00 0.  1.
     999901    1    3    3    0    0 -0.63357645104E-01  0.19138243750E-01  0.11055240958E+00  0.88938310015E+00  0.88000000000E+00 0. -1.
        -11    1    4    4    0    0  0.21100996490E-01 -0.10335274071E-01 -0.43591765793E-01  0.49523460187E-01  0.51100000000E-03 0.  1.
         11    1    4    4    0    0  0.27102873443E-01  0.65342422939E-02 -0.76517258753E-01  0.81439634572E-01  0.51100000000E-03 0. -1.
</event>
<event>
 8    1  0.1044719E+005  0.1043930E+01  0.7957747E-01            NaN
         13   -1    0    0    0    0  0.00000000000E+00  0.00000000000E+00  0.74505805969E-08  0.10566000000E+00  0.10566000000E+00 0.  1.
     999900   -1    0    0    0    0 -0.00000000000E+00 -0.00000000000E+00 -0.74505805969E-08  0.93827000000E+00  0.93827000000E+00 0.  1.
     999902    2    1    2    0    0  0.70410670731E-02 -0.22790003190E-01 -0.11123014699E-02  0.10200511791E+01  0.10197716460E+01 0.  0.
     999903    2    3    3    0    0  0.14255364794E-01  0.12524412384E+00 -0.28767587761E-02  0.12765594038E+00  0.19961397525E-01 0.  0.
         14    1    1    2    0    0 -0.70410670731E-02  0.22790003190E-01  0.11123014699E-02  0.23878820857E-01  0.00000000000E+00 0.  1.
     999901    1    3    3    0    0 -0.72142977212E-02 -0.14803412703E+00  0.17644573062E-02  0.89239523876E+00  0.88000000000E+00 0. -1.
        -11    1    4    4    0    0  0.56514790907E-03  0.59134453529E-02 -0.45976242776E-02  0.75291100469E-02  0.51100000000E-03 0. -1.
         11    1    4    4    0    0  0.13690216885E-01  0.11933067849E+00  0.17208655015E-02  0.12012683033E+00  0.51100000000E-03 0.  1.
</event>
<event>
 8    1  0.1044719E+005  0.1043930E+01  0.7957747E-01            NaN
         13   -1    0    0    0    0  0.00000000000E+00  0.00000000000E+00  0.74505805969E-08  0.10566000000E+00  0.10566000000E+00 0. -1.
     999900   -1    0    0    0    0 -0.00000000000E+00 -0.00000000000E+00 -0.74505805969E-08  0.93827000000E+00  0.93827000000E+00 0.  1.
     999902    2    1    2    0    0  0.16371999427E-01  0.84580983026E-03 -0.17954365876E-01  0.10196171019E+01  0.10193271886E+01 0.  0.
     999903    2    3    3    0    0 -0.49676589203E-01  0.52843314197E-01 -0.10748474869E+00  0.13108919241E+00  0.19267220760E-01 0.  0.
         14    1    1    2    0    0 -0.16371999427E-01 -0.84580983026E-03  0.17954365876E-01  0.24312898089E-01  0.00000000000E+00 0. -1.
     999901    1    3    3    0    0  0.66048588630E-01 -0.51997504367E-01  0.89530382810E-01  0.88852790950E+00  0.88000000000E+00 0. -1.
        -11    1    4    4    0    0 -0.17273059226E-01  0.13202511666E-01 -0.47377690994E-01  0.52130332957E-01  0.51100000000E-03 0.  1.
         11    1    4    4    0    0 -0.32403529977E-01  0.39640802531E-01 -0.60107057691E-01  0.78958859450E-01  0.51100000000E-03 0. -1.
</event>
<event>
 8    1  0.1044719E+005  0.1043930E+01  0.7957747E-01            NaN
         13   -1    0    0    0    0  0.00000000000E+00  0.00000000000E+00  0.74505805969E-08  0.10566000000E+00  0.10566000000E+00 0. -1.
     999900   -1    0    0    0    0 -0.00000000000E+00 -0.00000000000E+00 -0.74505805969E-08  0.93827000000E+00  0.93827000000E+00 0.  1.
     999902    2    1    2    0    0 -0.15840703523E-01  0.92479885585E-02 -0.13854928424E-01  0.10209427813E+01  0.10206839621E+01 0.  0.
     999903    2    3    3    0    0  0.54423838186E-01 -0.72072519858E-02  0.11352231055E+00  0.12884814410E+00  0.26469427674E-01 0.  0.
         14    1    1    2    0    0  0.15840703523E-01 -0.92479885585E-02  0.13854928424E-01  0.22987218669E-01  0.00000000000E+00 0. -1.
     999901    1    3    3    0    0 -0.70264541710E-01  0.16455240544E-01 -0.12737723898E+00  0.89209463723E+00  0.88000000000E+00 0.  1.
        -11    1    4    4    0    0  0.27428922848E-01 -0.48735430996E-02  0.29566602037E-01  0.40626866824E-01  0.51100000000E-03 0. -1.
         11    1    4    4    0    0  0.26994915339E-01 -0.23337088862E-02  0.83955708516E-01  0.88221277279E-01  0.51100000000E-03 0.  1.
</event>
<event>
 8    1  0.1044719E+005  0.1043930E+01  0.7957747E-01            NaN
         13   -1    0    0    0    0  0.00000000000E+00  0.00000000000E+00  0.74505805969E-08  0.10566000000E+00  0.10566000000E+00 0. -1.
     999900   -1    0    0    0    0 -0.00000000000E+00 -0.00000000000E+00 -0.74505805969E-08  0.93827000000E+00  0.93827000000E+00 0. -1.
     999902    2    1    2    0    0 -0.10886063470E-01 -0.15875752496E-01 -0.68350039769E-02  0.10235029793E+01  0.10232991183E+01 0.  0.
     999903    2    3    3    0    0  0.25632703857E-01  0.10170695021E+00 -0.77163599920E-01  0.13215264203E+00  0.22555718048E-01 0.  0.
         14    1    1    2    0    0  0.10886063470E-01  0.15875752496E-01  0.68350039769E-02  0.20427020697E-01  0.00000000000E+00 0. -1.
     999901    1    3    3    0    0 -0.36518767328E-01 -0.11758270270E+00  0.70328595943E-01  0.89135033727E+00  0.88000000000E+00 0.  1.
        -11    1    4    4    0    0  0.10249781337E-01  0.75320289626E-01 -0.61751999586E-01  0.97937605754E-01  0.51100000000E-03 0.  1.
         11    1    4    4    0    0  0.15382922520E-01  0.26386660581E-01 -0.15411600334E-01  0.34215036281E-01  0.51100000000E-03 0. -1.
</event>
<event>
 8    1  0.1044719E+005  0.1043930E+01  0.7957747E-01            NaN
         13   -1    0    0    0    0  0.00000000000E+00  0.00000000000E+00  0.74505805969E-08  0.10566000000E+00  0.10566000000E+00 0.  1.
     999900   -1    0    0    0    0 -0.00000000000E+00 -0.00000000000E+00 -0.74505805969E-08  0.93827000000E+00  0.93827000000E+00 0.  1.
     999902    2    1    2    0    0  0.17145014328E-02 -0.19888325641E-01  0.10802843727E-01  0.10212322811E+01  0.10209800123E+01 0.  0.
     999903    2    3    3    0    0  0.11228618242E+00  0.29304557447E-01 -0.56518634875E-01  0.13040220869E+00  0.18532028818E-01 0.  0.
         14    1    1    2    0    0 -0.17145014328E-02  0.19888325641E-01 -0.10802843727E-01  0.22697718929E-01  0.00000000000E+00 0. -1.
     999901    1    3    3    0    0 -0.11057168099E+00 -0.49192883088E-01  0.67321478602E-01  0.89083007238E+00  0.88000000000E+00 0.  1.
        -11    1    4    4    0    0  0.14462667155E-01  0.10392532732E-01 -0.10148076411E-01  0.20504098461E-01  0.51100000000E-03 0. -1.
         11    1    4    4    0    0  0.97823515267E-01  0.18912024714E-01 -0.46370558464E-01  0.10989811023E+00  0.51100000000E-03 0.  1.
</event>
<event>
 8    1  0.1044719E+005  0.1043930E+01  0.7957747E-01            NaN
         13   -1    0    0    0    0  0.00000000000E+00  0.00000000000E+00  0.74505805969E-08  0.10566000000E+00  0.10566000000E+00 0. -1.
     999900   -1    0    0    0    0 -0.00000000000E+00 -0.00000000000E+00 -0.74505805969E-08  0.93827000000E+00  0.93827000000E+00 0.  1.
     999902    2    1    2    0    0  0.14887700425E-01 -0.13713144002E-02 -0.18396125961E-01  0.10202246931E+01  0.10199492550E+01 0.  0.
     999903    2    3    3    0    0  0.59566601852E-01  0.11379386747E+00  0.16167313636E-01  0.13092505024E+00  0.19564314979E-01 0.  0.
         14    1    1    2    0    0 -0.14887700425E-01  0.13713144002E-02  0.18396125961E-01  0.23705306948E-01  0.00000000000E+00 0. -1.
     999901    1    3    3    0    0 -0.44678901427E-01 -0.11516518187E+00 -0.34563439596E-01  0.88929964281E+00  0.88000000000E+00 0.  1.
        -11    1    4    4    0    0  0.86314954432E-02  0.82731837736E-02  0.57910685460E-02  0.13294580822E-01  0.51100000000E-03 0. -1.
         11    1    4    4    0    0  0.50935106409E-01  0.10552068370E+00  0.10376245090E-01  0.11763046942E+00  0.51100000000E-03 0.  1.
</event>
<event>
 8    1  0.1158595E+005  0.1043930E+01  0.7957747E-01            NaN
         13   -1    0    0    0    0  0.00000000000E+00  0.00000000000E+00  0.74505805969E-08  0.10566000000E+00  0.10566000000E+00 0. -1.
     999900   -1    0    0    0    0 -0.00000000000E+00 -0.00000000000E+00 -0.74505805969E-08  0.93827000000E+00  0.93827000000E+00 0. -1.
     999902    2    1    2    0    0 -0.24291083086E-01 -0.68791327383E-02  0.25517837355E-03  0.10186823407E+01  0.10183694157E+01 0.  0.
     999903    2    3    3    0    0 -0.38488139257E-02  0.12689392534E+00  0.12986413120E-02  0.12833734786E+00  0.18759177196E-01 0.  0.
         14    1    1    2    0    0  0.24291083086E-01  0.68791327383E-02 -0.25517837355E-03  0.25247659312E-01  0.00000000000E+00 0.  1.
     999901    1    3    3    0    0 -0.20442269161E-01 -0.13377305808E+00 -0.10434629384E-02  0.89034499283E+00  0.88000000000E+00 0. -1.
        -11    1    4    4    0    0  0.64005191139E-02  0.81614445130E-01 -0.63898717163E-03  0.81869125587E-01  0.51100000000E-03 0.  1.
         11    1    4    4    0    0 -0.10249333040E-01  0.45279480214E-01  0.19376284836E-02  0.46468222274E-01  0.51100000000E-03 0. -1.
</event>
<event>
 8    1  0.1044719E+005  0.1043930E+01  0.7957747E-01            NaN
         13   -1    0    0    0    0  0.00000000000E+00  0.00000000000E+00  0.74505805969E-08  0.10566000000E+00  0.10566000000E+00 0.  1.
     999900   -1    0    0    0    0 -0.00000000000E+00 -0.00000000000E+00 -0.74505805969E-08  0.93827000000E+00  0.93827000000E+00 0.  1.
     999902    2    1    2    0    0  0.40461164887E-02  0.21759318755E-01  0.80391716207E-02  0.10203828708E+01  0.10201111390E+01 0.  0.
     999903    2    3    3    0    0 -0.11181837751E+00  0.25165599659E-01 -0.58743040677E-01  0.13027273855E+00  0.19585316604E-01 0.  0.
         14    1    1    2    0    0 -0.40461164887E-02 -0.21759318755E-01 -0.80391716207E-02  0.23547129160E-01  0.00000000000E+00 0. -1.
     999901    1    3    3    0    0  0.11586449400E+00 -0.34062809040E-02  0.66782212298E-01  0.89011013229E+00  0.88000000000E+00 0. -1.
        -11    1    4    4    0    0 -0.14294575182E-01 -0.14058348540E-02 -0.24673863766E-02  0.14582879270E-01  0.51100000000E-03 0. -1.
         11    1    4    4    0    0 -0.97523802331E-01  0.26571434513E-01 -0.56275654300E-01  0.11568985928E+00  0.51100000000E-03 0.  1.
</event>
<event>
 8    1  0.1341420E+005  0.1043930E+01  0.7957747E-01            NaN
         13   -1    0    0    0    0  0.00000000000E+00  0.00000000000E+00  0.74505805969E-08  0.10566000000E+00  0.10566000000E+00 0.  1.
     999900   -1    0    0    0    0 -0.00000000000E+00 -0.00000000000E+00 -0.74505805969E-08  0.93827000000E+00  0.93827000000E+00 0. -1.
     999902    2    1    2    0    0 -0.22915037601E-02 -0.18279753421E-01  0.13316134887E-01  0.10211985279E+01  0.10209454998E+01 0.  0.
     999903    2    3    3    0    0 -0.59171682872E-01  0.10852339975E+00 -0.31504787379E-01  0.12916528330E+00  0.20310155958E-01 0.  0.
         14    1    1    2    0    0  0.22915037601E-02  0.18279753421E-01 -0.13316134887E-01  0.22731472081E-01  0.00000000000E+00 0. -1.
     999901    1    3    3    0    0  0.56880179112E-01 -0.12680315317E+00  0.44820922266E-01  0.89203324462E+00  0.88000000000E+00 0.  1.
        -11    1    4    4    0    0 -0.26974296328E-01  0.70210931567E-01 -0.18752614070E-01  0.77518444446E-01  0.51100000000E-03 0. -1.
         11    1    4    4    0    0 -0.32197386544E-01  0.38312468185E-01 -0.12752173309E-01  0.51646838856E-01  0.51100000000E-03 0.  1.
</event>
<event>
 8    1  0.1044719E+005  0.1043930E+01  0.7957747E-01            NaN
         13   -1    0    0    0    0  0.00000000000E+00  0.00000000000E+00  0.74505805969E-08  0.10566000000E+00  0.10566000000E+00 0.  1.
     999900   -1    0    0    0    0 -0.00000000000E+00 -0.00000000000E+00 -0.74505805969E-08  0.93827000000E+00  0.93827000000E+00 0. -1.
     999902    2    1    2    0    0 -0.28694924295E-02 -0.16446409264E-01  0.16854171724E-01  0.10202069844E+01  0.10199311298E+01 0.  0.
     999903    2    3    3    0    0 -0.89295707784E-01  0.20263398483E-01  0.92842907362E-01  0.13195511211E+00  0.20199441041E-01 0.  0.
         14    1    1    2    0    0  0.28694924295E-02  0.16446409264E-01 -0.16854171724E-01  0.23723015596E-01  0.00000000000E+00 0. -1.
     999901    1    3    3    0    0  0.86426215354E-01 -0.36709807747E-01 -0.75988735638E-01  0.88825187229E+00  0.88000000000E+00 0. -1.
        -11    1    4    4    0    0 -0.58993792741E-01  0.14459045839E-01  0.74245742159E-01  0.95927175181E-01  0.51100000000E-03 0. -1.
         11    1    4    4    0    0 -0.30301915043E-01  0.58043526443E-02  0.18597165203E-01  0.36027936931E-01  0.51100000000E-03 0.  1.
</event>
<event>
 8    1  0.1044719E+005  0.1043930E+01  0.7957747E-01            NaN
         13   -1    0    0    0    0  0.00000000000E+00  0.00000000000E+00  0.74505805969E-08  0.10566000000E+00  0.10566000000E+00 0.  1.
     999900   -1    0    0    0    0 -0.00000000000E+00 -0.00000000000E+00 -0.74505805969E-08  0.93827000000E+00  0.93827000000E+00 0.  1.
     999902    2    1    2    0    0  0.14066132864E-01 -0.17935568392E-01 -0.75351936090E-02  0.10199233374E+01  0.10196407673E+01 0.  0.
     999903    2    3    3    0    0  0.88078419761E-02  0.95759880699E-01  0.82992258182E-01  0.12798750769E+00  0.15670174668E-01 0.  0.
         14    1    1    2    0    0 -0.14066132864E-01  0.17935568392E-01  0.75351936090E-02  0.24006662617E-01  0.00000000000E+00 0.  1.
     999901    1    3    3    0    0  0.52582908877E-02 -0.11369544909E+00 -0.90527451791E-01  0.89193582970E+00  0.88000000000E+00 0.  1.
        -11    1    4    4    0    0  0.43624903466E-02  0.51077291376E-01  0.54408539199E-01  0.74756078516E-01  0.51100000000E-03 0.  1.
         11    1    4    4    0    0  0.44453516295E-02  0.44682589324E-01  0.28583718983E-01  0.53231429172E-01  0.51100000000E-03 0. -1.
</event>
<event>
 8    1  0.1044719E+005  0.1043930E+01  0.7957747E-01            NaN
         13   -1    0    0    0    0  0.00000000000E+00  0.00000000000E+00  0.74505805969E-08  0.10566000000E+00  0.10566000000E+00 0.  1.
     999900   -1    0    0    0    0 -0.00000000000E+00 -0.00000000000E+00 -0.74505805969E-08  0.93827000000E+00  0.93827000000E+00 0.  1.
     999902    2    1    2    0    0  0.14906347281E-01 -0.17137182182E-01  0.55487175504E-02  0.10205490148E+01  0.10202811481E+01 0.  0.
     999903    2    3    3    0    0  0.95300377031E-01  0.32301239335E-01 -0.81788113866E-01  0.13120370523E+00  0.19989616564E-01 0.  0.
         14    1    1    2    0    0 -0.14906347281E-01  0.17137182182E-01 -0.55487175504E-02  0.23380985198E-01  0.00000000000E+00 0.  1.
     999901    1    3    3    0    0 -0.80394029751E-01 -0.49438421517E-01  0.87336831417E-01  0.88934530958E+00  0.88000000000E+00 0.  1.
        -11    1    4    4    0    0  0.18051308786E-01  0.14252232429E-01 -0.22365903252E-01  0.32085364691E-01  0.51100000000E-03 0.  1.
         11    1    4    4    0    0  0.77249068246E-01  0.18049006906E-01 -0.59422210614E-01  0.99118340535E-01  0.51100000000E-03 0. -1.
</event>
<event>
 8    1  0.1044719E+005  0.1043930E+01  0.7957747E-01            NaN
         13   -1    0    0    0    0  0.00000000000E+00  0.00000000000E+00  0.74505805969E-08  0.10566000000E+00  0.10566000000E+00 0.  1.
     999900   -1    0    0    0    0 -0.00000000000E+00 -0.00000000000E+00 -0.74505805969E-08  0.93827000000E+00  0.93827000000E+00 0. -1.
     999902    2    1    2    0    0  0.54030705759E-02  0.19774341813E-01 -0.10917294791E-01  0.10207049038E+01  0.10204406380E+01 0.  0.
     999903    2    3    3    0    0 -0.47744138095E-01 -0.10916171719E+00  0.42593415218E-01  0.12811735678E+00  0.20101613465E-01 0.  0.
         14    1    1    2    0    0 -0.54030705759E-02 -0.19774341813E-01  0.10917294791E-01  0.23225096153E-01  0.00000000000E+00 0.  1.
     999901    1    3    3    0    0  0.53147208670E-01  0.12893605901E+00 -0.53510710009E-01  0.89258754707E+00  0.88000000000E+00 0. -1.
        -11    1    4    4    0    0 -0.22161803883E-01 -0.63656836582E-01  0.32950058923E-01  0.75028700501E-01  0.51100000000E-03 0.  1.
         11    1    4    4    0    0 -0.25582334212E-01 -0.45504880613E-01  0.96433562953E-02  0.53088656274E-01  0.51100000000E-03 0. -1.
</event>
<event>
 8    1  0.1044719E+005  0.1043930E+01  0.7957747E-01            NaN
         13   -1    0    0    0    0  0.00000000000E+00  0.00000000000E+00  0.74505805969E-08  0.10566000000E+00  0.10566000000E+00 0. -1.
     999900   -1    0    0    0    0 -0.00000000000E+00 -0.00000000000E+00 -0.74505805969E-08  0.93827000000E+00  0.93827000000E+00 0.  1.
     999902    2    1    2    0    0 -0.11487582818E-01 -0.69343215871E-02  0.21068926374E-01  0.10189510282E+01  0.10186448099E+01 0.  0.
     999903    2    3    3    0    0 -0.91455001774E-01  0.88864857720E-01 -0.10149628958E-01  0.12959909050E+00  0.20782901703E-01 0.  0.
         14    1    1    2    0    0  0.11487582818E-01  0.69343215871E-02 -0.21068926374E-01  0.24978971825E-01  0.00000000000E+00 0.  1.
     999901    1    3    3    0    0  0.79967418956E-01 -0.95799179307E-01  0.31218555332E-01  0.88935193768E+00  0.88000000000E+00 0.  1.
        -11    1    4    4    0    0 -0.48434492091E-01  0.57807412931E-01 -0.12681176302E-01  0.76476600129E-01  0.51100000000E-03 0. -1.
         11    1    4    4    0    0 -0.43020509683E-01  0.31057444789E-01  0.25315473437E-02  0.53122490371E-01  0.51100000000E-03 0.  1.
</event>
<event>
 8    1  0.1044719E+005  0.1043930E+01  0.7957747E-01            NaN
         13   -1    0    0    0    0  0.00000000000E+00  0.00000000000E+00  0.74505805969E-08  0.10566000000E+00  0.10566000000E+00 0. -1.
     999900   -1    0    0    0    0 -0.00000000000E+00 -0.00000000000E+00 -0.74505805969E-08  0.93827000000E+00  0.93827000000E+00 0. -1.
     999902    2    1    2    0    0  0.75790292101E-02 -0.15453886359E-01  0.18014559012E-01  0.10190143699E+01  0.10187097219E+01 0.  0.
     999903    2    3    3    0    0  0.25687162249E-01  0.11387786278E+00 -0.47521564631E-01  0.12696639510E+00  0.15302563332E-01 0.  0.
         14    1    1    2    0    0 -0.75790292101E-02  0.15453886359E-01 -0.18014559012E-01  0.24915630110E-01  0.00000000000E+00 0. -1.
     999901    1    3    3    0    0 -0.18108133039E-01 -0.12933174914E+00  0.65536123643E-01  0.89204797479E+00  0.88000000000E+00 0.  1.
        -11    1    4    4    0    0  0.46414696343E-02  0.54835804806E-01 -0.21034405858E-01  0.58917027080E-01  0.51100000000E-03 0.  1.
         11    1    4    4    0    0  0.21045692615E-01  0.59042057976E-01 -0.26487158773E-01  0.68049368024E-01  0.51100000000E-03 0. -1.
</event>
<event>
 7    1  0.1044719E+005  0.1043930E+01  0.7957747E-01            NaN
         13   -1    0    0    0    0  0.00000000000E+00  0.00000000000E+00  0.74505805969E-08  0.10566000000E+00  0.10566000000E+00 0.  1.
     999900   -1    0    0    0    0 -0.00000000000E+00 -0.00000000000E+00 -0.74505805969E-08  0.93827000000E+00  0.93827000000E+00 0. -1.
     999903    2    1    2    0    0 -0.26868060768E-01  0.68908857976E-01  0.89032547795E-01  0.11745556398E+00  0.19967261841E-01 0.  0.
         14    1    1    2    0    0  0.12681906113E-01 -0.51189256329E-02 -0.40467556296E-01  0.42716007010E-01  0.00000000000E+00 0. -1.
     999901    1    1    2    0    0  0.14186154655E-01 -0.63789932343E-01 -0.48564991499E-01  0.88375842901E+00  0.88000000000E+00 0. -1.
        -11    1    3    3    0    0 -0.60256539591E-02  0.42654267887E-01  0.49551281377E-01  0.65660381370E-01  0.51100000000E-03 0. -1.
         11    1    3    3    0    0 -0.20842406809E-01  0.26254590089E-01  0.39481266418E-01  0.51795182607E-01  0.51100000000E-03 0.  1.
</event>
<event>
 8    1  0.1044719E+005  0.1043930E+01  0.7957747E-01            NaN
         13   -1    0    0    0    0  0.00000000000E+00  0.00000000000E+00  0.74505805969E-08  0.10566000000E+00  0.10566000000E+00 0.  1.
     999900   -1    0    0    0    0 -0.00000000000E+00 -0.00000000000E+00 -0.74505805969E-08  0.93827000000E+00  0.93827000000E+00 0. -1.
     999902    2    1    2    0    0  0.12268586065E-01  0.53001524783E-03 -0.19349853177E-01  0.10210124099E+01  0.10207551739E+01 0.  0.
     999903    2    3    3    0    0 -0.97452279065E-01  0.84456007000E-01 -0.19802050346E-02  0.13006687560E+00  0.16843607146E-01 0.  0.
         14    1    1    2    0    0 -0.12268586065E-01 -0.53001524783E-03  0.19349853177E-01  0.22917590147E-01  0.00000000000E+00 0.  1.
     999901    1    3    3    0    0  0.10972086513E+00 -0.83925991753E-01 -0.17369648142E-01  0.89094553426E+00  0.88000000000E+00 0. -1.
        -11    1    4    4    0    0 -0.90062411251E-01  0.75718864253E-01 -0.62805069396E-02  0.11783161805E+00  0.51100000000E-03 0. -1.
         11    1    4    4    0    0 -0.73898678141E-02  0.87371427476E-02  0.43003019049E-02  0.12235257544E-01  0.51100000000E-03 0.  1.
</event>
<event>
 8    1  0.1044719E+005  0.1043930E+01  0.7957747E-01            NaN
         13   -1    0    0    0    0  0.00000000000E+00  0.00000000000E+00  0.74505805969E-08  0.10566000000E+00  0.10566000000E+00 0. -1.
     999900   -1    0    0    0    0 -0.00000000000E+00 -0.00000000000E+00 -0.74505805969E-08  0.93827000000E+00  0.93827000000E+00 0.  1.
     999902    2    1    2    0    0  0.11777497417E-01 -0.14263656144E-01 -0.15809551670E-01  0.10195968281E+01  0.10193064253E+01 0.  0.
     999903    2    3    3    0    0  0.19180678151E-01 -0.66261804178E-01  0.10902716942E+00  0.12923576569E+00  0.75122802025E-02 0.  0.
         14    1    1    2    0    0 -0.11777497417E-01  0.14263656144E-01  0.15809551670E-01  0.24333171926E-01  0.00000000000E+00 0. -1.
     999901    1    3    3    0    0 -0.74031807340E-02  0.51998148035E-01 -0.12483672109E+00  0.89036106239E+00  0.88000000000E+00 0.  1.
        -11    1    4    4    0    0  0.12071548833E-01 -0.29055907078E-01  0.47304871202E-01  0.56815314729E-01  0.51100000000E-03 0. -1.
         11    1    4    4    0    0  0.71091293176E-02 -0.37205897100E-01  0.61722298216E-01  0.72420450957E-01  0.51100000000E-03 0.  1.
</event>
<event>
 8    1  0.1044719E+005  0.1043930E+01  0.7957747E-01            NaN
         13   -1    0    0    0    0  0.00000000000E+00  0.00000000000E+00  0.74505805969E-08  0.10566000000E+00  0.10566000000E+00 0.  1.
     999900   -1    0    0    0    0 -0.00000000000E+00 -0.00000000000E+00 -0.74505805969E-08  0.93827000000E+00  0.93827000000E+00 0.  1.
     999902    2    1    2    0    0  0.90888227178E-02  0.19233241482E-01  0.87361689578E-02  0.10209333715E+01  0.10206743379E+01 0.  0.
     999903    2    3    3    0    0  0.18067726381E-01  0.12989676075E+00  0.16499231050E-01  0.13392305565E+00  0.21530188584E-01 0.  0.
         14    1    1    2    0    0 -0.90888227178E-02 -0.19233241482E-01 -0.87361689578E-02  0.22996628543E-01  0.00000000000E+00 0. -1.
     999901    1    3    3    0    0 -0.89789036633E-02 -0.11066351927E+00 -0.77630620919E-02  0.88701031580E+00  0.88000000000E+00 0. -1.
        -11    1    4    4    0    0  0.10819544290E-01  0.29688511825E-01 -0.23843524020E-02  0.31692531145E-01  0.51100000000E-03 0. -1.
         11    1    4    4    0    0  0.72481820911E-02  0.10020824893E+00  0.18883583452E-01  0.10223052451E+00  0.51100000000E-03 0.  1.
</event>
<event>
 8    1  0.1044719E+005  0.1043930E+01  0.7957747E-01            NaN
         13   -1    0    0    0    0  0.00000000000E+00  0.00000000000E+00  0.74505805969E-08  0.10566000000E+00  0.10566000000E+00 0.  1.
     999900   -1    0    0    0    0 -0.00000000000E+00 -0.00000000000E+00 -0.74505805969E-08  0.93827000000E+00  0.93827000000E+00 0. -1.
     999902    2    1    2    0    0 -0.24425512861E-01  0.18138362850E-02  0.13989522845E-02  0.10193973127E+01  0.10191020696E+01 0.  0.
     999903    2    3    3    0    0 -0.13114339016E+00  0.57592705825E-02  0.87393641281E-02  0.13291090361E+00  0.18899043202E-01 0.  0.
         14    1    1    2    0    0  0.24425512861E-01 -0.18138362850E-02 -0.13989522845E-02  0.24532687339E-01  0.00000000000E+00 0. -1.
     999901    1    3    3    0    0  0.10671787729E+00 -0.39454342975E-02 -0.73404118436E-02  0.88648640905E+00  0.88000000000E+00 0.  1.
        -11    1    4    4    0    0 -0.90182054143E-01 -0.55958429132E-03 -0.15705400561E-02  0.90198912084E-01  0.51100000000E-03 0. -1.
         11    1    4    4    0    0 -0.40961336012E-01  0.63188548738E-02  0.10309904184E-01  0.42711991526E-01  0.51100000000E-03 0.  1.
</event>
<event>
 8    1  0.1044719E+005  0.1043930E+01  0.7957747E-01            NaN
         13   -1    0    0    0    0  0.00000000000E+00  0.00000000000E+00  0.74505805969E-08  0.10566000000E+00  0.10566000000E+00 0. -1.
     999900   -1    0    0    0    0 -0.00000000000E+00 -0.00000000000E+00 -0.74505805969E-08  0.93827000000E+00  0.93827000000E+00 0. -1.
     999902    2    1    2    0    0  0.77883940421E-03 -0.19249607678E-01  0.14065088558E-01  0.10200766836E+01  0.10197977543E+01 0.  0.
     999903    2    3    3    0    0  0.10862738550E+00  0.38378560947E-01  0.57525835615E-01  0.13055931377E+00  0.21533458360E-01 0.  0.
         14    1    1    2    0    0 -0.77883940421E-03  0.19249607678E-01 -0.14065088558E-01  0.23853316388E-01  0.00000000000E+00 0.  1.
     999901    1    3    3    0    0 -0.10784854609E+00 -0.57628168625E-01 -0.43460747057E-01  0.88951736984E+00  0.88000000000E+00 0. -1.
        -11    1    4    4    0    0  0.66644117618E-01  0.13002893488E-01  0.37509612670E-01  0.77574131100E-01  0.51100000000E-03 0. -1.
         11    1    4    4    0    0  0.41983267879E-01  0.25375667459E-01  0.20016222944E-01  0.52985182672E-01  0.51100000000E-03 0.  1.
</event>
<event>
 8    1  0.1044719E+005  0.1043930E+01  0.7957747E-01            NaN
         13   -1    0    0    0    0  0.00000000000E+00  0.00000000000E+00  0.74505805969E-08  0.10566000000E+00  0.10566000000E+00 0. -1.
     999900   -1    0    0    0    0 -0.00000000000E+00 -0.00000000000E+00 -0.74505805969E-08  0.93827000000E+00  0.93827000000E+00 0. -1.
     999902    2    1    2    0    0  0.75749471359E-02  0.16388327925E-02  0.17780372858E-01  0.10245339371E+01  0.10243503214E+01 0.  0.
     999903    2    3    3    0    0  0.72195881256E-01 -0.18259486912E-01 -0.10624485880E+00  0.13326850731E+00  0.30444554275E-01 0.  0.
         14    1    1    2    0    0 -0.75749471359E-02 -0.16388327925E-02 -0.17780372858E-01  0.19396062900E-01  0.00000000000E+00 0.  1.
     999901    1    3    3    0    0 -0.64620934121E-01  0.19898319704E-01  0.12402523166E+00  0.89126542979E+00  0.88000000000E+00 0.  1.
        -11    1    4    4    0    0  0.26107593283E-02 -0.55401132423E-02 -0.66586581311E-03  0.61817001941E-02  0.51100000000E-03 0. -1.
         11    1    4    4    0    0  0.69585121928E-01 -0.12719373669E-01 -0.10557899299E+00  0.12708680711E+00  0.51100000000E-03 0.  1.
</event>
<event>
 8    1  0.1044719E+005  0.1043930E+01  0.7957747E-01            NaN
         13   -1    0    0    0    0  0.00000000000E+00  0.00000000000E+00  0.74505805969E-08  0.10566000000E+00  0.10566000000E+00 0.  1.
     999900   -1    0    0    0    0 -0.00000000000E+00 -0.00000000000E+00 -0.74505805969E-08  0.93827000000E+00  0.93827000000E+00 0.  1.
     999902    2    1    2    0    0 -0.17840148582E-01 -0.27573250098E-02 -0.15638631032E-01  0.10200461033E+01  0.10197664499E+01 0.  0.
     999903    2    3    3    0    0  0.25465642798E-01 -0.10563044701E+00  0.67320654739E-01  0.12912494295E+00  0.18300001114E-01 0.  0.
         14    1    1    2    0    0  0.17840148582E-01  0.27573250098E-02  0.15638631032E-01  0.23883896734E-01  0.00000000000E+00 0.  1.
     999901    1    3    3    0    0 -0.43305791379E-01  0.10287312200E+00 -0.82959285771E-01  0.89092116031E+00  0.88000000000E+00 0.  1.
        -11    1    4    4    0    0  0.27105728576E-01 -0.81983411669E-01  0.55333393366E-01  0.10255752460E+00  0.51100000000E-03 0.  1.
         11    1    4    4    0    0 -0.16400857783E-02 -0.23647035337E-01  0.11987261372E-01  0.26567418350E-01  0.51100000000E-03 0. -1.
</event>
<event>
 8    1  0.1044719E+005  0.1043930E+01  0.7957747E-01            NaN
         13   -1    0    0    0    0  0.00000000000E+00  0.00000000000E+00  0.74505805969E-08  0.10566000000E+00  0.10566000000E+00 0. -1.
     999900   -1    0    0    0    0 -0.00000000000E+00 -0.00000000000E+00 -0.74505805969E-08  0.93827000000E+00  0.93827000000E+00 0.  1.
     999902    2    1    2    0    0 -0.20636602661E-01  0.15722072363E-02 -0.14082007024E-01  0.10188971391E+01  0.10185895817E+01 0.  0.
     999903    2    3    3    0    0 -0.76620061079E-01  0.16983861082E-01 -0.10475034497E+00  0.13233500689E+00  0.19514968108E-01 0.  0.
         14    1    1    2    0    0  0.20636602661E-01 -0.15722072363E-02  0.14082007024E-01  0.25032860939E-01  0.00000000000E+00 0. -1.
     999901    1    3    3    0    0  0.55983458418E-01 -0.15411653845E-01  0.90668337948E-01  0.88656213217E+00  0.88000000000E+00 0. -1.
        -11    1    4    4    0    0 -0.65604753817E-01  0.15340988439E-01 -0.76367277366E-01  0.10184081609E+00  0.51100000000E-03 0.  1.
         11    1    4    4    0    0 -0.11015307262E-01  0.16428726425E-02 -0.28383067606E-01  0.30494190796E-01  0.51100000000E-03 0. -1.
</event>
<event>
 8    1  0.1044719E+005  0.1043930E+01  0.7957747E-01            NaN
         13   -1    0    0    0    0  0.00000000000E+00  0.00000000000E+00  0.74505805969E-08  0.10566000000E+00  0.10566000000E+00 0. -1.
     999900   -1    0    0    0    0 -0.00000000000E+00 -0.00000000000E+00 -0.74505805969E-08  0.93827000000E+00  0.93827000000E+00 0. -1.
     999902    2    1    2    0    0  0.20001241955E-01 -0.24002618482E-03 -0.11032373488E-01  0.10210866080E+01  0.10208310539E+01 0.  0.
     999903    2    3    3    0    0  0.88138234966E-01  0.88716740270E-01  0.39173050420E-01  0.13256168394E+00  0.19976578891E-01 0.  0.
         14    1    1    2    0    0 -0.20001241955E-01  0.24002618482E-03  0.11032373488E-01  0.22843391979E-01  0.00000000000E+00 0. -1.
     999901    1    3    3    0    0 -0.68136993010E-01 -0.88956766455E-01 -0.50205423908E-01  0.88852492408E+00  0.88000000000E+00 0.  1.
        -11    1    4    4    0    0  0.34240227410E-01  0.39636614636E-01  0.68771855111E-02  0.52830021716E-01  0.51100000000E-03 0.  1.
         11    1    4    4    0    0  0.53898007555E-01  0.49080125633E-01  0.32295864909E-01  0.79731662229E-01  0.51100000000E-03 0. -1.
</event>
<event>
 8    1  0.1044719E+005  0.1043930E+01  0.7957747E-01            NaN
         13   -1    0    0    0    0  0.00000000000E+00  0.00000000000E+00  0.74505805969E-08  0.10566000000E+00  0.10566000000E+00 0. -1.
     999900   -1    0    0    0    0 -0.00000000000E+00 -0.00000000000E+00 -0.74505805969E-08  0.93827000000E+00  0.93827000000E+00 0.  1.
     999902    2    1    2    0    0 -0.85157066168E-02 -0.19937189992E-02  0.22027102046E-01  0.10202300971E+01  0.10199547860E+01 0.  0.
     999903    2    3    3    0    0 -0.10008476887E+00  0.29165971190E-01  0.80352293666E-01  0.13301104439E+00  0.19178946703E-01 0.  0.
         14    1    1    2    0    0  0.85157066168E-02  0.19937189992E-02 -0.22027102046E-01  0.23699902936E-01  0.00000000000E+00 0. -1.
     999901    1    3    3    0    0  0.91569062252E-01 -0.31159690189E-01 -0.58325191620E-01  0.88721905268E+00  0.88000000000E+00 0.  1.
        -11    1    4    4    0    0 -0.47483139323E-01  0.19057336658E-01  0.29042093447E-01  0.58834810386E-01  0.51100000000E-03 0.  1.
         11    1    4    4    0    0 -0.52601629546E-01  0.10108634532E-01  0.51310200219E-01  0.74176234001E-01  0.51100000000E-03 0. -1.
</event>
<event>
 8    1  0.1044719E+005  0.1043930E+01  0.7957747E-01            NaN
         13   -1    0    0    0    0  0.00000000000E+00  0.00000000000E+00  0.74505805969E-08  0.10566000000E+00  0.10566000000E+00 0.  1.
     999900   -1    0    0    0    0 -0.00000000000E+00 -0.00000000000E+00 -0.74505805969E-08  0.93827000000E+00  0.93827000000E+00 0. -1.
     999902    2    1    2    0    0  0.57149008015E-02  0.49678117279E-02 -0.21562149833E-01  0.10210768700E+01  0.10208210955E+01 0.  0.
     999903    2    3    3    0    0  0.42971927202E-01 -0.43463947586E-01  0.11167685829E+00  0.12895224049E+00  0.20524579934E-01 0.  0.
         14    1    1    2    0    0 -0.57149008015E-02 -0.49678117279E-02  0.21562149833E-01  0.22853129982E-01  0.00000000000E+00 0.  1.
     999901    1    3    3    0    0 -0.37257026401E-01  0.48431759314E-01 -0.13323900813E+00  0.89212462953E+00  0.88000000000E+00 0. -1.
        -11    1    4    4    0    0  0.23730350449E-01 -0.15881756585E-01  0.34652927108E-01  0.44904857230E-01  0.51100000000E-03 0.  1.
         11    1    4    4    0    0  0.19241576753E-01 -0.27582191000E-01  0.77023931186E-01  0.84047383259E-01  0.51100000000E-03 0. -1.
</event>
<event>
 8    1  0.1044719E+005  0.1043930E+01  0.7957747E-01            NaN
         13   -1    0    0    0    0  0.00000000000E+00  0.00000000000E+00  0.74505805969E-08  0.10566000000E+00  0.10566000000E+00 0.  1.
     999900   -1    0    0    0    0 -0.00000000000E+00 -0.00000000000E+00 -0.74505805969E-08  0.93827000000E+00  0.93827000000E+00 0.  1.
     999902    2    1    2    0    0 -0.36158970397E-02 -0.81739447148E-02  0.22399975006E-01  0.10198126419E+01  0.10195274285E+01 0.  0.
     999903    2    3    3    0    0  0.11884962403E+00 -0.43797191177E-01 -0.19763595093E-01  0.12961907516E+00  0.19159276255E-01 0.  0.
         14    1    1    2    0    0  0.36158970397E-02  0.81739447148E-02 -0.22399975006E-01  0.24117358144E-01  0.00000000000E+00 0. -1.
     999901    1    3    3    0    0 -0.12246552107E+00  0.35623246463E-01  0.42163570098E-01  0.89019356669E+00  0.88000000000E+00 0.  1.
        -11    1    4    4    0    0  0.59329618370E-01 -0.13263537534E-01 -0.14589880436E-01  0.62522402193E-01  0.51100000000E-03 0. -1.
         11    1    4    4    0    0  0.59520005664E-01 -0.30533653643E-01 -0.51737146564E-02  0.67096672968E-01  0.51100000000E-03 0.  1.
</event>
<event>
 8    1  0.1044719E+005  0.1043930E+01  0.7957747E-01            NaN
         13   -1    0    0    0    0  0.00000000000E+00  0.00000000000E+00  0.74505805969E-08  0.10566000000E+00  0.10566000000E+00 0. -1.
     999900   -1    0    0    0    0 -0.00000000000E+00 -0.00000000000E+00 -0.74505805969E-08  0.93827000000E+00  0.93827000000E+00 0. -1.
     999902    2    1    2    0    0 -0.12520222460E-01 -0.13924747398E-01  0.12722352169E-01  0.10212912543E+01  0.10210403094E+01 0.  0.
     999903    2    3    3    0    0 -0.23146031931E-01  0.65828105926E-01 -0.10724780769E+00  0.12951422800E+00  0.20068997896E-01 0.  0.
         14    1    1    2    0    0  0.12520222460E-01  0.13924747398E-01 -0.12722352169E-01  0.22638745664E-01  0.00000000000E+00 0.  1.
     999901    1    3    3    0    0  0.10625809471E-01 -0.79752853323E-01  0.11997015986E+00  0.89177702633E+00  0.88000000000E+00 0.  1.
        -11    1    4    4    0    0 -0.23920994389E-02  0.36891657549E-01 -0.56204158966E-01  0.67274699126E-01  0.51100000000E-03 0. -1.
         11    1    4    4    0    0 -0.20753932492E-01  0.28936448377E-01 -0.51043648725E-01  0.62239528876E-01  0.51100000000E-03 0.  1.
</event>
<event>
 7    1  0.1044719E+005  0.1043930E+01  0.7957747E-01            NaN
         13   -1    0    0    0    0  0.00000000000E+00  0.00000000000E+00  0.74505805969E-08  0.10566000000E+00  0.10566000000E+00 0. -1.
     999900   -1    0    0    0    0 -0.00000000000E+00 -0.00000000000E+00 -0.74505805969E-08  0.93827000000E+00  0.93827000000E+00 0.  1.
     999903    2    1    2    0    0 -0.68851218244E-01 -0.24059370904E-01  0.83547068487E-01  0.11280869983E+00  0.20648160292E-01 0.  0.
         14    1    1    2    0    0 -0.36069391123E-01 -0.21946533949E-02 -0.22132644995E-01  0.42375363762E-01  0.00000000000E+00 0. -1.
     999901    1    1    2    0    0  0.10492060937E+00  0.26254024299E-01 -0.61414423492E-01  0.88874593640E+00  0.88000000000E+00 0.  1.
        -11    1    3    3    0    0 -0.48937961304E-01 -0.15013224257E-01  0.71183093332E-01  0.87679044569E-01  0.51100000000E-03 0. -1.
         11    1    3    3    0    0 -0.19913256939E-01 -0.90461466472E-02  0.12363975156E-01  0.25129655265E-01  0.51100000000E-03 0.  1.
</event>
<event>
 8    1  0.1044719E+005  0.1043930E+01  0.7957747E-01            NaN
         13   -1    0    0    0    0  0.00000000000E+00  0.00000000000E+00  0.74505805969E-08  0.10566000000E+00  0.10566000000E+00 0. -1.
     999900   -1    0    0    0    0 -0.00000000000E+00 -0.00000000000E+00 -0.74505805969E-08  0.93827000000E+00  0.93827000000E+00 0.  1.
     999902    2    1    2    0    0 -0.25735471867E-02  0.17901669002E-02  0.23851242036E-01  0.10198736165E+01  0.10195898607E+01 0.  0.
     999903    2    3    3    0    0  0.99697151436E-01  0.36030078907E-01 -0.70051279180E-01  0.12833037529E+00  0.17994858082E-01 0.  0.
         14    1    1    2    0    0  0.25735471867E-02 -0.17901669002E-02 -0.23851242036E-01  0.24056383546E-01  0.00000000000E+00 0.  1.
     999901    1    3    3    0    0 -0.10227069862E+00 -0.34239912007E-01  0.93902521216E-01  0.89154324116E+00  0.88000000000E+00 0.  1.
        -11    1    4    4    0    0  0.60612592883E-01  0.15874521715E-01 -0.49159929593E-01  0.79641990522E-01  0.51100000000E-03 0.  1.
         11    1    4    4    0    0  0.39084558553E-01  0.20155557191E-01 -0.20891349587E-01  0.48688384771E-01  0.51100000000E-03 0. -1.
</event>
<event>
 7    1  0.1044719E+005  0.1043930E+01  0.7957747E-01            NaN
         13   -1    0    0    0    0  0.00000000000E+00  0.00000000000E+00  0.74505805969E-08  0.10566000000E+00  0.10566000000E+00 0. -1.
     999900   -1    0    0    0    0 -0.00000000000E+00 -0.00000000000E+00 -0.74505805969E-08  0.93827000000E+00  0.93827000000E+00 0.  1.
     999903    2    1    2    0    0 -0.22229841186E-01  0.73126173932E-01  0.73921994824E-01  0.10827250895E+00  0.20417436736E-01 0.  0.
         14    1    1    2    0    0 -0.37884072405E-01 -0.32073944525E-01 -0.68441301819E-02  0.50107713750E-01  0.00000000000E+00 0.  1.
     999901    1    1    2    0    0  0.60113913591E-01 -0.41052229407E-01 -0.67077864643E-01  0.88554977730E+00  0.88000000000E+00 0.  1.
        -11    1    3    3    0    0  0.15955832198E-02  0.23145700939E-01  0.16302142430E-01  0.28360012810E-01  0.51100000000E-03 0. -1.
         11    1    3    3    0    0 -0.23825424406E-01  0.49980472993E-01  0.57619852394E-01  0.79912496142E-01  0.51100000000E-03 0.  1.
</event>
<event>
 8    1  0.1044719E+005  0.1043930E+01  0.7957747E-01            NaN
         13   -1    0    0    0    0  0.00000000000E+00  0.00000000000E+00  0.74505805969E-08  0.10566000000E+00  0.10566000000E+00 0.  1.
     999900   -1    0    0    0    0 -0.00000000000E+00 -0.00000000000E+00 -0.74505805969E-08  0.93827000000E+00  0.93827000000E+00 0. -1.
     999902    2    1    2    0    0  0.48825502532E-02 -0.12848846182E-01  0.18063187891E-01  0.10212317423E+01  0.10209794614E+01 0.  0.
     999903    2    3    3    0    0 -0.11350572399E+00 -0.24320817476E-01 -0.55320095974E-01  0.13020284494E+00  0.20430767732E-01 0.  0.
         14    1    1    2    0    0 -0.48825502532E-02  0.12848846182E-01 -0.18063187891E-01  0.22698257686E-01  0.00000000000E+00 0. -1.
     999901    1    3    3    0    0  0.11838827425E+00  0.11471971293E-01  0.73383283866E-01  0.89102889737E+00  0.88000000000E+00 0.  1.
        -11    1    4    4    0    0 -0.78154728719E-01 -0.26276558951E-01 -0.38331609342E-01  0.90929602260E-01  0.51100000000E-03 0. -1.
         11    1    4    4    0    0 -0.35350995274E-01  0.19557414750E-02 -0.16988486632E-01  0.39273242680E-01  0.51100000000E-03 0.  1.
</event>
<event>
 8    1  0.1044719E+005  0.1043930E+01  0.7957747E-01            NaN
         13   -1    0    0    0    0  0.00000000000E+00  0.00000000000E+00  0.74505805969E-08  0.10566000000E+00  0.10566000000E+00 0.  1.
     999900   -1    0    0    0    0 -0.00000000000E+00 -0.00000000000E+00 -0.74505805969E-08  0.93827000000E+00  0.93827000000E+00 0. -1.
     999902    2    1    2    0    0 -0.14363056228E-01 -0.18291748323E-01 -0.33491257023E-02  0.10204331474E+01  0.10201625881E+01 0.  0.
     999903    2    3    3    0    0  0.47414232705E-01 -0.10647178060E+00  0.58892445875E-01  0.13168899703E+00  0.17009474691E-01 0.  0.
         14    1    1    2    0    0  0.14363056228E-01  0.18291748323E-01  0.33491257023E-02  0.23496852638E-01  0.00000000000E+00 0.  1.
     999901    1    3    3    0    0 -0.61777288932E-01  0.88180032281E-01 -0.62241571577E-01  0.88874415033E+00  0.88000000000E+00 0. -1.
        -11    1    4    4    0    0  0.11708117321E-01 -0.24050866306E-01  0.21785027913E-01  0.34501778844E-01  0.51100000000E-03 0.  1.
         11    1    4    4    0    0  0.35706115384E-01 -0.82420914298E-01  0.37107417962E-01  0.97187218184E-01  0.51100000000E-03 0. -1.
</event>
<event>
 8    1  0.1044719E+005  0.1043930E+01  0.7957747E-01            NaN
         13   -1    0    0    0    0  0.00000000000E+00  0.00000000000E+00  0.74505805969E-08  0.10566000000E+00  0.10566000000E+00 0. -1.
     999900   -1    0    0    0    0 -0.00000000000E+00 -0.00000000000E+00 -0.74505805969E-08  0.93827000000E+00  0.93827000000E+00 0.  1.
     999902    2    1    2    0    0 -0.64054827002E-02  0.35943734629E-03  0.22653558195E-01  0.10203855080E+01  0.10201138377E+01 0.  0.
     999903    2    3    3    0    0  0.14453919629E-01 -0.11955678868E+00  0.49112525552E-01  0.13161383155E+00  0.20184622302E-01 0.  0.
         14    1    1    2    0    0  0.64054827002E-02 -0.35943734629E-03 -0.22653558195E-01  0.23544491982E-01  0.00000000000E+00 0.  1.
     999901    1    3    3    0    0 -0.20859402329E-01  0.11991622603E+00 -0.26458967357E-01  0.88877167646E+00  0.88000000000E+00 0.  1.
        -11    1    4    4    0    0  0.19518220902E-01 -0.99023761644E-01  0.41549627774E-01  0.10914806002E+00  0.51100000000E-03 0. -1.
         11    1    4    4    0    0 -0.50643012726E-02 -0.20533027039E-01  0.75628977774E-02  0.22465771532E-01  0.51100000000E-03 0.  1.
</event>
<event>
 8    1  0.1044719E+005  0.1043930E+01  0.7957747E-01            NaN
         13   -1    0    0    0    0  0.00000000000E+00  0.00000000000E+00  0.74505805969E-08  0.10566000000E+00  0.10566000000E+00 0. -1.
     999900   -1    0    0    0    0 -0.00000000000E+00 -0.00000000000E+00 -0.74505805969E-08  0.93827000000E+00  0.93827000000E+00 0. -1.
     999902    2    1    2    0    0 -0.10907801351E-01 -0.19938930041E-01 -0.19226886328E-02  0.10211212781E+01  0.10208665079E+01 0.  0.
     999903    2    3    3    0    0  0.93463724115E-01 -0.80309990031E-01 -0.42190411282E-01  0.13198710958E+00  0.21340198361E-01 0.  0.
         14    1    1    2    0    0  0.10907801351E-01  0.19938930041E-01  0.19226886328E-02  0.22808721864E-01  0.00000000000E+00 0. -1.
     999901    1    3    3    0    0 -0.10437152547E+00  0.60371059990E-01  0.40267722649E-01  0.88913416856E+00  0.88000000000E+00 0.  1.
        -11    1    4    4    0    0  0.17169933267E-01 -0.17561022649E-01 -0.17506273935E-01  0.30164994165E-01  0.51100000000E-03 0.  1.
         11    1    4    4    0    0  0.76293790848E-01 -0.62748967382E-01 -0.24684137347E-01  0.10182211541E+00  0.51100000000E-03 0. -1.
</event>
<event>
 8    1  0.1044719E+005  0.1043930E+01  0.7957747E-01            NaN
         13   -1    0    0    0    0  0.00000000000E+00  0.00000000000E+00  0.74505805969E-08  0.10566000000E+00  0.10566000000E+00 0. -1.
     999900   -1    0    0    0    0 -0.00000000000E+00 -0.00000000000E+00 -0.74505805969E-08  0.93827000000E+00  0.93827000000E+00 0. -1.
     999902    2    1    2    0    0  0.11539665905E-01  0.16100429153E-01 -0.11415840331E-01  0.10210671673E+01  0.10208111731E+01 0.  0.
     999903    2    3    3    0    0  0.34817311134E-01 -0.97527141576E-01 -0.78332556189E-01  0.13093744617E+00  0.16877113250E-01 0.  0.
         14    1    1    2    0    0 -0.11539665905E-01 -0.16100429153E-01  0.11415840331E-01  0.22862832689E-01  0.00000000000E+00 0. -1.
     999901    1    3    3    0    0 -0.23277645230E-01  0.11362757073E+00  0.66916715858E-01  0.89012972114E+00  0.88000000000E+00 0.  1.
        -11    1    4    4    0    0  0.32637857255E-01 -0.84253372389E-01 -0.61119457507E-01  0.10908579051E+00  0.51100000000E-03 0.  1.
         11    1    4    4    0    0  0.21794538790E-02 -0.13273769187E-01 -0.17213098682E-01  0.21851655656E-01  0.51100000000E-03 0. -1.
</event>
<event>
 8    1  0.1044719E+005  0.1043930E+01  0.7957747E-01            NaN
         13   -1    0    0    0    0  0.00000000000E+00  0.00000000000E+00  0.74505805969E-08  0.10566000000E+00  0.10566000000E+00 0. -1.
     999900   -1    0    0    0    0 -0.00000000000E+00 -0.00000000000E+00 -0.74505805969E-08  0.93827000000E+00  0.93827000000E+00 0.  1.
     999902    2    1    2    0    0  0.65381456341E-03  0.43620085809E-02  0.24292981370E-01  0.10192398494E+01  0.10189407574E+01 0.  0.
     999903    2    3    3    0    0  0.49288870771E-01  0.31716285019E-01  0.11730071081E+00  0.13258091675E+00  0.19568526082E-01 0.  0.
         14    1    1    2    0    0 -0.65381456341E-03 -0.43620085809E-02 -0.24292981370E-01  0.24690150591E-01  0.00000000000E+00 0.  1.
     999901    1    3    3    0    0 -0.48635056208E-01 -0.27354276438E-01 -0.93007729436E-01  0.88665893266E+00  0.88000000000E+00 0. -1.
        -11    1    4    4    0    0  0.20639866112E-01  0.11687901142E-01  0.28111522087E-01  0.36784914045E-01  0.51100000000E-03 0. -1.
         11    1    4    4    0    0  0.28649004659E-01  0.20028383876E-01  0.89189188719E-01  0.95796002704E-01  0.51100000000E-03 0.  1.
</event>
<event>
 8    1  0.1044719E+005  0.1043930E+01  0.7957747E-01            NaN
         13   -1    0    0    0    0  0.00000000000E+00  0.00000000000E+00  0.74505805969E-08  0.10566000000E+00  0.10566000000E+00 0.  1.
     999900   -1    0    0    0    0 -0.00000000000E+00 -0.00000000000E+00 -0.74505805969E-08  0.93827000000E+00  0.93827000000E+00 0. -1.
     999902    2    1    2    0    0  0.14302723760E-01 -0.15096937538E-01 -0.18191905604E-01  0.10162997474E+01  0.10159240846E+01 0.  0.
     999903    2    3    3    0    0 -0.58268169529E-01  0.65461725372E-01 -0.89663298390E-01  0.12676931356E+00  0.18722572278E-01 0.  0.
         14    1    1    2    0    0 -0.14302723760E-01  0.15096937538E-01  0.18191905604E-01  0.27630252613E-01  0.00000000000E+00 0.  1.
     999901    1    3    3    0    0  0.72570893288E-01 -0.80558662910E-01  0.71471392786E-01  0.88953043383E+00  0.88000000000E+00 0.  1.
        -11    1    4    4    0    0 -0.12439385374E-01  0.97463553398E-02 -0.77265690741E-02  0.17598032320E-01  0.51100000000E-03 0.  1.
         11    1    4    4    0    0 -0.45828784155E-01  0.55715370032E-01 -0.81936729316E-01  0.10917128124E+00  0.51100000000E-03 0. -1.
</event>
<event>
 8    1  0.1044719E+005  0.1043930E+01  0.7957747E-01            NaN
         13   -1    0    0    0    0  0.00000000000E+00  0.00000000000E+00  0.74505805969E-08  0.10566000000E+00  0.10566000000E+00 0.  1.
     999900   -1    0    0    0    0 -0.00000000000E+00 -0.00000000000E+00 -0.74505805969E-08  0.93827000000E+00  0.93827000000E+00 0. -1.
     999902    2    1    2    0    0 -0.34156272958E-02 -0.23057298022E-01 -0.40206184397E-02  0.10202768633E+01  0.10200026505E+01 0.  0.
     999903    2    3    3    0    0  0.28946905623E-01  0.74928395683E-01  0.98052351496E-01  0.12838706021E+00  0.20415331758E-01 0.  0.
         14    1    1    2    0    0  0.34156272958E-02  0.23057298022E-01  0.40206184397E-02  0.23653136675E-01  0.00000000000E+00 0.  1.
     999901    1    3    3    0    0 -0.32362532919E-01 -0.97985693706E-01 -0.10207296994E+00  0.89188980311E+00  0.88000000000E+00 0. -1.
        -11    1    4    4    0    0  0.89285648708E-02  0.34173907012E-01  0.28809749613E-01  0.45583308183E-01  0.51100000000E-03 0. -1.
         11    1    4    4    0    0  0.20018340752E-01  0.40754488671E-01  0.69242601884E-01  0.82803752028E-01  0.51100000000E-03 0.  1.
</event>
<event>
 8    1  0.1044719E+005  0.1043930E+01  0.7957747E-01            NaN
         13   -1    0    0    0    0  0.00000000000E+00  0.00000000000E+00  0.74505805969E-08  0.10566000000E+00  0.10566000000E+00 0. -1.
     999900   -1    0    0    0    0 -0.00000000000E+00 -0.00000000000E+00 -0.74505805969E-08  0.93827000000E+00  0.93827000000E+00 0. -1.
     999902    2    1    2    0    0 -0.52117700542E-02  0.11526295810E-01 -0.22966974748E-01  0.10177097793E+01  0.10173719551E+01 0.  0.
     999903    2    3    3    0    0 -0.12625364827E+00  0.17647879920E-01  0.56321705987E-02  0.12894292511E+00  0.18523639531E-01 0.  0.
         14    1    1    2    0    0  0.52117700542E-02 -0.11526295810E-01  0.22966974748E-01  0.26220220656E-01  0.00000000000E+00 0. -1.
     999901    1    3    3    0    0  0.12104187822E+00 -0.61215841101E-02 -0.28599145347E-01  0.88876685424E+00  0.88000000000E+00 0. -1.
        -11    1    4    4    0    0 -0.61494195982E-01  0.97534347887E-02 -0.64309345554E-02  0.62596195331E-01  0.51100000000E-03 0. -1.
         11    1    4    4    0    0 -0.64759452292E-01  0.78944451312E-02  0.12063105154E-01  0.66346729776E-01  0.51100000000E-03 0.  1.
</event>
<event>
 8    1  0.1044719E+005  0.1043930E+01  0.7957747E-01            NaN
         13   -1    0    0    0    0  0.00000000000E+00  0.00000000000E+00  0.74505805969E-08  0.10566000000E+00  0.10566000000E+00 0. -1.
     999900   -1    0    0    0    0 -0.00000000000E+00 -0.00000000000E+00 -0.74505805969E-08  0.93827000000E+00  0.93827000000E+00 0. -1.
     999902    2    1    2    0    0 -0.96133620100E-02 -0.16678039140E-01  0.13615960327E-01  0.10203510243E+01  0.10200785483E+01 0.  0.
     999903    2    3    3    0    0 -0.10957376523E+00  0.55496580361E-01 -0.37817022120E-01  0.13026866319E+00  0.21295938291E-01 0.  0.
         14    1    1    2    0    0  0.96133620100E-02  0.16678039140E-01 -0.13615960327E-01  0.23578975684E-01  0.00000000000E+00 0.  1.
     999901    1    3    3    0    0  0.99960403220E-01 -0.72174619502E-01  0.51432982447E-01  0.89008236113E+00  0.88000000000E+00 0.  1.
        -11    1    4    4    0    0 -0.58710408673E-01  0.23047876580E-01 -0.10122159927E-01  0.63881420961E-01  0.51100000000E-03 0. -1.
         11    1    4    4    0    0 -0.50863356557E-01  0.32448703782E-01 -0.27694862193E-01  0.66387242225E-01  0.51100000000E-03 0.  1.
</event>
<event>
 8    1  0.1044719E+005  0.1043930E+01  0.7957747E-01            NaN
         13   -1    0    0    0    0  0.00000000000E+00  0.00000000000E+00  0.74505805969E-08  0.10566000000E+00  0.10566000000E+00 0.  1.
     999900   -1    0    0    0    0 -0.00000000000E+00 -0.00000000000E+00 -0.74505805969E-08  0.93827000000E+00  0.93827000000E+00 0. -1.
     999902    2    1    2    0    0  0.13786904480E-01  0.45352296184E-02  0.16077533742E-01  0.10222704955E+01  0.10220410128E+01 0.  0.
     999903    2    3    3    0    0 -0.22070377444E-01 -0.12286472945E+00 -0.36459960038E-01  0.13082409641E+00  0.14239810886E-01 0.  0.
         14    1    1    2    0    0 -0.13786904480E-01 -0.45352296184E-02 -0.16077533742E-01  0.21659504474E-01  0.00000000000E+00 0. -1.
     999901    1    3    3    0    0  0.35857281924E-01  0.12739995907E+00  0.52537493780E-01  0.89144639911E+00  0.88000000000E+00 0.  1.
        -11    1    4    4    0    0 -0.59462675477E-02 -0.43047977577E-01 -0.59488955598E-02  0.43864985474E-01  0.51100000000E-03 0. -1.
         11    1    4    4    0    0 -0.16124109897E-01 -0.79816751870E-01 -0.30511064478E-01  0.86959110940E-01  0.51100000000E-03 0.  1.
</event>
<event>
 8    1  0.1044719E+005  0.1043930E+01  0.7957747E-01            NaN
         13   -1    0    0    0    0  0.00000000000E+00  0.00000000000E+00  0.74505805969E-08  0.10566000000E+00  0.10566000000E+00 0.  1.
     999900   -1    0    0    0    0 -0.00000000000E+00 -0.00000000000E+00 -0.74505805969E-08  0.93827000000E+00  0.93827000000E+00 0.  1.
     999902    2    1    2    0    0  0.23117660624E-01 -0.53193268400E-02 -0.40194464052E-02  0.10198701284E+01  0.10195862894E+01 0.  0.
     999903    2    3    3    0    0  0.67519036163E-01  0.10982371549E+00 -0.13883901673E-01  0.13120443773E+00  0.20044276605E-01 0.  0.
         14    1    1    2    0    0 -0.23117660624E-01  0.53193268400E-02  0.40194464052E-02  0.24059871575E-01  0.00000000000E+00 0.  1.
     999901    1    3    3    0    0 -0.44401375538E-01 -0.11514304233E+00  0.98644552677E-02  0.88866569070E+00  0.88000000000E+00 0.  1.
        -11    1    4    4    0    0  0.20412164090E-01  0.34996787445E-01 -0.13735494920E-01  0.42782666069E-01  0.51100000000E-03 0. -1.
         11    1    4    4    0    0  0.47106872073E-01  0.74826928048E-01 -0.14840675328E-03  0.88421771658E-01  0.51100000000E-03 0.  1.
</event>
<event>
 8    1  0.1044719E+005  0.1043930E+01  0.7957747E-01            NaN
         13   -1    0    0    0    0  0.00000000000E+00  0.00000000000E+00  0.74505805969E-08  0.10566000000E+00  0.10566000000E+00 0.  1.
     999900   -1    0    0    0    0 -0.00000000000E+00 -0.00000000000E+00 -0.74505805969E-08  0.93827000000E+00  0.93827000000E+00 0. -1.
     999902    2    1    2    0    0  0.15949719908E-01  0.11727420061E-01  0.14125308991E-01  0.10196102488E+01  0.10193201700E+01 0.  0.
     999903    2    3    3    0    0  0.98995693814E-02  0.12920879812E+00  0.12264499256E-01  0.13178034324E+00  0.20560300073E-01 0.  0.
         14    1    1    2    0    0 -0.15949719908E-01 -0.11727420061E-01 -0.14125308991E-01  0.24319751243E-01  0.00000000000E+00 0.  1.
     999901    1    3    3    0    0  0.60501505271E-02 -0.11748137805E+00  0.18608097350E-02  0.88782990551E+00  0.88000000000E+00 0.  1.
        -11    1    4    4    0    0  0.14830494028E-01  0.62639235280E-01  0.83431585989E-02  0.64911376245E-01  0.51100000000E-03 0. -1.
         11    1    4    4    0    0 -0.49309246467E-02  0.66569562835E-01  0.39213406568E-02  0.66868966999E-01  0.51100000000E-03 0.  1.
</event>
<event>
 8    1  0.1044719E+005  0.1043930E+01  0.7957747E-01            NaN
         13   -1    0    0    0    0  0.00000000000E+00  0.00000000000E+00  0.74505805969E-08  0.10566000000E+00  0.10566000000E+00 0.  1.
     999900   -1    0    0    0    0 -0.00000000000E+00 -0.00000000000E+00 -0.74505805969E-08  0.93827000000E+00  0.93827000000E+00 0. -1.
     999902    2    1    2    0    0 -0.12179276395E-02  0.39124564144E-02 -0.23588887584E-01  0.10199878556E+01  0.10197068202E+01 0.  0.
     999903    2    3    3    0    0  0.10819009886E+00 -0.60873288156E-01  0.29768049337E-01  0.12924980670E+00  0.20216851142E-01 0.  0.
         14    1    1    2    0    0  0.12179276395E-02 -0.39124564144E-02  0.23588887584E-01  0.23942144440E-01  0.00000000000E+00 0.  1.
     999901    1    3    3    0    0 -0.10940802650E+00  0.64785744570E-01 -0.53356936921E-01  0.89073804886E+00  0.88000000000E+00 0. -1.
        -11    1    4    4    0    0  0.36165353289E-01 -0.25587875123E-01  0.19167399245E-02  0.44346444556E-01  0.51100000000E-03 0.  1.
         11    1    4    4    0    0  0.72024745569E-01 -0.35285413033E-01  0.27851309412E-01  0.84903362148E-01  0.51100000000E-03 0. -1.
</event>
<event>
 8    1  0.1044719E+005  0.1043930E+01  0.7957747E-01            NaN
         13   -1    0    0    0    0  0.00000000000E+00  0.00000000000E+00  0.74505805969E-08  0.10566000000E+00  0.10566000000E+00 0. -1.
     999900   -1    0    0    0    0 -0.00000000000E+00 -0.00000000000E+00 -0.74505805969E-08  0.93827000000E+00  0.93827000000E+00 0. -1.
     999902    2    1    2    0    0 -0.18635645427E-01 -0.12378665344E-01 -0.72196979948E-02  0.10204216467E+01  0.10201508194E+01 0.  0.
     999903    2    3    3    0    0  0.59921162560E-01 -0.64421810972E-01  0.93275268172E-01  0.12970345371E+00  0.19544687240E-01 0.  0.
         14    1    1    2    0    0  0.18635645427E-01  0.12378665344E-01  0.72196979948E-02  0.23508353309E-01  0.00000000000E+00 0. -1.
     999901    1    3    3    0    0 -0.78556807987E-01  0.52043145628E-01 -0.10049496617E+00  0.89071819298E+00  0.88000000000E+00 0. -1.
        -11    1    4    4    0    0  0.21385100325E-01 -0.37007207837E-01  0.41457208009E-01  0.59546764519E-01  0.51100000000E-03 0.  1.
         11    1    4    4    0    0  0.38536062235E-01 -0.27414603135E-01  0.51818060164E-01  0.70156689187E-01  0.51100000000E-03 0. -1.
</event>
<event>
 8    1  0.1044719E+005  0.1043930E+01  0.7957747E-01            NaN
         13   -1    0    0    0    0  0.00000000000E+00  0.00000000000E+00  0.74505805969E-08  0.10566000000E+00  0.10566000000E+00 0.  1.
     999900   -1    0    0    0    0 -0.00000000000E+00 -0.00000000000E+00 -0.74505805969E-08  0.93827000000E+00  0.93827000000E+00 0. -1.
     999902    2    1    2    0    0 -0.11033611085E-01  0.18079528019E-01 -0.63423177588E-02  0.10218203889E+01  0.10215811629E+01 0.  0.
     999903    2    3    3    0    0 -0.91439613517E-01  0.95287484436E-01 -0.16899657774E-01  0.13472532571E+00  0.20601149133E-01 0.  0.
         14    1    1    2    0    0  0.11033611085E-01 -0.18079528019E-01  0.63423177588E-02  0.22109611066E-01  0.00000000000E+00 0. -1.
     999901    1    3    3    0    0  0.80406002432E-01 -0.77207956417E-01  0.10557340015E-01  0.88709506322E+00  0.88000000000E+00 0.  1.
        -11    1    4    4    0    0 -0.85872567626E-01  0.80391160015E-01 -0.13029551430E-01  0.11835060968E+00  0.51100000000E-03 0.  1.
         11    1    4    4    0    0 -0.55670458910E-02  0.14896324421E-01 -0.38701063443E-02  0.16374716038E-01  0.51100000000E-03 0. -1.
</event>
<event>
 8    1  0.1044719E+005  0.1043930E+01  0.7957747E-01            NaN
         13   -1    0    0    0    0  0.00000000000E+00  0.00000000000E+00  0.74505805969E-08  0.10566000000E+00  0.10566000000E+00 0. -1.
     999900   -1    0    0    0    0 -0.00000000000E+00 -0.00000000000E+00 -0.74505805969E-08  0.93827000000E+00  0.93827000000E+00 0. -1.
     999902    2    1    2    0    0 -0.39635892487E-02 -0.25159775755E-02 -0.22950066469E-01  0.10205046775E+01  0.10202357821E+01 0.  0.
     999903    2    3    3    0    0  0.61812742726E-02 -0.69149294280E-01 -0.11320168867E+00  0.13332472256E+00  0.11875448555E-01 0.  0.
         14    1    1    2    0    0  0.39635892487E-02  0.25159775755E-02  0.22950066469E-01  0.23425322491E-01  0.00000000000E+00 0. -1.
     999901    1    3    3    0    0 -0.10144863521E-01  0.66633316705E-01  0.90251622197E-01  0.88717995495E+00  0.88000000000E+00 0.  1.
        -11    1    4    4    0    0  0.82471782647E-04 -0.41519699374E-01 -0.75741956858E-01  0.86377065170E-01  0.51100000000E-03 0. -1.
         11    1    4    4    0    0  0.60988024900E-02 -0.27629594906E-01 -0.37459731807E-01  0.46947657392E-01  0.51100000000E-03 0.  1.
</event>
<event>
 8    1  0.1044719E+005  0.1043930E+01  0.7957747E-01            NaN
         13   -1    0    0    0    0  0.00000000000E+00  0.00000000000E+00  0.74505805969E-08  0.10566000000E+00  0.10566000000E+00 0.  1.
     999900   -1    0    0    0    0 -0.00000000000E+00 -0.00000000000E+00 -0.74505805969E-08  0.93827000000E+00  0.93827000000E+00 0. -1.
     999902    2    1    2    0    0  0.74856409207E-02  0.20816428858E-01 -0.51356834949E-04  0.10218084908E+01  0.10215690044E+01 0.  0.
     999903    2    3    3    0    0 -0.11469793191E+00 -0.50446574082E-01  0.27298489026E-01  0.13009370732E+00  0.21879048431E-01 0.  0.
         14    1    1    2    0    0 -0.74856409207E-02 -0.20816428858E-01  0.51356834949E-04  0.22121509169E-01  0.00000000000E+00 0.  1.
     999901    1    3    3    0    0  0.12218357283E+00  0.71263002941E-01 -0.27349845861E-01  0.89171478351E+00  0.88000000000E+00 0.  1.
        -11    1    4    4    0    0 -0.81452479037E-01 -0.46199616920E-01  0.21424089352E-01  0.96063331560E-01  0.51100000000E-03 0.  1.
         11    1    4    4    0    0 -0.33245452875E-01 -0.42469571622E-02  0.58743996738E-02  0.34030375763E-01  0.51100000000E-03 0. -1.
</event>
<event>
 8    1  0.1044719E+005  0.1043930E+01  0.7957747E-01            NaN
         13   -1    0    0    0    0  0.00000000000E+00  0.00000000000E+00  0.74505805969E-08  0.10566000000E+00  0.10566000000E+00 0. -1.
     999900   -1    0    0    0    0 -0.00000000000E+00 -0.00000000000E+00 -0.74505805969E-08  0.93827000000E+00  0.93827000000E+00 0.  1.
     999902    2    1    2    0    0 -0.14368513371E-01 -0.17720997449E-01 -0.52014626373E-02  0.10205303602E+01  0.10202620610E+01 0.  0.
     999903    2    3    3    0    0 -0.55604261609E-01 -0.81855965743E-01 -0.87699690424E-01  0.13338908701E+00  0.17583509207E-01 0.  0.
         14    1    1    2    0    0  0.14368513371E-01  0.17720997449E-01  0.52014626373E-02  0.23399639755E-01  0.00000000000E+00 0.  1.
     999901    1    3    3    0    0  0.41235748238E-01  0.64134968294E-01  0.82498227786E-01  0.88714127324E+00  0.88000000000E+00 0.  1.
        -11    1    4    4    0    0 -0.21617915188E-01 -0.25682753115E-01 -0.40068132904E-01  0.52274797561E-01  0.51100000000E-03 0.  1.
         11    1    4    4    0    0 -0.33986346421E-01 -0.56173212628E-01 -0.47631557520E-01  0.81114289448E-01  0.51100000000E-03 0. -1.
</event>
<event>
 8    1  0.1044719E+005  0.1043930E+01  0.7957747E-01            NaN
         13   -1    0    0    0    0  0.00000000000E+00  0.00000000000E+00  0.74505805969E-08  0.10566000000E+00  0.10566000000E+00 0.  1.
     999900   -1    0    0    0    0 -0.00000000000E+00 -0.00000000000E+00 -0.74505805969E-08  0.93827000000E+00  0.93827000000E+00 0. -1.
     999902    2    1    2    0    0  0.48443479910E-02  0.22474582264E-01 -0.30375886012E-02  0.10207394524E+01  0.10204759811E+01 0.  0.
     999903    2    3    3    0    0 -0.42081229573E-01 -0.11349949305E+00 -0.37895975471E-01  0.12837962240E+00  0.19805496328E-01 0.  0.
         14    1    1    2    0    0 -0.48443479910E-02 -0.22474582264E-01  0.30375886012E-02  0.23190547641E-01  0.00000000000E+00 0.  1.
     999901    1    3    3    0    0  0.46925577564E-01  0.13597407532E+00  0.34858386869E-01  0.89235982996E+00  0.88000000000E+00 0. -1.
        -11    1    4    4    0    0 -0.15110025667E-01 -0.61456750994E-01 -0.12577039599E-01  0.64526646933E-01  0.51100000000E-03 0. -1.
         11    1    4    4    0    0 -0.26971203906E-01 -0.52042742060E-01 -0.25318935871E-01  0.63852975467E-01  0.51100000000E-03 0.  1.
</event>
<event>
 8    1  0.1044719E+005  0.1043930E+01  0.7957747E-01            NaN
         13   -1    0    0    0    0  0.00000000000E+00  0.00000000000E+00  0.74505805969E-08  0.10566000000E+00  0.10566000000E+00 0.  1.
     999900   -1    0    0    0    0 -0.00000000000E+00 -0.00000000000E+00 -0.74505805969E-08  0.93827000000E+00  0.93827000000E+00 0. -1.
     999902    2    1    2    0    0  0.19717959619E-01  0.14142961849E-01 -0.23197762746E-02  0.10195537275E+01  0.10192622825E+01 0.  0.
     999903    2    3    3    0    0 -0.72975985950E-01 -0.19997583450E-01  0.10125260032E+00  0.12799050391E+00  0.20101794701E-01 0.  0.
         14    1    1    2    0    0 -0.19717959619E-01 -0.14142961849E-01  0.23197762746E-02  0.24376272549E-01  0.00000000000E+00 0.  1.
     999901    1    3    3    0    0  0.92693945569E-01  0.34140545298E-01 -0.10357237660E+00  0.89156322354E+00  0.88000000000E+00 0. -1.
        -11    1    4    4    0    0 -0.16536054462E-01  0.30085075046E-02  0.16167445646E-01  0.23326800773E-01  0.51100000000E-03 0.  1.
         11    1    4    4    0    0 -0.56439931488E-01 -0.23006090954E-01  0.85085154675E-01  0.10466370314E+00  0.51100000000E-03 0. -1.
</event>
<event>
 8    1  0.1044719E+005  0.1043930E+01  0.7957747E-01            NaN
         13   -1    0    0    0    0  0.00000000000E+00  0.00000000000E+00  0.74505805969E-08  0.10566000000E+00  0.10566000000E+00 0. -1.
     999900   -1    0    0    0    0 -0.00000000000E+00 -0.00000000000E+00 -0.74505805969E-08  0.93827000000E+00  0.93827000000E+00 0.  1.
     999902    2    1    2    0    0  0.15691620054E-01 -0.14112781062E-01 -0.11884743843E-01  0.10197092513E+01  0.10194215579E+01 0.  0.
     999903    2    3    3    0    0  0.42163008613E-01 -0.11262545714E+00  0.48878736194E-01  0.13173533153E+00  0.22424402596E-01 0.  0.
         14    1    1    2    0    0 -0.15691620054E-01  0.14112781062E-01  0.11884743843E-01  0.24220748656E-01  0.00000000000E+00 0.  1.
     999901    1    3    3    0    0 -0.26471388559E-01  0.98512676074E-01 -0.60763480037E-01  0.88797391981E+00  0.88000000000E+00 0.  1.
        -11    1    4    4    0    0  0.21039203597E-01 -0.30497398345E-01  0.95978316139E-02  0.38276871430E-01  0.51100000000E-03 0.  1.
         11    1    4    4    0    0  0.21123805016E-01 -0.82128058791E-01  0.39280904580E-01  0.93458460103E-01  0.51100000000E-03 0. -1.
</event>
<event>
 8    1  0.1044719E+005  0.1043930E+01  0.7957747E-01            NaN
         13   -1    0    0    0    0  0.00000000000E+00  0.00000000000E+00  0.74505805969E-08  0.10566000000E+00  0.10566000000E+00 0. -1.
     999900   -1    0    0    0    0 -0.00000000000E+00 -0.00000000000E+00 -0.74505805969E-08  0.93827000000E+00  0.93827000000E+00 0.  1.
     999902    2    1    2    0    0 -0.17153046610E-01  0.14954690466E-01 -0.81411526914E-02  0.10197608432E+01  0.10194743886E+01 0.  0.
     999903    2    3    3    0    0  0.90943128596E-01 -0.85373551449E-01  0.14519433658E-01  0.12720045787E+00  0.20244668523E-01 0.  0.
         14    1    1    2    0    0  0.17153046610E-01 -0.14954690466E-01  0.81411526914E-02  0.24169156834E-01  0.00000000000E+00 0. -1.
     999901    1    3    3    0    0 -0.10809617521E+00  0.10032824191E+00 -0.22660586350E-01  0.89256038529E+00  0.88000000000E+00 0.  1.
        -11    1    4    4    0    0  0.39455442015E-01 -0.33453659348E-01 -0.36315212555E-02  0.51858734037E-01  0.51100000000E-03 0. -1.
         11    1    4    4    0    0  0.51487686581E-01 -0.51919892101E-01  0.18150954914E-01  0.75341723836E-01  0.51100000000E-03 0.  1.
</event>
<event>
 8    1  0.1044719E+005  0.1043930E+01  0.7957747E-01            NaN
         13   -1    0    0    0    0  0.00000000000E+00  0.00000000000E+00  0.74505805969E-08  0.10566000000E+00  0.10566000000E+00 0. -1.
     999900   -1    0    0    0    0 -0.00000000000E+00 -0.00000000000E+00 -0.74505805969E-08  0.93827000000E+00  0.93827000000E+00 0.  1.
     999902    2    1    2    0    0 -0.24509853013E-02 -0.12133836272E-01  0.21213666076E-01  0.10193687105E+01  0.10190727703E+01 0.  0.
     999903    2    3    3    0    0  0.98780483530E-02  0.45685636253E-01 -0.11609498657E+00  0.12676086688E+00  0.20137484104E-01 0.  0.
         14    1    1    2    0    0  0.24509853013E-02  0.12133836272E-01 -0.21213666076E-01  0.24561289462E-01  0.00000000000E+00 0. -1.
     999901    1    3    3    0    0 -0.12329033654E-01 -0.57819472525E-01  0.13730865264E+00  0.89260784366E+00  0.88000000000E+00 0. -1.
        -11    1    4    4    0    0 -0.24458432528E-02  0.32413131727E-01 -0.68162238182E-01  0.75517846186E-01  0.51100000000E-03 0.  1.
         11    1    4    4    0    0  0.12323891606E-01  0.13272504526E-01 -0.47932748386E-01  0.51243020691E-01  0.51100000000E-03 0. -1.
</event>
<event>
 8    1  0.1044719E+005  0.1043930E+01  0.7957747E-01            NaN
         13   -1    0    0    0    0  0.00000000000E+00  0.00000000000E+00  0.74505805969E-08  0.10566000000E+00  0.10566000000E+00 0.  1.
     999900   -1    0    0    0    0 -0.00000000000E+00 -0.00000000000E+00 -0.74505805969E-08  0.93827000000E+00  0.93827000000E+00 0. -1.
     999902    2    1    2    0    0 -0.21382813992E-01 -0.36739078922E-02 -0.90186266155E-02  0.10204340863E+01  0.10201635489E+01 0.  0.
     999903    2    3    3    0    0 -0.96753336372E-01 -0.56799022399E-01  0.67322411594E-01  0.13232882930E+00  0.19780670286E-01 0.  0.
         14    1    1    2    0    0  0.21382813992E-01  0.36739078922E-02  0.90186266155E-02  0.23495913676E-01  0.00000000000E+00 0.  1.
     999901    1    3    3    0    0  0.75370522380E-01  0.53125114507E-01 -0.76341038209E-01  0.88810525702E+00  0.88000000000E+00 0. -1.
        -11    1    4    4    0    0 -0.48286532441E-01 -0.16978676781E-01  0.30998783792E-01  0.59841878296E-01  0.51100000000E-03 0.  1.
         11    1    4    4    0    0 -0.48466803932E-01 -0.39820345618E-01  0.36323627802E-01  0.72486951007E-01  0.51100000000E-03 0. -1.
</event>
<event>
 8    1  0.1044719E+005  0.1043930E+01  0.7957747E-01            NaN
         13   -1    0    0    0    0  0.00000000000E+00  0.00000000000E+00  0.74505805969E-08  0.10566000000E+00  0.10566000000E+00 0.  1.
     999900   -1    0    0    0    0 -0.00000000000E+00 -0.00000000000E+00 -0.74505805969E-08  0.93827000000E+00  0.93827000000E+00 0. -1.
     999902    2    1    2    0    0 -0.45040545555E-02 -0.19270177361E-01  0.13100759121E-01  0.10201969822E+01  0.10199208922E+01 0.  0.
     999903    2    3    3    0    0 -0.11611824471E+00  0.25869129849E-01  0.51546164626E-01  0.13116754869E+00  0.19881149536E-01 0.  0.
         14    1    1    2    0    0  0.45040545555E-02  0.19270177361E-01 -0.13100759121E-01  0.23733017771E-01  0.00000000000E+00 0. -1.
     999901    1    3    3    0    0  0.11161419016E+00 -0.45139307210E-01 -0.38445405505E-01  0.88902943354E+00  0.88000000000E+00 0. -1.
        -11    1    4    4    0    0 -0.75361847244E-01  0.22152569113E-01  0.25211915549E-01  0.82498764505E-01  0.51100000000E-03 0. -1.
         11    1    4    4    0    0 -0.40756397468E-01  0.37165607362E-02  0.26334249077E-01  0.48668784182E-01  0.51100000000E-03 0.  1.
</event>
<event>
 8    1  0.1044719E+005  0.1043930E+01  0.7957747E-01            NaN
         13   -1    0    0    0    0  0.00000000000E+00  0.00000000000E+00  0.74505805969E-08  0.10566000000E+00  0.10566000000E+00 0. -1.
     999900   -1    0    0    0    0 -0.00000000000E+00 -0.00000000000E+00 -0.74505805969E-08  0.93827000000E+00  0.93827000000E+00 0. -1.
     999902    2    1    2    0    0  0.11968530774E-01 -0.21695267384E-01 -0.52493370303E-03  0.10191468220E+01  0.10188454441E+01 0.  0.
     999903    2    3    3    0    0 -0.10125430956E-01 -0.11981087688E+00  0.50519920496E-01  0.13194876458E+00  0.20026071430E-01 0.  0.
         14    1    1    2    0    0 -0.11968530774E-01  0.21695267384E-01  0.52493370303E-03  0.24783177988E-01  0.00000000000E+00 0. -1.
     999901    1    3    3    0    0  0.22093961730E-01  0.98115609494E-01 -0.51044854199E-01  0.88719805743E+00  0.88000000000E+00 0. -1.
        -11    1    4    4    0    0 -0.10908879332E-01 -0.64156952557E-01  0.36217766042E-01  0.74478895721E-01  0.51100000000E-03 0. -1.
         11    1    4    4    0    0  0.78344837585E-03 -0.55653924321E-01  0.14302154454E-01  0.57469868859E-01  0.51100000000E-03 0.  1.
</event>
<event>
 8    1  0.1044719E+005  0.1043930E+01  0.7957747E-01            NaN
         13   -1    0    0    0    0  0.00000000000E+00  0.00000000000E+00  0.74505805969E-08  0.10566000000E+00  0.10566000000E+00 0.  1.
     999900   -1    0    0    0    0 -0.00000000000E+00 -0.00000000000E+00 -0.74505805969E-08  0.93827000000E+00  0.93827000000E+00 0. -1.
     999902    2    1    2    0    0  0.13344229312E-01 -0.16935035750E-01 -0.10174833908E-01  0.10200890450E+01  0.10198104081E+01 0.  0.
     999903    2    3    3    0    0  0.41315772712E-01  0.39301395769E-01 -0.11674237738E+00  0.13143749076E+00  0.19885635925E-01 0.  0.
         14    1    1    2    0    0 -0.13344229312E-01  0.16935035750E-01  0.10174833908E-01  0.23840955032E-01  0.00000000000E+00 0.  1.
     999901    1    3    3    0    0 -0.27971543401E-01 -0.56236431519E-01  0.10656754348E+00  0.88865155421E+00  0.88000000000E+00 0.  1.
        -11    1    4    4    0    0  0.12243482870E-01  0.57211752199E-02 -0.45630852603E-01  0.47592757317E-01  0.51100000000E-03 0. -1.
         11    1    4    4    0    0  0.29072289842E-01  0.33580220549E-01 -0.71111524781E-01  0.83844733445E-01  0.51100000000E-03 0.  1.
</event>
<event>
 8    1  0.1044719E+005  0.1043930E+01  0.7957747E-01            NaN
         13   -1    0    0    0    0  0.00000000000E+00  0.00000000000E+00  0.74505805969E-08  0.10566000000E+00  0.10566000000E+00 0.  1.
     999900   -1    0    0    0    0 -0.00000000000E+00 -0.00000000000E+00 -0.74505805969E-08  0.93827000000E+00  0.93827000000E+00 0. -1.
     999902    2    1    2    0    0 -0.22488801221E-01  0.57858263474E-02  0.49819946682E-02  0.10201804266E+01  0.10199039467E+01 0.  0.
     999903    2    3    3    0    0  0.92453730714E-01 -0.53598616126E-02 -0.86204372595E-01  0.12796354399E+00  0.19158661111E-01 0.  0.
         14    1    1    2    0    0  0.22488801221E-01 -0.57858263474E-02 -0.49819946682E-02  0.23749573422E-01  0.00000000000E+00 0.  1.
     999901    1    3    3    0    0 -0.11494253193E+00  0.11145687960E-01  0.91186367263E-01  0.89221688259E+00  0.88000000000E+00 0. -1.
        -11    1    4    4    0    0  0.59550018500E-01 -0.18970334394E-02 -0.67178560828E-01  0.89794340552E-01  0.51100000000E-03 0.  1.
         11    1    4    4    0    0  0.32903712213E-01 -0.34628281732E-02 -0.19025811767E-01  0.38169203433E-01  0.51100000000E-03 0. -1.
</event>
<event>
 8    1  0.1044719E+005  0.1043930E+01  0.7957747E-01            NaN
         13   -1    0    0    0    0  0.00000000000E+00  0.00000000000E+00  0.74505805969E-08  0.10566000000E+00  0.10566000000E+00 0.  1.
     999900   -1    0    0    0    0 -0.00000000000E+00 -0.00000000000E+00 -0.74505805969E-08  0.93827000000E+00  0.93827000000E+00 0.  1.
     999902    2    1    2    0    0  0.87479997806E-02 -0.17600337535E-01  0.13188431075E-01  0.10202607352E+01  0.10199861439E+01 0.  0.
     999903    2    3    3    0    0 -0.66699679064E-01  0.10458691232E+00  0.25984876572E-01  0.12852881064E+00  0.21381579450E-01 0.  0.
         14    1    1    2    0    0 -0.87479997806E-02  0.17600337535E-01 -0.13188431075E-01  0.23669264791E-01  0.00000000000E+00 0. -1.
     999901    1    3    3    0    0  0.75447678845E-01 -0.12218724985E+00 -0.12796445496E-01  0.89173192456E+00  0.88000000000E+00 0. -1.
        -11    1    4    4    0    0 -0.44666582646E-01  0.56140246172E-01  0.72713400255E-02  0.72110778336E-01  0.51100000000E-03 0. -1.
         11    1    4    4    0    0 -0.22033096418E-01  0.48446666147E-01  0.18713536546E-01  0.56418032308E-01  0.51100000000E-03 0.  1.
</event>
<event>
 8    1  0.1044719E+005  0.1043930E+01  0.7957747E-01            NaN
         13   -1    0    0    0    0  0.00000000000E+00  0.00000000000E+00  0.74505805969E-08  0.10566000000E+00  0.10566000000E+00 0. -1.
     999900   -1    0    0    0    0 -0.00000000000E+00 -0.00000000000E+00 -0.74505805969E-08  0.93827000000E+00  0.93827000000E+00 0.  1.
     999902    2    1    2    0    0 -0.19910049638E-01 -0.53128584356E-03 -0.16365733099E-01  0.10181515291E+01  0.10178251356E+01 0.  0.
     999903    2    3    3    0    0  0.26274683651E-01  0.21330902308E-02 -0.12590272362E+00  0.13015463679E+00  0.19845014174E-01 0.  0.
         14    1    1    2    0    0  0.19910049638E-01  0.53128584356E-03  0.16365733099E-01  0.25778470884E-01  0.00000000000E+00 0. -1.
     999901    1    3    3    0    0 -0.46184733290E-01 -0.26643760744E-02  0.10953699052E+00  0.88799689233E+00  0.88000000000E+00 0. -1.
        -11    1    4    4    0    0  0.28641692577E-01  0.13209635208E-02 -0.97293774759E-01  0.10143190438E+00  0.51100000000E-03 0.  1.
         11    1    4    4    0    0 -0.23670089256E-02  0.81212671000E-03 -0.28608948862E-01  0.28722732409E-01  0.51100000000E-03 0. -1.
</event>
<event>
 8    1  0.1044719E+005  0.1043930E+01  0.7957747E-01            NaN
         13   -1    0    0    0    0  0.00000000000E+00  0.00000000000E+00  0.74505805969E-08  0.10566000000E+00  0.10566000000E+00 0. -1.
     999900   -1    0    0    0    0 -0.00000000000E+00 -0.00000000000E+00 -0.74505805969E-08  0.93827000000E+00  0.93827000000E+00 0.  1.
     999902    2    1    2    0    0 -0.20023949234E-01 -0.10350259840E-01 -0.42234084486E-02  0.10209969758E+01  0.10207393893E+01 0.  0.
     999903    2    3    3    0    0 -0.12417847682E+00 -0.44758632806E-01  0.10890907598E-01  0.13405811412E+00  0.20720443457E-01 0.  0.
         14    1    1    2    0    0  0.20023949234E-01  0.10350259840E-01  0.42234084486E-02  0.22933024236E-01  0.00000000000E+00 0. -1.
     999901    1    3    3    0    0  0.10415452759E+00  0.34408372965E-01 -0.15114316046E-01  0.88693886165E+00  0.88000000000E+00 0. -1.
        -11    1    4    4    0    0 -0.36524986959E-01 -0.62220643302E-02 -0.35452501557E-02  0.37223899266E-01  0.51100000000E-03 0.  1.
         11    1    4    4    0    0 -0.87653489861E-01 -0.38536568475E-01  0.14436157753E-01  0.96834214854E-01  0.51100000000E-03 0. -1.
</event>
<event>
 8    1  0.1044719E+005  0.1043930E+01  0.7957747E-01            NaN
         13   -1    0    0    0    0  0.00000000000E+00  0.00000000000E+00  0.74505805969E-08  0.10566000000E+00  0.10566000000E+00 0.  1.
     999900   -1    0    0    0    0 -0.00000000000E+00 -0.00000000000E+00 -0.74505805969E-08  0.93827000000E+00  0.93827000000E+00 0.  1.
     999902    2    1    2    0    0  0.14457690322E-01  0.12732044919E-01  0.47054723578E-02  0.10240989323E+01  0.10239069058E+01 0.  0.
     999903    2    3    3    0    0 -0.14142730626E-01 -0.12903658934E+00  0.15009602562E-01  0.13223430978E+00  0.20252562731E-01 0.  0.
         14    1    1    2    0    0 -0.14457690322E-01 -0.12732044919E-01 -0.47054723578E-02  0.19831067732E-01  0.00000000000E+00 0. -1.
     999901    1    3    3    0    0  0.28600420948E-01  0.14176863426E+00 -0.10304130205E-01  0.89186462248E+00  0.88000000000E+00 0. -1.
        -11    1    4    4    0    0 -0.78309451401E-02 -0.75480588385E-01  0.18770059802E-01  0.78174287274E-01  0.51100000000E-03 0.  1.
         11    1    4    4    0    0 -0.63117854854E-02 -0.53556000954E-01 -0.37604572396E-02  0.54060022511E-01  0.51100000000E-03 0. -1.
</event>
<event>
 8    1  0.1044719E+005  0.1043930E+01  0.7957747E-01            NaN
         13   -1    0    0    0    0  0.00000000000E+00  0.00000000000E+00  0.74505805969E-08  0.10566000000E+00  0.10566000000E+00 0.  1.
     999900   -1    0    0    0    0 -0.00000000000E+00 -0.00000000000E+00 -0.74505805969E-08  0.93827000000E+00  0.93827000000E+00 0.  1.
     999902    2    1    2    0    0 -0.11912886602E-01 -0.11104823943E-01  0.18235946741E-01  0.10194803837E+01  0.10191871610E+01 0.  0.
     999903    2    3    3    0    0  0.59148357210E-01 -0.10308937118E+00 -0.47019109790E-01  0.12944157576E+00  0.20454296311E-01 0.  0.
         14    1    1    2    0    0  0.11912886602E-01  0.11104823943E-01 -0.18235946741E-01  0.24449616266E-01  0.00000000000E+00 0. -1.
     999901    1    3    3    0    0 -0.71061243812E-01  0.91984547239E-01  0.65255056531E-01  0.89003880798E+00  0.88000000000E+00 0. -1.
        -11    1    4    4    0    0  0.32183594297E-01 -0.69809013892E-01 -0.37630560517E-01  0.85588564471E-01  0.51100000000E-03 0.  1.
         11    1    4    4    0    0  0.26964762914E-01 -0.33280357290E-01 -0.93885492721E-02  0.43853011285E-01  0.51100000000E-03 0. -1.
</event>
<event>
 8    1  0.1044719E+005  0.1043930E+01  0.7957747E-01            NaN
         13   -1    0    0    0    0  0.00000000000E+00  0.00000000000E+00  0.74505805969E-08  0.10566000000E+00  0.10566000000E+00 0.  1.
     999900   -1    0    0    0    0 -0.00000000000E+00 -0.00000000000E+00 -0.74505805969E-08  0.93827000000E+00  0.93827000000E+00 0. -1.
     999902    2    1    2    0    0  0.12615228808E-01 -0.19340119877E-01 -0.50702456543E-02  0.10202891111E+01  0.10200151855E+01 0.  0.
     999903    2    3    3    0    0 -0.93049307591E-01 -0.89878396047E-01  0.38469133764E-03  0.13114885281E+00  0.21530766056E-01 0.  0.
         14    1    1    2    0    0 -0.12615228808E-01  0.19340119877E-01  0.50702456543E-02  0.23640888853E-01  0.00000000000E+00 0. -1.
     999901    1    3    3    0    0  0.10566453640E+00  0.70538276170E-01 -0.54549369919E-02  0.88914025834E+00  0.88000000000E+00 0.  1.
        -11    1    4    4    0    0 -0.33104782610E-01 -0.45937855710E-01 -0.33880139306E-02  0.56727003960E-01  0.51100000000E-03 0.  1.
         11    1    4    4    0    0 -0.59944524981E-01 -0.43940540337E-01  0.37727052682E-02  0.74421848851E-01  0.51100000000E-03 0. -1.
</event>
<event>
 8    1  0.1044719E+005  0.1043930E+01  0.7957747E-01            NaN
         13   -1    0    0    0    0  0.00000000000E+00  0.00000000000E+00  0.74505805969E-08  0.10566000000E+00  0.10566000000E+00 0. -1.
     999900   -1    0    0    0    0 -0.00000000000E+00 -0.00000000000E+00 -0.74505805969E-08  0.93827000000E+00  0.93827000000E+00 0.  1.
     999902    2    1    2    0    0  0.52822493200E-02 -0.20608122948E-01  0.90355716158E-02  0.10208164013E+01  0.10205546956E+01 0.  0.
     999903    2    3    3    0    0 -0.12566733620E+00 -0.30190036350E-01  0.88459633331E-02  0.13107506646E+00  0.19967581194E-01 0.  0.
         14    1    1    2    0    0 -0.52822493200E-02  0.20608122948E-01 -0.90355716158E-02  0.23113598676E-01  0.00000000000E+00 0.  1.
     999901    1    3    3    0    0  0.13094958552E+00  0.95819134012E-02  0.18960828272E-03  0.88974133486E+00  0.88000000000E+00 0. -1.
        -11    1    4    4    0    0 -0.10115424366E+00 -0.31791470704E-01  0.98023319254E-02  0.10648579930E+00  0.51100000000E-03 0. -1.
         11    1    4    4    0    0 -0.24513092537E-01  0.16014343544E-02 -0.95636859234E-03  0.24589267162E-01  0.51100000000E-03 0.  1.
</event>
<event>
 8    1  0.1044719E+005  0.1043930E+01  0.7957747E-01            NaN
         13   -1    0    0    0    0  0.00000000000E+00  0.00000000000E+00  0.74505805969E-08  0.10566000000E+00  0.10566000000E+00 0. -1.
     999900   -1    0    0    0    0 -0.00000000000E+00 -0.00000000000E+00 -0.74505805969E-08  0.93827000000E+00  0.93827000000E+00 0. -1.
     999902    2    1    2    0    0 -0.13806601668E-01  0.14126722438E-01 -0.11431910706E-01  0.10211073113E+01  0.10208522254E+01 0.  0.
     999903    2    3    3    0    0  0.11554680782E+00  0.51406963003E-01 -0.26353396571E-01  0.13074515375E+00  0.20150758684E-01 0.  0.
         14    1    1    2    0    0  0.13806601668E-01 -0.14126722438E-01  0.11431910706E-01  0.22822688686E-01  0.00000000000E+00 0. -1.
     999901    1    3    3    0    0 -0.12935340949E+00 -0.37280240565E-01  0.14921485865E-01  0.89036215756E+00  0.88000000000E+00 0. -1.
        -11    1    4    4    0    0  0.98819923462E-01  0.36137577551E-01 -0.18966424985E-01  0.10691720246E+00  0.51100000000E-03 0. -1.
         11    1    4    4    0    0  0.16726884358E-01  0.15269385453E-01 -0.73869715855E-02  0.23827951289E-01  0.51100000000E-03 0.  1.
</event>
<event>
 8    1  0.1044719E+005  0.1043930E+01  0.7957747E-01            NaN
         13   -1    0    0    0    0  0.00000000000E+00  0.00000000000E+00  0.74505805969E-08  0.10566000000E+00  0.10566000000E+00 0.  1.
     999900   -1    0    0    0    0 -0.00000000000E+00 -0.00000000000E+00 -0.74505805969E-08  0.93827000000E+00  0.93827000000E+00 0. -1.
     999902    2    1    2    0    0  0.15611499800E-02 -0.23750688909E-01 -0.16399184238E-02  0.10200716315E+01  0.10197925827E+01 0.  0.
     999903    2    3    3    0    0  0.32347866405E-01 -0.83965983346E-01  0.94306395536E-01  0.13227694877E+00  0.22512754561E-01 0.  0.
         14    1    1    2    0    0 -0.15611499800E-02  0.23750688909E-01  0.16399184238E-02  0.23858368455E-01  0.00000000000E+00 0.  1.
     999901    1    3    3    0    0 -0.30786716425E-01  0.60215294437E-01 -0.95946313960E-01  0.88779468277E+00  0.88000000000E+00 0. -1.
        -11    1    4    4    0    0  0.22198896517E-01 -0.28264667987E-01  0.32530619788E-01  0.48478704684E-01  0.51100000000E-03 0.  1.
         11    1    4    4    0    0  0.10148969888E-01 -0.55701315359E-01  0.61775775748E-01  0.83798244091E-01  0.51100000000E-03 0. -1.
</event>
<event>
 8    1  0.1044719E+005  0.1043930E+01  0.7957747E-01            NaN
         13   -1    0    0    0    0  0.00000000000E+00  0.00000000000E+00  0.74505805969E-08  0.10566000000E+00  0.10566000000E+00 0.  1.
     999900   -1    0    0    0    0 -0.00000000000E+00 -0.00000000000E+00 -0.74505805969E-08  0.93827000000E+00  0.93827000000E+00 0. -1.
     999902    2    1    2    0    0 -0.38053407743E-02  0.85419244459E-02 -0.21728161733E-01  0.10202750195E+01  0.10200007634E+01 0.  0.
     999903    2    3    3    0    0  0.99949187509E-01  0.59331157370E-01  0.53644887858E-01  0.12953058647E+00  0.19757847012E-01 0.  0.
         14    1    1    2    0    0  0.38053407743E-02 -0.85419244459E-02  0.21728161733E-01  0.23654980531E-01  0.00000000000E+00 0.  1.
     999901    1    3    3    0    0 -0.10375452828E+00 -0.50789232924E-01 -0.75373049590E-01  0.89074443300E+00  0.88000000000E+00 0. -1.
        -11    1    4    4    0    0  0.35128449354E-01  0.27438826444E-01  0.12088049876E-01  0.46187435754E-01  0.51100000000E-03 0.  1.
         11    1    4    4    0    0  0.64820738154E-01  0.31892330926E-01  0.41556837981E-01  0.83343150713E-01  0.51100000000E-03 0. -1.
</event>
<event>
 8    1  0.1044719E+005  0.1043930E+01  0.7957747E-01            NaN
         13   -1    0    0    0    0  0.00000000000E+00  0.00000000000E+00  0.74505805969E-08  0.10566000000E+00  0.10566000000E+00 0.  1.
     999900   -1    0    0    0    0 -0.00000000000E+00 -0.00000000000E+00 -0.74505805969E-08  0.93827000000E+00  0.93827000000E+00 0.  1.
     999902    2    1    2    0    0 -0.13672233695E-01 -0.13912956427E-01  0.11795086043E-01  0.10211347289E+01  0.10208802624E+01 0.  0.
     999903    2    3    3    0    0 -0.65344649753E-01  0.76063182312E-01 -0.80692715532E-01  0.13022522867E+00  0.19793051490E-01 0.  0.
         14    1    1    2    0    0  0.13672233695E-01  0.13912956427E-01 -0.11795086043E-01  0.22795271121E-01  0.00000000000E+00 0. -1.
     999901    1    3    3    0    0  0.51672416058E-01 -0.89976138739E-01  0.92487801575E-01  0.89090950021E+00  0.88000000000E+00 0.  1.
        -11    1    4    4    0    0 -0.46706015058E-01  0.41463407322E-01 -0.55394042748E-01  0.83483094590E-01  0.51100000000E-03 0. -1.
         11    1    4    4    0    0 -0.18638634695E-01  0.34599774990E-01 -0.25298672783E-01  0.46742134079E-01  0.51100000000E-03 0.  1.
</event>
<event>
 8    1  0.1044719E+005  0.1043930E+01  0.7957747E-01            NaN
         13   -1    0    0    0    0  0.00000000000E+00  0.00000000000E+00  0.74505805969E-08  0.10566000000E+00  0.10566000000E+00 0.  1.
     999900   -1    0    0    0    0 -0.00000000000E+00 -0.00000000000E+00 -0.74505805969E-08  0.93827000000E+00  0.93827000000E+00 0. -1.
     999902    2    1    2    0    0 -0.16809906117E-01 -0.84583084194E-03 -0.11982435682E-01  0.10232692367E+01  0.10230606354E+01 0.  0.
     999903    2    3    3    0    0 -0.58050485981E-01  0.11910337464E+00 -0.64205985154E-02  0.13415758382E+00  0.20038973013E-01 0.  0.
         14    1    1    2    0    0  0.16809906117E-01  0.84583084194E-03  0.11982435682E-01  0.20660763257E-01  0.00000000000E+00 0. -1.
     999901    1    3    3    0    0  0.41240579864E-01 -0.11994920548E+00 -0.55618371663E-02  0.88911165292E+00  0.88000000000E+00 0. -1.
        -11    1    4    4    0    0 -0.46819916196E-01  0.91176613205E-01 -0.13072390164E-01  0.10332680124E+00  0.51100000000E-03 0. -1.
         11    1    4    4    0    0 -0.11230569785E-01  0.27926761434E-01  0.66517916487E-02  0.30830782588E-01  0.51100000000E-03 0.  1.
</event>
<event>
 8    1  0.1044719E+005  0.1043930E+01  0.7957747E-01            NaN
         13   -1    0    0    0    0  0.00000000000E+00  0.00000000000E+00  0.74505805969E-08  0.10566000000E+00  0.10566000000E+00 0. -1.
     999900   -1    0    0    0    0 -0.00000000000E+00 -0.00000000000E+00 -0.74505805969E-08  0.93827000000E+00  0.93827000000E+00 0.  1.
     999902    2    1    2    0    0 -0.51694964612E-02  0.23467716585E-01 -0.56167548418E-03  0.10198930931E+01  0.10196098020E+01 0.  0.
     999903    2    3    3    0    0 -0.64333745975E-01  0.10791973148E+00 -0.38937330567E-01  0.13304178527E+00  0.19962504953E-01 0.  0.
         14    1    1    2    0    0  0.51694964612E-02 -0.23467716585E-01  0.56167548418E-03  0.24036906930E-01  0.00000000000E+00 0. -1.
     999901    1    3    3    0    0  0.59164249514E-01 -0.84452014890E-01  0.38375655083E-01  0.88685130780E+00  0.88000000000E+00 0.  1.
        -11    1    4    4    0    0 -0.65421576837E-02  0.26724204520E-01 -0.97093194197E-02  0.29180728897E-01  0.51100000000E-03 0. -1.
         11    1    4    4    0    0 -0.57791588291E-01  0.81195526955E-01 -0.29228011148E-01  0.10386105638E+00  0.51100000000E-03 0.  1.
</event>
<event>
 8    1  0.1044719E+005  0.1043930E+01  0.7957747E-01            NaN
         13   -1    0    0    0    0  0.00000000000E+00  0.00000000000E+00  0.74505805969E-08  0.10566000000E+00  0.10566000000E+00 0. -1.
     999900   -1    0    0    0    0 -0.00000000000E+00 -0.00000000000E+00 -0.74505805969E-08  0.93827000000E+00  0.93827000000E+00 0.  1.
     999902    2    1    2    0    0 -0.88135335181E-02  0.29363753331E-02 -0.30273647834E-01  0.10122630705E+01  0.10117676262E+01 0.  0.
     999903    2    3    3    0    0 -0.29520609224E-01 -0.40359088748E-01  0.10756729236E+00  0.12024098274E+00  0.19668480643E-01 0.  0.
         14    1    1    2    0    0  0.88135335181E-02 -0.29363753331E-02  0.30273647834E-01  0.31666929538E-01  0.00000000000E+00 0. -1.
     999901    1    3    3    0    0  0.20707075706E-01  0.43295464081E-01 -0.13784094019E+00  0.89202208772E+00  0.88000000000E+00 0.  1.
        -11    1    4    4    0    0 -0.22879465504E-01 -0.14798327867E-01  0.57580817146E-01  0.63704568703E-01  0.51100000000E-03 0.  1.
         11    1    4    4    0    0 -0.66411437201E-02 -0.25560760881E-01  0.49986475213E-01  0.56536414035E-01  0.51100000000E-03 0. -1.
</event>
<event>
 8    1  0.1044719E+005  0.1043930E+01  0.7957747E-01            NaN
         13   -1    0    0    0    0  0.00000000000E+00  0.00000000000E+00  0.74505805969E-08  0.10566000000E+00  0.10566000000E+00 0.  1.
     999900   -1    0    0    0    0 -0.00000000000E+00 -0.00000000000E+00 -0.74505805969E-08  0.93827000000E+00  0.93827000000E+00 0.  1.
     999902    2    1    2    0    0  0.14324434884E-01  0.21329478555E-02 -0.20080892842E-01  0.10191715437E+01  0.10188707741E+01 0.  0.
     999903    2    3    3    0    0  0.19141658568E-01 -0.77442775752E-01  0.97594559542E-01  0.12776646545E+00  0.20875464827E-01 0.  0.
         14    1    1    2    0    0 -0.14324434884E-01 -0.21329478555E-02  0.20080892842E-01  0.24758456305E-01  0.00000000000E+00 0.  1.
     999901    1    3    3    0    0 -0.48172236838E-02  0.79575723608E-01 -0.11767545238E+00  0.89140507825E+00  0.88000000000E+00 0.  1.
        -11    1    4    4    0    0 -0.42103527042E-02 -0.99830855937E-02  0.98735235157E-02  0.14667537472E-01  0.51100000000E-03 0. -1.
         11    1    4    4    0    0  0.23352011272E-01 -0.67459690159E-01  0.87721036026E-01  0.11309892798E+00  0.51100000000E-03 0.  1.
</event>
<event>
 8    1  0.1044719E+005  0.1043930E+01  0.7957747E-01            NaN
         13   -1    0    0    0    0  0.00000000000E+00  0.00000000000E+00  0.74505805969E-08  0.10566000000E+00  0.10566000000E+00 0.  1.
     999900   -1    0    0    0    0 -0.00000000000E+00 -0.00000000000E+00 -0.74505805969E-08  0.93827000000E+00  0.93827000000E+00 0. -1.
     999902    2    1    2    0    0 -0.92778398448E-02  0.13544363882E-01  0.17329181278E-01  0.10200589165E+01  0.10197795666E+01 0.  0.
     999903    2    3    3    0    0  0.11038706074E+00  0.52802886825E-01 -0.40059661230E-01  0.12924221293E+00  0.11194869785E-01 0.  0.
         14    1    1    2    0    0  0.92778398448E-02 -0.13544363882E-01 -0.17329181278E-01  0.23871083531E-01  0.00000000000E+00 0. -1.
     999901    1    3    3    0    0 -0.11966490059E+00 -0.39258522942E-01  0.57388842508E-01  0.89081670354E+00  0.88000000000E+00 0. -1.
        -11    1    4    4    0    0  0.76162763021E-01  0.34592444709E-01 -0.32485716947E-01  0.89738434511E-01  0.51100000000E-03 0. -1.
         11    1    4    4    0    0  0.34224297721E-01  0.18210442115E-01 -0.75739442823E-02  0.39503778421E-01  0.51100000000E-03 0.  1.
</event>
<event>
 8    1  0.1044719E+005  0.1043930E+01  0.7957747E-01            NaN
         13   -1    0    0    0    0  0.00000000000E+00  0.00000000000E+00  0.74505805969E-08  0.10566000000E+00  0.10566000000E+00 0.  1.
     999900   -1    0    0    0    0 -0.00000000000E+00 -0.00000000000E+00 -0.74505805969E-08  0.93827000000E+00  0.93827000000E+00 0. -1.
     999902    2    1    2    0    0  0.13646149388E-01 -0.92755077443E-02 -0.16708739473E-01  0.10204473594E+01  0.10201771311E+01 0.  0.
     999903    2    3    3    0    0  0.98359129709E-01  0.21320110523E-01  0.80806028304E-01  0.13049145549E+00  0.19218226626E-01 0.  0.
         14    1    1    2    0    0 -0.13646149388E-01  0.92755077443E-02  0.16708739473E-01  0.23482640648E-01  0.00000000000E+00 0.  1.
     999901    1    3    3    0    0 -0.84712980321E-01 -0.30595618268E-01 -0.97514767777E-01  0.88995590387E+00  0.88000000000E+00 0. -1.
        -11    1    4    4    0    0  0.36553594501E-01 -0.95045761199E-03  0.32793399677E-01  0.49119617506E-01  0.51100000000E-03 0. -1.
         11    1    4    4    0    0  0.61805535207E-01  0.22270568135E-01  0.48012628628E-01  0.81371837979E-01  0.51100000000E-03 0.  1.
</event>
<event>
 8    1  0.1044719E+005  0.1043930E+01  0.7957747E-01            NaN
         13   -1    0    0    0    0  0.00000000000E+00  0.00000000000E+00  0.74505805969E-08  0.10566000000E+00  0.10566000000E+00 0. -1.
     999900   -1    0    0    0    0 -0.00000000000E+00 -0.00000000000E+00 -0.74505805969E-08  0.93827000000E+00  0.93827000000E+00 0.  1.
     999902    2    1    2    0    0 -0.22898164271E-01  0.44323561758E-02 -0.49630146215E-02  0.10200845975E+01  0.10198058554E+01 0.  0.
     999903    2    3    3    0    0  0.74316091040E-01  0.75557323831E-01 -0.70938392203E-01  0.12943195871E+00  0.22103978728E-01 0.  0.
         14    1    1    2    0    0  0.22898164271E-01 -0.44323561758E-02  0.49630146215E-02  0.23845402542E-01  0.00000000000E+00 0. -1.
     999901    1    3    3    0    0 -0.97214255311E-01 -0.71124967655E-01  0.65975377581E-01  0.89065263875E+00  0.88000000000E+00 0. -1.
        -11    1    4    4    0    0  0.92057733919E-02  0.10031048975E-01 -0.19233463504E-01  0.23570223729E-01  0.51100000000E-03 0. -1.
         11    1    4    4    0    0  0.65110317648E-01  0.65526274856E-01 -0.51704928699E-01  0.10586173498E+00  0.51100000000E-03 0.  1.
</event>
<event>
 8    1  0.1044719E+005  0.1043930E+01  0.7957747E-01            NaN
         13   -1    0    0    0    0  0.00000000000E+00  0.00000000000E+00  0.74505805969E-08  0.10566000000E+00  0.10566000000E+00 0.  1.
     999900   -1    0    0    0    0 -0.00000000000E+00 -0.00000000000E+00 -0.74505805969E-08  0.93827000000E+00  0.93827000000E+00 0. -1.
     999902    2    1    2    0    0  0.66512496298E-03 -0.15439413496E-01  0.18155381264E-01  0.10200881094E+01  0.10198094504E+01 0.  0.
     999903    2    3    3    0    0 -0.10016702249E+00  0.67731191319E-01  0.43631950319E-01  0.13006927415E+00  0.19832355332E-01 0.  0.
         14    1    1    2    0    0 -0.66512496298E-03  0.15439413496E-01 -0.18155381264E-01  0.23841890637E-01  0.00000000000E+00 0.  1.
     999901    1    3    3    0    0  0.10083214745E+00 -0.83170604815E-01 -0.25476569055E-01  0.89001883521E+00  0.88000000000E+00 0. -1.
        -11    1    4    4    0    0 -0.84525011086E-01  0.50001280779E-01  0.29606729126E-01  0.10257399821E+00  0.51100000000E-03 0.  1.
         11    1    4    4    0    0 -0.15642011400E-01  0.17729910540E-01  0.14025221193E-01  0.27495275937E-01  0.51100000000E-03 0. -1.
</event>
<event>
 8    1  0.1044719E+005  0.1043930E+01  0.7957747E-01            NaN
         13   -1    0    0    0    0  0.00000000000E+00  0.00000000000E+00  0.74505805969E-08  0.10566000000E+00  0.10566000000E+00 0.  1.
     999900   -1    0    0    0    0 -0.00000000000E+00 -0.00000000000E+00 -0.74505805969E-08  0.93827000000E+00  0.93827000000E+00 0. -1.
     999902    2    1    2    0    0 -0.41979937619E-03  0.14080288313E-01  0.20023765310E-01  0.10194477222E+01  0.10191537059E+01 0.  0.
     999903    2    3    3    0    0  0.99308109336E-01  0.27079649743E-01 -0.74834481782E-01  0.12865440932E+00  0.18877218140E-01 0.  0.
         14    1    1    2    0    0  0.41979937619E-03 -0.14080288313E-01 -0.20023765310E-01  0.24482277828E-01  0.00000000000E+00 0. -1.
     999901    1    3    3    0    0 -0.99727908712E-01 -0.12999361430E-01  0.94858247092E-01  0.89079331285E+00  0.88000000000E+00 0.  1.
        -11    1    4    4    0    0  0.25287230276E-01  0.14756825782E-01 -0.16539653831E-01  0.33630777452E-01  0.51100000000E-03 0.  1.
         11    1    4    4    0    0  0.74020879060E-01  0.12322823961E-01 -0.58294827951E-01  0.95023631871E-01  0.51100000000E-03 0. -1.
</event>
<event>
 8    1  0.1044719E+005  0.1043930E+01  0.7957747E-01            NaN
         13   -1    0    0    0    0  0.00000000000E+00  0.00000000000E+00  0.74505805969E-08  0.10566000000E+00  0.10566000000E+00 0.  1.
     999900   -1    0    0    0    0 -0.00000000000E+00 -0.00000000000E+00 -0.74505805969E-08  0.93827000000E+00  0.93827000000E+00 0. -1.
     999902    2    1    2    0    0 -0.55545173958E-02 -0.20348574987E-01  0.99122050214E-02  0.10206240142E+01  0.10203578830E+01 0.  0.
     999903    2    3    3    0    0 -0.11624596998E-01  0.11797743347E+00 -0.44216581000E-01  0.12815504778E+00  0.20366741802E-01 0.  0.
         14    1    1    2    0    0  0.55545173958E-02  0.20348574987E-01 -0.99122050214E-02  0.23305985838E-01  0.00000000000E+00 0. -1.
     999901    1    3    3    0    0  0.60700796025E-02 -0.13832600846E+00  0.54128786021E-01  0.89246896638E+00  0.88000000000E+00 0.  1.
        -11    1    4    4    0    0 -0.14151227180E-01  0.53222003106E-01 -0.15087294356E-01  0.57102770662E-01  0.51100000000E-03 0.  1.
         11    1    4    4    0    0  0.25266301814E-02  0.64755430367E-01 -0.29129286644E-01  0.71052277117E-01  0.51100000000E-03 0. -1.
</event>
<event>
 8    1  0.1044719E+005  0.1043930E+01  0.7957747E-01            NaN
         13   -1    0    0    0    0  0.00000000000E+00  0.00000000000E+00  0.74505805969E-08  0.10566000000E+00  0.10566000000E+00 0.  1.
     999900   -1    0    0    0    0 -0.00000000000E+00 -0.00000000000E+00 -0.74505805969E-08  0.93827000000E+00  0.93827000000E+00 0.  1.
     999902    2    1    2    0    0  0.22776756149E-01 -0.39025589888E-02  0.47060868435E-02  0.10203470010E+01  0.10200744309E+01 0.  0.
     999903    2    3    3    0    0 -0.76898731964E-01  0.39690388980E-01 -0.92553290529E-01  0.12832966121E+00  0.20338348098E-01 0.  0.
         14    1    1    2    0    0 -0.22776756149E-01  0.39025589888E-02 -0.47060868435E-02  0.23582998976E-01  0.00000000000E+00 0.  1.
     999901    1    3    3    0    0  0.99675488113E-01 -0.43592947969E-01  0.97259377372E-01  0.89201733981E+00  0.88000000000E+00 0. -1.
        -11    1    4    4    0    0 -0.62225347637E-01  0.29643666297E-01 -0.83790205188E-01  0.10849792831E+00  0.51100000000E-03 0. -1.
         11    1    4    4    0    0 -0.14673384328E-01  0.10046722683E-01 -0.87630853402E-02  0.19831732904E-01  0.51100000000E-03 0.  1.
</event>
<event>
 7    1  0.1044719E+005  0.1043930E+01  0.7957747E-01            NaN
         13   -1    0    0    0    0  0.00000000000E+00  0.00000000000E+00  0.74505805969E-08  0.10566000000E+00  0.10566000000E+00 0. -1.
     999900   -1    0    0    0    0 -0.00000000000E+00 -0.00000000000E+00 -0.74505805969E-08  0.93827000000E+00  0.93827000000E+00 0.  1.
     999903    2    1    2    0    0 -0.72128654566E-01 -0.45788137239E-01  0.63985851660E-01  0.10851190918E+00  0.19533276729E-01 0.  0.
         14    1    1    2    0    0 -0.43695683349E-01 -0.46394119429E-02  0.16971678616E-02  0.43974052182E-01  0.00000000000E+00 0. -1.
     999901    1    1    2    0    0  0.11582433792E+00  0.50427549182E-01 -0.65683019522E-01  0.89144403864E+00  0.88000000000E+00 0.  1.
        -11    1    3    3    0    0 -0.51737979394E-01 -0.35513118982E-01  0.35851629693E-01  0.72274481003E-01  0.51100000000E-03 0.  1.
         11    1    3    3    0    0 -0.20390675173E-01 -0.10275018257E-01  0.28134221967E-01  0.36237428177E-01  0.51100000000E-03 0. -1.
</event>
<event>
 8    1  0.1044719E+005  0.1043930E+01  0.7957747E-01            NaN
         13   -1    0    0    0    0  0.00000000000E+00  0.00000000000E+00  0.74505805969E-08  0.10566000000E+00  0.10566000000E+00 0.  1.
     999900   -1    0    0    0    0 -0.00000000000E+00 -0.00000000000E+00 -0.74505805969E-08  0.93827000000E+00  0.93827000000E+00 0.  1.
     999902    2    1    2    0    0  0.15103142829E-01 -0.15934468661E-01 -0.82699727296E-02  0.10204692953E+01  0.10201995776E+01 0.  0.
     999903    2    3    3    0    0 -0.16522320454E-01  0.91459920760E-01  0.86082684077E-01  0.12837280466E+00  0.20771237343E-01 0.  0.
         14    1    1    2    0    0 -0.15103142829E-01  0.15934468661E-01  0.82699727296E-02  0.23460704674E-01  0.00000000000E+00 0.  1.
     999901    1    3    3    0    0  0.31625463283E-01 -0.10739438942E+00 -0.94352656806E-01  0.89209649066E+00  0.88000000000E+00 0.  1.
        -11    1    4    4    0    0 -0.76107741807E-03  0.45609795703E-01  0.31915834856E-01  0.55675078253E-01  0.51100000000E-03 0.  1.
         11    1    4    4    0    0 -0.15761243036E-01  0.45850125057E-01  0.54166849221E-01  0.72697726411E-01  0.51100000000E-03 0. -1.
</event>
<event>
 7    1  0.1044719E+005  0.1043930E+01  0.7957747E-01            NaN
         13   -1    0    0    0    0  0.00000000000E+00  0.00000000000E+00  0.74505805969E-08  0.10566000000E+00  0.10566000000E+00 0. -1.
     999900   -1    0    0    0    0 -0.00000000000E+00 -0.00000000000E+00 -0.74505805969E-08  0.93827000000E+00  0.93827000000E+00 0. -1.
     999902    2    1    2    0    0  0.21736788503E-01  0.55477308880E-02  0.45158657280E-02  0.10210464178E+01  0.10207899534E+01 0.  0.
         14    1    1    2    0    0 -0.21736788503E-01 -0.55477308880E-02 -0.45158657280E-02  0.22883582230E-01  0.00000000000E+00 0. -1.
     999901    1    3    3    0    0 -0.35184089071E-01  0.83065904702E-01 -0.75582357901E-01  0.88783475798E+00  0.88000000000E+00 0. -1.
        -11    1    3    3    0    0 -0.62491914907E-02 -0.17777925062E-01  0.20203096686E-01  0.27632105430E-01  0.51100000000E-03 0.  1.
         11    1    3    3    0    0  0.63170069065E-01 -0.59740248752E-01  0.59895126943E-01  0.10557955436E+00  0.51100000000E-03 0. -1.
</event>
<event>
 8    1  0.1044719E+005  0.1043930E+01  0.7957747E-01            NaN
         13   -1    0    0    0    0  0.00000000000E+00  0.00000000000E+00  0.74505805969E-08  0.10566000000E+00  0.10566000000E+00 0. -1.
     999900   -1    0    0    0    0 -0.00000000000E+00 -0.00000000000E+00 -0.74505805969E-08  0.93827000000E+00  0.93827000000E+00 0.  1.
     999902    2    1    2    0    0 -0.22132001894E-01 -0.62301989137E-03 -0.77145361818E-02  0.10204837267E+01  0.10202143445E+01 0.  0.
     999903    2    3    3    0    0  0.40163186694E-01  0.52917929229E-01  0.10881075660E+00  0.12900996514E+00  0.19758581781E-01 0.  0.
         14    1    1    2    0    0  0.22132001894E-01  0.62301989137E-03  0.77145361818E-02  0.23446273267E-01  0.00000000000E+00 0. -1.
     999901    1    3    3    0    0 -0.62295188588E-01 -0.53540949121E-01 -0.11652529278E+00  0.89147376159E+00  0.88000000000E+00 0. -1.
        -11    1    4    4    0    0  0.20739501296E-01  0.35141263897E-01  0.49763583092E-01  0.64356123760E-01  0.51100000000E-03 0.  1.
         11    1    4    4    0    0  0.19423685399E-01  0.17776665333E-01  0.59047173507E-01  0.64653841379E-01  0.51100000000E-03 0. -1.
</event>
<event>
 8    1  0.1044719E+005  0.1043930E+01  0.7957747E-01            NaN
         13   -1    0    0    0    0  0.00000000000E+00  0.00000000000E+00  0.74505805969E-08  0.10566000000E+00  0.10566000000E+00 0.  1.
     999900   -1    0    0    0    0 -0.00000000000E+00 -0.00000000000E+00 -0.74505805969E-08  0.93827000000E+00  0.93827000000E+00 0. -1.
     999902    2    1    2    0    0 -0.14459201470E-01  0.74940320255E-02 -0.18258515851E-01  0.10194636471E+01  0.10191700179E+01 0.  0.
     999903    2    3    3    0    0 -0.11502251711E+00  0.57765129414E-01  0.17799176816E-01  0.13157833869E+00  0.20713736996E-01 0.  0.
         14    1    1    2    0    0  0.14459201470E-01 -0.74940320255E-02  0.18258515851E-01  0.24466352900E-01  0.00000000000E+00 0.  1.
     999901    1    3    3    0    0  0.10056331564E+00 -0.50271097389E-01 -0.36057692667E-01  0.88788530841E+00  0.88000000000E+00 0.  1.
        -11    1    4    4    0    0 -0.10588047903E+00  0.50862790272E-01  0.10383316230E-01  0.11792274442E+00  0.51100000000E-03 0.  1.
         11    1    4    4    0    0 -0.91420380761E-02  0.69023391421E-02  0.74158605856E-02  0.13655594276E-01  0.51100000000E-03 0. -1.
</event>
<event>
 8    1  0.1044719E+005  0.1043930E+01  0.7957747E-01            NaN
         13   -1    0    0    0    0  0.00000000000E+00  0.00000000000E+00  0.74505805969E-08  0.10566000000E+00  0.10566000000E+00 0.  1.
     999900   -1    0    0    0    0 -0.00000000000E+00 -0.00000000000E+00 -0.74505805969E-08  0.93827000000E+00  0.93827000000E+00 0.  1.
     999902    2    1    2    0    0  0.14020888444E-01 -0.73846032997E-02  0.18118834497E-01  0.10198590664E+01  0.10195749632E+01 0.  0.
     999903    2    3    3    0    0 -0.80175168458E-01 -0.97804232450E-01 -0.20307821628E-01  0.12939558355E+00  0.18359844782E-01 0.  0.
         14    1    1    2    0    0 -0.14020888444E-01  0.73846032997E-02 -0.18118834497E-01  0.24070933554E-01  0.00000000000E+00 0. -1.
     999901    1    3    3    0    0  0.94196056902E-01  0.90419629150E-01  0.38426656125E-01  0.89046348290E+00  0.88000000000E+00 0. -1.
        -11    1    4    4    0    0 -0.58704575622E-01 -0.73069391149E-01 -0.68511353533E-02  0.93981712575E-01  0.51100000000E-03 0.  1.
         11    1    4    4    0    0 -0.21470592836E-01 -0.24734841301E-01 -0.13456686275E-01  0.35413870974E-01  0.51100000000E-03 0. -1.
</event>
<event>
 8    1  0.1044719E+005  0.1043930E+01  0.7957747E-01            NaN
         13   -1    0    0    0    0  0.00000000000E+00  0.00000000000E+00  0.74505805969E-08  0.10566000000E+00  0.10566000000E+00 0.  1.
     999900   -1    0    0    0    0 -0.00000000000E+00 -0.00000000000E+00 -0.74505805969E-08  0.93827000000E+00  0.93827000000E+00 0.  1.
     999902    2    1    2    0    0  0.18038221676E-01 -0.20025859877E-02  0.15845321432E-01  0.10198372209E+01  0.10195525956E+01 0.  0.
     999903    2    3    3    0    0 -0.26938975688E-02  0.88870318859E-01  0.94698098289E-01  0.13140857100E+00  0.19881952984E-01 0.  0.
         14    1    1    2    0    0 -0.18038221676E-01  0.20025859877E-02 -0.15845321432E-01  0.24092779067E-01  0.00000000000E+00 0. -1.
     999901    1    3    3    0    0  0.20732119245E-01 -0.90872904847E-01 -0.78852776857E-01  0.88842864993E+00  0.88000000000E+00 0.  1.
        -11    1    4    4    0    0  0.85152068669E-02  0.46251602408E-01  0.49518695807E-01  0.68294083409E-01  0.51100000000E-03 0. -1.
         11    1    4    4    0    0 -0.11209104436E-01  0.42618716452E-01  0.45179402482E-01  0.63114487591E-01  0.51100000000E-03 0.  1.
</event>
<event>
 8    1  0.1044719E+005  0.1043930E+01  0.7957747E-01            NaN
         13   -1    0    0    0    0  0.00000000000E+00  0.00000000000E+00  0.74505805969E-08  0.10566000000E+00  0.10566000000E+00 0. -1.
     999900   -1    0    0    0    0 -0.00000000000E+00 -0.00000000000E+00 -0.74505805969E-08  0.93827000000E+00  0.93827000000E+00 0.  1.
     999902    2    1    2    0    0 -0.92923212273E-02  0.20287315424E-01 -0.68233634753E-02  0.10205958900E+01  0.10203291087E+01 0.  0.
     999903    2    3    3    0    0  0.88496945508E-01 -0.26284999976E-01 -0.89614581344E-01  0.13009821621E+00  0.19291502881E-01 0.  0.
         14    1    1    2    0    0  0.92923212273E-02 -0.20287315424E-01  0.68233634753E-02  0.23334110011E-01  0.00000000000E+00 0.  1.
     999901    1    3    3    0    0 -0.97789266735E-01  0.46572315400E-01  0.82791217869E-01  0.89049767378E+00  0.88000000000E+00 0.  1.
        -11    1    4    4    0    0  0.33788538042E-01 -0.98558915714E-03 -0.36602482340E-01  0.49826092797E-01  0.51100000000E-03 0. -1.
         11    1    4    4    0    0  0.54708407466E-01 -0.25299410819E-01 -0.53012099005E-01  0.80272123413E-01  0.51100000000E-03 0.  1.
</event>
<event>
 8    1  0.1044719E+005  0.1043930E+01  0.7957747E-01            NaN
         13   -1    0    0    0    0  0.00000000000E+00  0.00000000000E+00  0.74505805969E-08  0.10566000000E+00  0.10566000000E+00 0.  1.
     999900   -1    0    0    0    0 -0.00000000000E+00 -0.00000000000E+00 -0.74505805969E-08  0.93827000000E+00  0.93827000000E+00 0.  1.
     999902    2    1    2    0    0  0.11605153239E-01  0.22122308289E-01 -0.24913695227E-02  0.10188245618E+01  0.10185151961E+01 0.  0.
     999903    2    3    3    0    0 -0.64216918516E-01  0.96593169236E-01  0.54178674629E-01  0.13062053703E+00  0.25929576590E-01 0.  0.
         14    1    1    2    0    0 -0.11605153239E-01 -0.22122308289E-01  0.24913695227E-02  0.25105438213E-01  0.00000000000E+00 0.  1.
     999901    1    3    3    0    0  0.75822071755E-01 -0.74470860946E-01 -0.56670044151E-01  0.88820402476E+00  0.88000000000E+00 0. -1.
        -11    1    4    4    0    0 -0.38375358499E-01  0.55372637130E-01  0.17268039756E-01  0.69550294038E-01  0.51100000000E-03 0.  1.
         11    1    4    4    0    0 -0.25841560017E-01  0.41220532105E-01  0.36910634872E-01  0.61070242990E-01  0.51100000000E-03 0. -1.
</event>
<event>
 8    1  0.1044719E+005  0.1043930E+01  0.7957747E-01            NaN
         13   -1    0    0    0    0  0.00000000000E+00  0.00000000000E+00  0.74505805969E-08  0.10566000000E+00  0.10566000000E+00 0. -1.
     999900   -1    0    0    0    0 -0.00000000000E+00 -0.00000000000E+00 -0.74505805969E-08  0.93827000000E+00  0.93827000000E+00 0. -1.
     999902    2    1    2    0    0  0.85584595200E-02 -0.30808192680E-02  0.22431712772E-01  0.10197242070E+01  0.10194368730E+01 0.  0.
     999903    2    3    3    0    0 -0.17441802188E-01  0.14693178599E-02 -0.12446165341E+00  0.12715803109E+00  0.19289539716E-01 0.  0.
         14    1    1    2    0    0 -0.85584595200E-02  0.30808192680E-02 -0.22431712772E-01  0.24205792996E-01  0.00000000000E+00 0.  1.
     999901    1    3    3    0    0  0.26000261708E-01 -0.45501371279E-02  0.14689336618E+00  0.89256617591E+00  0.88000000000E+00 0.  1.
        -11    1    4    4    0    0 -0.17598828299E-01 -0.34318415134E-02 -0.63140856737E-01  0.65639357128E-01  0.51100000000E-03 0.  1.
         11    1    4    4    0    0  0.15702611042E-03  0.49011593733E-02 -0.61320796674E-01  0.61518673962E-01  0.51100000000E-03 0. -1.
</event>
<event>
 8    1  0.1044719E+005  0.1043930E+01  0.7957747E-01            NaN
         13   -1    0    0    0    0  0.00000000000E+00  0.00000000000E+00  0.74505805969E-08  0.10566000000E+00  0.10566000000E+00 0. -1.
     999900   -1    0    0    0    0 -0.00000000000E+00 -0.00000000000E+00 -0.74505805969E-08  0.93827000000E+00  0.93827000000E+00 0. -1.
     999902    2    1    2    0    0 -0.15214651804E-01  0.46376976390E-02 -0.17434933515E-01  0.10203297717E+01  0.10200567985E+01 0.  0.
     999903    2    3    3    0    0 -0.12800747204E+00 -0.18832430829E-01 -0.22574260848E-01  0.13280541716E+00  0.19675066040E-01 0.  0.
         14    1    1    2    0    0  0.15214651804E-01 -0.46376976390E-02  0.17434933515E-01  0.23600228295E-01  0.00000000000E+00 0.  1.
     999901    1    3    3    0    0  0.11279282024E+00  0.23470128468E-01  0.51393273334E-02  0.88752435455E+00  0.88000000000E+00 0.  1.
        -11    1    4    4    0    0 -0.24867600988E-01 -0.40330551078E-02 -0.12483427126E-01  0.28120458499E-01  0.51100000000E-03 0.  1.
         11    1    4    4    0    0 -0.10313987106E+00 -0.14799375721E-01 -0.10090833722E-01  0.10468495866E+00  0.51100000000E-03 0. -1.
</event>
<event>
 8    1  0.1044719E+005  0.1043930E+01  0.7957747E-01            NaN
         13   -1    0    0    0    0  0.00000000000E+00  0.00000000000E+00  0.74505805969E-08  0.10566000000E+00  0.10566000000E+00 0.  1.
     999900   -1    0    0    0    0 -0.00000000000E+00 -0.00000000000E+00 -0.74505805969E-08  0.93827000000E+00  0.93827000000E+00 0.  1.
     999902    2    1    2    0    0  0.23600007218E-01  0.54442873371E-02  0.48731436189E-02  0.10192247752E+01  0.10189253133E+01 0.  0.
     999903    2    3    3    0    0 -0.40553702712E-02  0.12631634093E+00  0.24134131273E-01  0.13032328519E+00  0.20722894492E-01 0.  0.
         14    1    1    2    0    0 -0.23600007218E-01 -0.54442873371E-02 -0.48731436189E-02  0.24705224833E-01  0.00000000000E+00 0. -1.
     999901    1    3    3    0    0  0.27655377489E-01 -0.12087205359E+00 -0.19260987654E-01  0.88890148998E+00  0.88000000000E+00 0.  1.
        -11    1    4    4    0    0 -0.68450892042E-02  0.20482119059E-01 -0.56141971851E-03  0.21608997211E-01  0.51100000000E-03 0.  1.
         11    1    4    4    0    0  0.27897189330E-02  0.10583422187E+00  0.24695550992E-01  0.10871428798E+00  0.51100000000E-03 0. -1.
</event>
<event>
 8    1  0.1044719E+005  0.1043930E+01  0.7957747E-01            NaN
         13   -1    0    0    0    0  0.00000000000E+00  0.00000000000E+00  0.74505805969E-08  0.10566000000E+00  0.10566000000E+00 0.  1.
     999900   -1    0    0    0    0 -0.00000000000E+00 -0.00000000000E+00 -0.74505805969E-08  0.93827000000E+00  0.93827000000E+00 0. -1.
     999902    2    1    2    0    0  0.15527525097E-01 -0.29047528173E-02  0.20551240525E-01  0.10180090604E+01  0.10176790024E+01 0.  0.
     999903    2    3    3    0    0 -0.89524230937E-01 -0.85364568209E-01 -0.20138889689E-01  0.12700334809E+00  0.20556704953E-01 0.  0.
         14    1    1    2    0    0 -0.15527525097E-01  0.29047528173E-02 -0.20551240525E-01  0.25920939637E-01  0.00000000000E+00 0. -1.
     999901    1    3    3    0    0  0.10505175603E+00  0.82459815392E-01  0.40690130214E-01  0.89100571227E+00  0.88000000000E+00 0.  1.
        -11    1    4    4    0    0 -0.99820079805E-02 -0.85477313363E-02  0.41419805386E-02  0.13788448720E-01  0.51100000000E-03 0.  1.
         11    1    4    4    0    0 -0.79542222957E-01 -0.76816836873E-01 -0.24280870228E-01  0.11321489937E+00  0.51100000000E-03 0. -1.
</event>
<event>
 8    1  0.1044719E+005  0.1043930E+01  0.7957747E-01            NaN
         13   -1    0    0    0    0  0.00000000000E+00  0.00000000000E+00  0.74505805969E-08  0.10566000000E+00  0.10566000000E+00 0. -1.
     999900   -1    0    0    0    0 -0.00000000000E+00 -0.00000000000E+00 -0.74505805969E-08  0.93827000000E+00  0.93827000000E+00 0.  1.
     999902    2    1    2    0    0 -0.81885431063E-02  0.13684835019E-01 -0.16732756864E-01  0.10208148080E+01  0.10205530658E+01 0.  0.
     999903    2    3    3    0    0  0.10130148951E+00  0.70608733840E-01  0.37456831194E-01  0.13055366153E+00  0.19840848383E-01 0.  0.
         14    1    1    2    0    0  0.81885431063E-02 -0.13684835019E-01  0.16732756864E-01  0.23115191973E-01  0.00000000000E+00 0. -1.
     999901    1    3    3    0    0 -0.10949003262E+00 -0.56923898821E-01 -0.54189588058E-01  0.89026114649E+00  0.88000000000E+00 0.  1.
        -11    1    4    4    0    0  0.72142310288E-01  0.58422925322E-01  0.22169889469E-01  0.95443785848E-01  0.51100000000E-03 0. -1.
         11    1    4    4    0    0  0.29159179227E-01  0.12185808517E-01  0.15286941726E-01  0.35109875686E-01  0.51100000000E-03 0.  1.
</event>
<event>
 8    1  0.1044719E+005  0.1043930E+01  0.7957747E-01            NaN
         13   -1    0    0    0    0  0.00000000000E+00  0.00000000000E+00  0.74505805969E-08  0.10566000000E+00  0.10566000000E+00 0. -1.
     999900   -1    0    0    0    0 -0.00000000000E+00 -0.00000000000E+00 -0.74505805969E-08  0.93827000000E+00  0.93827000000E+00 0. -1.
     999902    2    1    2    0    0 -0.97411840705E-03  0.17747489944E-01 -0.16727897573E-01  0.10195221147E+01  0.10192299042E+01 0.  0.
     999903    2    3    3    0    0 -0.74348454141E-01 -0.64455924034E-01 -0.82634295109E-01  0.13020504661E+00  0.21039692464E-01 0.  0.
         14    1    1    2    0    0  0.97411840705E-03 -0.17747489944E-01  0.16727897573E-01  0.24407885267E-01  0.00000000000E+00 0.  1.
     999901    1    3    3    0    0  0.73374335734E-01  0.82203413978E-01  0.65906397536E-01  0.88931706812E+00  0.88000000000E+00 0.  1.
        -11    1    4    4    0    0 -0.88205884040E-02 -0.17100722889E-01 -0.10904838697E-01  0.22122706234E-01  0.51100000000E-03 0.  1.
         11    1    4    4    0    0 -0.65527865737E-01 -0.47355201145E-01 -0.71729456412E-01  0.10808234038E+00  0.51100000000E-03 0. -1.
</event>
<event>
 8    1  0.1044719E+005  0.1043930E+01  0.7957747E-01            NaN
         13   -1    0    0    0    0  0.00000000000E+00  0.00000000000E+00  0.74505805969E-08  0.10566000000E+00  0.10566000000E+00 0. -1.
     999900   -1    0    0    0    0 -0.00000000000E+00 -0.00000000000E+00 -0.74505805969E-08  0.93827000000E+00  0.93827000000E+00 0.  1.
     999902    2    1    2    0    0  0.15922549756E-01  0.92008171708E-02 -0.14555169867E-01  0.10204771623E+01  0.10202076275E+01 0.  0.
     999903    2    3    3    0    0  0.33202805539E-02 -0.12366584900E+00  0.31699219252E-01  0.12921298333E+00  0.19669470912E-01 0.  0.
         14    1    1    2    0    0 -0.15922549756E-01 -0.92008171708E-02  0.14555169867E-01  0.23452837722E-01  0.00000000000E+00 0.  1.
     999901    1    3    3    0    0  0.12602269202E-01  0.13286666618E+00 -0.46254389119E-01  0.89126417895E+00  0.88000000000E+00 0.  1.
        -11    1    4    4    0    0  0.16833412067E-02 -0.41674989751E-01  0.20386975165E-01  0.46427667244E-01  0.51100000000E-03 0.  1.
         11    1    4    4    0    0  0.16369393472E-02 -0.81990859254E-01  0.11312244087E-01  0.82785316083E-01  0.51100000000E-03 0. -1.
</event>
<event>
 8    1  0.1044719E+005  0.1043930E+01  0.7957747E-01            NaN
         13   -1    0    0    0    0  0.00000000000E+00  0.00000000000E+00  0.74505805969E-08  0.10566000000E+00  0.10566000000E+00 0. -1.
     999900   -1    0    0    0    0 -0.00000000000E+00 -0.00000000000E+00 -0.74505805969E-08  0.93827000000E+00  0.93827000000E+00 0. -1.
     999902    2    1    2    0    0 -0.23115731146E-01 -0.96427106499E-02 -0.80548739754E-03  0.10188707162E+01  0.10185625011E+01 0.  0.
     999903    2    3    3    0    0  0.19581787280E-01  0.30821093076E-01 -0.12177558301E+00  0.12864930467E+00  0.19696822196E-01 0.  0.
         14    1    1    2    0    0  0.23115731146E-01  0.96427106499E-02  0.80548739754E-03  0.25059283810E-01  0.00000000000E+00 0. -1.
     999901    1    3    3    0    0 -0.42697518426E-01 -0.40463803726E-01  0.12097009561E+00  0.89022141152E+00  0.88000000000E+00 0.  1.
        -11    1    4    4    0    0  0.11974908371E-01  0.29021057113E-02 -0.42643687484E-01  0.44391055983E-01  0.51100000000E-03 0.  1.
         11    1    4    4    0    0  0.76068789090E-02  0.27918987365E-01 -0.79131895524E-01  0.84258248691E-01  0.51100000000E-03 0. -1.
</event>
<event>
 8    1  0.1044719E+005  0.1043930E+01  0.7957747E-01            NaN
         13   -1    0    0    0    0  0.00000000000E+00  0.00000000000E+00  0.74505805969E-08  0.10566000000E+00  0.10566000000E+00 0. -1.
     999900   -1    0    0    0    0 -0.00000000000E+00 -0.00000000000E+00 -0.74505805969E-08  0.93827000000E+00  0.93827000000E+00 0.  1.
     999902    2    1    2    0    0 -0.14221804945E-01  0.17187728103E-01 -0.74197132137E-02  0.10204197921E+01  0.10201489216E+01 0.  0.
     999903    2    3    3    0    0  0.48477341256E-01  0.10943066930E+00  0.50349417303E-01  0.13150066437E+00  0.20790308011E-01 0.  0.
         14    1    1    2    0    0  0.14221804945E-01 -0.17187728103E-01  0.74197132137E-02  0.23510207941E-01  0.00000000000E+00 0. -1.
     999901    1    3    3    0    0 -0.62699146202E-01 -0.92242941199E-01 -0.57769130517E-01  0.88891912769E+00  0.88000000000E+00 0.  1.
        -11    1    4    4    0    0  0.19451772230E-01  0.22232524218E-01  0.10977424739E-01  0.31518590560E-01  0.51100000000E-03 0. -1.
         11    1    4    4    0    0  0.29025569026E-01  0.87198145084E-01  0.39371992564E-01  0.99982073807E-01  0.51100000000E-03 0.  1.
</event>
<event>
 8    1  0.1044719E+005  0.1043930E+01  0.7957747E-01            NaN
         13   -1    0    0    0    0  0.00000000000E+00  0.00000000000E+00  0.74505805969E-08  0.10566000000E+00  0.10566000000E+00 0. -1.
     999900   -1    0    0    0    0 -0.00000000000E+00 -0.00000000000E+00 -0.74505805969E-08  0.93827000000E+00  0.93827000000E+00 0.  1.
     999902    2    1    2    0    0 -0.22216074243E-01 -0.48658843361E-02  0.63715237160E-02  0.10203116364E+01  0.10200382386E+01 0.  0.
     999903    2    3    3    0    0  0.10318041460E+00 -0.65608481171E-01 -0.33903525907E-01  0.12843943584E+00  0.19914036575E-01 0.  0.
         14    1    1    2    0    0  0.22216074243E-01  0.48658843361E-02 -0.63715237160E-02  0.23618363610E-01  0.00000000000E+00 0. -1.
     999901    1    3    3    0    0 -0.12539648884E+00  0.60742596834E-01  0.40275049623E-01  0.89187220055E+00  0.88000000000E+00 0.  1.
        -11    1    4    4    0    0  0.52213479738E-01 -0.24939104367E-01 -0.86281394154E-02  0.58505660441E-01  0.51100000000E-03 0. -1.
         11    1    4    4    0    0  0.50966934862E-01 -0.40669376804E-01 -0.25275386491E-01  0.69933775403E-01  0.51100000000E-03 0.  1.
</event>
<event>
 8    1  0.1044719E+005  0.1043930E+01  0.7957747E-01            NaN
         13   -1    0    0    0    0  0.00000000000E+00  0.00000000000E+00  0.74505805969E-08  0.10566000000E+00  0.10566000000E+00 0.  1.
     999900   -1    0    0    0    0 -0.00000000000E+00 -0.00000000000E+00 -0.74505805969E-08  0.93827000000E+00  0.93827000000E+00 0.  1.
     999902    2    1    2    0    0 -0.51309473038E-02 -0.12489718054E-01 -0.20175489562E-01  0.10196530550E+01  0.10193640089E+01 0.  0.
     999903    2    3    3    0    0  0.11228718310E+00  0.32008513080E-02 -0.63718599605E-01  0.13064843540E+00  0.19755930764E-01 0.  0.
         14    1    1    2    0    0  0.51309473038E-02  0.12489718054E-01  0.20175489562E-01  0.24276944956E-01  0.00000000000E+00 0.  1.
     999901    1    3    3    0    0 -0.11741813040E+00 -0.15690569362E-01  0.43543110043E-01  0.88900461964E+00  0.88000000000E+00 0. -1.
        -11    1    4    4    0    0  0.37945296163E-01  0.10168696509E-01 -0.19387126267E-01  0.43810611448E-01  0.51100000000E-03 0.  1.
         11    1    4    4    0    0  0.74341886934E-01 -0.69678452005E-02 -0.44331473338E-01  0.86837823953E-01  0.51100000000E-03 0. -1.
</event>
<event>
 8    1  0.1044719E+005  0.1043930E+01  0.7957747E-01            NaN
         13   -1    0    0    0    0  0.00000000000E+00  0.00000000000E+00  0.74505805969E-08  0.10566000000E+00  0.10566000000E+00 0.  1.
     999900   -1    0    0    0    0 -0.00000000000E+00 -0.00000000000E+00 -0.74505805969E-08  0.93827000000E+00  0.93827000000E+00 0. -1.
     999902    2    1    2    0    0 -0.13129609099E-01 -0.14776438510E-01 -0.13272335135E-01  0.10201206604E+01  0.10198427708E+01 0.  0.
     999903    2    3    3    0    0 -0.71723032291E-01  0.83901382389E-01 -0.67539397084E-01  0.13101132207E+00  0.20463651275E-01 0.  0.
         14    1    1    2    0    0  0.13129609099E-01  0.14776438510E-01  0.13272335135E-01  0.23809339555E-01  0.00000000000E+00 0.  1.
     999901    1    3    3    0    0  0.58593423192E-01 -0.98677820899E-01  0.54267061949E-01  0.88910933838E+00  0.88000000000E+00 0. -1.
        -11    1    4    4    0    0 -0.32115731920E-01  0.49084295802E-01 -0.27439973042E-01  0.64760339504E-01  0.51100000000E-03 0.  1.
         11    1    4    4    0    0 -0.39607300370E-01  0.34817086587E-01 -0.40099424042E-01  0.66250982563E-01  0.51100000000E-03 0. -1.
</event>
<event>
 8    1  0.1044719E+005  0.1043930E+01  0.7957747E-01            NaN
         13   -1    0    0    0    0  0.00000000000E+00  0.00000000000E+00  0.74505805969E-08  0.10566000000E+00  0.10566000000E+00 0.  1.
     999900   -1    0    0    0    0 -0.00000000000E+00 -0.00000000000E+00 -0.74505805969E-08  0.93827000000E+00  0.93827000000E+00 0.  1.
     999902    2    1    2    0    0  0.42308836527E-02  0.78234325398E-02 -0.23099819668E-01  0.10191770579E+01  0.10188764239E+01 0.  0.
     999903    2    3    3    0    0 -0.10497376329E+00 -0.34348413483E-01  0.60342085345E-01  0.12751194644E+00  0.20465207852E-01 0.  0.
         14    1    1    2    0    0 -0.42308836527E-02 -0.78234325398E-02  0.23099819668E-01  0.24752942085E-01  0.00000000000E+00 0.  1.
     999901    1    3    3    0    0  0.10920464694E+00  0.42171846023E-01 -0.83441905013E-01  0.89166511148E+00  0.88000000000E+00 0.  1.
        -11    1    4    4    0    0 -0.37016466838E-01 -0.31980122553E-02  0.14954104985E-01  0.40054119344E-01  0.51100000000E-03 0.  1.
         11    1    4    4    0    0 -0.67957296454E-01 -0.31150401228E-01  0.45387980360E-01  0.87457827095E-01  0.51100000000E-03 0. -1.
</event>
<event>
 8    1  0.1173347E+005  0.1043930E+01  0.7957747E-01            NaN
         13   -1    0    0    0    0  0.00000000000E+00  0.00000000000E+00  0.74505805969E-08  0.10566000000E+00  0.10566000000E+00 0.  1.
     999900   -1    0    0    0    0 -0.00000000000E+00 -0.00000000000E+00 -0.74505805969E-08  0.93827000000E+00  0.93827000000E+00 0.  1.
     999902    2    1    2    0    0 -0.19848902533E-02  0.16344741863E-01 -0.16458638824E-01  0.10206495969E+01  0.10203840564E+01 0.  0.
     999903    2    3    3    0    0 -0.89653125764E-01  0.18540845414E-01  0.90012048793E-01  0.12990465603E+00  0.19789007626E-01 0.  0.
         14    1    1    2    0    0  0.19848902533E-02 -0.16344741863E-01  0.16458638824E-01  0.23280403085E-01  0.00000000000E+00 0.  1.
     999901    1    3    3    0    0  0.87668235510E-01 -0.21961035517E-02 -0.10647068762E+00  0.89074494088E+00  0.88000000000E+00 0.  1.
        -11    1    4    4    0    0 -0.27138042131E-01  0.13523517783E-01  0.36551434006E-01  0.47493444946E-01  0.51100000000E-03 0.  1.
         11    1    4    4    0    0 -0.62515083633E-01  0.50173276309E-02  0.53460614786E-01  0.82411211085E-01  0.51100000000E-03 0. -1.
</event>
<event>
 8    1  0.1044719E+005  0.1043930E+01  0.7957747E-01            NaN
         13   -1    0    0    0    0  0.00000000000E+00  0.00000000000E+00  0.74505805969E-08  0.10566000000E+00  0.10566000000E+00 0. -1.
     999900   -1    0    0    0    0 -0.00000000000E+00 -0.00000000000E+00 -0.74505805969E-08  0.93827000000E+00  0.93827000000E+00 0. -1.
     999902    2    1    2    0    0 -0.14235114455E-01  0.87814743972E-02 -0.15516518245E-01  0.10211151997E+01  0.10208602920E+01 0.  0.
     999903    2    3    3    0    0  0.98315068795E-01  0.83307003812E-01  0.58430715514E-02  0.13056602619E+00  0.20185045816E-01 0.  0.
         14    1    1    2    0    0  0.14235114455E-01 -0.87814743972E-02  0.15516518245E-01  0.22814800341E-01  0.00000000000E+00 0. -1.
     999901    1    3    3    0    0 -0.11255018325E+00 -0.74525529414E-01 -0.21359589797E-01  0.89054917347E+00  0.88000000000E+00 0. -1.
        -11    1    4    4    0    0  0.15638476695E-01  0.15637762791E-01  0.84857236938E-02  0.23693252332E-01  0.51100000000E-03 0.  1.
         11    1    4    4    0    0  0.82676592100E-01  0.67669241020E-01 -0.26426521424E-02  0.10687277386E+00  0.51100000000E-03 0. -1.
</event>
<event>
 8    1  0.1044719E+005  0.1043930E+01  0.7957747E-01            NaN
         13   -1    0    0    0    0  0.00000000000E+00  0.00000000000E+00  0.74505805969E-08  0.10566000000E+00  0.10566000000E+00 0.  1.
     999900   -1    0    0    0    0 -0.00000000000E+00 -0.00000000000E+00 -0.74505805969E-08  0.93827000000E+00  0.93827000000E+00 0. -1.
     999902    2    1    2    0    0 -0.14762491663E-01  0.12709270587E-01 -0.18679207928E-01  0.10169416779E+01  0.10165834972E+01 0.  0.
     999903    2    3    3    0    0 -0.38832432491E-01 -0.48116554774E-01 -0.11222894576E+00  0.12956875941E+00  0.19224112270E-01 0.  0.
         14    1    1    2    0    0  0.14762491663E-01 -0.12709270587E-01  0.18679207928E-01  0.26988322063E-01  0.00000000000E+00 0.  1.
     999901    1    3    3    0    0  0.24069940828E-01  0.60825825361E-01  0.93549737833E-01  0.88737291852E+00  0.88000000000E+00 0.  1.
        -11    1    4    4    0    0 -0.26333697247E-01 -0.17665304910E-01 -0.58956918020E-01  0.66945544375E-01  0.51100000000E-03 0.  1.
         11    1    4    4    0    0 -0.12498735244E-01 -0.30451249864E-01 -0.53272027741E-01  0.62623215037E-01  0.51100000000E-03 0. -1.
</event>
<event>
 8    1  0.1044719E+005  0.1043930E+01  0.7957747E-01            NaN
         13   -1    0    0    0    0  0.00000000000E+00  0.00000000000E+00  0.74505805969E-08  0.10566000000E+00  0.10566000000E+00 0. -1.
     999900   -1    0    0    0    0 -0.00000000000E+00 -0.00000000000E+00 -0.74505805969E-08  0.93827000000E+00  0.93827000000E+00 0. -1.
     999902    2    1    2    0    0  0.13009711550E-01  0.29281028859E-02  0.19804599723E-01  0.10200543105E+01  0.10197748515E+01 0.  0.
     999903    2    3    3    0    0  0.35652438849E-01 -0.10637537920E+00  0.66100550786E-01  0.13179575610E+00  0.20347501483E-01 0.  0.
         14    1    1    2    0    0 -0.13009711550E-01 -0.29281028859E-02 -0.19804599723E-01  0.23875689546E-01  0.00000000000E+00 0. -1.
     999901    1    3    3    0    0 -0.22642727299E-01  0.10930348208E+00 -0.46295951063E-01  0.88825855435E+00  0.88000000000E+00 0.  1.
        -11    1    4    4    0    0  0.72675033569E-02 -0.83795947570E-02  0.19371232801E-02  0.11271547406E-01  0.51100000000E-03 0. -1.
         11    1    4    4    0    0  0.28384935492E-01 -0.97995784442E-01  0.64163427506E-01  0.12052420870E+00  0.51100000000E-03 0.  1.
</event>
<event>
 8    1  0.1044719E+005  0.1043930E+01  0.7957747E-01            NaN
         13   -1    0    0    0    0  0.00000000000E+00  0.00000000000E+00  0.74505805969E-08  0.10566000000E+00  0.10566000000E+00 0. -1.
     999900   -1    0    0    0    0 -0.00000000000E+00 -0.00000000000E+00 -0.74505805969E-08  0.93827000000E+00  0.93827000000E+00 0.  1.
     999902    2    1    2    0    0  0.49582439502E-02  0.18462975439E-01 -0.13424552322E-01  0.10205701145E+01  0.10203027366E+01 0.  0.
     999903    2    3    3    0    0  0.12928171046E+00  0.15543899515E-01 -0.14736444935E-02  0.13174635834E+00  0.19988942843E-01 0.  0.
         14    1    1    2    0    0 -0.49582439502E-02 -0.18462975439E-01  0.13424552322E-01  0.23359885492E-01  0.00000000000E+00 0. -1.
     999901    1    3    3    0    0 -0.12432346651E+00  0.29190759238E-02 -0.11950907828E-01  0.88882375617E+00  0.88000000000E+00 0. -1.
        -11    1    4    4    0    0  0.69950577666E-01  0.12476199578E-01  0.82849184558E-02  0.71537681445E-01  0.51100000000E-03 0.  1.
         11    1    4    4    0    0  0.59331132796E-01  0.30676999370E-02 -0.97585629493E-02  0.60208676896E-01  0.51100000000E-03 0. -1.
</event>
<event>
 8    1  0.1044719E+005  0.1043930E+01  0.7957747E-01            NaN
         13   -1    0    0    0    0  0.00000000000E+00  0.00000000000E+00  0.74505805969E-08  0.10566000000E+00  0.10566000000E+00 0.  1.
     999900   -1    0    0    0    0 -0.00000000000E+00 -0.00000000000E+00 -0.74505805969E-08  0.93827000000E+00  0.93827000000E+00 0. -1.
     999902    2    1    2    0    0  0.12259036501E-01 -0.45311122795E-02  0.19797850809E-01  0.10202072293E+01  0.10199313804E+01 0.  0.
     999903    2    3    3    0    0 -0.24810931277E-01 -0.75327218672E-01 -0.99391421444E-01  0.12858379204E+00  0.19114516373E-01 0.  0.
         14    1    1    2    0    0 -0.12259036501E-01  0.45311122795E-02 -0.19797850809E-01  0.23722770729E-01  0.00000000000E+00 0. -1.
     999901    1    3    3    0    0  0.37069967777E-01  0.70796106392E-01  0.11918927225E+00  0.89162343723E+00  0.88000000000E+00 0.  1.
        -11    1    4    4    0    0 -0.35471111553E-02 -0.29653022014E-01 -0.26226810840E-01  0.39749093574E-01  0.51100000000E-03 0. -1.
         11    1    4    4    0    0 -0.21263820121E-01 -0.45674196658E-01 -0.73164610604E-01  0.88834698471E-01  0.51100000000E-03 0.  1.
</event>
<event>
 8    1  0.1044719E+005  0.1043930E+01  0.7957747E-01            NaN
         13   -1    0    0    0    0  0.00000000000E+00  0.00000000000E+00  0.74505805969E-08  0.10566000000E+00  0.10566000000E+00 0.  1.
     999900   -1    0    0    0    0 -0.00000000000E+00 -0.00000000000E+00 -0.74505805969E-08  0.93827000000E+00  0.93827000000E+00 0. -1.
     999902    2    1    2    0    0  0.13461682468E-01 -0.11180546714E-01  0.15671322270E-01  0.10204393239E+01  0.10201689086E+01 0.  0.
     999903    2    3    3    0    0 -0.45968774186E-01 -0.10542104289E+00 -0.57995527919E-01  0.13036064478E+00  0.20092087120E-01 0.  0.
         14    1    1    2    0    0 -0.13461682468E-01  0.11180546714E-01 -0.15671322270E-01  0.23490676052E-01  0.00000000000E+00 0.  1.
     999901    1    3    3    0    0  0.59430456655E-01  0.94240496172E-01  0.73666850189E-01  0.89007867917E+00  0.88000000000E+00 0.  1.
        -11    1    4    4    0    0 -0.57298621389E-02 -0.35644573288E-01 -0.20390027444E-01  0.41465422526E-01  0.51100000000E-03 0. -1.
         11    1    4    4    0    0 -0.40238912048E-01 -0.69776469597E-01 -0.37605500475E-01  0.88895222252E-01  0.51100000000E-03 0.  1.
</event>
<event>
 8    1  0.1044719E+005  0.1043930E+01  0.7957747E-01            NaN
         13   -1    0    0    0    0  0.00000000000E+00  0.00000000000E+00  0.74505805969E-08  0.10566000000E+00  0.10566000000E+00 0.  1.
     999900   -1    0    0    0    0 -0.00000000000E+00 -0.00000000000E+00 -0.74505805969E-08  0.93827000000E+00  0.93827000000E+00 0. -1.
     999902    2    1    2    0    0  0.11633741196E-01  0.14253425933E-01  0.16729254738E-01  0.10190629123E+01  0.10187594649E+01 0.  0.
     999903    2    3    3    0    0 -0.37160063754E-01  0.11734327719E+00  0.41258091419E-01  0.13136362954E+00  0.20096219017E-01 0.  0.
         14    1    1    2    0    0 -0.11633741196E-01 -0.14253425933E-01 -0.16729254738E-01  0.24867087669E-01  0.00000000000E+00 0. -1.
     999901    1    3    3    0    0  0.48793804950E-01 -0.10308985126E+00 -0.24528836681E-01  0.88769928279E+00  0.88000000000E+00 0. -1.
        -11    1    4    4    0    0 -0.30214808014E-01  0.78539484086E-01  0.36231273792E-01  0.91620693653E-01  0.51100000000E-03 0.  1.
         11    1    4    4    0    0 -0.69452557400E-02  0.38803793106E-01  0.50268176270E-02  0.39742935890E-01  0.51100000000E-03 0. -1.
</event>
<event>
 8    1  0.1044719E+005  0.1043930E+01  0.7957747E-01            NaN
         13   -1    0    0    0    0  0.00000000000E+00  0.00000000000E+00  0.74505805969E-08  0.10566000000E+00  0.10566000000E+00 0.  1.
     999900   -1    0    0    0    0 -0.00000000000E+00 -0.00000000000E+00 -0.74505805969E-08  0.93827000000E+00  0.93827000000E+00 0.  1.
     999902    2    1    2    0    0 -0.13960566767E-01  0.70275814983E-02 -0.19139912914E-01  0.10192192616E+01  0.10189196645E+01 0.  0.
     999903    2    3    3    0    0  0.92031280008E-01  0.72531768127E-01  0.47232671981E-01  0.12796711429E+00  0.20348050272E-01 0.  0.
         14    1    1    2    0    0  0.13960566767E-01 -0.70275814983E-02  0.19139912914E-01  0.24710738405E-01  0.00000000000E+00 0. -1.
     999901    1    3    3    0    0 -0.10599184677E+00 -0.65504186629E-01 -0.66372584895E-01  0.89125214730E+00  0.88000000000E+00 0. -1.
        -11    1    4    4    0    0  0.77396524352E-01  0.60807231332E-01  0.31096989870E-01  0.10322318182E+00  0.51100000000E-03 0.  1.
         11    1    4    4    0    0  0.14634755655E-01  0.11724536795E-01  0.16135682111E-01  0.24743932475E-01  0.51100000000E-03 0. -1.
</event>
<event>
 8    1  0.1044719E+005  0.1043930E+01  0.7957747E-01            NaN
         13   -1    0    0    0    0  0.00000000000E+00  0.00000000000E+00  0.74505805969E-08  0.10566000000E+00  0.10566000000E+00 0. -1.
     999900   -1    0    0    0    0 -0.00000000000E+00 -0.00000000000E+00 -0.74505805969E-08  0.93827000000E+00  0.93827000000E+00 0. -1.
     999902    2    1    2    0    0 -0.14073439520E-01  0.18130478840E-01 -0.75614144535E-02  0.10197649229E+01  0.10194785662E+01 0.  0.
     999903    2    3    3    0    0  0.69529795180E-01  0.57769307947E-01 -0.92490560486E-01  0.13084777407E+00  0.19873370186E-01 0.  0.
         14    1    1    2    0    0  0.14073439520E-01 -0.18130478840E-01  0.75614144535E-02  0.24165077104E-01  0.00000000000E+00 0. -1.
     999901    1    3    3    0    0 -0.83603234700E-01 -0.39638829108E-01  0.84929146032E-01  0.88891714882E+00  0.88000000000E+00 0.  1.
        -11    1    4    4    0    0  0.36219733396E-01  0.41745943531E-01 -0.60672838780E-01  0.82073426730E-01  0.51100000000E-03 0. -1.
         11    1    4    4    0    0  0.33310061784E-01  0.16023364416E-01 -0.31817721706E-01  0.48774347344E-01  0.51100000000E-03 0.  1.
</event>
<event>
 8    1  0.2114051E+005  0.1043930E+01  0.7957747E-01            NaN
         13   -1    0    0    0    0  0.00000000000E+00  0.00000000000E+00  0.74505805969E-08  0.10566000000E+00  0.10566000000E+00 0. -1.
     999900   -1    0    0    0    0 -0.00000000000E+00 -0.00000000000E+00 -0.74505805969E-08  0.93827000000E+00  0.93827000000E+00 0.  1.
     999902    2    1    2    0    0  0.17298464350E-01  0.11949570241E-01  0.12637503146E-01  0.10193997007E+01  0.10191045158E+01 0.  0.
     999903    2    3    3    0    0  0.10743562706E+00  0.38365541085E-01  0.65097353741E-01  0.13284764496E+00  0.19912373098E-01 0.  0.
         14    1    1    2    0    0 -0.17298464350E-01 -0.11949570241E-01 -0.12637503146E-01  0.24530299297E-01  0.00000000000E+00 0.  1.
     999901    1    3    3    0    0 -0.90137162712E-01 -0.26415970844E-01 -0.52459850595E-01  0.88655205574E+00  0.88000000000E+00 0.  1.
        -11    1    4    4    0    0  0.63277830572E-01  0.20682285314E-01  0.48872887263E-01  0.82587293200E-01  0.51100000000E-03 0.  1.
         11    1    4    4    0    0  0.44157796490E-01  0.17683255772E-01  0.16224466478E-01  0.50260351760E-01  0.51100000000E-03 0. -1.
</event>
<event>
 8    1  0.1044719E+005  0.1043930E+01  0.7957747E-01            NaN
         13   -1    0    0    0    0  0.00000000000E+00  0.00000000000E+00  0.74505805969E-08  0.10566000000E+00  0.10566000000E+00 0. -1.
     999900   -1    0    0    0    0 -0.00000000000E+00 -0.00000000000E+00 -0.74505805969E-08  0.93827000000E+00  0.93827000000E+00 0. -1.
     999902    2    1    2    0    0 -0.14683720781E-01  0.13181748801E-01 -0.13790034546E-01  0.10198564624E+01  0.10195722970E+01 0.  0.
     999903    2    3    3    0    0  0.43757586584E-01  0.79296907023E-01 -0.93631429647E-01  0.13184675027E+00  0.20346869339E-01 0.  0.
         14    1    1    2    0    0  0.14683720781E-01 -0.13181748801E-01  0.13790034546E-01  0.24073537551E-01  0.00000000000E+00 0. -1.
     999901    1    3    3    0    0 -0.58441307365E-01 -0.66115158221E-01  0.79841395101E-01  0.88800971218E+00  0.88000000000E+00 0.  1.
        -11    1    4    4    0    0  0.21269967131E-01  0.55206822830E-01 -0.52165388874E-01  0.78877713621E-01  0.51100000000E-03 0.  1.
         11    1    4    4    0    0  0.22487619453E-01  0.24090084193E-01 -0.41466040773E-01  0.52969036648E-01  0.51100000000E-03 0. -1.
</event>
<event>
 8    1  0.1044719E+005  0.1043930E+01  0.7957747E-01            NaN
         13   -1    0    0    0    0  0.00000000000E+00  0.00000000000E+00  0.74505805969E-08  0.10566000000E+00  0.10566000000E+00 0. -1.
     999900   -1    0    0    0    0 -0.00000000000E+00 -0.00000000000E+00 -0.74505805969E-08  0.93827000000E+00  0.93827000000E+00 0. -1.
     999902    2    1    2    0    0 -0.12207639527E-01  0.13980106164E-01  0.14209791463E-01  0.10205550561E+01  0.10202873293E+01 0.  0.
     999903    2    3    3    0    0 -0.32602479393E-01 -0.33510681788E-02  0.12721055860E+00  0.13292591476E+00  0.20313081368E-01 0.  0.
         14    1    1    2    0    0  0.12207639527E-01 -0.13980106164E-01 -0.14209791463E-01  0.23374943949E-01  0.00000000000E+00 0.  1.
     999901    1    3    3    0    0  0.20394839866E-01  0.17331174343E-01 -0.11300076714E+00  0.88762914129E+00  0.88000000000E+00 0. -1.
        -11    1    4    4    0    0 -0.23059691232E-01  0.57661357728E-02  0.62239405732E-01  0.66625839044E-01  0.51100000000E-03 0. -1.
         11    1    4    4    0    0 -0.95427881606E-02 -0.91172039516E-02  0.64971152868E-01  0.66300075715E-01  0.51100000000E-03 0.  1.
</event>
<event>
 8    1  0.1044719E+005  0.1043930E+01  0.7957747E-01            NaN
         13   -1    0    0    0    0  0.00000000000E+00  0.00000000000E+00  0.74505805969E-08  0.10566000000E+00  0.10566000000E+00 0.  1.
     999900   -1    0    0    0    0 -0.00000000000E+00 -0.00000000000E+00 -0.74505805969E-08  0.93827000000E+00  0.93827000000E+00 0.  1.
     999902    2    1    2    0    0 -0.17781100998E-01 -0.15238765413E-01 -0.72386944796E-02  0.10194190591E+01  0.10191243457E+01 0.  0.
     999903    2    3    3    0    0 -0.18964574208E-01  0.28806119615E-01 -0.12426888022E+00  0.13057856902E+00  0.20458751021E-01 0.  0.
         14    1    1    2    0    0  0.17781100998E-01  0.15238765413E-01  0.72386944796E-02  0.24510940859E-01  0.00000000000E+00 0.  1.
     999901    1    3    3    0    0  0.11834732100E-02 -0.44044885028E-01  0.11703018574E+00  0.88884049012E+00  0.88000000000E+00 0. -1.
        -11    1    4    4    0    0 -0.17077720471E-01  0.89343569100E-02 -0.47707499917E-01  0.51456174937E-01  0.51100000000E-03 0. -1.
         11    1    4    4    0    0 -0.18868537373E-02  0.19871762705E-01 -0.76561380305E-01  0.79122394082E-01  0.51100000000E-03 0.  1.
</event>
<event>
 8    1  0.1044719E+005  0.1043930E+01  0.7957747E-01            NaN
         13   -1    0    0    0    0  0.00000000000E+00  0.00000000000E+00  0.74505805969E-08  0.10566000000E+00  0.10566000000E+00 0. -1.
     999900   -1    0    0    0    0 -0.00000000000E+00 -0.00000000000E+00 -0.74505805969E-08  0.93827000000E+00  0.93827000000E+00 0.  1.
     999902    2    1    2    0    0 -0.23672291076E-01  0.14691853084E-02 -0.15748669096E-02  0.10201599332E+01  0.10198829704E+01 0.  0.
     999903    2    3    3    0    0  0.65971189397E-01  0.10682686253E+00 -0.22598220357E-01  0.12910540336E+00  0.19833033682E-01 0.  0.
         14    1    1    2    0    0  0.23672291076E-01 -0.14691853084E-02  0.15748669096E-02  0.23770066808E-01  0.00000000000E+00 0. -1.
     999901    1    3    3    0    0 -0.89643480474E-01 -0.10535767722E+00  0.21023353447E-01  0.89105452983E+00  0.88000000000E+00 0. -1.
        -11    1    4    4    0    0  0.21507358810E-01  0.20923481344E-01 -0.95861124917E-02  0.31504177949E-01  0.51100000000E-03 0.  1.
         11    1    4    4    0    0  0.44463830588E-01  0.85903381188E-01 -0.13012107865E-01  0.97601225413E-01  0.51100000000E-03 0. -1.
</event>
<event>
 8    1  0.1044719E+005  0.1043930E+01  0.7957747E-01            NaN
         13   -1    0    0    0    0  0.00000000000E+00  0.00000000000E+00  0.74505805969E-08  0.10566000000E+00  0.10566000000E+00 0. -1.
     999900   -1    0    0    0    0 -0.00000000000E+00 -0.00000000000E+00 -0.74505805969E-08  0.93827000000E+00  0.93827000000E+00 0.  1.
     999902    2    1    2    0    0 -0.15486763812E-01  0.53738872199E-02  0.15901084215E-01  0.10210922462E+01  0.10208368196E+01 0.  0.
     999903    2    3    3    0    0  0.77470218749E-01  0.95482439256E-01 -0.36981973353E-01  0.13004950343E+00  0.20656136838E-01 0.  0.
         14    1    1    2    0    0  0.15486763812E-01 -0.53738872199E-02 -0.15901084215E-01  0.22837753752E-01  0.00000000000E+00 0.  1.
     999901    1    3    3    0    0 -0.92956982561E-01 -0.90108552036E-01  0.52883057568E-01  0.89104274282E+00  0.88000000000E+00 0. -1.
        -11    1    4    4    0    0  0.50724695852E-01  0.64169507926E-01 -0.14319423687E-01  0.83042323741E-01  0.51100000000E-03 0.  1.
         11    1    4    4    0    0  0.26745522898E-01  0.31312931331E-01 -0.22662549666E-01  0.47007179685E-01  0.51100000000E-03 0. -1.
</event>
<event>
 8    1  0.1044719E+005  0.1043930E+01  0.7957747E-01            NaN
         13   -1    0    0    0    0  0.00000000000E+00  0.00000000000E+00  0.74505805969E-08  0.10566000000E+00  0.10566000000E+00 0. -1.
     999900   -1    0    0    0    0 -0.00000000000E+00 -0.00000000000E+00 -0.74505805969E-08  0.93827000000E+00  0.93827000000E+00 0. -1.
     999902    2    1    2    0    0 -0.21971481373E-01 -0.50676104288E-02  0.49073027976E-02  0.10208538589E+01  0.10205930104E+01 0.  0.
     999903    2    3    3    0    0 -0.53722072421E-01  0.94630253334E-01  0.72087388775E-01  0.13211265467E+00  0.20401372323E-01 0.  0.
         14    1    1    2    0    0  0.21971481373E-01  0.50676104288E-02 -0.49073027976E-02  0.23076141140E-01  0.00000000000E+00 0. -1.
     999901    1    3    3    0    0  0.31750591048E-01 -0.99697863762E-01 -0.67180085977E-01  0.88874120419E+00  0.88000000000E+00 0. -1.
        -11    1    4    4    0    0 -0.41623387964E-01  0.53382854684E-01  0.45576368546E-01  0.81606997805E-01  0.51100000000E-03 0. -1.
         11    1    4    4    0    0 -0.12098684457E-01  0.41247398650E-01  0.26511020228E-01  0.50505656867E-01  0.51100000000E-03 0.  1.
</event>
<event>
 8    1  0.1044719E+005  0.1043930E+01  0.7957747E-01            NaN
         13   -1    0    0    0    0  0.00000000000E+00  0.00000000000E+00  0.74505805969E-08  0.10566000000E+00  0.10566000000E+00 0.  1.
     999900   -1    0    0    0    0 -0.00000000000E+00 -0.00000000000E+00 -0.74505805969E-08  0.93827000000E+00  0.93827000000E+00 0.  1.
     999902    2    1    2    0    0 -0.17553656936E-01 -0.12644238362E-01  0.10249661888E-01  0.10199912614E+01  0.10197103070E+01 0.  0.
     999903    2    3    3    0    0 -0.22104612566E-01 -0.12649029954E+00 -0.23727591562E-01  0.13199571493E+00  0.19273307568E-01 0.  0.
         14    1    1    2    0    0  0.17553656936E-01  0.12644238362E-01 -0.10249661888E-01  0.23938738572E-01  0.00000000000E+00 0. -1.
     999901    1    3    3    0    0  0.45509556299E-02  0.11384606118E+00  0.33977253450E-01  0.88799554650E+00  0.88000000000E+00 0.  1.
        -11    1    4    4    0    0 -0.16418544252E-01 -0.54535299109E-01 -0.36405514607E-02  0.57071728379E-01  0.51100000000E-03 0.  1.
         11    1    4    4    0    0 -0.56860683140E-02 -0.71955000433E-01 -0.20087040101E-01  0.74923986554E-01  0.51100000000E-03 0. -1.
</event>
<event>
 8    1  0.1044719E+005  0.1043930E+01  0.7957747E-01            NaN
         13   -1    0    0    0    0  0.00000000000E+00  0.00000000000E+00  0.74505805969E-08  0.10566000000E+00  0.10566000000E+00 0. -1.
     999900   -1    0    0    0    0 -0.00000000000E+00 -0.00000000000E+00 -0.74505805969E-08  0.93827000000E+00  0.93827000000E+00 0.  1.
     999902    2    1    2    0    0 -0.16529413151E-01  0.10933756837E-01 -0.12679439941E-01  0.10204026386E+01  0.10201313681E+01 0.  0.
     999903    2    3    3    0    0 -0.79708265965E-01 -0.63634136277E-01 -0.81978351581E-01  0.13228424711E+00  0.19389712307E-01 0.  0.
         14    1    1    2    0    0  0.16529413151E-01 -0.10933756837E-01  0.12679439941E-01  0.23527361410E-01  0.00000000000E+00 0. -1.
     999901    1    3    3    0    0  0.63178852813E-01  0.74567893115E-01  0.69298911640E-01  0.88811839148E+00  0.88000000000E+00 0. -1.
        -11    1    4    4    0    0 -0.32381348079E-02 -0.96436987336E-02 -0.89121124666E-02  0.13534153535E-01  0.51100000000E-03 0.  1.
         11    1    4    4    0    0 -0.76470131157E-01 -0.53990437544E-01 -0.73066239114E-01  0.11875009358E+00  0.51100000000E-03 0. -1.
</event>
<event>
 8    1  0.1044719E+005  0.1043930E+01  0.7957747E-01            NaN
         13   -1    0    0    0    0  0.00000000000E+00  0.00000000000E+00  0.74505805969E-08  0.10566000000E+00  0.10566000000E+00 0. -1.
     999900   -1    0    0    0    0 -0.00000000000E+00 -0.00000000000E+00 -0.74505805969E-08  0.93827000000E+00  0.93827000000E+00 0. -1.
     999902    2    1    2    0    0  0.27442139876E-02 -0.33117758597E-02  0.22810278764E-01  0.10207177751E+01  0.10204538054E+01 0.  0.
     999903    2    3    3    0    0 -0.70490629266E-01 -0.36271821064E-01  0.10520472286E+00  0.13322774623E+00  0.19925482019E-01 0.  0.
         14    1    1    2    0    0 -0.27442139876E-02  0.33117758597E-02 -0.22810278764E-01  0.23212224949E-01  0.00000000000E+00 0.  1.
     999901    1    3    3    0    0  0.73234843254E-01  0.32960045205E-01 -0.82394444100E-01  0.88749002883E+00  0.88000000000E+00 0. -1.
        -11    1    4    4    0    0 -0.27542001297E-01 -0.13455061612E-01  0.57163228128E-01  0.64865216329E-01  0.51100000000E-03 0.  1.
         11    1    4    4    0    0 -0.42948627969E-01 -0.22816759452E-01  0.48041494737E-01  0.68362529897E-01  0.51100000000E-03 0. -1.
</event>
<event>
 8    1  0.1044719E+005  0.1043930E+01  0.7957747E-01            NaN
         13   -1    0    0    0    0  0.00000000000E+00  0.00000000000E+00  0.74505805969E-08  0.10566000000E+00  0.10566000000E+00 0. -1.
     999900   -1    0    0    0    0 -0.00000000000E+00 -0.00000000000E+00 -0.74505805969E-08  0.93827000000E+00  0.93827000000E+00 0. -1.
     999902    2    1    2    0    0  0.18483573092E-01 -0.40236049610E-02  0.17700288297E-01  0.10180237830E+01  0.10176941047E+01 0.  0.
     999903    2    3    3    0    0 -0.61225771466E-01 -0.25277270647E-01  0.10952901744E+00  0.12940811055E+00  0.19034650288E-01 0.  0.
         14    1    1    2    0    0 -0.18483573092E-01  0.40236049610E-02 -0.17700288297E-01  0.25906216955E-01  0.00000000000E+00 0.  1.
     999901    1    3    3    0    0  0.79709344558E-01  0.21253665686E-01 -0.91828729139E-01  0.88861567250E+00  0.88000000000E+00 0. -1.
        -11    1    4    4    0    0 -0.14428308104E-01 -0.10577649586E-01  0.44403891049E-01  0.47875143935E-01  0.51100000000E-03 0.  1.
         11    1    4    4    0    0 -0.46797463362E-01 -0.14699621061E-01  0.65125126388E-01  0.81532966611E-01  0.51100000000E-03 0. -1.
</event>
<event>
 8    1  0.1044719E+005  0.1043930E+01  0.7957747E-01            NaN
         13   -1    0    0    0    0  0.00000000000E+00  0.00000000000E+00  0.74505805969E-08  0.10566000000E+00  0.10566000000E+00 0. -1.
     999900   -1    0    0    0    0 -0.00000000000E+00 -0.00000000000E+00 -0.74505805969E-08  0.93827000000E+00  0.93827000000E+00 0.  1.
     999902    2    1    2    0    0 -0.20742961583E-01  0.11433469143E-01 -0.11439119959E-02  0.10202170667E+01  0.10199414493E+01 0.  0.
     999903    2    3    3    0    0 -0.11668777797E-01  0.51193257097E-01 -0.11885660319E+00  0.13144293384E+00  0.19835392289E-01 0.  0.
         14    1    1    2    0    0  0.20742961583E-01 -0.11433469143E-01  0.11439119959E-02  0.23712933318E-01  0.00000000000E+00 0.  1.
     999901    1    3    3    0    0 -0.90741837868E-02 -0.39759787954E-01  0.11771269119E+00  0.88877413285E+00  0.88000000000E+00 0. -1.
        -11    1    4    4    0    0 -0.11299332092E-01  0.32392936231E-01 -0.95355624252E-01  0.10134067999E+00  0.51100000000E-03 0. -1.
         11    1    4    4    0    0 -0.36944570446E-03  0.18800320865E-01 -0.23500978933E-01  0.30102253846E-01  0.51100000000E-03 0.  1.
</event>
<event>
 8    1  0.1044719E+005  0.1043930E+01  0.7957747E-01            NaN
         13   -1    0    0    0    0  0.00000000000E+00  0.00000000000E+00  0.74505805969E-08  0.10566000000E+00  0.10566000000E+00 0. -1.
     999900   -1    0    0    0    0 -0.00000000000E+00 -0.00000000000E+00 -0.74505805969E-08  0.93827000000E+00  0.93827000000E+00 0.  1.
     999902    2    1    2    0    0 -0.21520151558E-01  0.15119240636E-02 -0.67424644069E-02  0.10213277067E+01  0.10210775782E+01 0.  0.
     999903    2    3    3    0    0 -0.98297484067E-01  0.22471394635E-01  0.84505353453E-01  0.13303708843E+00  0.19757357727E-01 0.  0.
         14    1    1    2    0    0  0.21520151558E-01 -0.15119240636E-02  0.67424644069E-02  0.22602293329E-01  0.00000000000E+00 0. -1.
     999901    1    3    3    0    0  0.76777332509E-01 -0.20959470572E-01 -0.91247817860E-01  0.88829061824E+00  0.88000000000E+00 0. -1.
        -11    1    4    4    0    0 -0.61935073541E-01  0.21664403394E-01  0.46452064024E-01  0.80394994135E-01  0.51100000000E-03 0. -1.
         11    1    4    4    0    0 -0.36362410526E-01  0.80699124189E-03  0.38053289430E-01  0.52642094293E-01  0.51100000000E-03 0.  1.
</event>
<event>
 8    1  0.1044719E+005  0.1043930E+01  0.7957747E-01            NaN
         13   -1    0    0    0    0  0.00000000000E+00  0.00000000000E+00  0.74505805969E-08  0.10566000000E+00  0.10566000000E+00 0.  1.
     999900   -1    0    0    0    0 -0.00000000000E+00 -0.00000000000E+00 -0.74505805969E-08  0.93827000000E+00  0.93827000000E+00 0. -1.
     999902    2    1    2    0    0  0.12522054383E-01 -0.13220232277E-01 -0.45314212153E-02  0.10251654013E+01  0.10249936535E+01 0.  0.
     999903    2    3    3    0    0 -0.10783174640E+00  0.59096894109E-01 -0.46434191801E-01  0.13304957565E+00  0.20637998652E-01 0.  0.
         14    1    1    2    0    0 -0.12522054383E-01  0.13220232277E-01  0.45314212153E-02  0.18764598735E-01  0.00000000000E+00 0. -1.
     999901    1    3    3    0    0  0.12035380078E+00 -0.72317126386E-01  0.41902770586E-01  0.89211582562E+00  0.88000000000E+00 0.  1.
        -11    1    4    4    0    0 -0.56575805293E-01  0.21036101181E-01 -0.16756522338E-01  0.62644883744E-01  0.51100000000E-03 0. -1.
         11    1    4    4    0    0 -0.51255941103E-01  0.38060792928E-01 -0.29677669463E-01  0.70404691906E-01  0.51100000000E-03 0.  1.
</event>
<event>
 8    1  0.1044719E+005  0.1043930E+01  0.7957747E-01            NaN
         13   -1    0    0    0    0  0.00000000000E+00  0.00000000000E+00  0.74505805969E-08  0.10566000000E+00  0.10566000000E+00 0. -1.
     999900   -1    0    0    0    0 -0.00000000000E+00 -0.00000000000E+00 -0.74505805969E-08  0.93827000000E+00  0.93827000000E+00 0. -1.
     999902    2    1    2    0    0  0.10653141706E-01 -0.19508934958E-01 -0.47470598984E-02  0.10212006676E+01  0.10209476877E+01 0.  0.
     999903    2    3    3    0    0  0.11214909278E+00  0.52711822603E-01 -0.40050590447E-01  0.13172688772E+00  0.19798179223E-01 0.  0.
         14    1    1    2    0    0 -0.10653141706E-01  0.19508934958E-01  0.47470598984E-02  0.22729332350E-01  0.00000000000E+00 0. -1.
     999901    1    3    3    0    0 -0.10149595107E+00 -0.72220757562E-01  0.35303530548E-01  0.88947377993E+00  0.88000000000E+00 0.  1.
        -11    1    4    4    0    0  0.10359544094E+00  0.51413932991E-01 -0.32247060604E-01  0.12006474057E+00  0.51100000000E-03 0.  1.
         11    1    4    4    0    0  0.85536518369E-02  0.12978896124E-02 -0.78035298426E-02  0.11662147152E-01  0.51100000000E-03 0. -1.
</event>
<event>
 8    1  0.1044719E+005  0.1043930E+01  0.7957747E-01            NaN
         13   -1    0    0    0    0  0.00000000000E+00  0.00000000000E+00  0.74505805969E-08  0.10566000000E+00  0.10566000000E+00 0. -1.
     999900   -1    0    0    0    0 -0.00000000000E+00 -0.00000000000E+00 -0.74505805969E-08  0.93827000000E+00  0.93827000000E+00 0.  1.
     999902    2    1    2    0    0 -0.17490562359E-01 -0.19053390054E-02  0.12109307125E-01  0.10225715027E+01  0.10223484204E+01 0.  0.
     999903    2    3    3    0    0 -0.98261296930E-01  0.63372691180E-01  0.64634574372E-01  0.13490938426E+00  0.18749221216E-01 0.  0.
         14    1    1    2    0    0  0.17490562359E-01  0.19053390054E-02 -0.12109307125E-01  0.21358497312E-01  0.00000000000E+00 0. -1.
     999901    1    3    3    0    0  0.80770734571E-01 -0.65278030185E-01 -0.52525267247E-01  0.88766211843E+00  0.88000000000E+00 0. -1.
        -11    1    4    4    0    0 -0.83233247321E-01  0.53832541493E-01  0.46491442733E-01  0.10948712870E+00  0.51100000000E-03 0.  1.
         11    1    4    4    0    0 -0.15028049609E-01  0.95401496874E-02  0.18143131639E-01  0.25422255560E-01  0.51100000000E-03 0. -1.
</event>
<event>
 8    1  0.1044719E+005  0.1043930E+01  0.7957747E-01            NaN
         13   -1    0    0    0    0  0.00000000000E+00  0.00000000000E+00  0.74505805969E-08  0.10566000000E+00  0.10566000000E+00 0.  1.
     999900   -1    0    0    0    0 -0.00000000000E+00 -0.00000000000E+00 -0.74505805969E-08  0.93827000000E+00  0.93827000000E+00 0.  1.
     999902    2    1    2    0    0  0.11388548991E-01 -0.18036908941E-01  0.67611587237E-02  0.10215527258E+01  0.10213076075E+01 0.  0.
     999903    2    3    3    0    0  0.26242320453E-01 -0.42730539967E-01  0.12210538394E+00  0.13355796220E+00  0.20333372798E-01 0.  0.
         14    1    1    2    0    0 -0.11388548991E-01  0.18036908941E-01 -0.67611587237E-02  0.22377274176E-01  0.00000000000E+00 0.  1.
     999901    1    3    3    0    0 -0.14853771462E-01  0.24693631026E-01 -0.11534422522E+00  0.88799476363E+00  0.88000000000E+00 0.  1.
        -11    1    4    4    0    0  0.36547965159E-02 -0.15627177584E-01  0.60179155565E-01  0.62284493273E-01  0.51100000000E-03 0.  1.
         11    1    4    4    0    0  0.22587523937E-01 -0.27103362384E-01  0.61926228378E-01  0.71273468922E-01  0.51100000000E-03 0. -1.
</event>
<event>
 8    1  0.1044719E+005  0.1043930E+01  0.7957747E-01            NaN
         13   -1    0    0    0    0  0.00000000000E+00  0.00000000000E+00  0.74505805969E-08  0.10566000000E+00  0.10566000000E+00 0. -1.
     999900   -1    0    0    0    0 -0.00000000000E+00 -0.00000000000E+00 -0.74505805969E-08  0.93827000000E+00  0.93827000000E+00 0. -1.
     999902    2    1    2    0    0 -0.69061147889E-02  0.83787686994E-02  0.20829332180E-01  0.10204404435E+01  0.10201700542E+01 0.  0.
     999903    2    3    3    0    0  0.34946085796E-01 -0.70676906648E-01  0.10396782071E+00  0.13200732007E+00  0.20004268628E-01 0.  0.
         14    1    1    2    0    0  0.69061147889E-02 -0.83787686994E-02 -0.20829332180E-01  0.23489556519E-01  0.00000000000E+00 0.  1.
     999901    1    3    3    0    0 -0.41852200585E-01  0.79055675347E-01 -0.83138488530E-01  0.88843312341E+00  0.88000000000E+00 0. -1.
        -11    1    4    4    0    0  0.31170731640E-01 -0.47997030850E-01  0.63696291866E-01  0.85631817684E-01  0.51100000000E-03 0.  1.
         11    1    4    4    0    0  0.37753541562E-02 -0.22679875798E-01  0.40271528843E-01  0.46375502386E-01  0.51100000000E-03 0. -1.
</event>
<event>
 8    1  0.1044719E+005  0.1043930E+01  0.7957747E-01            NaN
         13   -1    0    0    0    0  0.00000000000E+00  0.00000000000E+00  0.74505805969E-08  0.10566000000E+00  0.10566000000E+00 0. -1.
     999900   -1    0    0    0    0 -0.00000000000E+00 -0.00000000000E+00 -0.74505805969E-08  0.93827000000E+00  0.93827000000E+00 0. -1.
     999902    2    1    2    0    0 -0.15305141959E-01 -0.16320320551E-01  0.62251941899E-02  0.10207060194E+01  0.10204417792E+01 0.  0.
     999903    2    3    3    0    0 -0.60457541613E-01 -0.52746232039E-01  0.10457601513E+00  0.13332872070E+00  0.20077985258E-01 0.  0.
         14    1    1    2    0    0  0.15305141959E-01  0.16320320551E-01 -0.62251941899E-02  0.23223980623E-01  0.00000000000E+00 0.  1.
     999901    1    3    3    0    0  0.45152399654E-01  0.36425911488E-01 -0.98350820938E-01  0.88737729867E+00  0.88000000000E+00 0. -1.
        -11    1    4    4    0    0 -0.10441198481E-01 -0.12168462822E-01  0.35088984862E-01  0.38582225089E-01  0.51100000000E-03 0. -1.
         11    1    4    4    0    0 -0.50016343133E-01 -0.40577769217E-01  0.69487030266E-01  0.94746495614E-01  0.51100000000E-03 0.  1.
</event>
<event>
 8    1  0.1044719E+005  0.1043930E+01  0.7957747E-01            NaN
         13   -1    0    0    0    0  0.00000000000E+00  0.00000000000E+00  0.74505805969E-08  0.10566000000E+00  0.10566000000E+00 0. -1.
     999900   -1    0    0    0    0 -0.00000000000E+00 -0.00000000000E+00 -0.74505805969E-08  0.93827000000E+00  0.93827000000E+00 0.  1.
     999902    2    1    2    0    0 -0.89859565971E-02 -0.18253428068E-01  0.12040600327E-01  0.10202886991E+01  0.10200147638E+01 0.  0.
     999903    2    3    3    0    0  0.10504415783E+00 -0.58678175673E-01 -0.44945114006E-01  0.13018511026E+00  0.21229608237E-01 0.  0.
         14    1    1    2    0    0  0.89859565971E-02  0.18253428068E-01 -0.12040600327E-01  0.23641300904E-01  0.00000000000E+00 0.  1.
     999901    1    3    3    0    0 -0.11403011443E+00  0.40424747605E-01  0.56985714333E-01  0.89010358883E+00  0.88000000000E+00 0. -1.
        -11    1    4    4    0    0  0.46872886507E-01 -0.24221632366E-01 -0.30845442948E-01  0.61118388686E-01  0.51100000000E-03 0. -1.
         11    1    4    4    0    0  0.58171271326E-01 -0.34456543307E-01 -0.14099671059E-01  0.69066721577E-01  0.51100000000E-03 0.  1.
</event>
<event>
 8    1  0.1044719E+005  0.1043930E+01  0.7957747E-01            NaN
         13   -1    0    0    0    0  0.00000000000E+00  0.00000000000E+00  0.74505805969E-08  0.10566000000E+00  0.10566000000E+00 0.  1.
     999900   -1    0    0    0    0 -0.00000000000E+00 -0.00000000000E+00 -0.74505805969E-08  0.93827000000E+00  0.93827000000E+00 0. -1.
     999902    2    1    2    0    0  0.12621115243E-01 -0.19962075103E-01  0.59055397615E-02  0.10195855470E+01  0.10192948716E+01 0.  0.
     999903    2    3    3    0    0  0.90990495268E-01  0.88109696666E-01  0.25972344442E-03  0.12949951586E+00  0.26971619812E-01 0.  0.
         14    1    1    2    0    0 -0.12621115243E-01  0.19962075103E-01 -0.59055397615E-02  0.24344453008E-01  0.00000000000E+00 0. -1.
     999901    1    3    3    0    0 -0.78369380025E-01 -0.10807177177E+00  0.56458163171E-02  0.89008603113E+00  0.88000000000E+00 0.  1.
        -11    1    4    4    0    0  0.23688397720E-01  0.26004327427E-01 -0.11850418737E-01  0.37122214060E-01  0.51100000000E-03 0. -1.
         11    1    4    4    0    0  0.67302097548E-01  0.62105369239E-01  0.12110142182E-01  0.92377301797E-01  0.51100000000E-03 0.  1.
</event>
<event>
 8    1  0.1044719E+005  0.1043930E+01  0.7957747E-01            NaN
         13   -1    0    0    0    0  0.00000000000E+00  0.00000000000E+00  0.74505805969E-08  0.10566000000E+00  0.10566000000E+00 0.  1.
     999900   -1    0    0    0    0 -0.00000000000E+00 -0.00000000000E+00 -0.74505805969E-08  0.93827000000E+00  0.93827000000E+00 0. -1.
     999902    2    1    2    0    0 -0.10412563430E-01  0.10842994429E-01 -0.19987985055E-01  0.10189197711E+01  0.10186127764E+01 0.  0.
     999903    2    3    3    0    0 -0.26008637656E-01 -0.10852884997E+00  0.58106291003E-01  0.12729676175E+00  0.19317452999E-01 0.  0.
         14    1    1    2    0    0  0.10412563430E-01 -0.10842994429E-01  0.19987985055E-01  0.25010228946E-01  0.00000000000E+00 0.  1.
     999901    1    3    3    0    0  0.15596074226E-01  0.11937184439E+00 -0.78094276059E-01  0.89162300930E+00  0.88000000000E+00 0. -1.
        -11    1    4    4    0    0 -0.67594243013E-02 -0.11705121526E-01  0.12998158966E-01  0.18759342855E-01  0.51100000000E-03 0. -1.
         11    1    4    4    0    0 -0.19249213355E-01 -0.96823728440E-01  0.45108132037E-01  0.10853741890E+00  0.51100000000E-03 0.  1.
</event>
<event>
 8    1  0.1044719E+005  0.1043930E+01  0.7957747E-01            NaN
         13   -1    0    0    0    0  0.00000000000E+00  0.00000000000E+00  0.74505805969E-08  0.10566000000E+00  0.10566000000E+00 0. -1.
     999900   -1    0    0    0    0 -0.00000000000E+00 -0.00000000000E+00 -0.74505805969E-08  0.93827000000E+00  0.93827000000E+00 0.  1.
     999902    2    1    2    0    0  0.18507845610E-01  0.80990041758E-02  0.13265052983E-01  0.10197619250E+01  0.10194754965E+01 0.  0.
     999903    2    3    3    0    0  0.12281221475E+00 -0.44132008036E-01  0.17921880668E-02  0.13198993476E+00  0.19688999849E-01 0.  0.
         14    1    1    2    0    0 -0.18507845610E-01 -0.80990041758E-02 -0.13265052983E-01  0.24168074983E-01  0.00000000000E+00 0.  1.
     999901    1    3    3    0    0 -0.10430436914E+00  0.52231012212E-01  0.11472864916E-01  0.88777199026E+00  0.88000000000E+00 0. -1.
        -11    1    4    4    0    0  0.40746196569E-01 -0.23899880398E-01  0.42298798431E-02  0.47430051891E-01  0.51100000000E-03 0. -1.
         11    1    4    4    0    0  0.82066018178E-01 -0.20232127638E-01 -0.24376917763E-02  0.84559882868E-01  0.51100000000E-03 0.  1.
</event>
<event>
 8    1  0.1044719E+005  0.1043930E+01  0.7957747E-01            NaN
         13   -1    0    0    0    0  0.00000000000E+00  0.00000000000E+00  0.74505805969E-08  0.10566000000E+00  0.10566000000E+00 0. -1.
     999900   -1    0    0    0    0 -0.00000000000E+00 -0.00000000000E+00 -0.74505805969E-08  0.93827000000E+00  0.93827000000E+00 0. -1.
     999902    2    1    2    0    0 -0.20276211588E-01 -0.11473819529E-01 -0.33397660272E-02  0.10203943392E+01  0.10201228750E+01 0.  0.
     999903    2    3    3    0    0 -0.55003291817E-01  0.11545808134E+00 -0.16739048249E-01  0.13050826881E+00  0.19906828808E-01 0.  0.
         14    1    1    2    0    0  0.20276211588E-01  0.11473819529E-01  0.33397660272E-02  0.23535660773E-01  0.00000000000E+00 0.  1.
     999901    1    3    3    0    0  0.34727080229E-01 -0.12693190087E+00  0.13399282222E-01  0.88988607042E+00  0.88000000000E+00 0.  1.
        -11    1    4    4    0    0 -0.25972136237E-01  0.68563728424E-01 -0.17021383955E-02  0.73339587620E-01  0.51100000000E-03 0. -1.
         11    1    4    4    0    0 -0.29031155580E-01  0.46894352918E-01 -0.15036909854E-01  0.57168681188E-01  0.51100000000E-03 0.  1.
</event>
<event>
 8    1  0.1044719E+005  0.1043930E+01  0.7957747E-01            NaN
         13   -1    0    0    0    0  0.00000000000E+00  0.00000000000E+00  0.74505805969E-08  0.10566000000E+00  0.10566000000E+00 0.  1.
     999900   -1    0    0    0    0 -0.00000000000E+00 -0.00000000000E+00 -0.74505805969E-08  0.93827000000E+00  0.93827000000E+00 0. -1.
     999902    2    1    2    0    0  0.13713958151E-01  0.32119262008E-02 -0.20775361303E-01  0.10188301045E+01  0.10185208771E+01 0.  0.
     999903    2    3    3    0    0  0.33759869733E-01 -0.81621816998E-01 -0.95247866809E-01  0.13139291986E+00  0.19750783375E-01 0.  0.
         14    1    1    2    0    0 -0.13713958151E-01 -0.32119262008E-02  0.20775361303E-01  0.25099895525E-01  0.00000000000E+00 0.  1.
     999901    1    3    3    0    0 -0.20045911582E-01  0.84833743199E-01  0.74472505506E-01  0.88743718461E+00  0.88000000000E+00 0. -1.
        -11    1    4    4    0    0  0.24731393199E-01 -0.35568696097E-01 -0.40835387913E-01  0.59536240884E-01  0.51100000000E-03 0.  1.
         11    1    4    4    0    0  0.90284765347E-02 -0.46053120901E-01 -0.54412478896E-01  0.71856678979E-01  0.51100000000E-03 0. -1.
</event>
<event>
 8    1  0.1044719E+005  0.1043930E+01  0.7957747E-01            NaN
         13   -1    0    0    0    0  0.00000000000E+00  0.00000000000E+00  0.74505805969E-08  0.10566000000E+00  0.10566000000E+00 0.  1.
     999900   -1    0    0    0    0 -0.00000000000E+00 -0.00000000000E+00 -0.74505805969E-08  0.93827000000E+00  0.93827000000E+00 0.  1.
     999902    2    1    2    0    0 -0.30573348123E-02 -0.22670498954E-01  0.98350868004E-02  0.10190296436E+01  0.10187253735E+01 0.  0.
     999903    2    3    3    0    0  0.55481305712E-01 -0.38883027109E-01 -0.10809464809E+00  0.12908748763E+00  0.19724640346E-01 0.  0.
         14    1    1    2    0    0  0.30573348123E-02  0.22670498954E-01 -0.98350868004E-02  0.24900356450E-01  0.00000000000E+00 0. -1.
     999901    1    3    3    0    0 -0.58538640525E-01  0.16212528155E-01  0.11792973489E+00  0.88994215592E+00  0.88000000000E+00 0. -1.
        -11    1    4    4    0    0  0.16125559565E-01 -0.20087860330E-01 -0.51983578852E-01  0.58018181591E-01  0.51100000000E-03 0. -1.
         11    1    4    4    0    0  0.39355746148E-01 -0.18795166779E-01 -0.56111069241E-01  0.71069306043E-01  0.51100000000E-03 0.  1.
</event>
<event>
 8    1  0.1044719E+005  0.1043930E+01  0.7957747E-01            NaN
         13   -1    0    0    0    0  0.00000000000E+00  0.00000000000E+00  0.74505805969E-08  0.10566000000E+00  0.10566000000E+00 0. -1.
     999900   -1    0    0    0    0 -0.00000000000E+00 -0.00000000000E+00 -0.74505805969E-08  0.93827000000E+00  0.93827000000E+00 0. -1.
     999902    2    1    2    0    0 -0.17832687915E-01 -0.90761073569E-02 -0.11187862278E-01  0.10210051500E+01  0.10207477493E+01 0.  0.
     999903    2    3    3    0    0 -0.12740118842E+00 -0.10719948991E-01  0.30091997221E-01  0.13324843488E+00  0.22441857874E-01 0.  0.
         14    1    1    2    0    0  0.17832687915E-01  0.90761073569E-02  0.11187862278E-01  0.22924849953E-01  0.00000000000E+00 0.  1.
     999901    1    3    3    0    0  0.10956850051E+00  0.16438416345E-02 -0.41279859499E-01  0.88775671516E+00  0.88000000000E+00 0. -1.
        -11    1    4    4    0    0 -0.68834769090E-01  0.54325483998E-02  0.15887167600E-01  0.70854789769E-01  0.51100000000E-03 0.  1.
         11    1    4    4    0    0 -0.58566419330E-01 -0.16152497391E-01  0.14204829622E-01  0.62393645114E-01  0.51100000000E-03 0. -1.
</event>
<event>
 8    1  0.1044719E+005  0.1043930E+01  0.7957747E-01            NaN
         13   -1    0    0    0    0  0.00000000000E+00  0.00000000000E+00  0.74505805969E-08  0.10566000000E+00  0.10566000000E+00 0.  1.
     999900   -1    0    0    0    0 -0.00000000000E+00 -0.00000000000E+00 -0.74505805969E-08  0.93827000000E+00  0.93827000000E+00 0.  1.
     999902    2    1    2    0    0  0.16327081621E-01 -0.18436729419E-01 -0.46052357560E-02  0.10188761623E+01  0.10185680828E+01 0.  0.
     999903    2    3    3    0    0  0.12328077891E+00  0.44053418883E-02 -0.40737106062E-01  0.13137046339E+00  0.19522534573E-01 0.  0.
         14    1    1    2    0    0 -0.16327081621E-01  0.18436729419E-01  0.46052357560E-02  0.25053837676E-01  0.00000000000E+00 0. -1.
     999901    1    3    3    0    0 -0.10695369729E+00 -0.22842071307E-01  0.36131870306E-01  0.88750569893E+00  0.88000000000E+00 0. -1.
        -11    1    4    4    0    0  0.10092589696E+00 -0.39990524909E-02 -0.32826053839E-01  0.10620659127E+00  0.51100000000E-03 0. -1.
         11    1    4    4    0    0  0.22354881953E-01  0.84043943792E-02 -0.79110522233E-02  0.25163872124E-01  0.51100000000E-03 0.  1.
</event>
<event>
 8    1  0.1044719E+005  0.1043930E+01  0.7957747E-01            NaN
         13   -1    0    0    0    0  0.00000000000E+00  0.00000000000E+00  0.74505805969E-08  0.10566000000E+00  0.10566000000E+00 0.  1.
     999900   -1    0    0    0    0 -0.00000000000E+00 -0.00000000000E+00 -0.74505805969E-08  0.93827000000E+00  0.93827000000E+00 0. -1.
     999902    2    1    2    0    0 -0.31053338581E-01  0.64155956911E-02  0.15487332695E-01  0.10086408065E+01  0.10080232881E+01 0.  0.
     999903    2    3    3    0    0 -0.18252741592E-01  0.74085036537E-01  0.94032544906E-01  0.12246229237E+00  0.18252077622E-01 0.  0.
         14    1    1    2    0    0  0.31053338581E-01 -0.64155956911E-02 -0.15487332695E-01  0.35289193517E-01  0.00000000000E+00 0. -1.
     999901    1    3    3    0    0 -0.12800596990E-01 -0.67669440846E-01 -0.78545212211E-01  0.88617851411E+00  0.88000000000E+00 0. -1.
        -11    1    4    4    0    0 -0.12964298450E-01  0.31158409235E-01  0.53047105670E-01  0.62874287601E-01  0.51100000000E-03 0.  1.
         11    1    4    4    0    0 -0.52884431413E-02  0.42926627302E-01  0.40985439236E-01  0.59588004772E-01  0.51100000000E-03 0. -1.
</event>
<event>
 8    1  0.1044719E+005  0.1043930E+01  0.7957747E-01            NaN
         13   -1    0    0    0    0  0.00000000000E+00  0.00000000000E+00  0.74505805969E-08  0.10566000000E+00  0.10566000000E+00 0.  1.
     999900   -1    0    0    0    0 -0.00000000000E+00 -0.00000000000E+00 -0.74505805969E-08  0.93827000000E+00  0.93827000000E+00 0. -1.
     999902    2    1    2    0    0 -0.96251080538E-02 -0.21745650163E-01 -0.11531275957E-02  0.10201214782E+01  0.10198436079E+01 0.  0.
     999903    2    3    3    0    0 -0.78987739849E-01  0.99673726521E-01  0.85526803898E-02  0.12902774441E+00  0.20027373293E-01 0.  0.
         14    1    1    2    0    0  0.96251080538E-02  0.21745650163E-01  0.11531275957E-02  0.23808521780E-01  0.00000000000E+00 0. -1.
     999901    1    3    3    0    0  0.69362631796E-01 -0.12141937668E+00 -0.97058079855E-02  0.89109373381E+00  0.88000000000E+00 0.  1.
        -11    1    4    4    0    0 -0.34890263883E-01  0.29661080613E-01 -0.41470694105E-03  0.45798944527E-01  0.51100000000E-03 0.  1.
         11    1    4    4    0    0 -0.44097475966E-01  0.70012645909E-01  0.89673873309E-02  0.83228799885E-01  0.51100000000E-03 0. -1.
</event>
<event>
 8    1  0.1044719E+005  0.1043930E+01  0.7957747E-01            NaN
         13   -1    0    0    0    0  0.00000000000E+00  0.00000000000E+00  0.74505805969E-08  0.10566000000E+00  0.10566000000E+00 0.  1.
     999900   -1    0    0    0    0 -0.00000000000E+00 -0.00000000000E+00 -0.74505805969E-08  0.93827000000E+00  0.93827000000E+00 0. -1.
     999902    2    1    2    0    0  0.12380015317E-01 -0.10331981467E-01  0.18612433856E-01  0.10193040520E+01  0.10190065324E+01 0.  0.
     999903    2    3    3    0    0 -0.11144510421E+00 -0.86795805685E-02  0.62302237017E-01  0.12956016214E+00  0.20221782967E-01 0.  0.
         14    1    1    2    0    0 -0.12380015317E-01  0.10331981467E-01 -0.18612433856E-01  0.24625947989E-01  0.00000000000E+00 0. -1.
     999901    1    3    3    0    0  0.12382511953E+00 -0.16524008987E-02 -0.43689803160E-01  0.88974388987E+00  0.88000000000E+00 0. -1.
        -11    1    4    4    0    0 -0.10137020325E+00 -0.73383949758E-02  0.62619630807E-01  0.11937859704E+00  0.51100000000E-03 0. -1.
         11    1    4    4    0    0 -0.10074900963E-01 -0.13411855927E-02 -0.31739379077E-03  0.10181565107E-01  0.51100000000E-03 0.  1.
</event>
<event>
 8    1  0.1044719E+005  0.1043930E+01  0.7957747E-01            NaN
         13   -1    0    0    0    0  0.00000000000E+00  0.00000000000E+00  0.74505805969E-08  0.10566000000E+00  0.10566000000E+00 0. -1.
     999900   -1    0    0    0    0 -0.00000000000E+00 -0.00000000000E+00 -0.74505805969E-08  0.93827000000E+00  0.93827000000E+00 0.  1.
     999902    2    1    2    0    0 -0.51810985094E-03  0.13410600938E-02 -0.24261656680E-01  0.10196257850E+01  0.10193360813E+01 0.  0.
     999903    2    3    3    0    0 -0.80942919170E-01 -0.11021038419E-02  0.96713722407E-01  0.12771258223E+00  0.20099471656E-01 0.  0.
         14    1    1    2    0    0  0.51810985094E-03 -0.13410600938E-02  0.24261656680E-01  0.24304214961E-01  0.00000000000E+00 0. -1.
     999901    1    3    3    0    0  0.80424809319E-01  0.24431639356E-02 -0.12097537909E+00  0.89191320281E+00  0.88000000000E+00 0.  1.
        -11    1    4    4    0    0 -0.40162953048E-01  0.25831718911E-02  0.33360570243E-01  0.52277378880E-01  0.51100000000E-03 0. -1.
         11    1    4    4    0    0 -0.40779966122E-01 -0.36852757329E-02  0.63353152164E-01  0.75435203348E-01  0.51100000000E-03 0.  1.
</event>
<event>
 8    1  0.1044719E+005  0.1043930E+01  0.7957747E-01            NaN
         13   -1    0    0    0    0  0.00000000000E+00  0.00000000000E+00  0.74505805969E-08  0.10566000000E+00  0.10566000000E+00 0. -1.
     999900   -1    0    0    0    0 -0.00000000000E+00 -0.00000000000E+00 -0.74505805969E-08  0.93827000000E+00  0.93827000000E+00 0. -1.
     999902    2    1    2    0    0 -0.95004907991E-02 -0.21989621891E-01 -0.75139193001E-02  0.10188249850E+01  0.10185156298E+01 0.  0.
     999903    2    3    3    0    0 -0.95167033383E-01 -0.55636048430E-01 -0.69816152319E-01  0.13183433859E+00  0.18811261993E-01 0.  0.
         14    1    1    2    0    0  0.95004907991E-02  0.21989621891E-01  0.75139193001E-02  0.25105015028E-01  0.00000000000E+00 0.  1.
     999901    1    3    3    0    0  0.85666542584E-01  0.33646426540E-01  0.62302233019E-01  0.88699064639E+00  0.88000000000E+00 0.  1.
        -11    1    4    4    0    0 -0.54628596067E-01 -0.37305503581E-01 -0.32212575554E-01  0.73579176745E-01  0.51100000000E-03 0. -1.
         11    1    4    4    0    0 -0.40538437316E-01 -0.18330544849E-01 -0.37603576766E-01  0.58255161841E-01  0.51100000000E-03 0.  1.
</event>
<event>
 8    1  0.1044719E+005  0.1043930E+01  0.7957747E-01            NaN
         13   -1    0    0    0    0  0.00000000000E+00  0.00000000000E+00  0.74505805969E-08  0.10566000000E+00  0.10566000000E+00 0. -1.
     999900   -1    0    0    0    0 -0.00000000000E+00 -0.00000000000E+00 -0.74505805969E-08  0.93827000000E+00  0.93827000000E+00 0. -1.
     999902    2    1    2    0    0 -0.12889657817E-01 -0.69071117659E-02  0.18100031004E-01  0.10206606512E+01  0.10203953657E+01 0.  0.
     999903    2    3    3    0    0 -0.17288655896E-01  0.44972845342E-01 -0.11754913982E+00  0.12874609324E+00  0.20887838871E-01 0.  0.
         14    1    1    2    0    0  0.12889657817E-01  0.69071117659E-02 -0.18100031004E-01  0.23269348808E-01  0.00000000000E+00 0.  1.
     999901    1    3    3    0    0  0.43989980791E-02 -0.51879957107E-01  0.13564917082E+00  0.89191455795E+00  0.88000000000E+00 0.  1.
        -11    1    4    4    0    0 -0.70373132298E-02  0.23687772414E-01 -0.34766870820E-01  0.42657130319E-01  0.51100000000E-03 0.  1.
         11    1    4    4    0    0 -0.10251342666E-01  0.21285072928E-01 -0.82782268999E-01  0.86088962926E-01  0.51100000000E-03 0. -1.
</event>
<event>
 7    1  0.1044719E+005  0.1043930E+01  0.7957747E-01            NaN
         13   -1    0    0    0    0  0.00000000000E+00  0.00000000000E+00  0.74505805969E-08  0.10566000000E+00  0.10566000000E+00 0.  1.
     999900   -1    0    0    0    0 -0.00000000000E+00 -0.00000000000E+00 -0.74505805969E-08  0.93827000000E+00  0.93827000000E+00 0.  1.
     999903    2    1    2    0    0 -0.76299342590E-01 -0.60981939288E-01 -0.51001744220E-01  0.11197755058E+00  0.19935077681E-01 0.  0.
         14    1    1    2    0    0 -0.39701959805E-01  0.24870947731E-02 -0.75481818805E-02  0.40489582642E-01  0.00000000000E+00 0.  1.
     999901    1    1    2    0    0  0.11600130240E+00  0.58494844515E-01  0.58549926100E-01  0.89146286677E+00  0.88000000000E+00 0. -1.
        -11    1    3    3    0    0 -0.55934392780E-02 -0.12761234293E-01 -0.94134423903E-02  0.16822891615E-01  0.51100000000E-03 0. -1.
         11    1    3    3    0    0 -0.70705903312E-01 -0.48220704995E-01 -0.41588301829E-01  0.95154658969E-01  0.51100000000E-03 0.  1.
</event>
<event>
 8    1  0.1044719E+005  0.1043930E+01  0.7957747E-01            NaN
         13   -1    0    0    0    0  0.00000000000E+00  0.00000000000E+00  0.74505805969E-08  0.10566000000E+00  0.10566000000E+00 0.  1.
     999900   -1    0    0    0    0 -0.00000000000E+00 -0.00000000000E+00 -0.74505805969E-08  0.93827000000E+00  0.93827000000E+00 0. -1.
     999902    2    1    2    0    0 -0.10913912654E-01 -0.55121922764E-02  0.19587183083E-01  0.10208398399E+01  0.10205786708E+01 0.  0.
     999903    2    3    3    0    0  0.40834134987E-01  0.11496060701E+00 -0.37596451796E-01  0.12928977180E+00  0.20469102539E-01 0.  0.
         14    1    1    2    0    0  0.10913912654E-01  0.55121922764E-02 -0.19587183083E-01  0.23090160118E-01  0.00000000000E+00 0. -1.
     999901    1    3    3    0    0 -0.51748047641E-01 -0.12047279929E+00  0.57183634879E-01  0.89155006808E+00  0.88000000000E+00 0.  1.
        -11    1    4    4    0    0  0.27629116361E-01  0.59442949282E-01 -0.11565995172E-01  0.66564747844E-01  0.51100000000E-03 0. -1.
         11    1    4    4    0    0  0.13205018627E-01  0.55517657732E-01 -0.26030456624E-01  0.62725023954E-01  0.51100000000E-03 0.  1.
</event>
<event>
 8    1  0.1044719E+005  0.1043930E+01  0.7957747E-01            NaN
         13   -1    0    0    0    0  0.00000000000E+00  0.00000000000E+00  0.74505805969E-08  0.10566000000E+00  0.10566000000E+00 0. -1.
     999900   -1    0    0    0    0 -0.00000000000E+00 -0.00000000000E+00 -0.74505805969E-08  0.93827000000E+00  0.93827000000E+00 0.  1.
     999902    2    1    2    0    0  0.84676249619E-02 -0.74567173375E-02 -0.20500583976E-01  0.10205296314E+01  0.10202613152E+01 0.  0.
     999903    2    3    3    0    0  0.76401568759E-01  0.93148349143E-01 -0.49403384306E-01  0.13172606934E+00  0.19931088902E-01 0.  0.
         14    1    1    2    0    0 -0.84676249619E-02  0.74567173375E-02  0.20500583976E-01  0.23400368572E-01  0.00000000000E+00 0. -1.
     999901    1    3    3    0    0 -0.67933943798E-01 -0.10060506648E+00  0.28902800330E-01  0.88880356209E+00  0.88000000000E+00 0. -1.
        -11    1    4    4    0    0  0.53499611051E-01  0.65091211112E-01 -0.24421460135E-01  0.87725383914E-01  0.51100000000E-03 0. -1.
         11    1    4    4    0    0  0.22901957708E-01  0.28057138031E-01 -0.24981924170E-01  0.44000685422E-01  0.51100000000E-03 0.  1.
</event>
<event>
 8    1  0.1044719E+005  0.1043930E+01  0.7957747E-01            NaN
         13   -1    0    0    0    0  0.00000000000E+00  0.00000000000E+00  0.74505805969E-08  0.10566000000E+00  0.10566000000E+00 0. -1.
     999900   -1    0    0    0    0 -0.00000000000E+00 -0.00000000000E+00 -0.74505805969E-08  0.93827000000E+00  0.93827000000E+00 0. -1.
     999902    2    1    2    0    0  0.16034066178E-01  0.17174910784E-01 -0.77059490245E-02  0.10192024751E+01  0.10189024657E+01 0.  0.
     999903    2    3    3    0    0  0.27817941926E-01  0.11353295229E+00 -0.58825707272E-01  0.13238966417E+00  0.20074615677E-01 0.  0.
         14    1    1    2    0    0 -0.16034066178E-01 -0.17174910784E-01  0.77059490245E-02  0.24727524927E-01  0.00000000000E+00 0. -1.
     999901    1    3    3    0    0 -0.11783875748E-01 -0.96358041510E-01  0.51119758247E-01  0.88681281090E+00  0.88000000000E+00 0.  1.
        -11    1    4    4    0    0  0.18914774040E-01  0.54384041841E-01 -0.19459922334E-01  0.60781102180E-01  0.51100000000E-03 0. -1.
         11    1    4    4    0    0  0.89031678862E-02  0.59148910453E-01 -0.39365784937E-01  0.71608561994E-01  0.51100000000E-03 0.  1.
</event>
<event>
 8    1  0.1044719E+005  0.1043930E+01  0.7957747E-01            NaN
         13   -1    0    0    0    0  0.00000000000E+00  0.00000000000E+00  0.74505805969E-08  0.10566000000E+00  0.10566000000E+00 0.  1.
     999900   -1    0    0    0    0 -0.00000000000E+00 -0.00000000000E+00 -0.74505805969E-08  0.93827000000E+00  0.93827000000E+00 0.  1.
     999902    2    1    2    0    0  0.54801561707E-02 -0.21662356169E-01 -0.89399936711E-02  0.10198631499E+01  0.10195791442E+01 0.  0.
     999903    2    3    3    0    0 -0.87065624919E-01 -0.82686307017E-01 -0.50595924357E-01  0.13193079847E+00  0.20696367126E-01 0.  0.
         14    1    1    2    0    0 -0.54801561707E-02  0.21662356169E-01  0.89399936711E-02  0.24066850091E-01  0.00000000000E+00 0. -1.
     999901    1    3    3    0    0  0.92545781090E-01  0.61023950848E-01  0.41655930686E-01  0.88793235144E+00  0.88000000000E+00 0.  1.
        -11    1    4    4    0    0 -0.79934931433E-01 -0.74982496725E-01 -0.39127913235E-01  0.11637535303E+00  0.51100000000E-03 0.  1.
         11    1    4    4    0    0 -0.71306934869E-02 -0.77038102916E-02 -0.11468011122E-01  0.15555445436E-01  0.51100000000E-03 0. -1.
</event>
<event>
 8    1  0.1044719E+005  0.1043930E+01  0.7957747E-01            NaN
         13   -1    0    0    0    0  0.00000000000E+00  0.00000000000E+00  0.74505805969E-08  0.10566000000E+00  0.10566000000E+00 0.  1.
     999900   -1    0    0    0    0 -0.00000000000E+00 -0.00000000000E+00 -0.74505805969E-08  0.93827000000E+00  0.93827000000E+00 0.  1.
     999902    2    1    2    0    0 -0.10272373609E-01 -0.13085896447E-01  0.17139937365E-01  0.10200440251E+01  0.10197643224E+01 0.  0.
     999903    2    3    3    0    0  0.12556306692E-01 -0.11004262940E+00 -0.62029690008E-01  0.13089297682E+00  0.31909995529E-01 0.  0.
         14    1    1    2    0    0  0.10272373609E-01  0.13085896447E-01 -0.17139937365E-01  0.23885974928E-01  0.00000000000E+00 0. -1.
     999901    1    3    3    0    0 -0.22828680301E-01  0.96956732955E-01  0.79169627373E-01  0.88915104825E+00  0.88000000000E+00 0. -1.
        -11    1    4    4    0    0  0.12362408077E-01 -0.34653821602E-01 -0.35055483978E-01  0.50821890588E-01  0.51100000000E-03 0. -1.
         11    1    4    4    0    0  0.19389861543E-03 -0.75388807801E-01 -0.26974206030E-01  0.80071086231E-01  0.51100000000E-03 0.  1.
</event>
<event>
 8    1  0.1044719E+005  0.1043930E+01  0.7957747E-01            NaN
         13   -1    0    0    0    0  0.00000000000E+00  0.00000000000E+00  0.74505805969E-08  0.10566000000E+00  0.10566000000E+00 0.  1.
     999900   -1    0    0    0    0 -0.00000000000E+00 -0.00000000000E+00 -0.74505805969E-08  0.93827000000E+00  0.93827000000E+00 0.  1.
     999902    2    1    2    0    0 -0.55218342311E-02  0.52607042111E-02 -0.22117452861E-01  0.10205345435E+01  0.10202663413E+01 0.  0.
     999903    2    3    3    0    0  0.69190539303E-02  0.12824052235E+00  0.16323559841E-01  0.13106474482E+00  0.20445142422E-01 0.  0.
         14    1    1    2    0    0  0.55218342311E-02 -0.52607042111E-02  0.22117452861E-01  0.23395456464E-01  0.00000000000E+00 0.  1.
     999901    1    3    3    0    0 -0.12440888161E-01 -0.12297981814E+00 -0.38441012702E-01  0.88946979871E+00  0.88000000000E+00 0.  1.
        -11    1    4    4    0    0  0.14011744332E-01  0.87632129926E-01  0.13161220394E-01  0.89717322841E-01  0.51100000000E-03 0. -1.
         11    1    4    4    0    0 -0.70926904017E-02  0.40608392427E-01  0.31623394468E-02  0.41347421980E-01  0.51100000000E-03 0.  1.
</event>
<event>
 8    1  0.1044719E+005  0.1043930E+01  0.7957747E-01            NaN
         13   -1    0    0    0    0  0.00000000000E+00  0.00000000000E+00  0.74505805969E-08  0.10566000000E+00  0.10566000000E+00 0. -1.
     999900   -1    0    0    0    0 -0.00000000000E+00 -0.00000000000E+00 -0.74505805969E-08  0.93827000000E+00  0.93827000000E+00 0. -1.
     999902    2    1    2    0    0 -0.12173099295E-01  0.13142392284E-01 -0.16018926673E-01  0.10198985033E+01  0.10196153413E+01 0.  0.
     999903    2    3    3    0    0  0.37635442087E-01 -0.67231084700E-01  0.10006317664E+00  0.12725308585E+00  0.15628924738E-01 0.  0.
         14    1    1    2    0    0  0.12173099295E-01 -0.13142392284E-01  0.16018926673E-01  0.24031496690E-01  0.00000000000E+00 0.  1.
     999901    1    3    3    0    0 -0.49808541381E-01  0.80373476985E-01 -0.11608210331E+00  0.89264541746E+00  0.88000000000E+00 0.  1.
        -11    1    4    4    0    0  0.66125332840E-02 -0.82112192643E-02  0.66207777868E-02  0.12459756729E-01  0.51100000000E-03 0.  1.
         11    1    4    4    0    0  0.31022908803E-01 -0.59019865436E-01  0.93442398855E-01  0.11479332912E+00  0.51100000000E-03 0. -1.
</event>
<event>
 8    1  0.1044719E+005  0.1043930E+01  0.7957747E-01            NaN
         13   -1    0    0    0    0  0.00000000000E+00  0.00000000000E+00  0.74505805969E-08  0.10566000000E+00  0.10566000000E+00 0.  1.
     999900   -1    0    0    0    0 -0.00000000000E+00 -0.00000000000E+00 -0.74505805969E-08  0.93827000000E+00  0.93827000000E+00 0.  1.
     999902    2    1    2    0    0 -0.80440576802E-02 -0.98637990916E-02 -0.22143378218E-01  0.10183892366E+01  0.10180689105E+01 0.  0.
     999903    2    3    3    0    0  0.88409991995E-01  0.83807222992E-01  0.28303169040E-01  0.12674889531E+00  0.20596984586E-01 0.  0.
         14    1    1    2    0    0  0.80440576802E-02  0.98637990916E-02  0.22143378218E-01  0.25540763406E-01  0.00000000000E+00 0.  1.
     999901    1    3    3    0    0 -0.96454049675E-01 -0.93671022083E-01 -0.50446547258E-01  0.89164034129E+00  0.88000000000E+00 0.  1.
        -11    1    4    4    0    0  0.36091072937E-01  0.21602759967E-01  0.13084308356E-01  0.44053433806E-01  0.51100000000E-03 0.  1.
         11    1    4    4    0    0  0.52318919058E-01  0.62204463025E-01  0.15218860685E-01  0.82695461502E-01  0.51100000000E-03 0. -1.
</event>
<event>
 8    1  0.1044719E+005  0.1043930E+01  0.7957747E-01            NaN
         13   -1    0    0    0    0  0.00000000000E+00  0.00000000000E+00  0.74505805969E-08  0.10566000000E+00  0.10566000000E+00 0. -1.
     999900   -1    0    0    0    0 -0.00000000000E+00 -0.00000000000E+00 -0.74505805969E-08  0.93827000000E+00  0.93827000000E+00 0. -1.
     999902    2    1    2    0    0  0.23367401494E-02  0.20209860710E-01 -0.11769431834E-01  0.10204264184E+01  0.10201557023E+01 0.  0.
     999903    2    3    3    0    0 -0.36627022754E-01  0.11418910732E+00  0.50643147830E-01  0.13236921090E+00  0.24003927730E-01 0.  0.
         14    1    1    2    0    0 -0.23367401494E-02 -0.20209860710E-01  0.11769431834E-01  0.23503581645E-01  0.00000000000E+00 0. -1.
     999901    1    3    3    0    0  0.38963762904E-01 -0.93979246607E-01 -0.62412579664E-01  0.88805720745E+00  0.88000000000E+00 0. -1.
        -11    1    4    4    0    0 -0.36308149242E-01  0.86432452047E-01  0.45199370186E-01  0.10407734938E+00  0.51100000000E-03 0.  1.
         11    1    4    4    0    0 -0.31887351175E-03  0.27756655270E-01  0.54437776445E-02  0.28291861518E-01  0.51100000000E-03 0. -1.
</event>
<event>
 8    1  0.1044719E+005  0.1043930E+01  0.7957747E-01            NaN
         13   -1    0    0    0    0  0.00000000000E+00  0.00000000000E+00  0.74505805969E-08  0.10566000000E+00  0.10566000000E+00 0.  1.
     999900   -1    0    0    0    0 -0.00000000000E+00 -0.00000000000E+00 -0.74505805969E-08  0.93827000000E+00  0.93827000000E+00 0. -1.
     999902    2    1    2    0    0 -0.11672961137E-01  0.89739515156E-02  0.18026396212E-01  0.10206546743E+01  0.10203892509E+01 0.  0.
     999903    2    3    3    0    0 -0.79322899255E-02 -0.12681219134E+00 -0.20600879892E-01  0.12939492780E+00  0.13205983243E-01 0.  0.
         14    1    1    2    0    0  0.11672961137E-01 -0.89739515156E-02 -0.18026396212E-01  0.23275325732E-01  0.00000000000E+00 0. -1.
     999901    1    3    3    0    0 -0.37406712114E-02  0.13578614285E+00  0.38627276105E-01  0.89125974647E+00  0.88000000000E+00 0.  1.
        -11    1    4    4    0    0 -0.43732762169E-02 -0.45143547626E-01 -0.11857898965E-02  0.45373259259E-01  0.51100000000E-03 0.  1.
         11    1    4    4    0    0 -0.35590137086E-02 -0.81668643711E-01 -0.19415089996E-01  0.84021668543E-01  0.51100000000E-03 0. -1.
</event>
<event>
 8    1  0.1044719E+005  0.1043930E+01  0.7957747E-01            NaN
         13   -1    0    0    0    0  0.00000000000E+00  0.00000000000E+00  0.74505805969E-08  0.10566000000E+00  0.10566000000E+00 0. -1.
     999900   -1    0    0    0    0 -0.00000000000E+00 -0.00000000000E+00 -0.74505805969E-08  0.93827000000E+00  0.93827000000E+00 0. -1.
     999902    2    1    2    0    0  0.20271990401E-01 -0.94714827195E-02 -0.71750428390E-02  0.10204322593E+01  0.10201616793E+01 0.  0.
     999903    2    3    3    0    0  0.83292579076E-01 -0.13012405604E-01 -0.10107126880E+00  0.13318898148E+00  0.20418789945E-01 0.  0.
         14    1    1    2    0    0 -0.20271990401E-01  0.94714827195E-02  0.71750428390E-02  0.23497740731E-01  0.00000000000E+00 0.  1.
     999901    1    3    3    0    0 -0.63020588675E-01  0.35409228845E-02  0.93896225958E-01  0.88724327779E+00  0.88000000000E+00 0.  1.
        -11    1    4    4    0    0  0.29492438275E-01 -0.81012876059E-02 -0.51321018765E-01  0.59745651426E-01  0.51100000000E-03 0.  1.
         11    1    4    4    0    0  0.53800140801E-01 -0.49111179981E-02 -0.49750250032E-01  0.73443330054E-01  0.51100000000E-03 0. -1.
</event>
<event>
 8    1  0.1044719E+005  0.1043930E+01  0.7957747E-01            NaN
         13   -1    0    0    0    0  0.00000000000E+00  0.00000000000E+00  0.74505805969E-08  0.10566000000E+00  0.10566000000E+00 0. -1.
     999900   -1    0    0    0    0 -0.00000000000E+00 -0.00000000000E+00 -0.74505805969E-08  0.93827000000E+00  0.93827000000E+00 0. -1.
     999902    2    1    2    0    0 -0.55142660192E-02 -0.18717724727E-01 -0.12861169308E-01  0.10205597192E+01  0.10202921005E+01 0.  0.
     999903    2    3    3    0    0  0.12294505796E+00 -0.31319359353E-01  0.21351966185E-01  0.13048604935E+00  0.21778729746E-01 0.  0.
         14    1    1    2    0    0  0.55142660192E-02  0.18717724727E-01  0.12861169308E-01  0.23370280799E-01  0.00000000000E+00 0.  1.
     999901    1    3    3    0    0 -0.12845932398E+00  0.12601634626E-01 -0.34213135493E-01  0.89007366985E+00  0.88000000000E+00 0.  1.
        -11    1    4    4    0    0  0.64666421504E-01 -0.22785551279E-01  0.23902383896E-02  0.68606863926E-01  0.51100000000E-03 0. -1.
         11    1    4    4    0    0  0.58278636456E-01 -0.85338080744E-02  0.18961727796E-01  0.61879185429E-01  0.51100000000E-03 0.  1.
</event>
<event>
 8    1  0.1044719E+005  0.1043930E+01  0.7957747E-01            NaN
         13   -1    0    0    0    0  0.00000000000E+00  0.00000000000E+00  0.74505805969E-08  0.10566000000E+00  0.10566000000E+00 0. -1.
     999900   -1    0    0    0    0 -0.00000000000E+00 -0.00000000000E+00 -0.74505805969E-08  0.93827000000E+00  0.93827000000E+00 0.  1.
     999902    2    1    2    0    0  0.18269013421E-02 -0.21095883415E-01 -0.11238055498E-01  0.10199577711E+01  0.10196760207E+01 0.  0.
     999903    2    3    3    0    0  0.10432100861E+00  0.48909916625E-01  0.54319358168E-01  0.12883284804E+00  0.19293970079E-01 0.  0.
         14    1    1    2    0    0 -0.18269013421E-02  0.21095883415E-01  0.11238055498E-01  0.23972228869E-01  0.00000000000E+00 0. -1.
     999901    1    3    3    0    0 -0.10249410727E+00 -0.70005800040E-01 -0.65557413666E-01  0.89112492309E+00  0.88000000000E+00 0.  1.
        -11    1    4    4    0    0  0.63312930576E-01  0.37257371605E-01  0.27378129367E-01  0.78399375034E-01  0.51100000000E-03 0.  1.
         11    1    4    4    0    0  0.41008078032E-01  0.11652545020E-01  0.26941228801E-01  0.50433473008E-01  0.51100000000E-03 0. -1.
</event>
<event>
 8    1  0.1044719E+005  0.1043930E+01  0.7957747E-01            NaN
         13   -1    0    0    0    0  0.00000000000E+00  0.00000000000E+00  0.74505805969E-08  0.10566000000E+00  0.10566000000E+00 0. -1.
     999900   -1    0    0    0    0 -0.00000000000E+00 -0.00000000000E+00 -0.74505805969E-08  0.93827000000E+00  0.93827000000E+00 0.  1.
     999902    2    1    2    0    0 -0.10743914308E-01 -0.16277218716E-01 -0.14131561596E-01  0.10198451380E+01  0.10195607019E+01 0.  0.
     999903    2    3    3    0    0 -0.48817783163E-01 -0.16716080495E-01 -0.12057802310E+00  0.13261311579E+00  0.19610597231E-01 0.  0.
         14    1    1    2    0    0  0.10743914308E-01  0.16277218716E-01  0.14131561596E-01  0.24084861987E-01  0.00000000000E+00 0. -1.
     999901    1    3    3    0    0  0.38073868856E-01  0.43886177885E-03  0.10644646151E+00  0.88723202222E+00  0.88000000000E+00 0. -1.
        -11    1    4    4    0    0 -0.29709005848E-01 -0.21639137282E-03 -0.59044955446E-01  0.66100224950E-01  0.51100000000E-03 0. -1.
         11    1    4    4    0    0 -0.19108777315E-01 -0.16499689122E-01 -0.61533067658E-01  0.66512890841E-01  0.51100000000E-03 0.  1.
</event>
<event>
 8    1  0.1044719E+005  0.1043930E+01  0.7957747E-01            NaN
         13   -1    0    0    0    0  0.00000000000E+00  0.00000000000E+00  0.74505805969E-08  0.10566000000E+00  0.10566000000E+00 0. -1.
     999900   -1    0    0    0    0 -0.00000000000E+00 -0.00000000000E+00 -0.74505805969E-08  0.93827000000E+00  0.93827000000E+00 0.  1.
     999902    2    1    2    0    0 -0.19902398133E-01  0.57049747975E-03 -0.13840498402E-01  0.10196814884E+01  0.10193931270E+01 0.  0.
     999903    2    3    3    0    0 -0.82190074884E-01 -0.75265715751E-01  0.65048780506E-01  0.13071894462E+00  0.20879709308E-01 0.  0.
         14    1    1    2    0    0  0.19902398133E-01 -0.57049747975E-03  0.13840498402E-01  0.24248511600E-01  0.00000000000E+00 0.  1.
     999901    1    3    3    0    0  0.62287676751E-01  0.75836213231E-01 -0.78889278908E-01  0.88896254378E+00  0.88000000000E+00 0.  1.
        -11    1    4    4    0    0 -0.38860152859E-01 -0.43509940309E-01  0.43777259651E-01  0.72937891177E-01  0.51100000000E-03 0. -1.
         11    1    4    4    0    0 -0.43329922026E-01 -0.31755775442E-01  0.21271520855E-01  0.57781053445E-01  0.51100000000E-03 0.  1.
</event>
<event>
 8    1  0.1044719E+005  0.1043930E+01  0.7957747E-01            NaN
         13   -1    0    0    0    0  0.00000000000E+00  0.00000000000E+00  0.74505805969E-08  0.10566000000E+00  0.10566000000E+00 0. -1.
     999900   -1    0    0    0    0 -0.00000000000E+00 -0.00000000000E+00 -0.74505805969E-08  0.93827000000E+00  0.93827000000E+00 0. -1.
     999902    2    1    2    0    0  0.19537440958E-01 -0.99484716415E-02  0.13000716707E-01  0.10184407410E+01  0.10181217219E+01 0.  0.
     999903    2    3    3    0    0  0.53726736713E-01  0.46096417782E-01  0.10832199811E+00  0.13086196467E+00  0.19487343415E-01 0.  0.
         14    1    1    2    0    0 -0.19537440958E-01  0.99484716415E-02 -0.13000716707E-01  0.25489258955E-01  0.00000000000E+00 0.  1.
     999901    1    3    3    0    0 -0.34189295755E-01 -0.56044889423E-01 -0.95321281405E-01  0.88757877637E+00  0.88000000000E+00 0. -1.
        -11    1    4    4    0    0  0.27797027268E-01  0.25829191142E-01  0.74836902244E-01  0.83908550807E-01  0.51100000000E-03 0.  1.
         11    1    4    4    0    0  0.25929709445E-01  0.20267226639E-01  0.33485095868E-01  0.46953413868E-01  0.51100000000E-03 0. -1.
</event>
<event>
 8    1  0.1044719E+005  0.1043930E+01  0.7957747E-01            NaN
         13   -1    0    0    0    0  0.00000000000E+00  0.00000000000E+00  0.74505805969E-08  0.10566000000E+00  0.10566000000E+00 0. -1.
     999900   -1    0    0    0    0 -0.00000000000E+00 -0.00000000000E+00 -0.74505805969E-08  0.93827000000E+00  0.93827000000E+00 0. -1.
     999902    2    1    2    0    0 -0.33978603055E-02 -0.45583987561E-02 -0.20296145894E-01  0.10228525715E+01  0.10226353823E+01 0.  0.
     999903    2    3    3    0    0  0.45221509450E-01 -0.87514128910E-01 -0.89834060095E-01  0.13488803517E+00  0.20516237524E-01 0.  0.
         14    1    1    2    0    0  0.33978603055E-02  0.45583987561E-02  0.20296145894E-01  0.21077428497E-01  0.00000000000E+00 0. -1.
     999901    1    3    3    0    0 -0.48619369755E-01  0.82955730154E-01  0.69537914201E-01  0.88796453634E+00  0.88000000000E+00 0.  1.
        -11    1    4    4    0    0  0.12916185842E-01 -0.47266182525E-01 -0.42934131777E-01  0.65149985876E-01  0.51100000000E-03 0. -1.
         11    1    4    4    0    0  0.32305323608E-01 -0.40247946384E-01 -0.46899928318E-01  0.69738049290E-01  0.51100000000E-03 0.  1.
</event>
<event>
 8    1  0.1044719E+005  0.1043930E+01  0.7957747E-01            NaN
         13   -1    0    0    0    0  0.00000000000E+00  0.00000000000E+00  0.74505805969E-08  0.10566000000E+00  0.10566000000E+00 0. -1.
     999900   -1    0    0    0    0 -0.00000000000E+00 -0.00000000000E+00 -0.74505805969E-08  0.93827000000E+00  0.93827000000E+00 0.  1.
     999902    2    1    2    0    0 -0.11813674787E-01 -0.13141378276E-01 -0.15407267671E-01  0.10204855415E+01  0.10202162015E+01 0.  0.
     999903    2    3    3    0    0  0.12398834069E+00  0.27022030195E-01  0.10256297510E-01  0.12879394387E+00  0.19477925876E-01 0.  0.
         14    1    1    2    0    0  0.11813674787E-01  0.13141378276E-01  0.15407267671E-01  0.23444458451E-01  0.00000000000E+00 0.  1.
     999901    1    3    3    0    0 -0.13580201548E+00 -0.40163408471E-01 -0.25663565182E-01  0.89169159768E+00  0.88000000000E+00 0.  1.
        -11    1    4    4    0    0  0.93891764295E-01  0.12099677317E-01  0.99996105288E-02  0.95196212768E-01  0.51100000000E-03 0.  1.
         11    1    4    4    0    0  0.30096576396E-01  0.14922352878E-01  0.25668698136E-03  0.33597731105E-01  0.51100000000E-03 0. -1.
</event>
<event>
 8    1  0.1044719E+005  0.1043930E+01  0.7957747E-01            NaN
         13   -1    0    0    0    0  0.00000000000E+00  0.00000000000E+00  0.74505805969E-08  0.10566000000E+00  0.10566000000E+00 0. -1.
     999900   -1    0    0    0    0 -0.00000000000E+00 -0.00000000000E+00 -0.74505805969E-08  0.93827000000E+00  0.93827000000E+00 0.  1.
     999902    2    1    2    0    0  0.11863578221E-01  0.10109309700E-01  0.15830622331E-01  0.10217139870E+01  0.10214724274E+01 0.  0.
     999903    2    3    3    0    0 -0.45272951700E-01  0.29922346534E-01 -0.11634246675E+00  0.12979085972E+00  0.19107870626E-01 0.  0.
         14    1    1    2    0    0 -0.11863578221E-01 -0.10109309700E-01 -0.15830622331E-01  0.22216013013E-01  0.00000000000E+00 0.  1.
     999901    1    3    3    0    0  0.57136529921E-01 -0.19813036834E-01  0.13217308908E+00  0.89192312727E+00  0.88000000000E+00 0. -1.
        -11    1    4    4    0    0 -0.33662174727E-01  0.13288886967E-01 -0.85807246641E-01  0.93128305156E-01  0.51100000000E-03 0. -1.
         11    1    4    4    0    0 -0.11610776974E-01  0.16633459567E-01 -0.30535220106E-01  0.36662554562E-01  0.51100000000E-03 0.  1.
</event>
<event>
 8    1  0.1044719E+005  0.1043930E+01  0.7957747E-01            NaN
         13   -1    0    0    0    0  0.00000000000E+00  0.00000000000E+00  0.74505805969E-08  0.10566000000E+00  0.10566000000E+00 0. -1.
     999900   -1    0    0    0    0 -0.00000000000E+00 -0.00000000000E+00 -0.74505805969E-08  0.93827000000E+00  0.93827000000E+00 0.  1.
     999902    2    1    2    0    0 -0.20521498276E-01 -0.39629906583E-02 -0.13008236941E-02  0.10229889081E+01  0.10227745484E+01 0.  0.
     999903    2    3    3    0    0 -0.57595429637E-01  0.13129456386E-02  0.11938119682E+00  0.13396333934E+00  0.19373920392E-01 0.  0.
         14    1    1    2    0    0  0.20521498276E-01  0.39629906583E-02  0.13008236941E-02  0.20941091871E-01  0.00000000000E+00 0. -1.
     999901    1    3    3    0    0  0.37073931360E-01 -0.52759362969E-02 -0.12068202051E+00  0.88902556879E+00  0.88000000000E+00 0.  1.
        -11    1    4    4    0    0 -0.29798276746E-01  0.83892355532E-02  0.49024935346E-01  0.57982945569E-01  0.51100000000E-03 0. -1.
         11    1    4    4    0    0 -0.27797152890E-01 -0.70762899147E-02  0.70356261473E-01  0.75980393768E-01  0.51100000000E-03 0.  1.
</event>
<event>
 8    1  0.1044719E+005  0.1043930E+01  0.7957747E-01            NaN
         13   -1    0    0    0    0  0.00000000000E+00  0.00000000000E+00  0.74505805969E-08  0.10566000000E+00  0.10566000000E+00 0. -1.
     999900   -1    0    0    0    0 -0.00000000000E+00 -0.00000000000E+00 -0.74505805969E-08  0.93827000000E+00  0.93827000000E+00 0.  1.
     999902    2    1    2    0    0  0.60315699530E-02 -0.19993927772E-01  0.11774358054E-01  0.10199555867E+01  0.10196737843E+01 0.  0.
     999903    2    3    3    0    0  0.12584676440E+00  0.77598788056E-02  0.30267975682E-01  0.13121042163E+00  0.20059924295E-01 0.  0.
         14    1    1    2    0    0 -0.60315699530E-02  0.19993927772E-01 -0.11774358054E-01  0.23974413266E-01  0.00000000000E+00 0.  1.
     999901    1    3    3    0    0 -0.11981519445E+00 -0.27753806578E-01 -0.18493617628E-01  0.88874516510E+00  0.88000000000E+00 0. -1.
        -11    1    4    4    0    0  0.60563511796E-01 -0.38760808606E-02  0.77755406053E-02  0.61185644694E-01  0.51100000000E-03 0. -1.
         11    1    4    4    0    0  0.65283252609E-01  0.11635959666E-01  0.22492435077E-01  0.70024776938E-01  0.51100000000E-03 0.  1.
</event>
<event>
 8    1  0.1044719E+005  0.1043930E+01  0.7957747E-01            NaN
         13   -1    0    0    0    0  0.00000000000E+00  0.00000000000E+00  0.74505805969E-08  0.10566000000E+00  0.10566000000E+00 0. -1.
     999900   -1    0    0    0    0 -0.00000000000E+00 -0.00000000000E+00 -0.74505805969E-08  0.93827000000E+00  0.93827000000E+00 0.  1.
     999902    2    1    2    0    0  0.21047522554E-01 -0.75791293418E-02 -0.91282324158E-02  0.10197687493E+01  0.10194824844E+01 0.  0.
     999903    2    3    3    0    0  0.11801446207E+00  0.13734116085E-01 -0.56091178970E-01  0.13294161840E+00  0.20278420595E-01 0.  0.
         14    1    1    2    0    0 -0.21047522554E-01  0.75791293418E-02  0.91282324158E-02  0.24161250677E-01  0.00000000000E+00 0. -1.
     999901    1    3    3    0    0 -0.96966939518E-01 -0.21313245427E-01  0.46962946555E-01  0.88682713092E+00  0.88000000000E+00 0. -1.
        -11    1    4    4    0    0  0.31145893897E-02  0.35417551597E-02 -0.46370130177E-02  0.66338305227E-02  0.51100000000E-03 0.  1.
         11    1    4    4    0    0  0.11489987268E+00  0.10192360926E-01 -0.51454165953E-01  0.12630778788E+00  0.51100000000E-03 0. -1.
</event>
<event>
 8    1  0.1044719E+005  0.1043930E+01  0.7957747E-01            NaN
         13   -1    0    0    0    0  0.00000000000E+00  0.00000000000E+00  0.74505805969E-08  0.10566000000E+00  0.10566000000E+00 0.  1.
     999900   -1    0    0    0    0 -0.00000000000E+00 -0.00000000000E+00 -0.74505805969E-08  0.93827000000E+00  0.93827000000E+00 0. -1.
     999902    2    1    2    0    0  0.89943634413E-02  0.20879527888E-01  0.65599687702E-02  0.10202680802E+01  0.10199936613E+01 0.  0.
     999903    2    3    3    0    0 -0.10168821306E-01 -0.69384251332E-01  0.10736485163E+00  0.12971970874E+00  0.19555362697E-01 0.  0.
         14    1    1    2    0    0 -0.89943634413E-02 -0.20879527888E-01 -0.65599687702E-02  0.23661919804E-01  0.00000000000E+00 0. -1.
     999901    1    3    3    0    0  0.19163184747E-01  0.90263779220E-01 -0.10080488286E+00  0.89054837145E+00  0.88000000000E+00 0. -1.
        -11    1    4    4    0    0  0.60278225514E-03 -0.49371320632E-01  0.64852503153E-01  0.81510728948E-01  0.51100000000E-03 0. -1.
         11    1    4    4    0    0 -0.10771603561E-01 -0.20012930700E-01  0.42512348482E-01  0.48208979795E-01  0.51100000000E-03 0.  1.
</event>
<event>
 7    1  0.1044719E+005  0.1043930E+01  0.7957747E-01            NaN
         13   -1    0    0    0    0  0.00000000000E+00  0.00000000000E+00  0.74505805969E-08  0.10566000000E+00  0.10566000000E+00 0. -1.
     999900   -1    0    0    0    0 -0.00000000000E+00 -0.00000000000E+00 -0.74505805969E-08  0.93827000000E+00  0.93827000000E+00 0.  1.
     999903    2    1    2    0    0 -0.55205382471E-01 -0.66768241213E-01 -0.38123880360E-01  0.96742889005E-01  0.20003100531E-01 0.  0.
         14    1    1    2    0    0  0.57084457338E-01  0.30904397359E-01 -0.70624777929E-02  0.65296214579E-01  0.00000000000E+00 0.  1.
     999901    1    1    2    0    0 -0.18790748667E-02  0.35863843854E-01  0.45186358153E-01  0.88189089642E+00  0.88000000000E+00 0. -1.
        -11    1    3    3    0    0 -0.42107696534E-01 -0.52297543324E-01 -0.19890813461E-01  0.70028542226E-01  0.51100000000E-03 0.  1.
         11    1    3    3    0    0 -0.13097685937E-01 -0.14470697890E-01 -0.18233066899E-01  0.26714346780E-01  0.51100000000E-03 0. -1.
</event>
<event>
 8    1  0.1044719E+005  0.1043930E+01  0.7957747E-01            NaN
         13   -1    0    0    0    0  0.00000000000E+00  0.00000000000E+00  0.74505805969E-08  0.10566000000E+00  0.10566000000E+00 0.  1.
     999900   -1    0    0    0    0 -0.00000000000E+00 -0.00000000000E+00 -0.74505805969E-08  0.93827000000E+00  0.93827000000E+00 0. -1.
     999902    2    1    2    0    0 -0.22372660843E-01 -0.83142822816E-02  0.91486480934E-03  0.10200448536E+01  0.10197651705E+01 0.  0.
     999903    2    3    3    0    0  0.71713942531E-01  0.99818592649E-01  0.29455423401E-01  0.12799128394E+00  0.20186773033E-01 0.  0.
         14    1    1    2    0    0  0.22372660843E-01  0.83142822816E-02 -0.91486480934E-03  0.23885146445E-01  0.00000000000E+00 0. -1.
     999901    1    3    3    0    0 -0.94086603374E-01 -0.10813287493E+00 -0.28540558592E-01  0.89205356961E+00  0.88000000000E+00 0. -1.
        -11    1    4    4    0    0  0.18559852780E-01  0.22933049048E-01  0.15970543359E-01  0.33551635579E-01  0.51100000000E-03 0. -1.
         11    1    4    4    0    0  0.53154089751E-01  0.76885543601E-01  0.13484880043E-01  0.94439648363E-01  0.51100000000E-03 0.  1.
</event>
<event>
 8    1  0.1044719E+005  0.1043930E+01  0.7957747E-01            NaN
         13   -1    0    0    0    0  0.00000000000E+00  0.00000000000E+00  0.74505805969E-08  0.10566000000E+00  0.10566000000E+00 0.  1.
     999900   -1    0    0    0    0 -0.00000000000E+00 -0.00000000000E+00 -0.74505805969E-08  0.93827000000E+00  0.93827000000E+00 0.  1.
     999902    2    1    2    0    0  0.13174868393E-01 -0.50824055061E-02  0.18265303914E-01  0.10208425720E+01  0.10205814654E+01 0.  0.
     999903    2    3    3    0    0  0.91034729754E-01  0.70622632404E-02  0.95900183788E-01  0.13391708161E+00  0.19993546797E-01 0.  0.
         14    1    1    2    0    0 -0.13174868393E-01  0.50824055061E-02 -0.18265303914E-01  0.23087427964E-01  0.00000000000E+00 0. -1.
     999901    1    3    3    0    0 -0.77859861361E-01 -0.12144668746E-01 -0.77634879874E-01  0.88692549042E+00  0.88000000000E+00 0.  1.
        -11    1    4    4    0    0  0.81588821594E-01  0.20867725494E-02  0.77014965833E-01  0.11221700634E+00  0.51100000000E-03 0.  1.
         11    1    4    4    0    0  0.94459081600E-02  0.49754906910E-02  0.18885217956E-01  0.21700075272E-01  0.51100000000E-03 0. -1.
</event>
<event>
 8    1  0.1044719E+005  0.1043930E+01  0.7957747E-01            NaN
         13   -1    0    0    0    0  0.00000000000E+00  0.00000000000E+00  0.74505805969E-08  0.10566000000E+00  0.10566000000E+00 0.  1.
     999900   -1    0    0    0    0 -0.00000000000E+00 -0.00000000000E+00 -0.74505805969E-08  0.93827000000E+00  0.93827000000E+00 0.  1.
     999902    2    1    2    0    0  0.82133378565E-02  0.15003588199E-01 -0.15959712944E-01  0.10205360047E+01  0.10202678364E+01 0.  0.
     999903    2    3    3    0    0 -0.11892643769E+00  0.38911404370E-01  0.28158643337E-01  0.12998418952E+00  0.21104155010E-01 0.  0.
         14    1    1    2    0    0 -0.82133378565E-02 -0.15003588199E-01  0.15959712944E-01  0.23393995273E-01  0.00000000000E+00 0.  1.
     999901    1    3    3    0    0  0.12713977555E+00 -0.23907816171E-01 -0.44118356281E-01  0.89055181520E+00  0.88000000000E+00 0.  1.
        -11    1    4    4    0    0 -0.24899494425E-01 -0.21959803326E-03  0.80314225233E-02  0.26168643730E-01  0.51100000000E-03 0. -1.
         11    1    4    4    0    0 -0.94026943270E-01  0.39131002403E-01  0.20127220814E-01  0.10381554579E+00  0.51100000000E-03 0.  1.
</event>
<event>
 8    1  0.1044719E+005  0.1043930E+01  0.7957747E-01            NaN
         13   -1    0    0    0    0  0.00000000000E+00  0.00000000000E+00  0.74505805969E-08  0.10566000000E+00  0.10566000000E+00 0. -1.
     999900   -1    0    0    0    0 -0.00000000000E+00 -0.00000000000E+00 -0.74505805969E-08  0.93827000000E+00  0.93827000000E+00 0. -1.
     999902    2    1    2    0    0  0.32631050869E-02 -0.98599356432E-02  0.24020590160E-01  0.10177602668E+01  0.10174237591E+01 0.  0.
     999903    2    3    3    0    0  0.36744767321E-01  0.10079865530E+00  0.68839273943E-01  0.12906737276E+00  0.20223605969E-01 0.  0.
         14    1    1    2    0    0 -0.32631050869E-02  0.98599356432E-02 -0.24020590160E-01  0.26169733230E-01  0.00000000000E+00 0.  1.
     999901    1    3    3    0    0 -0.33481662234E-01 -0.11065859094E+00 -0.44818683782E-01  0.88869289401E+00  0.88000000000E+00 0.  1.
        -11    1    4    4    0    0  0.13645721336E-02  0.29767154651E-01  0.17781525133E-01  0.34704312559E-01  0.51100000000E-03 0. -1.
         11    1    4    4    0    0  0.35380195187E-01  0.71031500644E-01  0.51057748809E-01  0.94363060197E-01  0.51100000000E-03 0.  1.
</event>
<event>
 8    1  0.1044719E+005  0.1043930E+01  0.7957747E-01            NaN
         13   -1    0    0    0    0  0.00000000000E+00  0.00000000000E+00  0.74505805969E-08  0.10566000000E+00  0.10566000000E+00 0. -1.
     999900   -1    0    0    0    0 -0.00000000000E+00 -0.00000000000E+00 -0.74505805969E-08  0.93827000000E+00  0.93827000000E+00 0. -1.
     999902    2    1    2    0    0  0.16266043297E-02 -0.20690834676E-01  0.12515830995E-02  0.10231376230E+01  0.10229263281E+01 0.  0.
     999903    2    3    3    0    0  0.69612021285E-01 -0.54789360180E-01 -0.98815486460E-01  0.13420672311E+00  0.19980907575E-01 0.  0.
         14    1    1    2    0    0 -0.16266043297E-02  0.20690834676E-01 -0.12515830995E-02  0.20792377004E-01  0.00000000000E+00 0. -1.
     999901    1    3    3    0    0 -0.67985416955E-01  0.34098525504E-01  0.10006706956E+00  0.88893089989E+00  0.88000000000E+00 0. -1.
        -11    1    4    4    0    0  0.19083678424E-01 -0.46975116693E-02 -0.21135159816E-01  0.28865368516E-01  0.51100000000E-03 0.  1.
         11    1    4    4    0    0  0.50528342860E-01 -0.50091848511E-01 -0.77680326644E-01  0.10534135460E+00  0.51100000000E-03 0. -1.
</event>
<event>
 8    1  0.1044719E+005  0.1043930E+01  0.7957747E-01            NaN
         13   -1    0    0    0    0  0.00000000000E+00  0.00000000000E+00  0.74505805969E-08  0.10566000000E+00  0.10566000000E+00 0. -1.
     999900   -1    0    0    0    0 -0.00000000000E+00 -0.00000000000E+00 -0.74505805969E-08  0.93827000000E+00  0.93827000000E+00 0. -1.
     999902    2    1    2    0    0  0.52679589672E-02 -0.16941717552E-01  0.13838197585E-01  0.10214295801E+01  0.10211817263E+01 0.  0.
     999903    2    3    3    0    0  0.91601718877E-01  0.74738880677E-01 -0.50715742624E-01  0.13012376195E+00  0.19578858196E-01 0.  0.
         14    1    1    2    0    0 -0.52679589672E-02  0.16941717552E-01 -0.13838197585E-01  0.22500419945E-01  0.00000000000E+00 0. -1.
     999901    1    3    3    0    0 -0.86333759909E-01 -0.91680598229E-01  0.64553940208E-01  0.89130581811E+00  0.88000000000E+00 0.  1.
        -11    1    4    4    0    0  0.71578921478E-01  0.55145563231E-01 -0.29756863012E-01  0.95133102343E-01  0.51100000000E-03 0. -1.
         11    1    4    4    0    0  0.20022797399E-01  0.19593317446E-01 -0.20958879612E-01  0.34990659608E-01  0.51100000000E-03 0.  1.
</event>
<event>
 8    1  0.1044719E+005  0.1043930E+01  0.7957747E-01            NaN
         13   -1    0    0    0    0  0.00000000000E+00  0.00000000000E+00  0.74505805969E-08  0.10566000000E+00  0.10566000000E+00 0.  1.
     999900   -1    0    0    0    0 -0.00000000000E+00 -0.00000000000E+00 -0.74505805969E-08  0.93827000000E+00  0.93827000000E+00 0. -1.
     999902    2    1    2    0    0 -0.15896861613E-01 -0.20057764989E-01 -0.29380486332E-02  0.10181684730E+01  0.10178425139E+01 0.  0.
     999903    2    3    3    0    0 -0.53819419575E-01 -0.10519966143E-01  0.11571551147E+00  0.12934466740E+00  0.18241814035E-01 0.  0.
         14    1    1    2    0    0  0.15896861613E-01  0.20057764989E-01  0.29380486332E-02  0.25761527036E-01  0.00000000000E+00 0. -1.
     999901    1    3    3    0    0  0.37922557962E-01 -0.95377988452E-02 -0.11865356010E+00  0.88882380556E+00  0.88000000000E+00 0. -1.
        -11    1    4    4    0    0 -0.51956295687E-01 -0.12559239881E-01  0.10010395980E+00  0.11348239977E+00  0.51100000000E-03 0.  1.
         11    1    4    4    0    0 -0.18631238883E-02  0.20392737379E-02  0.15611551670E-01  0.15862267636E-01  0.51100000000E-03 0. -1.
</event>
<event>
 8    1  0.1044719E+005  0.1043930E+01  0.7957747E-01            NaN
         13   -1    0    0    0    0  0.00000000000E+00  0.00000000000E+00  0.74505805969E-08  0.10566000000E+00  0.10566000000E+00 0. -1.
     999900   -1    0    0    0    0 -0.00000000000E+00 -0.00000000000E+00 -0.74505805969E-08  0.93827000000E+00  0.93827000000E+00 0.  1.
     999902    2    1    2    0    0  0.14726298240E-02  0.23173336902E-01  0.41664474909E-02  0.10203390808E+01  0.10200663255E+01 0.  0.
     999903    2    3    3    0    0 -0.21113304224E-01 -0.12338319900E+00  0.17006702900E-01  0.12784044511E+00  0.19615454427E-01 0.  0.
         14    1    1    2    0    0 -0.14726298240E-02 -0.23173336902E-01 -0.41664474909E-02  0.23590919153E-01  0.00000000000E+00 0.  1.
     999901    1    3    3    0    0  0.22585934048E-01  0.14655653590E+00 -0.12840255409E-01  0.89249863574E+00  0.88000000000E+00 0.  1.
        -11    1    4    4    0    0 -0.21903041525E-02 -0.65460257531E-01  0.12957975973E-01  0.66768353362E-01  0.51100000000E-03 0. -1.
         11    1    4    4    0    0 -0.18923000071E-01 -0.57922941467E-01  0.40487269267E-02  0.61072091749E-01  0.51100000000E-03 0.  1.
</event>
<event>
 8    1  0.1044719E+005  0.1043930E+01  0.7957747E-01            NaN
         13   -1    0    0    0    0  0.00000000000E+00  0.00000000000E+00  0.74505805969E-08  0.10566000000E+00  0.10566000000E+00 0. -1.
     999900   -1    0    0    0    0 -0.00000000000E+00 -0.00000000000E+00 -0.74505805969E-08  0.93827000000E+00  0.93827000000E+00 0.  1.
     999902    2    1    2    0    0 -0.14488185732E-02  0.31200633110E-01  0.11285277329E-02  0.10126753658E+01  0.10121929383E+01 0.  0.
     999903    2    3    3    0    0  0.10223898719E+00 -0.27114090564E-01  0.56656630906E-01  0.12293656242E+00  0.26747712913E-01 0.  0.
         14    1    1    2    0    0  0.14488185732E-02 -0.31200633110E-01 -0.11285277329E-02  0.31254634161E-01  0.00000000000E+00 0.  1.
     999901    1    3    3    0    0 -0.10368780576E+00  0.58314723674E-01 -0.55528103173E-01  0.88973880342E+00  0.88000000000E+00 0.  1.
        -11    1    4    4    0    0  0.31315324495E-01 -0.26163779536E-02  0.49658119090E-02  0.31818475619E-01  0.51100000000E-03 0.  1.
         11    1    4    4    0    0  0.70923662695E-01 -0.24497712611E-01  0.51690818997E-01  0.91118086804E-01  0.51100000000E-03 0. -1.
</event>
<event>
 8    1  0.1044719E+005  0.1043930E+01  0.7957747E-01            NaN
         13   -1    0    0    0    0  0.00000000000E+00  0.00000000000E+00  0.74505805969E-08  0.10566000000E+00  0.10566000000E+00 0.  1.
     999900   -1    0    0    0    0 -0.00000000000E+00 -0.00000000000E+00 -0.74505805969E-08  0.93827000000E+00  0.93827000000E+00 0.  1.
     999902    2    1    2    0    0 -0.20487734895E-01 -0.50582481163E-02  0.11358082086E-01  0.10199646253E+01  0.10196830379E+01 0.  0.
     999903    2    3    3    0    0  0.84741647680E-01 -0.93341998335E-01  0.19613811875E-01  0.12927085045E+00  0.20793644581E-01 0.  0.
         14    1    1    2    0    0  0.20487734895E-01  0.50582481163E-02 -0.11358082086E-01  0.23965374685E-01  0.00000000000E+00 0. -1.
     999901    1    3    3    0    0 -0.10522938257E+00  0.88283750218E-01 -0.82557297896E-02  0.89069377487E+00  0.88000000000E+00 0.  1.
        -11    1    4    4    0    0  0.29208863514E-01 -0.25581363599E-01  0.14707675374E-01  0.41522773357E-01  0.51100000000E-03 0. -1.
         11    1    4    4    0    0  0.55532784166E-01 -0.67760634736E-01  0.49061365018E-02  0.87748077092E-01  0.51100000000E-03 0.  1.
</event>
<event>
 8    1  0.1044719E+005  0.1043930E+01  0.7957747E-01            NaN
         13   -1    0    0    0    0  0.00000000000E+00  0.00000000000E+00  0.74505805969E-08  0.10566000000E+00  0.10566000000E+00 0. -1.
     999900   -1    0    0    0    0 -0.00000000000E+00 -0.00000000000E+00 -0.74505805969E-08  0.93827000000E+00  0.93827000000E+00 0. -1.
     999902    2    1    2    0    0  0.13199443380E-01  0.18319711420E-01  0.68273404484E-02  0.10203408137E+01  0.10200680989E+01 0.  0.
     999903    2    3    3    0    0 -0.65467429899E-01  0.10530932421E+00 -0.39315702916E-01  0.13136114570E+00  0.18275337523E-01 0.  0.
         14    1    1    2    0    0 -0.13199443380E-01 -0.18319711420E-01 -0.68273404484E-02  0.23589186286E-01  0.00000000000E+00 0.  1.
     999901    1    3    3    0    0  0.78666873279E-01 -0.86989612790E-01  0.46143043364E-01  0.88897966801E+00  0.88000000000E+00 0. -1.
        -11    1    4    4    0    0 -0.23163270936E-01  0.26938810661E-01 -0.17787354988E-01  0.39735220633E-01  0.51100000000E-03 0. -1.
         11    1    4    4    0    0 -0.42304158963E-01  0.78370513549E-01 -0.21528347928E-01  0.91625925070E-01  0.51100000000E-03 0.  1.
</event>
<event>
 8    1  0.1044719E+005  0.1043930E+01  0.7957747E-01            NaN
         13   -1    0    0    0    0  0.00000000000E+00  0.00000000000E+00  0.74505805969E-08  0.10566000000E+00  0.10566000000E+00 0. -1.
     999900   -1    0    0    0    0 -0.00000000000E+00 -0.00000000000E+00 -0.74505805969E-08  0.93827000000E+00  0.93827000000E+00 0.  1.
     999902    2    1    2    0    0 -0.27068337784E-02  0.18111031789E-01 -0.15334973690E-01  0.10200449034E+01  0.10197652216E+01 0.  0.
     999903    2    3    3    0    0 -0.26148975171E-01  0.85034301575E-01  0.93492522231E-01  0.13051037237E+00  0.19429468213E-01 0.  0.
         14    1    1    2    0    0  0.27068337784E-02 -0.18111031789E-01  0.15334973690E-01  0.23885096601E-01  0.00000000000E+00 0. -1.
     999901    1    3    3    0    0  0.23442141392E-01 -0.66923269787E-01 -0.10882749592E+00  0.88953453103E+00  0.88000000000E+00 0.  1.
        -11    1    4    4    0    0 -0.22142490553E-01  0.61568411934E-01  0.56142193480E-01  0.86215812040E-01  0.51100000000E-03 0. -1.
         11    1    4    4    0    0 -0.40064846178E-02  0.23465889641E-01  0.37350328751E-01  0.44294560326E-01  0.51100000000E-03 0.  1.
</event>
<event>
 8    1  0.1044719E+005  0.1043930E+01  0.7957747E-01            NaN
         13   -1    0    0    0    0  0.00000000000E+00  0.00000000000E+00  0.74505805969E-08  0.10566000000E+00  0.10566000000E+00 0.  1.
     999900   -1    0    0    0    0 -0.00000000000E+00 -0.00000000000E+00 -0.74505805969E-08  0.93827000000E+00  0.93827000000E+00 0.  1.
     999902    2    1    2    0    0  0.93979091007E-03 -0.23438576364E-01  0.46440176750E-03  0.10204679937E+01  0.10201982457E+01 0.  0.
     999903    2    3    3    0    0  0.14121460068E-01 -0.11902890483E+00 -0.55208025564E-01  0.13344449548E+00  0.19804329486E-01 0.  0.
         14    1    1    2    0    0 -0.93979091007E-03  0.23438576364E-01 -0.46440176750E-03  0.23462006264E-01  0.00000000000E+00 0.  1.
     999901    1    3    3    0    0 -0.13181669158E-01  0.95590328469E-01  0.55672427331E-01  0.88702349826E+00  0.88000000000E+00 0.  1.
        -11    1    4    4    0    0  0.14054879430E-01 -0.73982471088E-01 -0.43215479926E-01  0.86826173994E-01  0.51100000000E-03 0. -1.
         11    1    4    4    0    0  0.66580637606E-04 -0.45046433745E-01 -0.11992545638E-01  0.46618321484E-01  0.51100000000E-03 0.  1.
</event>
<event>
 8    1  0.1044719E+005  0.1043930E+01  0.7957747E-01            NaN
         13   -1    0    0    0    0  0.00000000000E+00  0.00000000000E+00  0.74505805969E-08  0.10566000000E+00  0.10566000000E+00 0.  1.
     999900   -1    0    0    0    0 -0.00000000000E+00 -0.00000000000E+00 -0.74505805969E-08  0.93827000000E+00  0.93827000000E+00 0. -1.
     999902    2    1    2    0    0  0.21261096030E-01  0.12467512529E-01 -0.52250136401E-02  0.10187352815E+01  0.10184236839E+01 0.  0.
     999903    2    3    3    0    0  0.63937036161E-01  0.11372177834E+00 -0.85297761517E-02  0.13189562086E+00  0.17410062028E-01 0.  0.
         14    1    1    2    0    0 -0.21261096030E-01 -0.12467512529E-01  0.52250136401E-02  0.25194718506E-01  0.00000000000E+00 0.  1.
     999901    1    3    3    0    0 -0.42675940132E-01 -0.10125426581E+00  0.33047625117E-02  0.88683966063E+00  0.88000000000E+00 0. -1.
        -11    1    4    4    0    0  0.18681592528E-01  0.19230133173E-01 -0.29308706589E-02  0.26975007786E-01  0.51100000000E-03 0. -1.
         11    1    4    4    0    0  0.45255443634E-01  0.94491645168E-01 -0.55989054929E-02  0.10492061308E+00  0.51100000000E-03 0.  1.
</event>
<event>
 8    1  0.1044719E+005  0.1043930E+01  0.7957747E-01            NaN
         13   -1    0    0    0    0  0.00000000000E+00  0.00000000000E+00  0.74505805969E-08  0.10566000000E+00  0.10566000000E+00 0.  1.
     999900   -1    0    0    0    0 -0.00000000000E+00 -0.00000000000E+00 -0.74505805969E-08  0.93827000000E+00  0.93827000000E+00 0.  1.
     999902    2    1    2    0    0  0.21944249661E-01 -0.50670606743E-02  0.88781891753E-02  0.10197215833E+01  0.10194341862E+01 0.  0.
     999903    2    3    3    0    0 -0.12529275763E+00  0.86638420100E-02  0.39960980998E-02  0.12737013412E+00  0.20828945997E-01 0.  0.
         14    1    1    2    0    0 -0.21944249661E-01  0.50670606743E-02 -0.88781891753E-02  0.24208416720E-01  0.00000000000E+00 0. -1.
     999901    1    3    3    0    0  0.14723700730E+00 -0.13730902684E-01  0.48820910755E-02  0.89235144916E+00  0.88000000000E+00 0.  1.
        -11    1    4    4    0    0 -0.44442014617E-01  0.61323217093E-04  0.10920938777E-01  0.45767067292E-01  0.51100000000E-03 0.  1.
         11    1    4    4    0    0 -0.80850743018E-01  0.86025187929E-02 -0.69248406777E-02  0.81603066827E-01  0.51100000000E-03 0. -1.
</event>
<event>
 8    1  0.1044719E+005  0.1043930E+01  0.7957747E-01            NaN
         13   -1    0    0    0    0  0.00000000000E+00  0.00000000000E+00  0.74505805969E-08  0.10566000000E+00  0.10566000000E+00 0.  1.
     999900   -1    0    0    0    0 -0.00000000000E+00 -0.00000000000E+00 -0.74505805969E-08  0.93827000000E+00  0.93827000000E+00 0.  1.
     999902    2    1    2    0    0 -0.16670284177E-01 -0.16295048024E-01 -0.45306731500E-02  0.10201822851E+01  0.10199058490E+01 0.  0.
     999903    2    3    3    0    0  0.99563536301E-01  0.50222618098E-01  0.57451614687E-01  0.12789494070E+00  0.24924259233E-01 0.  0.
         14    1    1    2    0    0  0.16670284177E-01  0.16295048024E-01  0.45306731500E-02  0.23747714918E-01  0.00000000000E+00 0. -1.
     999901    1    3    3    0    0 -0.11623382048E+00 -0.66517666122E-01 -0.61982287837E-01  0.89228734438E+00  0.88000000000E+00 0.  1.
        -11    1    4    4    0    0  0.58150248681E-01  0.16474485378E-01  0.35808795958E-01  0.70252338602E-01  0.51100000000E-03 0.  1.
         11    1    4    4    0    0  0.41413287620E-01  0.33748132720E-01  0.21642818729E-01  0.57642602102E-01  0.51100000000E-03 0. -1.
</event>
<event>
 8    1  0.1044719E+005  0.1043930E+01  0.7957747E-01            NaN
         13   -1    0    0    0    0  0.00000000000E+00  0.00000000000E+00  0.74505805969E-08  0.10566000000E+00  0.10566000000E+00 0.  1.
     999900   -1    0    0    0    0 -0.00000000000E+00 -0.00000000000E+00 -0.74505805969E-08  0.93827000000E+00  0.93827000000E+00 0.  1.
     999902    2    1    2    0    0  0.11861576323E-02 -0.23606586990E-01  0.27759526460E-02  0.10201311800E+01  0.10198535388E+01 0.  0.
     999903    2    3    3    0    0 -0.27693852752E-01 -0.10744589660E+00  0.70133820573E-01  0.13311361131E+00  0.22111321779E-01 0.  0.
         14    1    1    2    0    0 -0.11861576323E-02  0.23606586990E-01 -0.27759526460E-02  0.23798819978E-01  0.00000000000E+00 0.  1.
     999901    1    3    3    0    0  0.28880010384E-01  0.83839309611E-01 -0.67357867927E-01  0.88701756871E+00  0.88000000000E+00 0. -1.
        -11    1    4    4    0    0 -0.98226376981E-02 -0.54025759239E-01  0.22511751972E-01  0.59349026703E-01  0.51100000000E-03 0. -1.
         11    1    4    4    0    0 -0.17871215054E-01 -0.53420137362E-01  0.47622068600E-01  0.73764584605E-01  0.51100000000E-03 0.  1.
</event>
<event>
 8    1  0.1044719E+005  0.1043930E+01  0.7957747E-01            NaN
         13   -1    0    0    0    0  0.00000000000E+00  0.00000000000E+00  0.74505805969E-08  0.10566000000E+00  0.10566000000E+00 0.  1.
     999900   -1    0    0    0    0 -0.00000000000E+00 -0.00000000000E+00 -0.74505805969E-08  0.93827000000E+00  0.93827000000E+00 0. -1.
     999902    2    1    2    0    0  0.24064563509E-01  0.69238211555E-02  0.14218128254E-02  0.10188488503E+01  0.10185400904E+01 0.  0.
     999903    2    3    3    0    0  0.41703248825E-01 -0.12010908409E+00  0.14330450879E-01  0.12945854504E+00  0.19718012531E-01 0.  0.
         14    1    1    2    0    0 -0.24064563509E-01 -0.69238211555E-02 -0.14218128254E-02  0.25081149655E-01  0.00000000000E+00 0.  1.
     999901    1    3    3    0    0 -0.17638685316E-01  0.12703290524E+00 -0.12908638053E-01  0.88939030531E+00  0.88000000000E+00 0.  1.
        -11    1    4    4    0    0  0.24769433804E-01 -0.42549564661E-01  0.39572027613E-02  0.49395454027E-01  0.51100000000E-03 0. -1.
         11    1    4    4    0    0  0.16933815021E-01 -0.77559519428E-01  0.10373248117E-01  0.80063091014E-01  0.51100000000E-03 0.  1.
</event>
<event>
 8    1  0.1044719E+005  0.1043930E+01  0.7957747E-01            NaN
         13   -1    0    0    0    0  0.00000000000E+00  0.00000000000E+00  0.74505805969E-08  0.10566000000E+00  0.10566000000E+00 0.  1.
     999900   -1    0    0    0    0 -0.00000000000E+00 -0.00000000000E+00 -0.74505805969E-08  0.93827000000E+00  0.93827000000E+00 0. -1.
     999902    2    1    2    0    0  0.94689759961E-02  0.20755565715E-01 -0.66920290710E-02  0.10201552599E+01  0.10198781868E+01 0.  0.
     999903    2    3    3    0    0 -0.78317968375E-01  0.45428010922E-01 -0.93110540428E-01  0.13123263318E+00  0.18842052077E-01 0.  0.
         14    1    1    2    0    0 -0.94689759961E-02 -0.20755565715E-01  0.66920290710E-02  0.23774740117E-01  0.00000000000E+00 0.  1.
     999901    1    3    3    0    0  0.87786944371E-01 -0.24672445207E-01  0.86418511357E-01  0.88892262670E+00  0.88000000000E+00 0.  1.
        -11    1    4    4    0    0 -0.41514454660E-01  0.13889743421E-01 -0.48809428060E-01  0.65566731705E-01  0.51100000000E-03 0. -1.
         11    1    4    4    0    0 -0.36803513715E-01  0.31538267500E-01 -0.44301112369E-01  0.65665901477E-01  0.51100000000E-03 0.  1.
</event>
<event>
 8    1  0.1044719E+005  0.1043930E+01  0.7957747E-01            NaN
         13   -1    0    0    0    0  0.00000000000E+00  0.00000000000E+00  0.74505805969E-08  0.10566000000E+00  0.10566000000E+00 0. -1.
     999900   -1    0    0    0    0 -0.00000000000E+00 -0.00000000000E+00 -0.74505805969E-08  0.93827000000E+00  0.93827000000E+00 0. -1.
     999902    2    1    2    0    0  0.76612908281E-02 -0.64872534895E-02  0.22135808568E-01  0.10196241600E+01  0.10193344171E+01 0.  0.
     999903    2    3    3    0    0 -0.71473829026E-01  0.28709549469E-01  0.10485128300E+00  0.13151209964E+00  0.19206622250E-01 0.  0.
         14    1    1    2    0    0 -0.76612908281E-02  0.64872534895E-02 -0.22135808568E-01  0.24305839956E-01  0.00000000000E+00 0.  1.
     999901    1    3    3    0    0  0.79135119854E-01 -0.35196802958E-01 -0.82715474429E-01  0.88811206041E+00  0.88000000000E+00 0. -1.
        -11    1    4    4    0    0 -0.15028011097E-01  0.14956911959E-01  0.30613128245E-01  0.37242114264E-01  0.51100000000E-03 0.  1.
         11    1    4    4    0    0 -0.56445817928E-01  0.13752637509E-01  0.74238154752E-01  0.94269985372E-01  0.51100000000E-03 0. -1.
</event>
<event>
 8    1  0.1044719E+005  0.1043930E+01  0.7957747E-01            NaN
         13   -1    0    0    0    0  0.00000000000E+00  0.00000000000E+00  0.74505805969E-08  0.10566000000E+00  0.10566000000E+00 0.  1.
     999900   -1    0    0    0    0 -0.00000000000E+00 -0.00000000000E+00 -0.74505805969E-08  0.93827000000E+00  0.93827000000E+00 0. -1.
     999902    2    1    2    0    0 -0.13194351347E-01 -0.25271923758E-03 -0.19094096929E-01  0.10207192415E+01  0.10204553055E+01 0.  0.
     999903    2    3    3    0    0 -0.96138347947E-01 -0.81122557624E-01 -0.38315744066E-01  0.13291908993E+00  0.19389092907E-01 0.  0.
         14    1    1    2    0    0  0.13194351347E-01  0.25271923758E-03  0.19094096929E-01  0.23210758540E-01  0.00000000000E+00 0.  1.
     999901    1    3    3    0    0  0.82943996600E-01  0.80869838386E-01  0.19221647137E-01  0.88780015153E+00  0.88000000000E+00 0.  1.
        -11    1    4    4    0    0 -0.93342248056E-01 -0.76662598007E-01 -0.40201602355E-01  0.12730419930E+00  0.51100000000E-03 0.  1.
         11    1    4    4    0    0 -0.27960998905E-02 -0.44599596175E-02  0.18858582883E-02  0.56148906375E-02  0.51100000000E-03 0. -1.
</event>
<event>
 8    1  0.1044719E+005  0.1043930E+01  0.7957747E-01            NaN
         13   -1    0    0    0    0  0.00000000000E+00  0.00000000000E+00  0.74505805969E-08  0.10566000000E+00  0.10566000000E+00 0. -1.
     999900   -1    0    0    0    0 -0.00000000000E+00 -0.00000000000E+00 -0.74505805969E-08  0.93827000000E+00  0.93827000000E+00 0.  1.
     999902    2    1    2    0    0  0.21301136341E-01  0.25061831068E-02  0.10010128457E-01  0.10202609900E+01  0.10199864046E+01 0.  0.
     999903    2    3    3    0    0  0.61598647599E-01  0.10705986790E+00  0.43647488731E-01  0.13251844036E+00  0.19995626042E-01 0.  0.
         14    1    1    2    0    0 -0.21301136341E-01 -0.25061831068E-02 -0.10010128457E-01  0.23669010011E-01  0.00000000000E+00 0.  1.
     999901    1    3    3    0    0 -0.40297511258E-01 -0.10455368480E+00 -0.33637360274E-01  0.88774254963E+00  0.88000000000E+00 0.  1.
        -11    1    4    4    0    0  0.31682422819E-01  0.35775106969E-01  0.17949076339E-01  0.51049629350E-01  0.51100000000E-03 0.  1.
         11    1    4    4    0    0  0.29916224780E-01  0.71284760936E-01  0.25698412391E-01  0.81468811009E-01  0.51100000000E-03 0. -1.
</event>
<event>
 8    1  0.1044719E+005  0.1043930E+01  0.7957747E-01            NaN
         13   -1    0    0    0    0  0.00000000000E+00  0.00000000000E+00  0.74505805969E-08  0.10566000000E+00  0.10566000000E+00 0. -1.
     999900   -1    0    0    0    0 -0.00000000000E+00 -0.00000000000E+00 -0.74505805969E-08  0.93827000000E+00  0.93827000000E+00 0.  1.
     999902    2    1    2    0    0 -0.91717912020E-02  0.57348659460E-02 -0.19339034776E-01  0.10217712837E+01  0.10215309822E+01 0.  0.
     999903    2    3    3    0    0 -0.95030555941E-02  0.12301069435E+00 -0.47150842635E-01  0.13355552934E+00  0.19797435830E-01 0.  0.
         14    1    1    2    0    0  0.91717912020E-02 -0.57348659460E-02  0.19339034776E-01  0.22158716284E-01  0.00000000000E+00 0. -1.
     999901    1    3    3    0    0  0.33126439212E-03 -0.11727582841E+00  0.27811807859E-01  0.88821575438E+00  0.88000000000E+00 0. -1.
        -11    1    4    4    0    0  0.12580080719E-02  0.57407939415E-01 -0.13264672157E-01  0.58936124241E-01  0.51100000000E-03 0.  1.
         11    1    4    4    0    0 -0.10761063666E-01  0.65602754938E-01 -0.33886170478E-01  0.74619405099E-01  0.51100000000E-03 0. -1.
</event>
<event>
 8    1  0.1044719E+005  0.1043930E+01  0.7957747E-01            NaN
         13   -1    0    0    0    0  0.00000000000E+00  0.00000000000E+00  0.74505805969E-08  0.10566000000E+00  0.10566000000E+00 0. -1.
     999900   -1    0    0    0    0 -0.00000000000E+00 -0.00000000000E+00 -0.74505805969E-08  0.93827000000E+00  0.93827000000E+00 0.  1.
     999902    2    1    2    0    0  0.14618133323E-01  0.82895696108E-03 -0.18612520594E-01  0.10202487223E+01  0.10199738489E+01 0.  0.
     999903    2    3    3    0    0 -0.27927482024E-01 -0.12376497144E+00  0.17623076542E-01  0.12971697390E+00  0.20450136477E-01 0.  0.
         14    1    1    2    0    0 -0.14618133323E-01 -0.82895696108E-03  0.18612520594E-01  0.23681277718E-01  0.00000000000E+00 0. -1.
     999901    1    3    3    0    0  0.42545615347E-01  0.12459392840E+00 -0.36235597136E-01  0.89053174838E+00  0.88000000000E+00 0. -1.
        -11    1    4    4    0    0 -0.11544297254E-01 -0.18113036502E-01  0.49925645253E-02  0.22057645204E-01  0.51100000000E-03 0. -1.
         11    1    4    4    0    0 -0.16383184770E-01 -0.10565193494E+00  0.12630512017E-01  0.10765932869E+00  0.51100000000E-03 0.  1.
</event>
<event>
 8    1  0.1044719E+005  0.1043930E+01  0.7957747E-01            NaN
         13   -1    0    0    0    0  0.00000000000E+00  0.00000000000E+00  0.74505805969E-08  0.10566000000E+00  0.10566000000E+00 0.  1.
     999900   -1    0    0    0    0 -0.00000000000E+00 -0.00000000000E+00 -0.74505805969E-08  0.93827000000E+00  0.93827000000E+00 0. -1.
     999902    2    1    2    0    0  0.24415967618E-01 -0.95302308848E-02 -0.24262100314E-01  0.10082142572E+01  0.10075814478E+01 0.  0.
     999903    2    3    3    0    0  0.40298126666E-01  0.43581238725E-02 -0.11473548259E+00  0.12332411579E+00  0.20041814188E-01 0.  0.
         14    1    1    2    0    0 -0.24415967618E-01  0.95302308848E-02  0.24262100314E-01  0.35715742847E-01  0.00000000000E+00 0.  1.
     999901    1    3    3    0    0 -0.15882159048E-01 -0.13888354757E-01  0.90473382272E-01  0.88489014136E+00  0.88000000000E+00 0.  1.
        -11    1    4    4    0    0  0.18856305404E-01  0.12460014009E-02 -0.81374759296E-01  0.83541758088E-01  0.51100000000E-03 0.  1.
         11    1    4    4    0    0  0.21441821262E-01  0.31121224716E-02 -0.33360723290E-01  0.39782357707E-01  0.51100000000E-03 0. -1.
</event>
<event>
 8    1  0.1044719E+005  0.1043930E+01  0.7957747E-01            NaN
         13   -1    0    0    0    0  0.00000000000E+00  0.00000000000E+00  0.74505805969E-08  0.10566000000E+00  0.10566000000E+00 0. -1.
     999900   -1    0    0    0    0 -0.00000000000E+00 -0.00000000000E+00 -0.74505805969E-08  0.93827000000E+00  0.93827000000E+00 0.  1.
     999902    2    1    2    0    0 -0.11933825108E-01  0.45448424512E-02  0.21136206569E-01  0.10192356484E+01  0.10189364533E+01 0.  0.
     999903    2    3    3    0    0  0.44528202430E-01  0.11948529712E+00 -0.92891642016E-02  0.12944636327E+00  0.20262659110E-01 0.  0.
         14    1    1    2    0    0  0.11933825108E-01 -0.45448424512E-02 -0.21136206569E-01  0.24694351636E-01  0.00000000000E+00 0.  1.
     999901    1    3    3    0    0 -0.56462027538E-01 -0.11494045467E+00  0.30425370770E-01  0.88978928509E+00  0.88000000000E+00 0. -1.
        -11    1    4    4    0    0  0.44586745533E-02  0.33852438959E-01 -0.70822591406E-02  0.34875305271E-01  0.51100000000E-03 0. -1.
         11    1    4    4    0    0  0.40069527876E-01  0.85632858160E-01 -0.22069050610E-02  0.94571058003E-01  0.51100000000E-03 0.  1.
</event>
<event>
 8    1  0.1044719E+005  0.1043930E+01  0.7957747E-01            NaN
         13   -1    0    0    0    0  0.00000000000E+00  0.00000000000E+00  0.74505805969E-08  0.10566000000E+00  0.10566000000E+00 0.  1.
     999900   -1    0    0    0    0 -0.00000000000E+00 -0.00000000000E+00 -0.74505805969E-08  0.93827000000E+00  0.93827000000E+00 0. -1.
     999902    2    1    2    0    0 -0.17713241415E-01 -0.41268837729E-02  0.16365263993E-01  0.10194634523E+01  0.10191698183E+01 0.  0.
     999903    2    3    3    0    0 -0.11913022396E+00  0.34215398092E-01 -0.37123540726E-01  0.13119739578E+00  0.21723159419E-01 0.  0.
         14    1    1    2    0    0  0.17713241415E-01  0.41268837729E-02 -0.16365263993E-01  0.24466547706E-01  0.00000000000E+00 0.  1.
     999901    1    3    3    0    0  0.10141698255E+00 -0.38342281865E-01  0.53488804720E-01  0.88826605652E+00  0.88000000000E+00 0. -1.
        -11    1    4    4    0    0 -0.63130373672E-01  0.68697606714E-02 -0.19499756447E-01  0.66431463285E-01  0.51100000000E-03 0.  1.
         11    1    4    4    0    0 -0.55999850290E-01  0.27345637421E-01 -0.17623784279E-01  0.64765932493E-01  0.51100000000E-03 0. -1.
</event>
<event>
 8    1  0.1044719E+005  0.1043930E+01  0.7957747E-01            NaN
         13   -1    0    0    0    0  0.00000000000E+00  0.00000000000E+00  0.74505805969E-08  0.10566000000E+00  0.10566000000E+00 0.  1.
     999900   -1    0    0    0    0 -0.00000000000E+00 -0.00000000000E+00 -0.74505805969E-08  0.93827000000E+00  0.93827000000E+00 0.  1.
     999902    2    1    2    0    0  0.14354809422E-01  0.17925345450E-01 -0.15554987817E-03  0.10209647489E+01  0.10207064297E+01 0.  0.
     999903    2    3    3    0    0 -0.12133116437E+00  0.30063217433E-01 -0.29465937359E-01  0.13000060245E+00  0.20170936577E-01 0.  0.
         14    1    1    2    0    0 -0.14354809422E-01 -0.17925345450E-01  0.15554987817E-03  0.22965251116E-01  0.00000000000E+00 0. -1.
     999901    1    3    3    0    0  0.13568597379E+00 -0.12137871983E-01  0.29310387481E-01  0.89096414644E+00  0.88000000000E+00 0. -1.
        -11    1    4    4    0    0 -0.36829550535E-01  0.13014609971E-01 -0.53103373181E-03  0.39068388541E-01  0.51100000000E-03 0. -1.
         11    1    4    4    0    0 -0.84501613835E-01  0.17048607462E-01 -0.28934903627E-01  0.90932213907E-01  0.51100000000E-03 0.  1.
</event>
<event>
 8    1  0.1044719E+005  0.1043930E+01  0.7957747E-01            NaN
         13   -1    0    0    0    0  0.00000000000E+00  0.00000000000E+00  0.74505805969E-08  0.10566000000E+00  0.10566000000E+00 0.  1.
     999900   -1    0    0    0    0 -0.00000000000E+00 -0.00000000000E+00 -0.74505805969E-08  0.93827000000E+00  0.93827000000E+00 0.  1.
     999902    2    1    2    0    0  0.62438802350E-02 -0.41481345158E-02  0.22523335423E-01  0.10201919778E+01  0.10199157700E+01 0.  0.
     999903    2    3    3    0    0  0.10089752267E+00  0.57331024605E-01  0.60306987693E-01  0.13217925072E+00  0.19164161724E-01 0.  0.
         14    1    1    2    0    0 -0.62438802350E-02  0.41481345158E-02 -0.22523335423E-01  0.23738022220E-01  0.00000000000E+00 0. -1.
     999901    1    3    3    0    0 -0.94653642434E-01 -0.61479159121E-01 -0.37783652270E-01  0.88801272705E+00  0.88000000000E+00 0.  1.
        -11    1    4    4    0    0  0.58357418516E-01  0.26120146422E-01  0.24794476016E-01  0.68577529168E-01  0.51100000000E-03 0.  1.
         11    1    4    4    0    0  0.42540104153E-01  0.31210878183E-01  0.35512511678E-01  0.63601721557E-01  0.51100000000E-03 0. -1.
</event>
<event>
 8    1  0.1044719E+005  0.1043930E+01  0.7957747E-01            NaN
         13   -1    0    0    0    0  0.00000000000E+00  0.00000000000E+00  0.74505805969E-08  0.10566000000E+00  0.10566000000E+00 0.  1.
     999900   -1    0    0    0    0 -0.00000000000E+00 -0.00000000000E+00 -0.74505805969E-08  0.93827000000E+00  0.93827000000E+00 0.  1.
     999902    2    1    2    0    0  0.11394521972E-01  0.14666042051E-01 -0.66802855972E-02  0.10241928742E+01  0.10240026803E+01 0.  0.
     999903    2    3    3    0    0 -0.58208047396E-01  0.96082736925E-01  0.70840795417E-01  0.13431495340E+00  0.20050418838E-01 0.  0.
         14    1    1    2    0    0 -0.11394521972E-01 -0.14666042051E-01  0.66802855972E-02  0.19737125831E-01  0.00000000000E+00 0.  1.
     999901    1    3    3    0    0  0.69602569368E-01 -0.81416694874E-01 -0.77521081014E-01  0.88987792077E+00  0.88000000000E+00 0. -1.
        -11    1    4    4    0    0 -0.13722611460E-01  0.36925457043E-01  0.17666287478E-01  0.43175899265E-01  0.51100000000E-03 0. -1.
         11    1    4    4    0    0 -0.44485435936E-01  0.59157279882E-01  0.53174507939E-01  0.91139054137E-01  0.51100000000E-03 0.  1.
</event>
<event>
 8    1  0.1044719E+005  0.1043930E+01  0.7957747E-01            NaN
         13   -1    0    0    0    0  0.00000000000E+00  0.00000000000E+00  0.74505805969E-08  0.10566000000E+00  0.10566000000E+00 0.  1.
     999900   -1    0    0    0    0 -0.00000000000E+00 -0.00000000000E+00 -0.74505805969E-08  0.93827000000E+00  0.93827000000E+00 0.  1.
     999902    2    1    2    0    0 -0.14362074001E-01 -0.12797601792E-01  0.11307164410E-01  0.10216163327E+01  0.10213726213E+01 0.  0.
     999903    2    3    3    0    0  0.93333797752E-01 -0.44701355486E-02  0.90209220649E-01  0.13150775395E+00  0.20625371392E-01 0.  0.
         14    1    1    2    0    0  0.14362074001E-01  0.12797601792E-01 -0.11307164410E-01  0.22313667297E-01  0.00000000000E+00 0. -1.
     999901    1    3    3    0    0 -0.10769587175E+00 -0.83274662437E-02 -0.78902056239E-01  0.89010857875E+00  0.88000000000E+00 0.  1.
        -11    1    4    4    0    0  0.53589975793E-01  0.29593322173E-02  0.39454709985E-01  0.66615151532E-01  0.51100000000E-03 0. -1.
         11    1    4    4    0    0  0.39743821959E-01 -0.74294677658E-02  0.50754510664E-01  0.64892602421E-01  0.51100000000E-03 0.  1.
</event>
<event>
 8    1  0.1044719E+005  0.1043930E+01  0.7957747E-01            NaN
         13   -1    0    0    0    0  0.00000000000E+00  0.00000000000E+00  0.74505805969E-08  0.10566000000E+00  0.10566000000E+00 0.  1.
     999900   -1    0    0    0    0 -0.00000000000E+00 -0.00000000000E+00 -0.74505805969E-08  0.93827000000E+00  0.93827000000E+00 0.  1.
     999902    2    1    2    0    0  0.93112324005E-02 -0.19479169327E-01  0.81855122039E-02  0.10208401820E+01  0.10205790207E+01 0.  0.
     999903    2    3    3    0    0  0.12935274963E+00 -0.11016008371E-01  0.17784680984E-01  0.13259824703E+00  0.20310439707E-01 0.  0.
         14    1    1    2    0    0 -0.93112324005E-02  0.19479169327E-01 -0.81855122039E-02  0.23089818027E-01  0.00000000000E+00 0. -1.
     999901    1    3    3    0    0 -0.12004151723E+00 -0.84631609562E-02 -0.95991687800E-02  0.88824193494E+00  0.88000000000E+00 0. -1.
        -11    1    4    4    0    0  0.35437037652E-01 -0.10255517898E-01 -0.58076778855E-03  0.36899291282E-01  0.51100000000E-03 0. -1.
         11    1    4    4    0    0  0.93915711974E-01 -0.76049047336E-03  0.18365448772E-01  0.95698955747E-01  0.51100000000E-03 0.  1.
</event>
<event>
 8    1  0.1044719E+005  0.1043930E+01  0.7957747E-01            NaN
         13   -1    0    0    0    0  0.00000000000E+00  0.00000000000E+00  0.74505805969E-08  0.10566000000E+00  0.10566000000E+00 0. -1.
     999900   -1    0    0    0    0 -0.00000000000E+00 -0.00000000000E+00 -0.74505805969E-08  0.93827000000E+00  0.93827000000E+00 0. -1.
     999902    2    1    2    0    0  0.10870756992E-01  0.13333148558E-01 -0.14567088938E-01  0.10213878996E+01  0.10211391165E+01 0.  0.
     999903    2    3    3    0    0  0.62734627085E-01  0.30260599525E-01  0.10898926883E+00  0.13108313545E+00  0.21278871175E-01 0.  0.
         14    1    1    2    0    0 -0.10870756992E-01 -0.13333148558E-01  0.14567088938E-01  0.22542100350E-01  0.00000000000E+00 0.  1.
     999901    1    3    3    0    0 -0.51863870093E-01 -0.16927450967E-01 -0.12355635777E+00  0.89030476420E+00  0.88000000000E+00 0. -1.
        -11    1    4    4    0    0  0.46479147933E-01  0.27270519645E-01  0.95854878271E-01  0.10996550024E+00  0.51100000000E-03 0. -1.
         11    1    4    4    0    0  0.16255479152E-01  0.29900798805E-02  0.13134390563E-01  0.21117635204E-01  0.51100000000E-03 0.  1.
</event>
<event>
 8    1  0.1044719E+005  0.1043930E+01  0.7957747E-01            NaN
         13   -1    0    0    0    0  0.00000000000E+00  0.00000000000E+00  0.74505805969E-08  0.10566000000E+00  0.10566000000E+00 0.  1.
     999900   -1    0    0    0    0 -0.00000000000E+00 -0.00000000000E+00 -0.74505805969E-08  0.93827000000E+00  0.93827000000E+00 0. -1.
     999902    2    1    2    0    0  0.83929430637E-03 -0.23645851666E-01  0.33069749452E-02  0.10200392738E+01  0.10197594585E+01 0.  0.
     999903    2    3    3    0    0  0.68996930616E-01  0.91288483552E-01 -0.53079997378E-01  0.12816772729E+00  0.22700584408E-01 0.  0.
         14    1    1    2    0    0 -0.83929430637E-03  0.23645851666E-01 -0.33069749452E-02  0.23890726218E-01  0.00000000000E+00 0. -1.
     999901    1    3    3    0    0 -0.68157636310E-01 -0.11493433522E+00  0.56386972323E-01  0.89187154649E+00  0.88000000000E+00 0. -1.
        -11    1    4    4    0    0  0.52547257983E-01  0.51399706010E-01 -0.33154305083E-01  0.80638782022E-01  0.51100000000E-03 0.  1.
         11    1    4    4    0    0  0.16449672633E-01  0.39888777542E-01 -0.19925692294E-01  0.47528945264E-01  0.51100000000E-03 0. -1.
</event>
<event>
 8    1  0.1044719E+005  0.1043930E+01  0.7957747E-01            NaN
         13   -1    0    0    0    0  0.00000000000E+00  0.00000000000E+00  0.74505805969E-08  0.10566000000E+00  0.10566000000E+00 0.  1.
     999900   -1    0    0    0    0 -0.00000000000E+00 -0.00000000000E+00 -0.74505805969E-08  0.93827000000E+00  0.93827000000E+00 0.  1.
     999902    2    1    2    0    0 -0.83116488804E-02  0.10996909336E-02 -0.54265412394E-02  0.10339429996E+01  0.10338947656E+01 0.  0.
     999903    2    3    3    0    0  0.10082750718E-01 -0.10783266211E+00 -0.90960085770E-01  0.14292077837E+00  0.20568587881E-01 0.  0.
         14    1    1    2    0    0  0.83116488804E-02 -0.10996909336E-02  0.54265412394E-02  0.99870004047E-02  0.00000000000E+00 0.  1.
     999901    1    3    3    0    0 -0.18394399598E-01  0.10893235304E+00  0.85533544531E-01  0.89102222122E+00  0.88000000000E+00 0. -1.
        -11    1    4    4    0    0  0.50318653210E-02 -0.21591414229E-01 -0.29469048768E-01  0.36880818773E-01  0.51100000000E-03 0.  1.
         11    1    4    4    0    0  0.50508853970E-02 -0.86241247879E-01 -0.61491037002E-01  0.10603995960E+00  0.51100000000E-03 0. -1.
</event>
<event>
 8    1  0.1044719E+005  0.1043930E+01  0.7957747E-01            NaN
         13   -1    0    0    0    0  0.00000000000E+00  0.00000000000E+00  0.74505805969E-08  0.10566000000E+00  0.10566000000E+00 0. -1.
     999900   -1    0    0    0    0 -0.00000000000E+00 -0.00000000000E+00 -0.74505805969E-08  0.93827000000E+00  0.93827000000E+00 0.  1.
     999902    2    1    2    0    0 -0.31734012867E-02 -0.31753980943E-02  0.23679476692E-01  0.10198287294E+01  0.10195439010E+01 0.  0.
     999903    2    3    3    0    0 -0.13749723687E-01 -0.47542434890E-01  0.12203428611E+00  0.13317549329E+00  0.19849609829E-01 0.  0.
         14    1    1    2    0    0  0.31734012867E-02  0.31753980943E-02 -0.23679476692E-01  0.24101270613E-01  0.00000000000E+00 0.  1.
     999901    1    3    3    0    0  0.10576322401E-01  0.44367036796E-01 -0.98354809414E-01  0.88665323610E+00  0.88000000000E+00 0.  1.
        -11    1    4    4    0    0 -0.14976817188E-01 -0.40286161026E-01  0.83203898903E-01  0.93650572539E-01  0.51100000000E-03 0. -1.
         11    1    4    4    0    0  0.12270935005E-02 -0.72562738642E-02  0.38830387203E-01  0.39524920749E-01  0.51100000000E-03 0.  1.
</event>
<event>
 8    1  0.1044719E+005  0.1043930E+01  0.7957747E-01            NaN
         13   -1    0    0    0    0  0.00000000000E+00  0.00000000000E+00  0.74505805969E-08  0.10566000000E+00  0.10566000000E+00 0. -1.
     999900   -1    0    0    0    0 -0.00000000000E+00 -0.00000000000E+00 -0.74505805969E-08  0.93827000000E+00  0.93827000000E+00 0. -1.
     999902    2    1    2    0    0  0.43060386971E-02 -0.20252319029E-01 -0.16353263359E-01  0.10175457695E+01  0.10172036499E+01 0.  0.
     999903    2    3    3    0    0  0.40156726331E-01  0.51234554341E-01 -0.10969556751E+00  0.12900290021E+00  0.19263657529E-01 0.  0.
         14    1    1    2    0    0 -0.43060386971E-02  0.20252319029E-01  0.16353263359E-01  0.26384230476E-01  0.00000000000E+00 0.  1.
     999901    1    3    3    0    0 -0.35850687634E-01 -0.71486873370E-01  0.93342304156E-01  0.88854286932E+00  0.88000000000E+00 0.  1.
        -11    1    4    4    0    0  0.12379641557E-01  0.31358725279E-01 -0.55574607501E-01  0.65003256043E-01  0.51100000000E-03 0. -1.
         11    1    4    4    0    0  0.27777084774E-01  0.19875829061E-01 -0.54120960014E-01  0.63999644165E-01  0.51100000000E-03 0.  1.
</event>
<event>
 8    1  0.1044719E+005  0.1043930E+01  0.7957747E-01            NaN
         13   -1    0    0    0    0  0.00000000000E+00  0.00000000000E+00  0.74505805969E-08  0.10566000000E+00  0.10566000000E+00 0. -1.
     999900   -1    0    0    0    0 -0.00000000000E+00 -0.00000000000E+00 -0.74505805969E-08  0.93827000000E+00  0.93827000000E+00 0.  1.
     999902    2    1    2    0    0 -0.17456934453E-01  0.12711205125E-01  0.93513566590E-02  0.10203977420E+01  0.10201263572E+01 0.  0.
     999903    2    3    3    0    0 -0.58795214812E-01  0.11705253332E+00 -0.11218858165E-01  0.13303135771E+00  0.20329941343E-01 0.  0.
         14    1    1    2    0    0  0.17456934453E-01 -0.12711205125E-01 -0.93513566590E-02  0.23532258021E-01  0.00000000000E+00 0.  1.
     999901    1    3    3    0    0  0.41338280359E-01 -0.10434132819E+00  0.20570214824E-01  0.88736638427E+00  0.88000000000E+00 0. -1.
        -11    1    4    4    0    0 -0.25171527597E-01  0.59397916849E-01 -0.14804637076E-01  0.66190306900E-01  0.51100000000E-03 0.  1.
         11    1    4    4    0    0 -0.33623687215E-01  0.57654616468E-01  0.35857789114E-02  0.66841050810E-01  0.51100000000E-03 0. -1.
</event>
<event>
 8    1  0.1044719E+005  0.1043930E+01  0.7957747E-01            NaN
         13   -1    0    0    0    0  0.00000000000E+00  0.00000000000E+00  0.74505805969E-08  0.10566000000E+00  0.10566000000E+00 0.  1.
     999900   -1    0    0    0    0 -0.00000000000E+00 -0.00000000000E+00 -0.74505805969E-08  0.93827000000E+00  0.93827000000E+00 0.  1.
     999902    2    1    2    0    0  0.20531014910E-02  0.55618823175E-02 -0.23646814133E-01  0.10195512884E+01  0.10192597844E+01 0.  0.
     999903    2    3    3    0    0 -0.35408965539E-02 -0.54262285255E-01  0.11272414798E+00  0.12702271006E+00  0.21704879257E-01 0.  0.
         14    1    1    2    0    0 -0.20531014910E-02 -0.55618823175E-02  0.23646814133E-01  0.24378711600E-01  0.00000000000E+00 0.  1.
     999901    1    3    3    0    0  0.55939980449E-02  0.59824167572E-01 -0.13637096212E+00  0.89252857834E+00  0.88000000000E+00 0.  1.
        -11    1    4    4    0    0 -0.33081365809E-02 -0.22794560537E-01  0.71738258166E-01  0.75347027568E-01  0.51100000000E-03 0.  1.
         11    1    4    4    0    0 -0.23275997297E-03 -0.31467724718E-01  0.40985889819E-01  0.51675682495E-01  0.51100000000E-03 0. -1.
</event>
<event>
 8    1  0.1044719E+005  0.1043930E+01  0.7957747E-01            NaN
         13   -1    0    0    0    0  0.00000000000E+00  0.00000000000E+00  0.74505805969E-08  0.10566000000E+00  0.10566000000E+00 0.  1.
     999900   -1    0    0    0    0 -0.00000000000E+00 -0.00000000000E+00 -0.74505805969E-08  0.93827000000E+00  0.93827000000E+00 0. -1.
     999902    2    1    2    0    0 -0.79435517374E-02 -0.35511779090E-02  0.21797988863E-01  0.10204595250E+01  0.10201895799E+01 0.  0.
     999903    2    3    3    0    0 -0.20474850113E-01  0.94899935240E-01  0.87951551630E-01  0.13241338374E+00  0.19303149073E-01 0.  0.
         14    1    1    2    0    0  0.79435517374E-02  0.35511779090E-02 -0.21797988863E-01  0.23470475010E-01  0.00000000000E+00 0. -1.
     999901    1    3    3    0    0  0.12531298375E-01 -0.98451113148E-01 -0.66153562767E-01  0.88804614125E+00  0.88000000000E+00 0.  1.
        -11    1    4    4    0    0 -0.22635095234E-01  0.66785755971E-01  0.67087832727E-01  0.97333052751E-01  0.51100000000E-03 0. -1.
         11    1    4    4    0    0  0.21602451213E-02  0.28114179268E-01  0.20863718903E-01  0.35080330990E-01  0.51100000000E-03 0.  1.
</event>
<event>
 8    1  0.1044719E+005  0.1043930E+01  0.7957747E-01            NaN
         13   -1    0    0    0    0  0.00000000000E+00  0.00000000000E+00  0.74505805969E-08  0.10566000000E+00  0.10566000000E+00 0. -1.
     999900   -1    0    0    0    0 -0.00000000000E+00 -0.00000000000E+00 -0.74505805969E-08  0.93827000000E+00  0.93827000000E+00 0.  1.
     999902    2    1    2    0    0  0.18857697295E-01 -0.52314510240E-02  0.13448265860E-01  0.10201847545E+01  0.10199083766E+01 0.  0.
     999903    2    3    3    0    0  0.16797195206E-02  0.50059489627E-01  0.11992070210E+00  0.13187819107E+00  0.22407778272E-01 0.  0.
         14    1    1    2    0    0 -0.18857697295E-01  0.52314510240E-02 -0.13448265860E-01  0.23745245456E-01  0.00000000000E+00 0.  1.
     999901    1    3    3    0    0  0.17177977775E-01 -0.55290940651E-01 -0.10647243624E+00  0.88830656348E+00  0.88000000000E+00 0.  1.
        -11    1    4    4    0    0 -0.59152377818E-02  0.31760141073E-01  0.52885331667E-01  0.61974317467E-01  0.51100000000E-03 0. -1.
         11    1    4    4    0    0  0.75949573024E-02  0.18299348555E-01  0.67035370435E-01  0.69903873600E-01  0.51100000000E-03 0.  1.
</event>
<event>
 8    1  0.1044719E+005  0.1043930E+01  0.7957747E-01            NaN
         13   -1    0    0    0    0  0.00000000000E+00  0.00000000000E+00  0.74505805969E-08  0.10566000000E+00  0.10566000000E+00 0. -1.
     999900   -1    0    0    0    0 -0.00000000000E+00 -0.00000000000E+00 -0.74505805969E-08  0.93827000000E+00  0.93827000000E+00 0.  1.
     999902    2    1    2    0    0 -0.23756237570E-01 -0.34882379899E-02  0.46066668947E-02  0.10194811144E+01  0.10191879094E+01 0.  0.
     999903    2    3    3    0    0  0.11380228083E+00 -0.49062281850E-01 -0.16674409108E-01  0.12737561410E+00  0.24257875538E-01 0.  0.
         14    1    1    2    0    0  0.23756237570E-01  0.34882379899E-02 -0.46066668947E-02  0.24448885612E-01  0.00000000000E+00 0.  1.
     999901    1    3    3    0    0 -0.13755851840E+00  0.45574043860E-01  0.21281076002E-01  0.89210550029E+00  0.88000000000E+00 0. -1.
        -11    1    4    4    0    0  0.15018195312E-01 -0.12695102383E-01 -0.95517326365E-02  0.21867979612E-01  0.51100000000E-03 0. -1.
         11    1    4    4    0    0  0.98784085514E-01 -0.36367179466E-01 -0.71226764712E-02  0.10550763448E+00  0.51100000000E-03 0.  1.
</event>
<event>
 8    1  0.1044719E+005  0.1043930E+01  0.7957747E-01            NaN
         13   -1    0    0    0    0  0.00000000000E+00  0.00000000000E+00  0.74505805969E-08  0.10566000000E+00  0.10566000000E+00 0.  1.
     999900   -1    0    0    0    0 -0.00000000000E+00 -0.00000000000E+00 -0.74505805969E-08  0.93827000000E+00  0.93827000000E+00 0. -1.
     999902    2    1    2    0    0 -0.25310720611E-02  0.23767949257E-01 -0.80466552781E-03  0.10200141219E+01  0.10197337102E+01 0.  0.
     999903    2    3    3    0    0 -0.79395571871E-01  0.89289343914E-01  0.52130030253E-01  0.13265664801E+00  0.24576461051E-01 0.  0.
         14    1    1    2    0    0  0.25310720611E-02 -0.23767949257E-01  0.80466552781E-03  0.23915878079E-01  0.00000000000E+00 0. -1.
     999901    1    3    3    0    0  0.76864499810E-01 -0.65521394657E-01 -0.52934695781E-01  0.88735747391E+00  0.88000000000E+00 0. -1.
        -11    1    4    4    0    0 -0.58394162969E-01  0.51782013452E-01  0.25598488305E-01  0.82138900105E-01  0.51100000000E-03 0.  1.
         11    1    4    4    0    0 -0.21001408902E-01  0.37507330462E-01  0.26531541948E-01  0.50517747905E-01  0.51100000000E-03 0. -1.
</event>
<event>
 8    1  0.1044719E+005  0.1043930E+01  0.7957747E-01            NaN
         13   -1    0    0    0    0  0.00000000000E+00  0.00000000000E+00  0.74505805969E-08  0.10566000000E+00  0.10566000000E+00 0. -1.
     999900   -1    0    0    0    0 -0.00000000000E+00 -0.00000000000E+00 -0.74505805969E-08  0.93827000000E+00  0.93827000000E+00 0.  1.
     999902    2    1    2    0    0  0.94664666796E-02  0.16134253792E-01 -0.13639945558E-01  0.10207788391E+01  0.10205162723E+01 0.  0.
     999903    2    3    3    0    0  0.10922289096E+00 -0.61110999315E-01  0.31705682518E-01  0.13062469553E+00  0.19833472503E-01 0.  0.
         14    1    1    2    0    0 -0.94664666796E-02 -0.16134253792E-01  0.13639945558E-01  0.23151160913E-01  0.00000000000E+00 0. -1.
     999901    1    3    3    0    0 -0.99756424276E-01  0.77245253107E-01 -0.45345628075E-01  0.89015414356E+00  0.88000000000E+00 0.  1.
        -11    1    4    4    0    0  0.53182119219E-01 -0.29175458213E-01  0.51872882222E-02  0.60882791055E-01  0.51100000000E-03 0.  1.
         11    1    4    4    0    0  0.56040771737E-01 -0.31935541102E-01  0.26518394295E-01  0.69741904472E-01  0.51100000000E-03 0. -1.
</event>
<event>
 7    1  0.1044719E+005  0.1043930E+01  0.7957747E-01            NaN
         13   -1    0    0    0    0  0.00000000000E+00  0.00000000000E+00  0.74505805969E-08  0.10566000000E+00  0.10566000000E+00 0. -1.
     999900   -1    0    0    0    0 -0.00000000000E+00 -0.00000000000E+00 -0.74505805969E-08  0.93827000000E+00  0.93827000000E+00 0.  1.
     999903    2    1    2    0    0 -0.10236863077E+00  0.51132492241E-01 -0.22220508313E-02  0.11622245383E+00  0.20220112187E-01 0.  0.
         14    1    1    2    0    0  0.26492248411E-02  0.16040917498E-01  0.35354887104E-01  0.38913975235E-01  0.00000000000E+00 0. -1.
     999901    1    1    2    0    0  0.99719405925E-01 -0.67173409739E-01 -0.33132836273E-01  0.88879357093E+00  0.88000000000E+00 0.  1.
        -11    1    3    3    0    0 -0.66993562366E-01  0.43716325590E-01 -0.32086217945E-02  0.80061294621E-01  0.51100000000E-03 0.  1.
         11    1    3    3    0    0 -0.35375068401E-01  0.74161666505E-02  0.98657096315E-03  0.36161159210E-01  0.51100000000E-03 0. -1.
</event>
<event>
 8    1  0.1044719E+005  0.1043930E+01  0.7957747E-01            NaN
         13   -1    0    0    0    0  0.00000000000E+00  0.00000000000E+00  0.74505805969E-08  0.10566000000E+00  0.10566000000E+00 0.  1.
     999900   -1    0    0    0    0 -0.00000000000E+00 -0.00000000000E+00 -0.74505805969E-08  0.93827000000E+00  0.93827000000E+00 0.  1.
     999902    2    1    2    0    0  0.56611137818E-02  0.41480475923E-02 -0.23743838242E-01  0.10191706712E+01  0.10188698801E+01 0.  0.
     999903    2    3    3    0    0 -0.14666784731E-01 -0.12420829215E+00  0.21276966049E-01  0.12848809799E+00  0.20338820672E-01 0.  0.
         14    1    1    2    0    0 -0.56611137818E-02 -0.41480475923E-02  0.23743838242E-01  0.24759328798E-01  0.00000000000E+00 0.  1.
     999901    1    3    3    0    0  0.20327898513E-01  0.12835633974E+00 -0.45020804292E-01  0.89068257322E+00  0.88000000000E+00 0.  1.
        -11    1    4    4    0    0  0.31460886949E-02 -0.54142348195E-01  0.57220909174E-02  0.54537099186E-01  0.51100000000E-03 0.  1.
         11    1    4    4    0    0 -0.17812873426E-01 -0.70065943957E-01  0.15554875132E-01  0.73950998801E-01  0.51100000000E-03 0. -1.
</event>
<event>
 8    1  0.1044719E+005  0.1043930E+01  0.7957747E-01            NaN
         13   -1    0    0    0    0  0.00000000000E+00  0.00000000000E+00  0.74505805969E-08  0.10566000000E+00  0.10566000000E+00 0.  1.
     999900   -1    0    0    0    0 -0.00000000000E+00 -0.00000000000E+00 -0.74505805969E-08  0.93827000000E+00  0.93827000000E+00 0.  1.
     999902    2    1    2    0    0 -0.48470503711E-02 -0.21541908839E-01 -0.10773026939E-02  0.10218232518E+01  0.10215840884E+01 0.  0.
     999903    2    3    3    0    0  0.92295613502E-02 -0.13225306907E+00  0.46773021779E-03  0.13477336646E+00  0.24240100143E-01 0.  0.
         14    1    1    2    0    0  0.48470503711E-02  0.21541908839E-01  0.10773026939E-02  0.22106748174E-01  0.00000000000E+00 0.  1.
     999901    1    3    3    0    0 -0.14076611721E-01  0.11071116023E+00 -0.15450329117E-02  0.88704988536E+00  0.88000000000E+00 0.  1.
        -11    1    4    4    0    0  0.14947497939E-01 -0.92288108449E-01 -0.68406374240E-02  0.93742082850E-01  0.51100000000E-03 0. -1.
         11    1    4    4    0    0 -0.57179365892E-02 -0.39964960621E-01  0.73083676418E-02  0.41031283613E-01  0.51100000000E-03 0.  1.
</event>
<event>
 8    1  0.1044719E+005  0.1043930E+01  0.7957747E-01            NaN
         13   -1    0    0    0    0  0.00000000000E+00  0.00000000000E+00  0.74505805969E-08  0.10566000000E+00  0.10566000000E+00 0.  1.
     999900   -1    0    0    0    0 -0.00000000000E+00 -0.00000000000E+00 -0.74505805969E-08  0.93827000000E+00  0.93827000000E+00 0. -1.
     999902    2    1    2    0    0  0.22032073729E-01  0.21849373930E-02  0.73891458441E-02  0.10205893552E+01  0.10203224227E+01 0.  0.
     999903    2    3    3    0    0  0.10848248867E+00  0.44647954538E-01  0.61976964378E-01  0.13365271032E+00  0.16124908373E-01 0.  0.
         14    1    1    2    0    0 -0.22032073729E-01 -0.21849373930E-02 -0.73891458441E-02  0.23340644818E-01  0.00000000000E+00 0. -1.
     999901    1    3    3    0    0 -0.86450414939E-01 -0.42463017145E-01 -0.54587818534E-01  0.88693664486E+00  0.88000000000E+00 0. -1.
        -11    1    4    4    0    0  0.58149499536E-01  0.32419707010E-01  0.33214382541E-01  0.74403346883E-01  0.51100000000E-03 0. -1.
         11    1    4    4    0    0  0.50332989133E-01  0.12228247529E-01  0.28762581837E-01  0.59249363436E-01  0.51100000000E-03 0.  1.
</event>
<event>
 8    1  0.1044719E+005  0.1043930E+01  0.7957747E-01            NaN
         13   -1    0    0    0    0  0.00000000000E+00  0.00000000000E+00  0.74505805969E-08  0.10566000000E+00  0.10566000000E+00 0. -1.
     999900   -1    0    0    0    0 -0.00000000000E+00 -0.00000000000E+00 -0.74505805969E-08  0.93827000000E+00  0.93827000000E+00 0.  1.
     999902    2    1    2    0    0  0.50822484474E-02  0.14802508470E-01 -0.16641048012E-01  0.10210855699E+01  0.10208299923E+01 0.  0.
     999903    2    3    3    0    0 -0.84143632548E-01 -0.59427716238E-01  0.74556893491E-01  0.12879164491E+00  0.20414530978E-01 0.  0.
         14    1    1    2    0    0 -0.50822484474E-02 -0.14802508470E-01  0.16641048012E-01  0.22844430070E-01  0.00000000000E+00 0.  1.
     999901    1    3    3    0    0  0.89225880996E-01  0.74230224708E-01 -0.91197941503E-01  0.89229392502E+00  0.88000000000E+00 0. -1.
        -11    1    4    4    0    0 -0.40800384828E-01 -0.39152175638E-01  0.33419211866E-01  0.65686140867E-01  0.51100000000E-03 0.  1.
         11    1    4    4    0    0 -0.43343247721E-01 -0.20275540600E-01  0.41137681625E-01  0.63105504040E-01  0.51100000000E-03 0. -1.
</event>
<event>
 8    1  0.1044719E+005  0.1043930E+01  0.7957747E-01            NaN
         13   -1    0    0    0    0  0.00000000000E+00  0.00000000000E+00  0.74505805969E-08  0.10566000000E+00  0.10566000000E+00 0. -1.
     999900   -1    0    0    0    0 -0.00000000000E+00 -0.00000000000E+00 -0.74505805969E-08  0.93827000000E+00  0.93827000000E+00 0. -1.
     999902    2    1    2    0    0 -0.12950332557E-01 -0.53992131009E-02 -0.19984147277E-01  0.10195122041E+01  0.10192197533E+01 0.  0.
     999903    2    3    3    0    0  0.53396369660E-01  0.48490354881E-01  0.10234249819E+00  0.12694860487E+00  0.20963647901E-01 0.  0.
         14    1    1    2    0    0  0.12950332557E-01  0.53992131009E-02  0.19984147277E-01  0.24417795925E-01  0.00000000000E+00 0. -1.
     999901    1    3    3    0    0 -0.66346702217E-01 -0.53889567982E-01 -0.12232664547E+00  0.89256359920E+00  0.88000000000E+00 0. -1.
        -11    1    4    4    0    0  0.35969918674E-01  0.42581482297E-01  0.85066697053E-01  0.10170359754E+00  0.51100000000E-03 0.  1.
         11    1    4    4    0    0  0.17426450986E-01  0.59088725839E-02  0.17275801139E-01  0.25245007332E-01  0.51100000000E-03 0. -1.
</event>
<event>
 8    1  0.1044719E+005  0.1043930E+01  0.7957747E-01            NaN
         13   -1    0    0    0    0  0.00000000000E+00  0.00000000000E+00  0.74505805969E-08  0.10566000000E+00  0.10566000000E+00 0.  1.
     999900   -1    0    0    0    0 -0.00000000000E+00 -0.00000000000E+00 -0.74505805969E-08  0.93827000000E+00  0.93827000000E+00 0. -1.
     999902    2    1    2    0    0  0.11380210200E-01  0.22199804387E-01 -0.82486727923E-03  0.10189696133E+01  0.10186638562E+01 0.  0.
     999903    2    3    3    0    0  0.98531045939E-01 -0.79171729225E-01  0.15022934912E-01  0.12873222425E+00  0.19229333452E-01 0.  0.
         14    1    1    2    0    0 -0.11380210200E-01 -0.22199804387E-01  0.82486727923E-03  0.24960386717E-01  0.00000000000E+00 0.  1.
     999901    1    3    3    0    0 -0.87150835738E-01  0.10137153361E+00 -0.15847802191E-01  0.89023738903E+00  0.88000000000E+00 0.  1.
        -11    1    4    4    0    0  0.87683345793E-02 -0.22024442423E-02 -0.19854640098E-02  0.92702556744E-02  0.51100000000E-03 0. -1.
         11    1    4    4    0    0  0.89762711359E-01 -0.76969284982E-01  0.17008398922E-01  0.11946196858E+00  0.51100000000E-03 0.  1.
</event>
<event>
 8    1  0.1044719E+005  0.1043930E+01  0.7957747E-01            NaN
         13   -1    0    0    0    0  0.00000000000E+00  0.00000000000E+00  0.74505805969E-08  0.10566000000E+00  0.10566000000E+00 0.  1.
     999900   -1    0    0    0    0 -0.00000000000E+00 -0.00000000000E+00 -0.74505805969E-08  0.93827000000E+00  0.93827000000E+00 0. -1.
     999902    2    1    2    0    0 -0.21143577103E-01  0.10575659463E-01  0.29548433098E-01  0.10060881538E+01  0.10053762320E+01 0.  0.
     999903    2    3    3    0    0 -0.63546876369E-01  0.83661378197E-01  0.57978015834E-01  0.12158388402E+00  0.19589763540E-01 0.  0.
         14    1    1    2    0    0  0.21143577103E-01 -0.10575659463E-01 -0.29548433098E-01  0.37841846206E-01  0.00000000000E+00 0. -1.
     999901    1    3    3    0    0  0.42403299267E-01 -0.73085718734E-01 -0.28429582736E-01  0.88450426977E+00  0.88000000000E+00 0. -1.
        -11    1    4    4    0    0 -0.14558594002E-01  0.31164642344E-01  0.25240533398E-01  0.42667707214E-01  0.51100000000E-03 0. -1.
         11    1    4    4    0    0 -0.48988282368E-01  0.52496735853E-01  0.32737482437E-01  0.78916176807E-01  0.51100000000E-03 0.  1.
</event>
<event>
 8    1  0.1044719E+005  0.1043930E+01  0.7957747E-01            NaN
         13   -1    0    0    0    0  0.00000000000E+00  0.00000000000E+00  0.74505805969E-08  0.10566000000E+00  0.10566000000E+00 0. -1.
     999900   -1    0    0    0    0 -0.00000000000E+00 -0.00000000000E+00 -0.74505805969E-08  0.93827000000E+00  0.93827000000E+00 0.  1.
     999902    2    1    2    0    0  0.11811428014E-01  0.20524590510E-01 -0.13604747421E-02  0.10202103976E+01  0.10199346233E+01 0.  0.
     999903    2    3    3    0    0  0.57697821104E-01  0.38723719160E-01 -0.11060874693E+00  0.13208205419E+00  0.19565509375E-01 0.  0.
         14    1    1    2    0    0 -0.11811428014E-01 -0.20524590510E-01  0.13604747421E-02  0.23719602417E-01  0.00000000000E+00 0.  1.
     999901    1    3    3    0    0 -0.45886393091E-01 -0.18199128650E-01  0.10924827219E+00  0.88812834339E+00  0.88000000000E+00 0. -1.
        -11    1    4    4    0    0  0.48349663705E-01  0.27207258506E-01 -0.73301116974E-01  0.91930624747E-01  0.51100000000E-03 0.  1.
         11    1    4    4    0    0  0.93481573997E-02  0.11516460655E-01 -0.37307629954E-01  0.40151429446E-01  0.51100000000E-03 0. -1.
</event>
<event>
 8    1  0.1044719E+005  0.1043930E+01  0.7957747E-01            NaN
         13   -1    0    0    0    0  0.00000000000E+00  0.00000000000E+00  0.74505805969E-08  0.10566000000E+00  0.10566000000E+00 0.  1.
     999900   -1    0    0    0    0 -0.00000000000E+00 -0.00000000000E+00 -0.74505805969E-08  0.93827000000E+00  0.93827000000E+00 0. -1.
     999902    2    1    2    0    0  0.55745285962E-02 -0.62483047301E-02  0.27094686645E-01  0.10155708970E+01  0.10151748657E+01 0.  0.
     999903    2    3    3    0    0 -0.11523205693E+00 -0.45623665818E-01  0.13604871259E-01  0.12634279051E+00  0.20431895793E-01 0.  0.
         14    1    1    2    0    0 -0.55745285962E-02  0.62483047301E-02 -0.27094686645E-01  0.28359103044E-01  0.00000000000E+00 0. -1.
     999901    1    3    3    0    0  0.12080658553E+00  0.39375361088E-01  0.13489815387E-01  0.88922810644E+00  0.88000000000E+00 0. -1.
        -11    1    4    4    0    0 -0.71705797878E-01 -0.18725980050E-01  0.35656211488E-02  0.74198103434E-01  0.51100000000E-03 0.  1.
         11    1    4    4    0    0 -0.43526259053E-01 -0.26897685768E-01  0.10039250110E-01  0.52144687079E-01  0.51100000000E-03 0. -1.
</event>
<event>
 8    1  0.1044719E+005  0.1043930E+01  0.7957747E-01            NaN
         13   -1    0    0    0    0  0.00000000000E+00  0.00000000000E+00  0.74505805969E-08  0.10566000000E+00  0.10566000000E+00 0.  1.
     999900   -1    0    0    0    0 -0.00000000000E+00 -0.00000000000E+00 -0.74505805969E-08  0.93827000000E+00  0.93827000000E+00 0.  1.
     999902    2    1    2    0    0 -0.16092423690E-01  0.11563924572E-01 -0.11566776241E-01  0.10209848314E+01  0.10207269689E+01 0.  0.
     999903    2    3    3    0    0 -0.11798352052E+00  0.47037227572E-01  0.34737165107E-01  0.13318744128E+00  0.19990297171E-01 0.  0.
         14    1    1    2    0    0  0.16092423690E-01 -0.11563924572E-01  0.11566776241E-01  0.22945168649E-01  0.00000000000E+00 0.  1.
     999901    1    3    3    0    0  0.10189109683E+00 -0.35473303000E-01 -0.46303941348E-01  0.88779739008E+00  0.88000000000E+00 0. -1.
        -11    1    4    4    0    0 -0.20883577920E-01  0.38237392829E-02 -0.41868945792E-03  0.21241027063E-01  0.51100000000E-03 0.  1.
         11    1    4    4    0    0 -0.97099942604E-01  0.43213488289E-01  0.35155854565E-01  0.11194641421E+00  0.51100000000E-03 0. -1.
</event>
<event>
 8    1  0.1044719E+005  0.1043930E+01  0.7957747E-01            NaN
         13   -1    0    0    0    0  0.00000000000E+00  0.00000000000E+00  0.74505805969E-08  0.10566000000E+00  0.10566000000E+00 0. -1.
     999900   -1    0    0    0    0 -0.00000000000E+00 -0.00000000000E+00 -0.74505805969E-08  0.93827000000E+00  0.93827000000E+00 0. -1.
     999902    2    1    2    0    0 -0.78709693404E-02 -0.47693516735E-02 -0.21791241018E-01  0.10202750416E+01  0.10200007860E+01 0.  0.
     999903    2    3    3    0    0  0.52737366860E-01 -0.10717998759E+00  0.46233866056E-01  0.12966360891E+00  0.20156921956E-01 0.  0.
         14    1    1    2    0    0  0.78709693404E-02  0.47693516735E-02  0.21791241018E-01  0.23654958441E-01  0.00000000000E+00 0. -1.
     999901    1    3    3    0    0 -0.60608336200E-01  0.10241063592E+00 -0.68025107074E-01  0.89061143265E+00  0.88000000000E+00 0. -1.
        -11    1    4    4    0    0  0.38720916258E-01 -0.61720547704E-01  0.21089555199E-01  0.75853581486E-01  0.51100000000E-03 0.  1.
         11    1    4    4    0    0  0.14016450602E-01 -0.45459439887E-01  0.25144310857E-01  0.53810027428E-01  0.51100000000E-03 0. -1.
</event>
<event>
 8    1  0.1044719E+005  0.1043930E+01  0.7957747E-01            NaN
         13   -1    0    0    0    0  0.00000000000E+00  0.00000000000E+00  0.74505805969E-08  0.10566000000E+00  0.10566000000E+00 0. -1.
     999900   -1    0    0    0    0 -0.00000000000E+00 -0.00000000000E+00 -0.74505805969E-08  0.93827000000E+00  0.93827000000E+00 0.  1.
     999902    2    1    2    0    0  0.14825497697E-01 -0.40040978568E-02 -0.18101964006E-01  0.10201916495E+01  0.10199154340E+01 0.  0.
     999903    2    3    3    0    0  0.16341596416E-02  0.49546002626E-01 -0.12128470191E+00  0.13244827330E+00  0.19367223077E-01 0.  0.
         14    1    1    2    0    0 -0.14825497697E-01  0.40040978568E-02  0.18101964006E-01  0.23738350458E-01  0.00000000000E+00 0. -1.
     999901    1    3    3    0    0  0.13191338055E-01 -0.53550100483E-01  0.10318273790E+00  0.88774337624E+00  0.88000000000E+00 0.  1.
        -11    1    4    4    0    0 -0.47573580149E-02  0.30800151649E-01 -0.54465439502E-01  0.62753701230E-01  0.51100000000E-03 0. -1.
         11    1    4    4    0    0  0.63915176565E-02  0.18745850977E-01 -0.66819262403E-01  0.69694572069E-01  0.51100000000E-03 0.  1.
</event>
<event>
 8    1  0.1044719E+005  0.1043930E+01  0.7957747E-01            NaN
         13   -1    0    0    0    0  0.00000000000E+00  0.00000000000E+00  0.74505805969E-08  0.10566000000E+00  0.10566000000E+00 0.  1.
     999900   -1    0    0    0    0 -0.00000000000E+00 -0.00000000000E+00 -0.74505805969E-08  0.93827000000E+00  0.93827000000E+00 0. -1.
     999902    2    1    2    0    0  0.18498965051E-01 -0.15096019801E-01  0.10825652444E-02  0.10200286722E+01  0.10197486056E+01 0.  0.
     999903    2    3    3    0    0 -0.67531737141E-01 -0.44343766407E-02  0.10835097621E+00  0.12928658591E+00  0.19871789879E-01 0.  0.
         14    1    1    2    0    0 -0.18498965051E-01  0.15096019801E-01 -0.10825652444E-02  0.23901327773E-01  0.00000000000E+00 0.  1.
     999901    1    3    3    0    0  0.86030702192E-01 -0.10661643161E-01 -0.10726841096E+00  0.89074208632E+00  0.88000000000E+00 0. -1.
        -11    1    4    4    0    0 -0.58820801045E-01 -0.21484097367E-02  0.78594699138E-01  0.98193126814E-01  0.51100000000E-03 0.  1.
         11    1    4    4    0    0 -0.87109360963E-02 -0.22859669040E-02  0.29756277067E-01  0.31093459091E-01  0.51100000000E-03 0. -1.
</event>
<event>
 8    1  0.1044719E+005  0.1043930E+01  0.7957747E-01            NaN
         13   -1    0    0    0    0  0.00000000000E+00  0.00000000000E+00  0.74505805969E-08  0.10566000000E+00  0.10566000000E+00 0.  1.
     999900   -1    0    0    0    0 -0.00000000000E+00 -0.00000000000E+00 -0.74505805969E-08  0.93827000000E+00  0.93827000000E+00 0.  1.
     999902    2    1    2    0    0  0.63473801873E-02 -0.11895148417E-01 -0.19137145068E-01  0.10205202988E+01  0.10202517660E+01 0.  0.
     999903    2    3    3    0    0 -0.26785395923E-01  0.87019923353E-01  0.88491227239E-01  0.12784687650E+00  0.14973377606E-01 0.  0.
         14    1    1    2    0    0 -0.63473801873E-02  0.11895148417E-01  0.19137145068E-01  0.23409701247E-01  0.00000000000E+00 0.  1.
     999901    1    3    3    0    0  0.33132776110E-01 -0.98915071770E-01 -0.10762837231E+00  0.89267342226E+00  0.88000000000E+00 0.  1.
        -11    1    4    4    0    0 -0.10439784663E-01  0.52814143554E-01  0.58510398429E-01  0.79511324404E-01  0.51100000000E-03 0.  1.
         11    1    4    4    0    0 -0.16345611259E-01  0.34205779799E-01  0.29980828810E-01  0.48335552094E-01  0.51100000000E-03 0. -1.
</event>
<event>
 8    1  0.1044719E+005  0.1043930E+01  0.7957747E-01            NaN
         13   -1    0    0    0    0  0.00000000000E+00  0.00000000000E+00  0.74505805969E-08  0.10566000000E+00  0.10566000000E+00 0. -1.
     999900   -1    0    0    0    0 -0.00000000000E+00 -0.00000000000E+00 -0.74505805969E-08  0.93827000000E+00  0.93827000000E+00 0.  1.
     999902    2    1    2    0    0 -0.16735065556E-01  0.10321396107E-02 -0.16501112785E-01  0.10204052374E+01  0.10201340275E+01 0.  0.
     999903    2    3    3    0    0 -0.36113954187E-01 -0.15593524774E-01  0.12172039572E+00  0.12925029048E+00  0.18504246868E-01 0.  0.
         14    1    1    2    0    0  0.16735065556E-01 -0.10321396107E-02  0.16501112785E-01  0.23524762580E-01  0.00000000000E+00 0. -1.
     999901    1    3    3    0    0  0.19378888632E-01  0.16625664385E-01 -0.13822150851E+00  0.89115494694E+00  0.88000000000E+00 0.  1.
        -11    1    4    4    0    0 -0.19986050434E-01 -0.34124075363E-02  0.84429898819E-01  0.86831766496E-01  0.51100000000E-03 0. -1.
         11    1    4    4    0    0 -0.16127903753E-01 -0.12181117238E-01  0.37290496904E-01  0.42418523984E-01  0.51100000000E-03 0.  1.
</event>
<event>
 8    1  0.1044719E+005  0.1043930E+01  0.7957747E-01            NaN
         13   -1    0    0    0    0  0.00000000000E+00  0.00000000000E+00  0.74505805969E-08  0.10566000000E+00  0.10566000000E+00 0. -1.
     999900   -1    0    0    0    0 -0.00000000000E+00 -0.00000000000E+00 -0.74505805969E-08  0.93827000000E+00  0.93827000000E+00 0. -1.
     999902    2    1    2    0    0  0.20424890439E-01  0.54622215033E-02 -0.11326250825E-01  0.10199446718E+01  0.10196626096E+01 0.  0.
     999903    2    3    3    0    0 -0.75549521743E-01  0.83335432935E-01 -0.61893847160E-01  0.12987028911E+00  0.19568317708E-01 0.  0.
         14    1    1    2    0    0 -0.20424890439E-01 -0.54622215033E-02  0.11326250825E-01  0.23985328244E-01  0.00000000000E+00 0. -1.
     999901    1    3    3    0    0  0.95974412182E-01 -0.77873211432E-01  0.50567596335E-01  0.89007438265E+00  0.88000000000E+00 0.  1.
        -11    1    4    4    0    0 -0.16533222003E-01  0.23321104305E-01 -0.71829461732E-02  0.29480114866E-01  0.51100000000E-03 0.  1.
         11    1    4    4    0    0 -0.59016299740E-01  0.60014328630E-01 -0.54710900987E-01  0.10039017424E+00  0.51100000000E-03 0. -1.
</event>
<event>
 8    1  0.1044719E+005  0.1043930E+01  0.7957747E-01            NaN
         13   -1    0    0    0    0  0.00000000000E+00  0.00000000000E+00  0.74505805969E-08  0.10566000000E+00  0.10566000000E+00 0. -1.
     999900   -1    0    0    0    0 -0.00000000000E+00 -0.00000000000E+00 -0.74505805969E-08  0.93827000000E+00  0.93827000000E+00 0.  1.
     999902    2    1    2    0    0 -0.88990212819E-03  0.21745751930E-01  0.95245360243E-02  0.10201731812E+01  0.10198965306E+01 0.  0.
     999903    2    3    3    0    0 -0.11405587118E+00  0.62314215971E-01  0.52403005153E-02  0.13198925234E+00  0.22403096227E-01 0.  0.
         14    1    1    2    0    0  0.88990212819E-03 -0.21745751930E-01 -0.95245360243E-02  0.23756818795E-01  0.00000000000E+00 0. -1.
     999901    1    3    3    0    0  0.11316596905E+00 -0.40568464041E-01  0.42842355091E-02  0.88818392887E+00  0.88000000000E+00 0. -1.
        -11    1    4    4    0    0 -0.10113161053E+00  0.46139373742E-01  0.37170025311E-02  0.11122284696E+00  0.51100000000E-03 0.  1.
         11    1    4    4    0    0 -0.12924260651E-01  0.16174842229E-01  0.15232979842E-02  0.20766405376E-01  0.51100000000E-03 0. -1.
</event>
<event>
 8    1  0.1044719E+005  0.1043930E+01  0.7957747E-01            NaN
         13   -1    0    0    0    0  0.00000000000E+00  0.00000000000E+00  0.74505805969E-08  0.10566000000E+00  0.10566000000E+00 0.  1.
     999900   -1    0    0    0    0 -0.00000000000E+00 -0.00000000000E+00 -0.74505805969E-08  0.93827000000E+00  0.93827000000E+00 0. -1.
     999902    2    1    2    0    0  0.13116958200E-01  0.15165300590E-01  0.11866601869E-01  0.10206307044E+01  0.10203647278E+01 0.  0.
     999903    2    3    3    0    0 -0.22946950369E-01  0.12122672481E+00 -0.42401401041E-01  0.13187053017E+00  0.19221773486E-01 0.  0.
         14    1    1    2    0    0 -0.13116958200E-01 -0.15165300590E-01 -0.11866601869E-01  0.23299295576E-01  0.00000000000E+00 0. -1.
     999901    1    3    3    0    0  0.36063908569E-01 -0.10606142422E+00  0.54268002911E-01  0.88876017426E+00  0.88000000000E+00 0. -1.
        -11    1    4    4    0    0 -0.24326717291E-01  0.98855973446E-01 -0.39765310627E-01  0.10929699772E+00  0.51100000000E-03 0. -1.
         11    1    4    4    0    0  0.13797669223E-02  0.22370751366E-01 -0.26360904148E-02  0.22573532446E-01  0.51100000000E-03 0.  1.
</event>
<event>
 8    1  0.1044719E+005  0.1043930E+01  0.7957747E-01            NaN
         13   -1    0    0    0    0  0.00000000000E+00  0.00000000000E+00  0.74505805969E-08  0.10566000000E+00  0.10566000000E+00 0. -1.
     999900   -1    0    0    0    0 -0.00000000000E+00 -0.00000000000E+00 -0.74505805969E-08  0.93827000000E+00  0.93827000000E+00 0.  1.
     999902    2    1    2    0    0  0.18274554863E-01 -0.16819577952E-01  0.14899866510E-01  0.10149668583E+01  0.10145535273E+01 0.  0.
     999903    2    3    3    0    0  0.18496121877E-01 -0.54731611079E-01 -0.10954067473E+00  0.12540358358E+00  0.19729256878E-01 0.  0.
         14    1    1    2    0    0 -0.18274554863E-01  0.16819577952E-01 -0.14899866510E-01  0.28963141748E-01  0.00000000000E+00 0.  1.
     999901    1    3    3    0    0 -0.22156701401E-03  0.37912033126E-01  0.12444054124E+00  0.88956327468E+00  0.88000000000E+00 0. -1.
        -11    1    4    4    0    0  0.88948110186E-03 -0.27113044765E-01 -0.61925777576E-01  0.67608959631E-01  0.51100000000E-03 0.  1.
         11    1    4    4    0    0  0.17606640775E-01 -0.27618566314E-01 -0.47614897157E-01  0.57794623944E-01  0.51100000000E-03 0. -1.
</event>
<event>
 8    1  0.1044719E+005  0.1043930E+01  0.7957747E-01            NaN
         13   -1    0    0    0    0  0.00000000000E+00  0.00000000000E+00  0.74505805969E-08  0.10566000000E+00  0.10566000000E+00 0. -1.
     999900   -1    0    0    0    0 -0.00000000000E+00 -0.00000000000E+00 -0.74505805969E-08  0.93827000000E+00  0.93827000000E+00 0. -1.
     999902    2    1    2    0    0 -0.17533801244E-02 -0.21818916978E-01  0.75868244534E-02  0.10207632267E+01  0.10205003016E+01 0.  0.
     999903    2    3    3    0    0 -0.98081165554E-01  0.38660761073E-01  0.74954863678E-01  0.13088947924E+00  0.19981358916E-01 0.  0.
         14    1    1    2    0    0  0.17533801244E-02  0.21818916978E-01 -0.75868244534E-02  0.23166773302E-01  0.00000000000E+00 0.  1.
     999901    1    3    3    0    0  0.96327785429E-01 -0.60479678051E-01 -0.67368039224E-01  0.88987374746E+00  0.88000000000E+00 0. -1.
        -11    1    4    4    0    0 -0.47284347461E-01  0.82903548386E-02  0.36504010487E-01  0.60310392146E-01  0.51100000000E-03 0.  1.
         11    1    4    4    0    0 -0.50796818093E-01  0.30370406234E-01  0.38450853190E-01  0.70579087096E-01  0.51100000000E-03 0. -1.
</event>
<event>
 8    1  0.1044719E+005  0.1043930E+01  0.7957747E-01            NaN
         13   -1    0    0    0    0  0.00000000000E+00  0.00000000000E+00  0.74505805969E-08  0.10566000000E+00  0.10566000000E+00 0. -1.
     999900   -1    0    0    0    0 -0.00000000000E+00 -0.00000000000E+00 -0.74505805969E-08  0.93827000000E+00  0.93827000000E+00 0. -1.
     999902    2    1    2    0    0  0.86395304947E-02 -0.19420425778E-01  0.10861615176E-01  0.10200601632E+01  0.10197808428E+01 0.  0.
     999903    2    3    3    0    0 -0.36458916008E-02 -0.12629758797E+00  0.36636582629E-01  0.13313400599E+00  0.20446298220E-01 0.  0.
         14    1    1    2    0    0 -0.86395304947E-02  0.19420425778E-01 -0.10861615176E-01  0.23869836799E-01  0.00000000000E+00 0. -1.
     999901    1    3    3    0    0  0.12285422096E-01  0.10687716220E+00 -0.25774967453E-01  0.88692615721E+00  0.88000000000E+00 0. -1.
        -11    1    4    4    0    0 -0.35483867364E-02 -0.22634800171E-01 -0.76334930782E-03  0.22929654389E-01  0.51100000000E-03 0.  1.
         11    1    4    4    0    0 -0.97504864386E-04 -0.10366278780E+00  0.37399931937E-01  0.11020435160E+00  0.51100000000E-03 0. -1.
</event>
<event>
 8    1  0.1044719E+005  0.1043930E+01  0.7957747E-01            NaN
         13   -1    0    0    0    0  0.00000000000E+00  0.00000000000E+00  0.74505805969E-08  0.10566000000E+00  0.10566000000E+00 0.  1.
     999900   -1    0    0    0    0 -0.00000000000E+00 -0.00000000000E+00 -0.74505805969E-08  0.93827000000E+00  0.93827000000E+00 0. -1.
     999902    2    1    2    0    0 -0.10163506590E-01 -0.19800344012E-01 -0.80996369394E-02  0.10202455197E+01  0.10199705711E+01 0.  0.
     999903    2    3    3    0    0  0.74198639897E-01  0.64684192505E-01 -0.82001420039E-01  0.12911360902E+00  0.16018995665E-01 0.  0.
         14    1    1    2    0    0  0.10163506590E-01  0.19800344012E-01  0.80996369394E-02  0.23684480314E-01  0.00000000000E+00 0.  1.
     999901    1    3    3    0    0 -0.84362146487E-01 -0.84484536516E-01  0.73901783099E-01  0.89113191067E+00  0.88000000000E+00 0.  1.
        -11    1    4    4    0    0  0.38048517034E-01  0.36566983705E-01 -0.53610279704E-01  0.75227369731E-01  0.51100000000E-03 0. -1.
         11    1    4    4    0    0  0.36150122863E-01  0.28117208800E-01 -0.28391140335E-01  0.53886239284E-01  0.51100000000E-03 0.  1.
</event>
<event>
 8    1  0.1044719E+005  0.1043930E+01  0.7957747E-01            NaN
         13   -1    0    0    0    0  0.00000000000E+00  0.00000000000E+00  0.74505805969E-08  0.10566000000E+00  0.10566000000E+00 0.  1.
     999900   -1    0    0    0    0 -0.00000000000E+00 -0.00000000000E+00 -0.74505805969E-08  0.93827000000E+00  0.93827000000E+00 0. -1.
     999902    2    1    2    0    0 -0.17104713638E-01  0.23543490781E-02  0.12931736548E-01  0.10223581666E+01  0.10221305576E+01 0.  0.
     999903    2    3    3    0    0  0.11312652186E+00 -0.43495157204E-01 -0.42305123381E-01  0.12988213739E+00  0.19753670558E-01 0.  0.
         14    1    1    2    0    0  0.17104713638E-01 -0.23543490781E-02 -0.12931736548E-01  0.21571833449E-01  0.00000000000E+00 0. -1.
     999901    1    3    3    0    0 -0.13023123550E+00  0.45849506282E-01  0.55236859929E-01  0.89247602916E+00  0.88000000000E+00 0.  1.
        -11    1    4    4    0    0  0.93013385977E-01 -0.31899155618E-01 -0.26663729249E-01  0.10188356923E+00  0.51100000000E-03 0. -1.
         11    1    4    4    0    0  0.20113135886E-01 -0.11596001585E-01 -0.15641394132E-01  0.27998568166E-01  0.51100000000E-03 0.  1.
</event>
<event>
 8    1  0.1044719E+005  0.1043930E+01  0.7957747E-01            NaN
         13   -1    0    0    0    0  0.00000000000E+00  0.00000000000E+00  0.74505805969E-08  0.10566000000E+00  0.10566000000E+00 0.  1.
     999900   -1    0    0    0    0 -0.00000000000E+00 -0.00000000000E+00 -0.74505805969E-08  0.93827000000E+00  0.93827000000E+00 0. -1.
     999902    2    1    2    0    0 -0.13993381026E-01  0.18749698306E-01 -0.28818870833E-02  0.10203573215E+01  0.10200849927E+01 0.  0.
     999903    2    3    3    0    0 -0.31734323580E-01 -0.56639939603E-01  0.11066122872E+00  0.12968882104E+00  0.18924394530E-01 0.  0.
         14    1    1    2    0    0  0.13993381026E-01 -0.18749698306E-01  0.28818870833E-02  0.23572678513E-01  0.00000000000E+00 0.  1.
     999901    1    3    3    0    0  0.17740942554E-01  0.75389637910E-01 -0.11354311581E+00  0.89066850045E+00  0.88000000000E+00 0. -1.
        -11    1    4    4    0    0 -0.16474351196E-01 -0.27721683373E-01  0.73027265664E-01  0.79831939897E-01  0.51100000000E-03 0.  1.
         11    1    4    4    0    0 -0.15259972383E-01 -0.28918256230E-01  0.37633963059E-01  0.49856881140E-01  0.51100000000E-03 0. -1.
</event>
<event>
 8    1  0.1044719E+005  0.1043930E+01  0.7957747E-01            NaN
         13   -1    0    0    0    0  0.00000000000E+00  0.00000000000E+00  0.74505805969E-08  0.10566000000E+00  0.10566000000E+00 0. -1.
     999900   -1    0    0    0    0 -0.00000000000E+00 -0.00000000000E+00 -0.74505805969E-08  0.93827000000E+00  0.93827000000E+00 0.  1.
     999902    2    1    2    0    0 -0.23648112150E-01  0.84691888882E-03  0.44252191163E-02  0.10198565074E+01  0.10195723431E+01 0.  0.
     999903    2    3    3    0    0  0.11833260794E+00 -0.42526021736E-01 -0.44857064089E-02  0.12737729679E+00  0.19844030530E-01 0.  0.
         14    1    1    2    0    0  0.23648112150E-01 -0.84691888882E-03 -0.44252191163E-02  0.24073492561E-01  0.00000000000E+00 0. -1.
     999901    1    3    3    0    0 -0.14198072009E+00  0.43372940625E-01  0.89109255252E-02  0.89247921065E+00  0.88000000000E+00 0. -1.
        -11    1    4    4    0    0  0.81028002988E-01 -0.26485030853E-01  0.59244116242E-02  0.85453811511E-01  0.51100000000E-03 0.  1.
         11    1    4    4    0    0  0.37304604952E-01 -0.16040990883E-01 -0.10410118033E-01  0.41923485275E-01  0.51100000000E-03 0. -1.
</event>
<event>
 8    1  0.1044719E+005  0.1043930E+01  0.7957747E-01            NaN
         13   -1    0    0    0    0  0.00000000000E+00  0.00000000000E+00  0.74505805969E-08  0.10566000000E+00  0.10566000000E+00 0.  1.
     999900   -1    0    0    0    0 -0.00000000000E+00 -0.00000000000E+00 -0.74505805969E-08  0.93827000000E+00  0.93827000000E+00 0. -1.
     999902    2    1    2    0    0 -0.23415782839E-01 -0.11481922554E-02  0.84155449302E-02  0.10190213945E+01  0.10187169204E+01 0.  0.
     999903    2    3    3    0    0 -0.28963040423E-03 -0.67224828153E-01 -0.10777815121E+00  0.12862714713E+00  0.20237383574E-01 0.  0.
         14    1    1    2    0    0  0.23415782839E-01  0.11481922554E-02 -0.84155449302E-02  0.24908605499E-01  0.00000000000E+00 0. -1.
     999901    1    3    3    0    0 -0.23126152435E-01  0.66076635898E-01  0.11619369614E+00  0.89039424738E+00  0.88000000000E+00 0.  1.
        -11    1    4    4    0    0  0.90447699080E-02 -0.35318645066E-01 -0.63962625384E-01  0.73625356495E-01  0.51100000000E-03 0. -1.
         11    1    4    4    0    0 -0.93344003123E-02 -0.31906183087E-01 -0.43815525823E-01  0.55001790630E-01  0.51100000000E-03 0.  1.
</event>
<event>
 8    1  0.1044719E+005  0.1043930E+01  0.7957747E-01            NaN
         13   -1    0    0    0    0  0.00000000000E+00  0.00000000000E+00  0.74505805969E-08  0.10566000000E+00  0.10566000000E+00 0. -1.
     999900   -1    0    0    0    0 -0.00000000000E+00 -0.00000000000E+00 -0.74505805969E-08  0.93827000000E+00  0.93827000000E+00 0. -1.
     999902    2    1    2    0    0 -0.10261123986E-01 -0.14752212602E-01  0.15206004738E-01  0.10203897999E+01  0.10201182297E+01 0.  0.
     999903    2    3    3    0    0 -0.61323175091E-01  0.47387423895E-01  0.10451029475E+00  0.13222093997E+00  0.23534559891E-01 0.  0.
         14    1    1    2    0    0  0.10261123986E-01  0.14752212602E-01 -0.15206004738E-01  0.23540200130E-01  0.00000000000E+00 0.  1.
     999901    1    3    3    0    0  0.51062051104E-01 -0.62139636496E-01 -0.89304290017E-01  0.88816885990E+00  0.88000000000E+00 0. -1.
        -11    1    4    4    0    0 -0.20933089988E-01  0.28862577800E-01  0.36899407489E-01  0.51313448995E-01  0.51100000000E-03 0. -1.
         11    1    4    4    0    0 -0.40390085103E-01  0.18524846095E-01  0.67610887265E-01  0.80907490971E-01  0.51100000000E-03 0.  1.
</event>
<event>
 8    1  0.1044719E+005  0.1043930E+01  0.7957747E-01            NaN
         13   -1    0    0    0    0  0.00000000000E+00  0.00000000000E+00  0.74505805969E-08  0.10566000000E+00  0.10566000000E+00 0. -1.
     999900   -1    0    0    0    0 -0.00000000000E+00 -0.00000000000E+00 -0.74505805969E-08  0.93827000000E+00  0.93827000000E+00 0. -1.
     999902    2    1    2    0    0  0.19990627736E-01  0.12211199414E-01  0.36518791670E-02  0.10202218830E+01  0.10199463789E+01 0.  0.
     999903    2    3    3    0    0 -0.47714108411E-01 -0.87631751350E-01  0.79122256097E-01  0.12879139001E+00  0.19259562394E-01 0.  0.
         14    1    1    2    0    0 -0.19990627736E-01 -0.12211199414E-01 -0.36518791670E-02  0.23708116962E-01  0.00000000000E+00 0. -1.
     999901    1    3    3    0    0  0.67704736147E-01  0.99842950765E-01 -0.75470376930E-01  0.89143049303E+00  0.88000000000E+00 0. -1.
        -11    1    4    4    0    0 -0.25763646010E-01 -0.53236299103E-01  0.58019691135E-01  0.82851763278E-01  0.51100000000E-03 0.  1.
         11    1    4    4    0    0 -0.21950462400E-01 -0.34395452248E-01  0.21102564962E-01  0.45939626728E-01  0.51100000000E-03 0. -1.
</event>
<event>
 8    1  0.1044719E+005  0.1043930E+01  0.7957747E-01            NaN
         13   -1    0    0    0    0  0.00000000000E+00  0.00000000000E+00  0.74505805969E-08  0.10566000000E+00  0.10566000000E+00 0.  1.
     999900   -1    0    0    0    0 -0.00000000000E+00 -0.00000000000E+00 -0.74505805969E-08  0.93827000000E+00  0.93827000000E+00 0.  1.
     999902    2    1    2    0    0 -0.16667704613E-01 -0.11726471125E-01  0.12929608639E-01  0.10197950195E+01  0.10195093843E+01 0.  0.
     999903    2    3    3    0    0  0.46266767812E-01  0.22549449000E-01  0.11834059004E+00  0.13061165177E+00  0.20144896988E-01 0.  0.
         14    1    1    2    0    0  0.16667704613E-01  0.11726471125E-01 -0.12929608639E-01  0.24134980457E-01  0.00000000000E+00 0. -1.
     999901    1    3    3    0    0 -0.62934472425E-01 -0.34275920125E-01 -0.10541098140E+00  0.88918336777E+00  0.88000000000E+00 0.  1.
        -11    1    4    4    0    0  0.10044742503E-01  0.91586904245E-02  0.52930970594E-01  0.54650958191E-01  0.51100000000E-03 0. -1.
         11    1    4    4    0    0  0.36222025309E-01  0.13390758576E-01  0.65409619443E-01  0.75960693581E-01  0.51100000000E-03 0.  1.
</event>
<event>
 8    1  0.1044719E+005  0.1043930E+01  0.7957747E-01            NaN
         13   -1    0    0    0    0  0.00000000000E+00  0.00000000000E+00  0.74505805969E-08  0.10566000000E+00  0.10566000000E+00 0. -1.
     999900   -1    0    0    0    0 -0.00000000000E+00 -0.00000000000E+00 -0.74505805969E-08  0.93827000000E+00  0.93827000000E+00 0.  1.
     999902    2    1    2    0    0 -0.10974088754E-01  0.85096604097E-02 -0.19572358820E-01  0.10199316214E+01  0.10196492486E+01 0.  0.
     999903    2    3    3    0    0 -0.47193139685E-01  0.42892854144E-01  0.11026578916E+00  0.12900403271E+00  0.20408498890E-01 0.  0.
         14    1    1    2    0    0  0.10974088754E-01 -0.85096604097E-02  0.19572358820E-01  0.23998378572E-01  0.00000000000E+00 0. -1.
     999901    1    3    3    0    0  0.36219050931E-01 -0.34383193734E-01 -0.12983814798E+00  0.89092758871E+00  0.88000000000E+00 0.  1.
        -11    1    4    4    0    0 -0.27271760629E-01  0.36165589695E-01  0.83137060557E-01  0.94676981177E-01  0.51100000000E-03 0.  1.
         11    1    4    4    0    0 -0.19921379056E-01  0.67272644485E-02  0.27128728605E-01  0.34327051537E-01  0.51100000000E-03 0. -1.
</event>
<event>
 8    1  0.1044719E+005  0.1043930E+01  0.7957747E-01            NaN
         13   -1    0    0    0    0  0.00000000000E+00  0.00000000000E+00  0.74505805969E-08  0.10566000000E+00  0.10566000000E+00 0.  1.
     999900   -1    0    0    0    0 -0.00000000000E+00 -0.00000000000E+00 -0.74505805969E-08  0.93827000000E+00  0.93827000000E+00 0. -1.
     999902    2    1    2    0    0  0.16555247104E-01 -0.15678747269E-01 -0.61180352576E-02  0.10203221691E+01  0.10200490180E+01 0.  0.
     999903    2    3    3    0    0  0.29286039939E-01 -0.11076059375E+00  0.63825023952E-01  0.13234994989E+00  0.17812756416E-01 0.  0.
         14    1    1    2    0    0 -0.16555247104E-01  0.15678747269E-01  0.61180352576E-02  0.23607830862E-01  0.00000000000E+00 0.  1.
     999901    1    3    3    0    0 -0.12730792834E-01  0.95081846482E-01 -0.69943059210E-01  0.88797221924E+00  0.88000000000E+00 0. -1.
        -11    1    4    4    0    0  0.21870627706E-01 -0.68756639136E-01  0.31023583259E-01  0.78539949202E-01  0.51100000000E-03 0. -1.
         11    1    4    4    0    0  0.74154122331E-02 -0.42003954616E-01  0.32801440693E-01  0.53810000692E-01  0.51100000000E-03 0.  1.
</event>
<event>
 7    1  0.1044719E+005  0.1043930E+01  0.7957747E-01            NaN
         13   -1    0    0    0    0  0.00000000000E+00  0.00000000000E+00  0.74505805969E-08  0.10566000000E+00  0.10566000000E+00 0.  1.
     999900   -1    0    0    0    0 -0.00000000000E+00 -0.00000000000E+00 -0.74505805969E-08  0.93827000000E+00  0.93827000000E+00 0. -1.
     999903    2    1    2    0    0  0.95218899347E-01  0.16883728283E-01 -0.53948306311E-01  0.11254184318E+00  0.20088495201E-01 0.  0.
         14    1    1    2    0    0 -0.37227223756E-01  0.13556201259E-01 -0.22649682362E-01  0.45636004341E-01  0.00000000000E+00 0. -1.
     999901    1    1    2    0    0 -0.57991675591E-01 -0.30439929542E-01  0.76597988673E-01  0.88575215248E+00  0.88000000000E+00 0.  1.
        -11    1    3    3    0    0  0.44911747059E-01  0.80003663136E-02 -0.14099933991E-01  0.47750813025E-01  0.51100000000E-03 0. -1.
         11    1    3    3    0    0  0.50307152288E-01  0.88833619693E-02 -0.39848372321E-01  0.64791030157E-01  0.51100000000E-03 0.  1.
</event>
<event>
 7    1  0.1044719E+005  0.1043930E+01  0.7957747E-01            NaN
         13   -1    0    0    0    0  0.00000000000E+00  0.00000000000E+00  0.74505805969E-08  0.10566000000E+00  0.10566000000E+00 0.  1.
     999900   -1    0    0    0    0 -0.00000000000E+00 -0.00000000000E+00 -0.74505805969E-08  0.93827000000E+00  0.93827000000E+00 0.  1.
     999903    2    1    2    0    0 -0.51152072393E-01 -0.32485789114E-01  0.58260844944E-01  0.86450594220E-01  0.20187079604E-01 0.  0.
         14    1    1    2    0    0 -0.49781403781E-01 -0.39684894408E-01  0.16103133221E-01  0.65668789438E-01  0.00000000000E+00 0. -1.
     999901    1    1    2    0    0  0.10093347617E+00  0.72170683522E-01 -0.74363978165E-01  0.89181061634E+00  0.88000000000E+00 0. -1.
        -11    1    3    3    0    0 -0.97990357430E-02 -0.13503021725E-01  0.25106543306E-01  0.30148836379E-01  0.51100000000E-03 0. -1.
         11    1    3    3    0    0 -0.41353036650E-01 -0.18982767389E-01  0.33154301638E-01  0.56301757841E-01  0.51100000000E-03 0.  1.
</event>
<event>
 8    1  0.1044719E+005  0.1043930E+01  0.7957747E-01            NaN
         13   -1    0    0    0    0  0.00000000000E+00  0.00000000000E+00  0.74505805969E-08  0.10566000000E+00  0.10566000000E+00 0. -1.
     999900   -1    0    0    0    0 -0.00000000000E+00 -0.00000000000E+00 -0.74505805969E-08  0.93827000000E+00  0.93827000000E+00 0. -1.
     999902    2    1    2    0    0  0.71647495725E-02  0.18971512764E-01  0.12362283053E-01  0.10201796742E+01  0.10199031766E+01 0.  0.
     999903    2    3    3    0    0 -0.97154648995E-02 -0.63153442055E-01 -0.10886467102E+00  0.12792106582E+00  0.20725225775E-01 0.  0.
         14    1    1    2    0    0 -0.71647495725E-02 -0.18971512764E-01 -0.12362283053E-01  0.23750325793E-01  0.00000000000E+00 0.  1.
     999901    1    3    3    0    0  0.16880214472E-01  0.82124954819E-01  0.12122695407E+00  0.89225860839E+00  0.88000000000E+00 0.  1.
        -11    1    4    4    0    0  0.52923928852E-02 -0.59016843513E-02 -0.11478037889E-01  0.13958716825E-01  0.51100000000E-03 0. -1.
         11    1    4    4    0    0 -0.15007857785E-01 -0.57251757704E-01 -0.97386633130E-01  0.11396234900E+00  0.51100000000E-03 0.  1.
</event>
<event>
 8    1  0.1044719E+005  0.1043930E+01  0.7957747E-01            NaN
         13   -1    0    0    0    0  0.00000000000E+00  0.00000000000E+00  0.74505805969E-08  0.10566000000E+00  0.10566000000E+00 0. -1.
     999900   -1    0    0    0    0 -0.00000000000E+00 -0.00000000000E+00 -0.74505805969E-08  0.93827000000E+00  0.93827000000E+00 0.  1.
     999902    2    1    2    0    0 -0.17899676538E-01  0.13868587745E-01  0.59000202353E-02  0.10205302909E+01  0.10202619900E+01 0.  0.
     999903    2    3    3    0    0 -0.98430926030E-01 -0.81885268874E-01 -0.21796880761E-01  0.13124900723E+00  0.18903794049E-01 0.  0.
         14    1    1    2    0    0  0.17899676538E-01 -0.13868587745E-01 -0.59000202353E-02  0.23399709079E-01  0.00000000000E+00 0.  1.
     999901    1    3    3    0    0  0.80531249492E-01  0.95753856620E-01  0.27696900997E-01  0.88928128369E+00  0.88000000000E+00 0. -1.
        -11    1    4    4    0    0 -0.85609547440E-01 -0.77600519546E-01 -0.16491754544E-01  0.11671792637E+00  0.51100000000E-03 0. -1.
         11    1    4    4    0    0 -0.12821378591E-01 -0.42847493286E-02 -0.53051262173E-02  0.14531080860E-01  0.51100000000E-03 0.  1.
</event>
<event>
 8    1  0.1044719E+005  0.1043930E+01  0.7957747E-01            NaN
         13   -1    0    0    0    0  0.00000000000E+00  0.00000000000E+00  0.74505805969E-08  0.10566000000E+00  0.10566000000E+00 0. -1.
     999900   -1    0    0    0    0 -0.00000000000E+00 -0.00000000000E+00 -0.74505805969E-08  0.93827000000E+00  0.93827000000E+00 0. -1.
     999902    2    1    2    0    0  0.20316489940E-01 -0.10845461483E-01 -0.18037258231E-03  0.10208992307E+01  0.10206394187E+01 0.  0.
     999903    2    3    3    0    0 -0.41018402423E-01 -0.11170143521E+00  0.52624657649E-01  0.13144868817E+00  0.18699814550E-01 0.  0.
         14    1    1    2    0    0 -0.20316489940E-01  0.10845461483E-01  0.18037258231E-03  0.23030769256E-01  0.00000000000E+00 0.  1.
     999901    1    3    3    0    0  0.61334892363E-01  0.10085597373E+00 -0.52805030231E-01  0.88945054257E+00  0.88000000000E+00 0. -1.
        -11    1    4    4    0    0 -0.28254083337E-01 -0.68328228643E-01  0.23172921849E-01  0.77487324658E-01  0.51100000000E-03 0. -1.
         11    1    4    4    0    0 -0.12764319086E-01 -0.43373206571E-01  0.29451735800E-01  0.53961363517E-01  0.51100000000E-03 0.  1.
</event>
<event>
 8    1  0.1044719E+005  0.1043930E+01  0.7957747E-01            NaN
         13   -1    0    0    0    0  0.00000000000E+00  0.00000000000E+00  0.74505805969E-08  0.10566000000E+00  0.10566000000E+00 0. -1.
     999900   -1    0    0    0    0 -0.00000000000E+00 -0.00000000000E+00 -0.74505805969E-08  0.93827000000E+00  0.93827000000E+00 0. -1.
     999902    2    1    2    0    0  0.14696354844E-01 -0.15285052420E-01 -0.13942225640E-01  0.10185528187E+01  0.10182366342E+01 0.  0.
     999903    2    3    3    0    0 -0.96893983203E-01  0.77261682944E-01 -0.16861065320E-01  0.12668633691E+00  0.20182190285E-01 0.  0.
         14    1    1    2    0    0 -0.14696354844E-01  0.15285052420E-01  0.13942225640E-01  0.25377181265E-01  0.00000000000E+00 0. -1.
     999901    1    3    3    0    0  0.11159033805E+00 -0.92546735363E-01  0.29188396801E-02  0.89186648182E+00  0.88000000000E+00 0. -1.
        -11    1    4    4    0    0 -0.40335076425E-01  0.45040662384E-01 -0.83281607651E-02  0.61034408663E-01  0.51100000000E-03 0. -1.
         11    1    4    4    0    0 -0.56558906778E-01  0.32221020560E-01 -0.85329045545E-02  0.65651928250E-01  0.51100000000E-03 0.  1.
</event>
<event>
 8    1  0.1044719E+005  0.1043930E+01  0.7957747E-01            NaN
         13   -1    0    0    0    0  0.00000000000E+00  0.00000000000E+00  0.74505805969E-08  0.10566000000E+00  0.10566000000E+00 0.  1.
     999900   -1    0    0    0    0 -0.00000000000E+00 -0.00000000000E+00 -0.74505805969E-08  0.93827000000E+00  0.93827000000E+00 0. -1.
     999902    2    1    2    0    0  0.72850687198E-02  0.22896081724E-01  0.73355523160E-02  0.10188080353E+01  0.10184982570E+01 0.  0.
     999903    2    3    3    0    0 -0.13546846262E-01 -0.87058935578E-01  0.90447353285E-01  0.12783573155E+00  0.19961844560E-01 0.  0.
         14    1    1    2    0    0 -0.72850687198E-02 -0.22896081724E-01 -0.73355523160E-02  0.25121964739E-01  0.00000000000E+00 0. -1.
     999901    1    3    3    0    0  0.20831914982E-01  0.10995501730E+00 -0.83111800969E-01  0.89097230371E+00  0.88000000000E+00 0. -1.
        -11    1    4    4    0    0 -0.81176657559E-02 -0.64715890123E-01  0.78024275102E-01  0.10169607445E+00  0.51100000000E-03 0. -1.
         11    1    4    4    0    0 -0.54291805060E-02 -0.22343045455E-01  0.12423078183E-01  0.26139657108E-01  0.51100000000E-03 0.  1.
</event>
<event>
 8    1  0.1044719E+005  0.1043930E+01  0.7957747E-01            NaN
         13   -1    0    0    0    0  0.00000000000E+00  0.00000000000E+00  0.74505805969E-08  0.10566000000E+00  0.10566000000E+00 0. -1.
     999900   -1    0    0    0    0 -0.00000000000E+00 -0.00000000000E+00 -0.74505805969E-08  0.93827000000E+00  0.93827000000E+00 0. -1.
     999902    2    1    2    0    0  0.69040869235E-02  0.22291944526E-01 -0.37938890293E-02  0.10202870137E+01  0.10200130389E+01 0.  0.
     999903    2    3    3    0    0  0.10660582129E+00  0.29503554797E-01  0.67795325519E-01  0.13173906407E+00  0.22884797604E-01 0.  0.
         14    1    1    2    0    0 -0.69040869235E-02 -0.22291944526E-01  0.37938890293E-02  0.23642986295E-01  0.00000000000E+00 0. -1.
     999901    1    3    3    0    0 -0.99701734367E-01 -0.72116102709E-02 -0.71589214548E-01  0.88854794963E+00  0.88000000000E+00 0. -1.
        -11    1    4    4    0    0  0.14469266618E-01  0.21307012062E-02  0.95546680149E-03  0.14665387888E-01  0.51100000000E-03 0. -1.
         11    1    4    4    0    0  0.92136554672E-01  0.27372853591E-01  0.66839858718E-01  0.11707367618E+00  0.51100000000E-03 0.  1.
</event>
<event>
 8    1  0.1044719E+005  0.1043930E+01  0.7957747E-01            NaN
         13   -1    0    0    0    0  0.00000000000E+00  0.00000000000E+00  0.74505805969E-08  0.10566000000E+00  0.10566000000E+00 0. -1.
     999900   -1    0    0    0    0 -0.00000000000E+00 -0.00000000000E+00 -0.74505805969E-08  0.93827000000E+00  0.93827000000E+00 0. -1.
     999902    2    1    2    0    0 -0.14745902396E-01 -0.18271750343E-01 -0.35139871251E-02  0.10201887573E+01  0.10199124737E+01 0.  0.
     999903    2    3    3    0    0  0.11682997769E+00 -0.97871343505E-02 -0.50642578561E-01  0.12911900413E+00  0.19026685979E-01 0.  0.
         14    1    1    2    0    0  0.14745902396E-01  0.18271750343E-01  0.35139871251E-02  0.23741242672E-01  0.00000000000E+00 0. -1.
     999901    1    3    3    0    0 -0.13157588009E+00 -0.84846159926E-02  0.47128591436E-01  0.89106975320E+00  0.88000000000E+00 0.  1.
        -11    1    4    4    0    0  0.88598171908E-01  0.37422237171E-03 -0.40740804633E-01  0.97518461796E-01  0.51100000000E-03 0.  1.
         11    1    4    4    0    0  0.28231805781E-01 -0.10161356722E-01 -0.99017739286E-02  0.31600542337E-01  0.51100000000E-03 0. -1.
</event>
<event>
 8    1  0.1044719E+005  0.1043930E+01  0.7957747E-01            NaN
         13   -1    0    0    0    0  0.00000000000E+00  0.00000000000E+00  0.74505805969E-08  0.10566000000E+00  0.10566000000E+00 0. -1.
     999900   -1    0    0    0    0 -0.00000000000E+00 -0.00000000000E+00 -0.74505805969E-08  0.93827000000E+00  0.93827000000E+00 0. -1.
     999902    2    1    2    0    0  0.50502317771E-03  0.32907422608E-02  0.20938922021E-01  0.10227280546E+01  0.10225082646E+01 0.  0.
     999903    2    3    3    0    0  0.11511654123E+00 -0.39855093918E-01 -0.46011013988E-01  0.13172880815E+00  0.19880113538E-01 0.  0.
         14    1    1    2    0    0 -0.50502317771E-03 -0.32907422608E-02 -0.20938922021E-01  0.21201945393E-01  0.00000000000E+00 0.  1.
     999901    1    3    3    0    0 -0.11461151805E+00  0.43145836179E-01  0.66949936009E-01  0.89099924645E+00  0.88000000000E+00 0.  1.
        -11    1    4    4    0    0  0.81024323927E-01 -0.36418969276E-01 -0.28838348366E-01  0.93398039854E-01  0.51100000000E-03 0. -1.
         11    1    4    4    0    0  0.34092217299E-01 -0.34361246419E-02 -0.17172665622E-01  0.38330768300E-01  0.51100000000E-03 0.  1.
</event>
<event>
 8    1  0.1044719E+005  0.1043930E+01  0.7957747E-01            NaN
         13   -1    0    0    0    0  0.00000000000E+00  0.00000000000E+00  0.74505805969E-08  0.10566000000E+00  0.10566000000E+00 0. -1.
     999900   -1    0    0    0    0 -0.00000000000E+00 -0.00000000000E+00 -0.74505805969E-08  0.93827000000E+00  0.93827000000E+00 0.  1.
     999902    2    1    2    0    0  0.19140249667E-02 -0.22204282918E-01 -0.64783188142E-02  0.10207209008E+01  0.10204570030E+01 0.  0.
     999903    2    3    3    0    0  0.72622210920E-02 -0.50904606900E-01 -0.12091229891E+00  0.13283157908E+00  0.19504499886E-01 0.  0.
         14    1    1    2    0    0 -0.19140249667E-02  0.22204282918E-01  0.64783188142E-02  0.23209099210E-01  0.00000000000E+00 0.  1.
     999901    1    3    3    0    0 -0.53481961253E-02  0.28700323982E-01  0.11443398009E+00  0.88788932171E+00  0.88000000000E+00 0. -1.
        -11    1    4    4    0    0 -0.59734122978E-02 -0.23783235838E-01 -0.47556977842E-01  0.53509356414E-01  0.51100000000E-03 0. -1.
         11    1    4    4    0    0  0.13235633390E-01 -0.27121371063E-01 -0.73355321067E-01  0.79322222671E-01  0.51100000000E-03 0.  1.
</event>
<event>
 8    1  0.1044719E+005  0.1043930E+01  0.7957747E-01            NaN
         13   -1    0    0    0    0  0.00000000000E+00  0.00000000000E+00  0.74505805969E-08  0.10566000000E+00  0.10566000000E+00 0. -1.
     999900   -1    0    0    0    0 -0.00000000000E+00 -0.00000000000E+00 -0.74505805969E-08  0.93827000000E+00  0.93827000000E+00 0. -1.
     999902    2    1    2    0    0  0.15752639431E-01  0.18036920105E-01  0.69126527902E-02  0.10190048941E+01  0.10187000114E+01 0.  0.
     999903    2    3    3    0    0 -0.98589461288E-02 -0.10603020297E+00 -0.66055409123E-01  0.12694382981E+00  0.20293252393E-01 0.  0.
         14    1    1    2    0    0 -0.15752639431E-01 -0.18036920105E-01 -0.69126527902E-02  0.24925105908E-01  0.00000000000E+00 0. -1.
     999901    1    3    3    0    0  0.25611585560E-01  0.12406712307E+00  0.72968061913E-01  0.89206106428E+00  0.88000000000E+00 0. -1.
        -11    1    4    4    0    0 -0.16003246801E-01 -0.70180361541E-01 -0.42161292600E-01  0.83421956156E-01  0.51100000000E-03 0.  1.
         11    1    4    4    0    0  0.61443006726E-02 -0.35849841429E-01 -0.23894116523E-01  0.43521873657E-01  0.51100000000E-03 0. -1.
</event>
<event>
 8    1  0.1044719E+005  0.1043930E+01  0.7957747E-01            NaN
         13   -1    0    0    0    0  0.00000000000E+00  0.00000000000E+00  0.74505805969E-08  0.10566000000E+00  0.10566000000E+00 0.  1.
     999900   -1    0    0    0    0 -0.00000000000E+00 -0.00000000000E+00 -0.74505805969E-08  0.93827000000E+00  0.93827000000E+00 0.  1.
     999902    2    1    2    0    0  0.14339414587E-01  0.14814701023E-01  0.10266172297E-01  0.10208976647E+01  0.10206378169E+01 0.  0.
     999903    2    3    3    0    0 -0.10791468019E+00  0.52209753304E-01  0.48542802898E-01  0.13083611956E+00  0.19754744441E-01 0.  0.
         14    1    1    2    0    0 -0.14339414587E-01 -0.14814701023E-01 -0.10266172297E-01  0.23032335330E-01  0.00000000000E+00 0.  1.
     999901    1    3    3    0    0  0.12225409478E+00 -0.37395052282E-01 -0.38276630601E-01  0.89006154511E+00  0.88000000000E+00 0.  1.
        -11    1    4    4    0    0 -0.69863285202E-01  0.23617735689E-01  0.32656540825E-01  0.80655978315E-01  0.51100000000E-03 0.  1.
         11    1    4    4    0    0 -0.38051394993E-01  0.28592017615E-01  0.15886262073E-01  0.50180141250E-01  0.51100000000E-03 0. -1.
</event>
<event>
 8    1  0.1044719E+005  0.1043930E+01  0.7957747E-01            NaN
         13   -1    0    0    0    0  0.00000000000E+00  0.00000000000E+00  0.74505805969E-08  0.10566000000E+00  0.10566000000E+00 0. -1.
     999900   -1    0    0    0    0 -0.00000000000E+00 -0.00000000000E+00 -0.74505805969E-08  0.93827000000E+00  0.93827000000E+00 0.  1.
     999902    2    1    2    0    0 -0.15307632572E-01 -0.15697302876E-02  0.19994023507E-01  0.10187000843E+01  0.10183876046E+01 0.  0.
     999903    2    3    3    0    0 -0.68092121761E-01 -0.10033929774E+00  0.45896978256E-01  0.13122468028E+00  0.20220593094E-01 0.  0.
         14    1    1    2    0    0  0.15307632572E-01  0.15697302876E-02 -0.19994023507E-01  0.25229915659E-01  0.00000000000E+00 0.  1.
     999901    1    3    3    0    0  0.52784489188E-01  0.98769567448E-01 -0.25902954749E-01  0.88747540406E+00  0.88000000000E+00 0.  1.
        -11    1    4    4    0    0 -0.37626048068E-01 -0.48983802033E-01  0.33384115188E-01  0.70213194078E-01  0.51100000000E-03 0. -1.
         11    1    4    4    0    0 -0.30466073693E-01 -0.51355495702E-01  0.12512863068E-01  0.61011486199E-01  0.51100000000E-03 0.  1.
</event>
<event>
 8    1  0.1044719E+005  0.1043930E+01  0.7957747E-01            NaN
         13   -1    0    0    0    0  0.00000000000E+00  0.00000000000E+00  0.74505805969E-08  0.10566000000E+00  0.10566000000E+00 0. -1.
     999900   -1    0    0    0    0 -0.00000000000E+00 -0.00000000000E+00 -0.74505805969E-08  0.93827000000E+00  0.93827000000E+00 0.  1.
     999902    2    1    2    0    0 -0.14839206846E-01 -0.12338910143E-01  0.23348360831E-01  0.10136381411E+01  0.10131854146E+01 0.  0.
     999903    2    3    3    0    0 -0.48665109129E-01  0.12641214749E-01 -0.10999639833E+00  0.12259996956E+00  0.20086107979E-01 0.  0.
         14    1    1    2    0    0  0.14839206846E-01  0.12338910143E-01 -0.23348360831E-01  0.30291858920E-01  0.00000000000E+00 0.  1.
     999901    1    3    3    0    0  0.33825902283E-01 -0.24980124892E-01  0.13334475916E+00  0.89103817152E+00  0.88000000000E+00 0. -1.
        -11    1    4    4    0    0 -0.43953942300E-01  0.10273085699E-01 -0.77611950277E-01  0.89785083841E-01  0.51100000000E-03 0.  1.
         11    1    4    4    0    0 -0.47111668293E-02  0.23681290500E-02 -0.32384448055E-01  0.32814885722E-01  0.51100000000E-03 0. -1.
</event>
<event>
 8    1  0.1044719E+005  0.1043930E+01  0.7957747E-01            NaN
         13   -1    0    0    0    0  0.00000000000E+00  0.00000000000E+00  0.74505805969E-08  0.10566000000E+00  0.10566000000E+00 0.  1.
     999900   -1    0    0    0    0 -0.00000000000E+00 -0.00000000000E+00 -0.74505805969E-08  0.93827000000E+00  0.93827000000E+00 0. -1.
     999902    2    1    2    0    0  0.10960488885E-01  0.13229383525E-02 -0.20888148584E-01  0.10203038020E+01  0.10200302207E+01 0.  0.
     999903    2    3    3    0    0 -0.12156012957E+00  0.30682017196E-01  0.21961114290E-01  0.12886691179E+00  0.20152893940E-01 0.  0.
         14    1    1    2    0    0 -0.10960488885E-01 -0.13229383525E-02  0.20888148584E-01  0.23626198038E-01  0.00000000000E+00 0.  1.
     999901    1    3    3    0    0  0.13252061845E+00 -0.29359078844E-01 -0.42849262875E-01  0.89143689017E+00  0.88000000000E+00 0.  1.
        -11    1    4    4    0    0 -0.92527779978E-01  0.26897766004E-01  0.24646883782E-01  0.99461600052E-01  0.51100000000E-03 0. -1.
         11    1    4    4    0    0 -0.29032349590E-01  0.37842511919E-02 -0.26857694911E-02  0.29405311741E-01  0.51100000000E-03 0.  1.
</event>
<event>
 8    1  0.1044719E+005  0.1043930E+01  0.7957747E-01            NaN
         13   -1    0    0    0    0  0.00000000000E+00  0.00000000000E+00  0.74505805969E-08  0.10566000000E+00  0.10566000000E+00 0.  1.
     999900   -1    0    0    0    0 -0.00000000000E+00 -0.00000000000E+00 -0.74505805969E-08  0.93827000000E+00  0.93827000000E+00 0. -1.
     999902    2    1    2    0    0 -0.12499823756E-01 -0.83790974325E-02 -0.21262518719E-01  0.10178810160E+01  0.10175476466E+01 0.  0.
     999903    2    3    3    0    0  0.98686656793E-01 -0.54836247698E-01  0.53470244349E-01  0.12653053149E+00  0.20120588418E-01 0.  0.
         14    1    1    2    0    0  0.12499823756E-01  0.83790974325E-02  0.21262518719E-01  0.26048984050E-01  0.00000000000E+00 0. -1.
     999901    1    3    3    0    0 -0.11118648055E+00  0.46457150266E-01 -0.74732763069E-01  0.89135048446E+00  0.88000000000E+00 0. -1.
        -11    1    4    4    0    0  0.86490326228E-01 -0.54947273384E-01  0.47711200470E-01  0.11303273488E+00  0.51100000000E-03 0.  1.
         11    1    4    4    0    0  0.12196330565E-01  0.11102568582E-03  0.57590438792E-02  0.13497796611E-01  0.51100000000E-03 0. -1.
</event>
<event>
 8    1  0.1044719E+005  0.1043930E+01  0.7957747E-01            NaN
         13   -1    0    0    0    0  0.00000000000E+00  0.00000000000E+00  0.74505805969E-08  0.10566000000E+00  0.10566000000E+00 0.  1.
     999900   -1    0    0    0    0 -0.00000000000E+00 -0.00000000000E+00 -0.74505805969E-08  0.93827000000E+00  0.93827000000E+00 0.  1.
     999902    2    1    2    0    0  0.21763314352E-01  0.26110252255E-03  0.63031856462E-02  0.10212707817E+01  0.10210193775E+01 0.  0.
     999903    2    3    3    0    0  0.17771473697E-01 -0.34885955859E-01  0.12505212017E+00  0.13259054674E+00  0.20232773733E-01 0.  0.
         14    1    1    2    0    0 -0.21763314352E-01 -0.26110252255E-03 -0.63031856462E-02  0.22659218332E-01  0.00000000000E+00 0. -1.
     999901    1    3    3    0    0  0.39918406545E-02  0.35147058381E-01 -0.11874893452E+00  0.88868023493E+00  0.88000000000E+00 0.  1.
        -11    1    4    4    0    0  0.87106574121E-02 -0.14339668526E-02  0.17777541963E-01  0.19855325047E-01  0.51100000000E-03 0.  1.
         11    1    4    4    0    0  0.90608162854E-02 -0.33451989006E-01  0.10727457820E+00  0.11273522169E+00  0.51100000000E-03 0. -1.
</event>
<event>
 8    1  0.1044719E+005  0.1043930E+01  0.7957747E-01            NaN
         13   -1    0    0    0    0  0.00000000000E+00  0.00000000000E+00  0.74505805969E-08  0.10566000000E+00  0.10566000000E+00 0. -1.
     999900   -1    0    0    0    0 -0.00000000000E+00 -0.00000000000E+00 -0.74505805969E-08  0.93827000000E+00  0.93827000000E+00 0.  1.
     999902    2    1    2    0    0  0.65003132902E-04  0.72501594480E-02 -0.22700494776E-01  0.10200997356E+01  0.10198213516E+01 0.  0.
     999903    2    3    3    0    0 -0.11811617846E+00 -0.36918407232E-02  0.48722372073E-01  0.12926431594E+00  0.19244025883E-01 0.  0.
         14    1    1    2    0    0 -0.65003132902E-04 -0.72501594480E-02  0.22700494776E-01  0.23830264382E-01  0.00000000000E+00 0. -1.
     999901    1    3    3    0    0  0.11818118159E+00  0.10942000171E-01 -0.71422866850E-01  0.89083541968E+00  0.88000000000E+00 0.  1.
        -11    1    4    4    0    0 -0.91524244432E-01 -0.98697973985E-02  0.33228772995E-01  0.97869876342E-01  0.51100000000E-03 0.  1.
         11    1    4    4    0    0 -0.26591934028E-01  0.61779566753E-02  0.15493599078E-01  0.31394439594E-01  0.51100000000E-03 0. -1.
</event>
<event>
 8    1  0.1044719E+005  0.1043930E+01  0.7957747E-01            NaN
         13   -1    0    0    0    0  0.00000000000E+00  0.00000000000E+00  0.74505805969E-08  0.10566000000E+00  0.10566000000E+00 0.  1.
     999900   -1    0    0    0    0 -0.00000000000E+00 -0.00000000000E+00 -0.74505805969E-08  0.93827000000E+00  0.93827000000E+00 0. -1.
     999902    2    1    2    0    0 -0.86541572729E-02 -0.31749180260E-02 -0.21366737723E-01  0.10206595891E+01  0.10203942791E+01 0.  0.
     999903    2    3    3    0    0 -0.21185840960E-02 -0.12945289173E+00 -0.33953812208E-02  0.13143981311E+00  0.22413305847E-01 0.  0.
         14    1    1    2    0    0  0.86541572729E-02  0.31749180260E-02  0.21366737723E-01  0.23270410901E-01  0.00000000000E+00 0.  1.
     999901    1    3    3    0    0 -0.65355731769E-02  0.12627797371E+00 -0.17971356502E-01  0.88921977599E+00  0.88000000000E+00 0.  1.
        -11    1    4    4    0    0  0.77087293957E-02 -0.67194457245E-01 -0.86586961701E-02  0.68189102749E-01  0.51100000000E-03 0. -1.
         11    1    4    4    0    0 -0.98273134917E-02 -0.62258434490E-01  0.52633149493E-02  0.63250710358E-01  0.51100000000E-03 0.  1.
</event>
<event>
 8    1  0.1044719E+005  0.1043930E+01  0.7957747E-01            NaN
         13   -1    0    0    0    0  0.00000000000E+00  0.00000000000E+00  0.74505805969E-08  0.10566000000E+00  0.10566000000E+00 0. -1.
     999900   -1    0    0    0    0 -0.00000000000E+00 -0.00000000000E+00 -0.74505805969E-08  0.93827000000E+00  0.93827000000E+00 0.  1.
     999902    2    1    2    0    0 -0.16533434360E-01 -0.16399608806E-01  0.47585595294E-02  0.10201614176E+01  0.10198844898E+01 0.  0.
     999903    2    3    3    0    0  0.68390234908E-01  0.97669220367E-01 -0.40384528102E-01  0.12760238551E+00  0.20855642901E-01 0.  0.
         14    1    1    2    0    0  0.16533434360E-01  0.16399608806E-01 -0.47585595294E-02  0.23768582404E-01  0.00000000000E+00 0. -1.
     999901    1    3    3    0    0 -0.84923669268E-01 -0.11406882917E+00  0.45143087631E-01  0.89255903208E+00  0.88000000000E+00 0.  1.
        -11    1    4    4    0    0  0.50943437845E-01  0.67297370589E-01 -0.18859723478E-01  0.86487688362E-01  0.51100000000E-03 0. -1.
         11    1    4    4    0    0  0.17446797064E-01  0.30371849778E-01 -0.21524804624E-01  0.41114697151E-01  0.51100000000E-03 0.  1.
</event>
<event>
 8    1  0.1977083E+005  0.1043930E+01  0.7957747E-01            NaN
         13   -1    0    0    0    0  0.00000000000E+00  0.00000000000E+00  0.74505805969E-08  0.10566000000E+00  0.10566000000E+00 0. -1.
     999900   -1    0    0    0    0 -0.00000000000E+00 -0.00000000000E+00 -0.74505805969E-08  0.93827000000E+00  0.93827000000E+00 0. -1.
     999902    2    1    2    0    0 -0.18032858472E-01 -0.61939025609E-02  0.12498109220E-01  0.10211319486E+01  0.10208774193E+01 0.  0.
     999903    2    3    3    0    0  0.12475231359E+00 -0.76947233941E-02 -0.23957762232E-01  0.12887700275E+00  0.20321391522E-01 0.  0.
         14    1    1    2    0    0  0.18032858472E-01  0.61939025609E-02 -0.12498109220E-01  0.22798051401E-01  0.00000000000E+00 0.  1.
     999901    1    3    3    0    0 -0.14278517206E+00  0.15008208332E-02  0.36455871452E-01  0.89225494585E+00  0.88000000000E+00 0. -1.
        -11    1    4    4    0    0  0.71229845334E-01 -0.93746791417E-02 -0.48148761603E-02  0.72007080407E-01  0.51100000000E-03 0.  1.
         11    1    4    4    0    0  0.53522468255E-01  0.16799557477E-02 -0.19142886071E-01  0.56869922345E-01  0.51100000000E-03 0. -1.
</event>
<event>
 8    1  0.1044719E+005  0.1043930E+01  0.7957747E-01            NaN
         13   -1    0    0    0    0  0.00000000000E+00  0.00000000000E+00  0.74505805969E-08  0.10566000000E+00  0.10566000000E+00 0.  1.
     999900   -1    0    0    0    0 -0.00000000000E+00 -0.00000000000E+00 -0.74505805969E-08  0.93827000000E+00  0.93827000000E+00 0. -1.
     999902    2    1    2    0    0  0.51595617990E-02 -0.16684333349E-01 -0.13770456502E-01  0.10216900915E+01  0.10214480063E+01 0.  0.
     999903    2    3    3    0    0  0.11056592621E+00  0.46155815862E-01  0.48055041971E-01  0.13102641858E+00  0.22437734541E-01 0.  0.
         14    1    1    2    0    0 -0.51595617990E-02  0.16684333349E-01  0.13770456502E-01  0.22239908488E-01  0.00000000000E+00 0.  1.
     999901    1    3    3    0    0 -0.10540636441E+00 -0.62840149211E-01 -0.61825498473E-01  0.89066367293E+00  0.88000000000E+00 0.  1.
        -11    1    4    4    0    0  0.99770425087E-01  0.34456905152E-01  0.37973876328E-01  0.11217705843E+00  0.51100000000E-03 0. -1.
         11    1    4    4    0    0  0.10795501125E-01  0.11698910710E-01  0.10081165644E-01  0.18849360150E-01  0.51100000000E-03 0.  1.
</event>
<event>
 8    1  0.1044719E+005  0.1043930E+01  0.7957747E-01            NaN
         13   -1    0    0    0    0  0.00000000000E+00  0.00000000000E+00  0.74505805969E-08  0.10566000000E+00  0.10566000000E+00 0.  1.
     999900   -1    0    0    0    0 -0.00000000000E+00 -0.00000000000E+00 -0.74505805969E-08  0.93827000000E+00  0.93827000000E+00 0. -1.
     999902    2    1    2    0    0 -0.16262775138E-01  0.11632386084E-01  0.11880651078E-01  0.10206718803E+01  0.10204068537E+01 0.  0.
     999903    2    3    3    0    0 -0.94625534472E-01  0.51687345503E-01  0.78555580358E-01  0.13377241137E+00  0.99249875936E-02 0.  0.
         14    1    1    2    0    0  0.16262775138E-01 -0.11632386084E-01 -0.11880651078E-01  0.23258119684E-01  0.00000000000E+00 0. -1.
     999901    1    3    3    0    0  0.78362759334E-01 -0.40054959420E-01 -0.66674929281E-01  0.88689946895E+00  0.88000000000E+00 0. -1.
        -11    1    4    4    0    0 -0.47561640214E-01  0.29312533565E-01  0.35729222917E-01  0.66318720849E-01  0.51100000000E-03 0.  1.
         11    1    4    4    0    0 -0.47063894258E-01  0.22374811938E-01  0.42826357442E-01  0.67453690519E-01  0.51100000000E-03 0. -1.
</event>
<event>
 8    1  0.1044719E+005  0.1043930E+01  0.7957747E-01            NaN
         13   -1    0    0    0    0  0.00000000000E+00  0.00000000000E+00  0.74505805969E-08  0.10566000000E+00  0.10566000000E+00 0.  1.
     999900   -1    0    0    0    0 -0.00000000000E+00 -0.00000000000E+00 -0.74505805969E-08  0.93827000000E+00  0.93827000000E+00 0. -1.
     999902    2    1    2    0    0 -0.56839657687E-02  0.22168387559E-01  0.78279492739E-02  0.10197427789E+01  0.10194558909E+01 0.  0.
     999903    2    3    3    0    0  0.10334110168E+00 -0.49386936082E-01  0.55559468047E-01  0.12885281514E+00  0.19943438209E-01 0.  0.
         14    1    1    2    0    0  0.56839657687E-02 -0.22168387559E-01 -0.78279492739E-02  0.24187221082E-01  0.00000000000E+00 0.  1.
     999901    1    3    3    0    0 -0.10902506745E+00  0.71555323641E-01 -0.47731518773E-01  0.89088996378E+00  0.88000000000E+00 0. -1.
        -11    1    4    4    0    0  0.85092996418E-01 -0.39754050199E-01  0.36523709681E-01  0.10077422804E+00  0.51100000000E-03 0. -1.
         11    1    4    4    0    0  0.18248105264E-01 -0.96328858839E-02  0.19035758366E-01  0.28078587104E-01  0.51100000000E-03 0.  1.
</event>
<event>
 8    1  0.1044719E+005  0.1043930E+01  0.7957747E-01            NaN
         13   -1    0    0    0    0  0.00000000000E+00  0.00000000000E+00  0.74505805969E-08  0.10566000000E+00  0.10566000000E+00 0. -1.
     999900   -1    0    0    0    0 -0.00000000000E+00 -0.00000000000E+00 -0.74505805969E-08  0.93827000000E+00  0.93827000000E+00 0. -1.
     999902    2    1    2    0    0 -0.36792248461E-02 -0.90828739826E-02  0.20333757793E-01  0.10213579597E+01  0.10211085079E+01 0.  0.
     999903    2    3    3    0    0 -0.37474772623E-01  0.12286262391E-01  0.12674039011E+00  0.13404676831E+00  0.18710926883E-01 0.  0.
         14    1    1    2    0    0  0.36792248461E-02  0.90828739826E-02 -0.20333757793E-01  0.22572040255E-01  0.00000000000E+00 0.  1.
     999901    1    3    3    0    0  0.33795547777E-01 -0.21369136373E-01 -0.10640663231E+00  0.88731119143E+00  0.88000000000E+00 0. -1.
        -11    1    4    4    0    0 -0.20333400388E-01 -0.26597159091E-02  0.51226398057E-01  0.55180850292E-01  0.51100000000E-03 0.  1.
         11    1    4    4    0    0 -0.17141372235E-01  0.14945978300E-01  0.75513992048E-01  0.78865918023E-01  0.51100000000E-03 0. -1.
</event>
<event>
 8    1  0.1044719E+005  0.1043930E+01  0.7957747E-01            NaN
         13   -1    0    0    0    0  0.00000000000E+00  0.00000000000E+00  0.74505805969E-08  0.10566000000E+00  0.10566000000E+00 0. -1.
     999900   -1    0    0    0    0 -0.00000000000E+00 -0.00000000000E+00 -0.74505805969E-08  0.93827000000E+00  0.93827000000E+00 0.  1.
     999902    2    1    2    0    0 -0.34096179473E-02  0.11829494344E-01 -0.18370909238E-01  0.10218154632E+01  0.10215761294E+01 0.  0.
     999903    2    3    3    0    0  0.80262569578E-01  0.73465737918E-01  0.70004696805E-01  0.13130420038E+00  0.22379471404E-01 0.  0.
         14    1    1    2    0    0  0.34096179473E-02 -0.11829494344E-01  0.18370909238E-01  0.22114536785E-01  0.00000000000E+00 0. -1.
     999901    1    3    3    0    0 -0.83672187525E-01 -0.61636243574E-01 -0.88375606043E-01  0.89051126283E+00  0.88000000000E+00 0.  1.
        -11    1    4    4    0    0  0.44740817183E-01  0.33865674050E-01  0.24232625069E-01  0.61123692949E-01  0.51100000000E-03 0.  1.
         11    1    4    4    0    0  0.35521752395E-01  0.39600063868E-01  0.45772071737E-01  0.70180507434E-01  0.51100000000E-03 0. -1.
</event>
<event>
 8    1  0.1044719E+005  0.1043930E+01  0.7957747E-01            NaN
         13   -1    0    0    0    0  0.00000000000E+00  0.00000000000E+00  0.74505805969E-08  0.10566000000E+00  0.10566000000E+00 0.  1.
     999900   -1    0    0    0    0 -0.00000000000E+00 -0.00000000000E+00 -0.74505805969E-08  0.93827000000E+00  0.93827000000E+00 0. -1.
     999902    2    1    2    0    0  0.14528087330E-01  0.60913534769E-02 -0.18398408022E-01  0.10197087010E+01  0.10194209943E+01 0.  0.
     999903    2    3    3    0    0 -0.45651412641E-01 -0.11463068033E+00  0.26964143136E-01  0.12827550510E+00  0.22434256050E-01 0.  0.
         14    1    1    2    0    0 -0.14528087330E-01 -0.60913534769E-02  0.18398408022E-01  0.24221299023E-01  0.00000000000E+00 0.  1.
     999901    1    3    3    0    0  0.60179499971E-01  0.12072203381E+00 -0.45362551158E-01  0.89143319588E+00  0.88000000000E+00 0. -1.
        -11    1    4    4    0    0 -0.29785437363E-01 -0.51250025520E-01  0.20023936862E-01  0.62569613737E-01  0.51100000000E-03 0.  1.
         11    1    4    4    0    0 -0.15865975278E-01 -0.63380654810E-01  0.69402062736E-02  0.65705891363E-01  0.51100000000E-03 0. -1.
</event>
<event>
 8    1  0.1044719E+005  0.1043930E+01  0.7957747E-01            NaN
         13   -1    0    0    0    0  0.00000000000E+00  0.00000000000E+00  0.74505805969E-08  0.10566000000E+00  0.10566000000E+00 0. -1.
     999900   -1    0    0    0    0 -0.00000000000E+00 -0.00000000000E+00 -0.74505805969E-08  0.93827000000E+00  0.93827000000E+00 0.  1.
     999902    2    1    2    0    0  0.14227311371E-01 -0.18529274765E-01  0.68234496701E-02  0.10195925828E+01  0.10193020774E+01 0.  0.
     999903    2    3    3    0    0 -0.57988993527E-01  0.18960429064E-01 -0.11084048037E+00  0.12804029994E+00  0.19659223785E-01 0.  0.
         14    1    1    2    0    0 -0.14227311371E-01  0.18529274765E-01 -0.68234496701E-02  0.24337417233E-01  0.00000000000E+00 0.  1.
     999901    1    3    3    0    0  0.72216304897E-01 -0.37489703829E-01  0.11766393004E+00  0.89155228283E+00  0.88000000000E+00 0.  1.
        -11    1    4    4    0    0 -0.90195066673E-02  0.91676757549E-02 -0.34424104362E-01  0.36751569509E-01  0.51100000000E-03 0.  1.
         11    1    4    4    0    0 -0.48969486859E-01  0.97927533094E-02 -0.76416376005E-01  0.91288730429E-01  0.51100000000E-03 0. -1.
</event>
<event>
 8    1  0.1044719E+005  0.1043930E+01  0.7957747E-01            NaN
         13   -1    0    0    0    0  0.00000000000E+00  0.00000000000E+00  0.74505805969E-08  0.10566000000E+00  0.10566000000E+00 0. -1.
     999900   -1    0    0    0    0 -0.00000000000E+00 -0.00000000000E+00 -0.74505805969E-08  0.93827000000E+00  0.93827000000E+00 0.  1.
     999902    2    1    2    0    0  0.20090373845E-01  0.12066214190E-01 -0.22241609652E-02  0.10203893216E+01  0.10201177403E+01 0.  0.
     999903    2    3    3    0    0  0.80951660000E-01 -0.10108059138E+00  0.62839528986E-03  0.13105562001E+00  0.20117739574E-01 0.  0.
         14    1    1    2    0    0 -0.20090373845E-01 -0.12066214190E-01  0.22241609652E-02  0.23540678369E-01  0.00000000000E+00 0. -1.
     999901    1    3    3    0    0 -0.60861286155E-01  0.11314680557E+00 -0.28525562551E-02  0.88933370162E+00  0.88000000000E+00 0.  1.
        -11    1    4    4    0    0  0.73713533378E-01 -0.80447961794E-01  0.21091253349E-02  0.10913417930E+00  0.51100000000E-03 0. -1.
         11    1    4    4    0    0  0.72381266222E-02 -0.20632629583E-01 -0.14807300450E-02  0.21921440714E-01  0.51100000000E-03 0.  1.
</event>
<event>
 8    1  0.1044719E+005  0.1043930E+01  0.7957747E-01            NaN
         13   -1    0    0    0    0  0.00000000000E+00  0.00000000000E+00  0.74505805969E-08  0.10566000000E+00  0.10566000000E+00 0.  1.
     999900   -1    0    0    0    0 -0.00000000000E+00 -0.00000000000E+00 -0.74505805969E-08  0.93827000000E+00  0.93827000000E+00 0. -1.
     999902    2    1    2    0    0 -0.18597567533E-01 -0.74003356461E-02  0.13619287988E-01  0.10197200952E+01  0.10194326623E+01 0.  0.
     999903    2    3    3    0    0  0.65353296845E-01 -0.89694462698E-01 -0.61814408138E-01  0.12870364557E+00  0.20675040074E-01 0.  0.
         14    1    1    2    0    0  0.18597567533E-01  0.74003356461E-02 -0.13619287988E-01  0.24209904814E-01  0.00000000000E+00 0. -1.
     999901    1    3    3    0    0 -0.83950864378E-01  0.82294127051E-01  0.75433696126E-01  0.89101644962E+00  0.88000000000E+00 0.  1.
        -11    1    4    4    0    0  0.42307811621E-01 -0.45954932797E-01 -0.26041407255E-01  0.67677343220E-01  0.51100000000E-03 0. -1.
         11    1    4    4    0    0  0.23045485225E-01 -0.43739529900E-01 -0.35773000884E-01  0.61026302349E-01  0.51100000000E-03 0.  1.
</event>
<event>
 8    1  0.1044719E+005  0.1043930E+01  0.7957747E-01            NaN
         13   -1    0    0    0    0  0.00000000000E+00  0.00000000000E+00  0.74505805969E-08  0.10566000000E+00  0.10566000000E+00 0.  1.
     999900   -1    0    0    0    0 -0.00000000000E+00 -0.00000000000E+00 -0.74505805969E-08  0.93827000000E+00  0.93827000000E+00 0. -1.
     999902    2    1    2    0    0 -0.15431673108E-01 -0.12737895847E-01  0.73514015049E-02  0.10226125511E+01  0.10223903344E+01 0.  0.
     999903    2    3    3    0    0  0.91921630720E-01  0.71985215908E-01 -0.53431823445E-01  0.12997749800E+00  0.20192392766E-01 0.  0.
         14    1    1    2    0    0  0.15431673108E-01  0.12737895847E-01 -0.73514015049E-02  0.21317448947E-01  0.00000000000E+00 0.  1.
     999901    1    3    3    0    0 -0.10735330383E+00 -0.84723111755E-01  0.60783224949E-01  0.89263505306E+00  0.88000000000E+00 0.  1.
        -11    1    4    4    0    0  0.60877213430E-01  0.54823629546E-01 -0.29021538889E-01  0.86914764638E-01  0.51100000000E-03 0. -1.
         11    1    4    4    0    0  0.31044417289E-01  0.17161586362E-01 -0.24410284556E-01  0.43062733360E-01  0.51100000000E-03 0.  1.
</event>
<event>
 8    1  0.1044719E+005  0.1043930E+01  0.7957747E-01            NaN
         13   -1    0    0    0    0  0.00000000000E+00  0.00000000000E+00  0.74505805969E-08  0.10566000000E+00  0.10566000000E+00 0. -1.
     999900   -1    0    0    0    0 -0.00000000000E+00 -0.00000000000E+00 -0.74505805969E-08  0.93827000000E+00  0.93827000000E+00 0.  1.
     999902    2    1    2    0    0  0.24156666019E-02 -0.71157484592E-02 -0.21802532120E-01  0.10208687830E+01  0.10206082757E+01 0.  0.
     999903    2    3    3    0    0  0.17232833497E-01 -0.48990243676E-01 -0.12192320000E+00  0.13407840762E+00  0.20365121294E-01 0.  0.
         14    1    1    2    0    0 -0.24156666019E-02  0.71157484592E-02  0.21802532120E-01  0.23061216969E-01  0.00000000000E+00 0. -1.
     999901    1    3    3    0    0 -0.14817166895E-01  0.41874495217E-01  0.10012066788E+00  0.88679037541E+00  0.88000000000E+00 0. -1.
        -11    1    4    4    0    0  0.29649549900E-02 -0.80480190192E-02 -0.44668005320E-01  0.45486848522E-01  0.51100000000E-03 0. -1.
         11    1    4    4    0    0  0.14267878507E-01 -0.40942224657E-01 -0.77255194682E-01  0.88591559098E-01  0.51100000000E-03 0.  1.
</event>
<event>
 8    1  0.1044719E+005  0.1043930E+01  0.7957747E-01            NaN
         13   -1    0    0    0    0  0.00000000000E+00  0.00000000000E+00  0.74505805969E-08  0.10566000000E+00  0.10566000000E+00 0.  1.
     999900   -1    0    0    0    0 -0.00000000000E+00 -0.00000000000E+00 -0.74505805969E-08  0.93827000000E+00  0.93827000000E+00 0.  1.
     999902    2    1    2    0    0 -0.60109967852E-02  0.95726428345E-02  0.21060015067E-01  0.10200282886E+01  0.10197482129E+01 0.  0.
     999903    2    3    3    0    0  0.28290838645E-01 -0.92762353152E-01 -0.80586891062E-01  0.12762638315E+00  0.19723614087E-01 0.  0.
         14    1    1    2    0    0  0.60109967852E-02 -0.95726428345E-02 -0.21060015067E-01  0.23901711400E-01  0.00000000000E+00 0. -1.
     999901    1    3    3    0    0 -0.34301835430E-01  0.10233499599E+00  0.10164690613E+00  0.89240190545E+00  0.88000000000E+00 0. -1.
        -11    1    4    4    0    0  0.25268080468E-02 -0.39111329430E-01 -0.36485053255E-01  0.53549053033E-01  0.51100000000E-03 0. -1.
         11    1    4    4    0    0  0.25764030598E-01 -0.53651023722E-01 -0.44101837806E-01  0.74077330122E-01  0.51100000000E-03 0.  1.
</event>
<event>
 8    1  0.1044719E+005  0.1043930E+01  0.7957747E-01            NaN
         13   -1    0    0    0    0  0.00000000000E+00  0.00000000000E+00  0.74505805969E-08  0.10566000000E+00  0.10566000000E+00 0. -1.
     999900   -1    0    0    0    0 -0.00000000000E+00 -0.00000000000E+00 -0.74505805969E-08  0.93827000000E+00  0.93827000000E+00 0.  1.
     999902    2    1    2    0    0 -0.16599211062E-01 -0.48138356686E-02 -0.17310892957E-01  0.10194683190E+01  0.10191748033E+01 0.  0.
     999903    2    3    3    0    0 -0.27044743136E-01 -0.42854010897E-01  0.11635720120E+00  0.12850068578E+00  0.20138112992E-01 0.  0.
         14    1    1    2    0    0  0.16599211062E-01  0.48138356686E-02  0.17310892957E-01  0.24461680987E-01  0.00000000000E+00 0. -1.
     999901    1    3    3    0    0  0.10445532073E-01  0.38040175229E-01 -0.13366809415E+00  0.89096763323E+00  0.88000000000E+00 0.  1.
        -11    1    4    4    0    0 -0.14118415717E-01 -0.23359873857E-01  0.38446846809E-01  0.47153308681E-01  0.51100000000E-03 0.  1.
         11    1    4    4    0    0 -0.12926327419E-01 -0.19494137040E-01  0.77910354387E-01  0.81347377100E-01  0.51100000000E-03 0. -1.
</event>
<event>
 8    1  0.1044719E+005  0.1043930E+01  0.7957747E-01            NaN
         13   -1    0    0    0    0  0.00000000000E+00  0.00000000000E+00  0.74505805969E-08  0.10566000000E+00  0.10566000000E+00 0. -1.
     999900   -1    0    0    0    0 -0.00000000000E+00 -0.00000000000E+00 -0.74505805969E-08  0.93827000000E+00  0.93827000000E+00 0.  1.
     999902    2    1    2    0    0 -0.83447549991E-02  0.22506721408E-01  0.10367280459E-01  0.10177829553E+01  0.10174470385E+01 0.  0.
     999903    2    3    3    0    0  0.99555579428E-01  0.74516517821E-01 -0.27960204885E-01  0.12884173267E+00  0.18825360448E-01 0.  0.
         14    1    1    2    0    0  0.83447549991E-02 -0.22506721408E-01 -0.10367280459E-01  0.26147044740E-01  0.00000000000E+00 0.  1.
     999901    1    3    3    0    0 -0.10790033443E+00 -0.52009796413E-01  0.38327485344E-01  0.88894122259E+00  0.88000000000E+00 0.  1.
        -11    1    4    4    0    0  0.66581128994E-01  0.55397560095E-01 -0.26941084469E-01  0.90708431559E-01  0.51100000000E-03 0.  1.
         11    1    4    4    0    0  0.32974450434E-01  0.19118957726E-01 -0.10191204165E-02  0.38133301108E-01  0.51100000000E-03 0. -1.
</event>
<event>
 8    1  0.1044719E+005  0.1043930E+01  0.7957747E-01            NaN
         13   -1    0    0    0    0  0.00000000000E+00  0.00000000000E+00  0.74505805969E-08  0.10566000000E+00  0.10566000000E+00 0. -1.
     999900   -1    0    0    0    0 -0.00000000000E+00 -0.00000000000E+00 -0.74505805969E-08  0.93827000000E+00  0.93827000000E+00 0. -1.
     999902    2    1    2    0    0  0.11927059953E-01  0.12484090105E-01  0.16016263072E-01  0.10203794597E+01  0.10201076482E+01 0.  0.
     999903    2    3    3    0    0  0.94658489914E-01  0.40606647838E-01 -0.78615857825E-01  0.13100293312E+00  0.19292118147E-01 0.  0.
         14    1    1    2    0    0 -0.11927059953E-01 -0.12484090105E-01 -0.16016263072E-01  0.23550540284E-01  0.00000000000E+00 0.  1.
     999901    1    3    3    0    0 -0.82731429961E-01 -0.28122557734E-01  0.94632120898E-01  0.88937652660E+00  0.88000000000E+00 0.  1.
        -11    1    4    4    0    0  0.12737583241E-02  0.32702010278E-02 -0.59438808118E-02  0.69215254920E-02  0.51100000000E-03 0.  1.
         11    1    4    4    0    0  0.93384731590E-01  0.37336446810E-01 -0.72671977013E-01  0.12408140763E+00  0.51100000000E-03 0. -1.
</event>
<event>
 8    1  0.1044719E+005  0.1043930E+01  0.7957747E-01            NaN
         13   -1    0    0    0    0  0.00000000000E+00  0.00000000000E+00  0.74505805969E-08  0.10566000000E+00  0.10566000000E+00 0.  1.
     999900   -1    0    0    0    0 -0.00000000000E+00 -0.00000000000E+00 -0.74505805969E-08  0.93827000000E+00  0.93827000000E+00 0. -1.
     999902    2    1    2    0    0  0.89297444072E-02  0.18887212826E-02 -0.22589627772E-01  0.10195661151E+01  0.10192749699E+01 0.  0.
     999903    2    3    3    0    0 -0.41496605229E-01 -0.39819540446E-01  0.11151659900E+00  0.12700414199E+00  0.19660523456E-01 0.  0.
         14    1    1    2    0    0 -0.89297444072E-02 -0.18887212826E-02  0.22589627772E-01  0.24363884873E-01  0.00000000000E+00 0.  1.
     999901    1    3    3    0    0  0.50426349637E-01  0.41708261729E-01 -0.13410622677E+00  0.89256197314E+00  0.88000000000E+00 0. -1.
        -11    1    4    4    0    0 -0.30860172288E-01 -0.16226405143E-01  0.62222307711E-01  0.71326875408E-01  0.51100000000E-03 0.  1.
         11    1    4    4    0    0 -0.10636432942E-01 -0.23593135304E-01  0.49294291289E-01  0.55677266580E-01  0.51100000000E-03 0. -1.
</event>
<event>
 8    1  0.1044719E+005  0.1043930E+01  0.7957747E-01            NaN
         13   -1    0    0    0    0  0.00000000000E+00  0.00000000000E+00  0.74505805969E-08  0.10566000000E+00  0.10566000000E+00 0.  1.
     999900   -1    0    0    0    0 -0.00000000000E+00 -0.00000000000E+00 -0.74505805969E-08  0.93827000000E+00  0.93827000000E+00 0. -1.
     999902    2    1    2    0    0 -0.19957554380E-01 -0.32979561080E-02 -0.12192840105E-01  0.10203112396E+01  0.10200378326E+01 0.  0.
     999903    2    3    3    0    0  0.66354725818E-01  0.62888233234E-01  0.87341450662E-01  0.12804586632E+00  0.20232037987E-01 0.  0.
         14    1    1    2    0    0  0.19957554380E-01  0.32979561080E-02  0.12192840105E-01  0.23618760365E-01  0.00000000000E+00 0. -1.
     999901    1    3    3    0    0 -0.86312280198E-01 -0.66186189342E-01 -0.99534290768E-01  0.89226537331E+00  0.88000000000E+00 0. -1.
        -11    1    4    4    0    0  0.56930840978E-01  0.45473871192E-01  0.60622414244E-01  0.94785715408E-01  0.51100000000E-03 0. -1.
         11    1    4    4    0    0  0.94238848399E-02  0.17414362042E-01  0.26719036418E-01  0.33260150916E-01  0.51100000000E-03 0.  1.
</event>
<event>
 8    1  0.1044719E+005  0.1043930E+01  0.7957747E-01            NaN
         13   -1    0    0    0    0  0.00000000000E+00  0.00000000000E+00  0.74505805969E-08  0.10566000000E+00  0.10566000000E+00 0.  1.
     999900   -1    0    0    0    0 -0.00000000000E+00 -0.00000000000E+00 -0.74505805969E-08  0.93827000000E+00  0.93827000000E+00 0. -1.
     999902    2    1    2    0    0 -0.21744312338E-02 -0.13444742516E-01 -0.18381504549E-01  0.10210527414E+01  0.10207964203E+01 0.  0.
     999903    2    3    3    0    0 -0.11512201249E+00 -0.58900211644E-01 -0.22517455595E-01  0.13266067597E+00  0.19222550640E-01 0.  0.
         14    1    1    2    0    0  0.21744312338E-02  0.13444742516E-01  0.18381504549E-01  0.22877258620E-01  0.00000000000E+00 0.  1.
     999901    1    3    3    0    0  0.11294758125E+00  0.45455469128E-01  0.41359510463E-02  0.88839206541E+00  0.88000000000E+00 0.  1.
        -11    1    4    4    0    0 -0.69608294130E-01 -0.37526837996E-01 -0.43722039694E-02  0.79201991580E-01  0.51100000000E-03 0. -1.
         11    1    4    4    0    0 -0.45513718355E-01 -0.21373373648E-01 -0.18145251626E-01  0.53458684394E-01  0.51100000000E-03 0.  1.
</event>
<event>
 8    1  0.1044719E+005  0.1043930E+01  0.7957747E-01            NaN
         13   -1    0    0    0    0  0.00000000000E+00  0.00000000000E+00  0.74505805969E-08  0.10566000000E+00  0.10566000000E+00 0. -1.
     999900   -1    0    0    0    0 -0.00000000000E+00 -0.00000000000E+00 -0.74505805969E-08  0.93827000000E+00  0.93827000000E+00 0. -1.
     999902    2    1    2    0    0  0.13456393056E-01 -0.17794423014E-02 -0.19456662596E-01  0.10202065380E+01  0.10199306729E+01 0.  0.
     999903    2    3    3    0    0  0.20848922210E-01  0.10354524543E+00 -0.76694540483E-01  0.13204883018E+00  0.19963606959E-01 0.  0.
         14    1    1    2    0    0 -0.13456393056E-01  0.17794423014E-02  0.19456662596E-01  0.23723461981E-01  0.00000000000E+00 0. -1.
     999901    1    3    3    0    0 -0.73925291539E-02 -0.10532468773E+00  0.57237877887E-01  0.88815770784E+00  0.88000000000E+00 0.  1.
        -11    1    4    4    0    0  0.46913567853E-02  0.24566226112E-01 -0.29326260388E-01  0.38546062875E-01  0.51100000000E-03 0. -1.
         11    1    4    4    0    0  0.16157565425E-01  0.78979019319E-01 -0.47368280095E-01  0.93502767302E-01  0.51100000000E-03 0.  1.
</event>
<event>
 8    1  0.1044719E+005  0.1043930E+01  0.7957747E-01            NaN
         13   -1    0    0    0    0  0.00000000000E+00  0.00000000000E+00  0.74505805969E-08  0.10566000000E+00  0.10566000000E+00 0. -1.
     999900   -1    0    0    0    0 -0.00000000000E+00 -0.00000000000E+00 -0.74505805969E-08  0.93827000000E+00  0.93827000000E+00 0.  1.
     999902    2    1    2    0    0 -0.10824340389E-01  0.20782655212E-01 -0.48302489264E-02  0.10200047747E+01  0.10197241411E+01 0.  0.
     999903    2    3    3    0    0 -0.12398882457E+00 -0.34059322290E-01 -0.15705281091E-01  0.13099852649E+00  0.19511330962E-01 0.  0.
         14    1    1    2    0    0  0.10824340389E-01 -0.20782655212E-01  0.48302489264E-02  0.23925225333E-01  0.00000000000E+00 0. -1.
     999901    1    3    3    0    0  0.11316448418E+00  0.54841977502E-01  0.10875032165E-01  0.88900624818E+00  0.88000000000E+00 0. -1.
        -11    1    4    4    0    0 -0.73107655161E-01 -0.16858894724E-01 -0.18285983702E-01  0.77224283069E-01  0.51100000000E-03 0. -1.
         11    1    4    4    0    0 -0.50881169405E-01 -0.17200427565E-01  0.25807026106E-02  0.53774243420E-01  0.51100000000E-03 0.  1.
</event>
<event>
 8    1  0.1044719E+005  0.1043930E+01  0.7957747E-01            NaN
         13   -1    0    0    0    0  0.00000000000E+00  0.00000000000E+00  0.74505805969E-08  0.10566000000E+00  0.10566000000E+00 0. -1.
     999900   -1    0    0    0    0 -0.00000000000E+00 -0.00000000000E+00 -0.74505805969E-08  0.93827000000E+00  0.93827000000E+00 0.  1.
     999902    2    1    2    0    0  0.21495117119E-02  0.21116863223E-01 -0.89755025590E-02  0.10208843505E+01  0.10206241988E+01 0.  0.
     999903    2    3    3    0    0 -0.11880750497E+00  0.33203072042E-01  0.40133489631E-01  0.13117182986E+00  0.19434112522E-01 0.  0.
         14    1    1    2    0    0 -0.21495117119E-02 -0.21116863223E-01  0.89755025590E-02  0.23045649463E-01  0.00000000000E+00 0.  1.
     999901    1    3    3    0    0  0.12095701668E+00 -0.12086208818E-01 -0.49108992190E-01  0.88971252067E+00  0.88000000000E+00 0. -1.
        -11    1    4    4    0    0 -0.54656573269E-01  0.53517302662E-02  0.18908651317E-01  0.58084251170E-01  0.51100000000E-03 0. -1.
         11    1    4    4    0    0 -0.64150931701E-01  0.27851341775E-01  0.21224838315E-01  0.73087578694E-01  0.51100000000E-03 0.  1.
</event>
<event>
 8    1  0.1044719E+005  0.1043930E+01  0.7957747E-01            NaN
         13   -1    0    0    0    0  0.00000000000E+00  0.00000000000E+00  0.74505805969E-08  0.10566000000E+00  0.10566000000E+00 0. -1.
     999900   -1    0    0    0    0 -0.00000000000E+00 -0.00000000000E+00 -0.74505805969E-08  0.93827000000E+00  0.93827000000E+00 0.  1.
     999902    2    1    2    0    0  0.11765515904E-01 -0.23118038158E-01  0.14488779479E-01  0.10142181205E+01  0.10137828171E+01 0.  0.
     999903    2    3    3    0    0 -0.72241506229E-01 -0.48430377160E-01 -0.86308950460E-01  0.12412931783E+00  0.19862425870E-01 0.  0.
         14    1    1    2    0    0 -0.11765515904E-01  0.23118038158E-01 -0.14488779479E-01  0.29711879502E-01  0.00000000000E+00 0.  1.
     999901    1    3    3    0    0  0.84007022132E-01  0.25312339002E-01  0.10079772994E+00  0.89008880267E+00  0.88000000000E+00 0. -1.
        -11    1    4    4    0    0 -0.40664323533E-01 -0.36389000087E-01 -0.61382028873E-01  0.82132582605E-01  0.51100000000E-03 0. -1.
         11    1    4    4    0    0 -0.31577182696E-01 -0.12041377074E-01 -0.24926921587E-01  0.41996735225E-01  0.51100000000E-03 0.  1.
</event>
<event>
 8    1  0.1044719E+005  0.1043930E+01  0.7957747E-01            NaN
         13   -1    0    0    0    0  0.00000000000E+00  0.00000000000E+00  0.74505805969E-08  0.10566000000E+00  0.10566000000E+00 0.  1.
     999900   -1    0    0    0    0 -0.00000000000E+00 -0.00000000000E+00 -0.74505805969E-08  0.93827000000E+00  0.93827000000E+00 0. -1.
     999902    2    1    2    0    0  0.50755786927E-02  0.10236135442E-01 -0.20643363797E-01  0.10203357542E+01  0.10200629210E+01 0.  0.
     999903    2    3    3    0    0 -0.83650012457E-01  0.98514719290E-01  0.81533737876E-02  0.13101320807E+00  0.19887400126E-01 0.  0.
         14    1    1    2    0    0 -0.50755786927E-02 -0.10236135442E-01  0.20643363797E-01  0.23594245839E-01  0.00000000000E+00 0. -1.
     999901    1    3    3    0    0  0.88725591150E-01 -0.88278583848E-01 -0.28796737584E-01  0.88932254609E+00  0.88000000000E+00 0.  1.
        -11    1    4    4    0    0 -0.58886392239E-01  0.57111214558E-01 -0.28329910020E-03  0.82034379370E-01  0.51100000000E-03 0.  1.
         11    1    4    4    0    0 -0.24763620218E-01  0.41403504732E-01  0.84366728878E-02  0.48978828700E-01  0.51100000000E-03 0. -1.
</event>
<event>
 8    1  0.1044719E+005  0.1043930E+01  0.7957747E-01            NaN
         13   -1    0    0    0    0  0.00000000000E+00  0.00000000000E+00  0.74505805969E-08  0.10566000000E+00  0.10566000000E+00 0.  1.
     999900   -1    0    0    0    0 -0.00000000000E+00 -0.00000000000E+00 -0.74505805969E-08  0.93827000000E+00  0.93827000000E+00 0.  1.
     999902    2    1    2    0    0 -0.15103091976E-01  0.13588013617E-01  0.13730754397E-01  0.10194091697E+01  0.10191142155E+01 0.  0.
     999903    2    3    3    0    0 -0.89056612323E-01  0.40140851525E-02 -0.92997939911E-01  0.12982960753E+00  0.16121944227E-01 0.  0.
         14    1    1    2    0    0  0.15103091976E-01 -0.13588013617E-01 -0.13730754397E-01  0.24520830279E-01  0.00000000000E+00 0.  1.
     999901    1    3    3    0    0  0.73953520348E-01  0.95739284643E-02  0.10672869431E+00  0.88957956219E+00  0.88000000000E+00 0. -1.
        -11    1    4    4    0    0 -0.48858518273E-02  0.41002747636E-02 -0.73219469313E-02  0.97239821617E-02  0.51100000000E-03 0.  1.
         11    1    4    4    0    0 -0.84170760496E-01 -0.86189611113E-04 -0.85675992980E-01  0.12010562537E+00  0.51100000000E-03 0. -1.
</event>
<event>
 8    1  0.1044719E+005  0.1043930E+01  0.7957747E-01            NaN
         13   -1    0    0    0    0  0.00000000000E+00  0.00000000000E+00  0.74505805969E-08  0.10566000000E+00  0.10566000000E+00 0. -1.
     999900   -1    0    0    0    0 -0.00000000000E+00 -0.00000000000E+00 -0.74505805969E-08  0.93827000000E+00  0.93827000000E+00 0.  1.
     999902    2    1    2    0    0  0.83214791079E-02 -0.11022277722E-01  0.19270127941E-01  0.10202218695E+01  0.10199463650E+01 0.  0.
     999903    2    3    3    0    0  0.71686354779E-02  0.89193587958E-01  0.95443859980E-01  0.13126349802E+00  0.10662553013E-01 0.  0.
         14    1    1    2    0    0 -0.83214791079E-02  0.11022277722E-01 -0.19270127941E-01  0.23708130496E-01  0.00000000000E+00 0.  1.
     999901    1    3    3    0    0  0.11528436301E-02 -0.10021586568E+00 -0.76173732039E-01  0.88895837149E+00  0.88000000000E+00 0.  1.
        -11    1    4    4    0    0 -0.11613422669E-03  0.48415117119E-01  0.46360062162E-01  0.67033973010E-01  0.51100000000E-03 0.  1.
         11    1    4    4    0    0  0.72847697046E-02  0.40778470838E-01  0.49083797818E-01  0.64229525008E-01  0.51100000000E-03 0. -1.
</event>
<event>
 8    1  0.1044719E+005  0.1043930E+01  0.7957747E-01            NaN
         13   -1    0    0    0    0  0.00000000000E+00  0.00000000000E+00  0.74505805969E-08  0.10566000000E+00  0.10566000000E+00 0.  1.
     999900   -1    0    0    0    0 -0.00000000000E+00 -0.00000000000E+00 -0.74505805969E-08  0.93827000000E+00  0.93827000000E+00 0.  1.
     999902    2    1    2    0    0 -0.35566878292E-02 -0.16230797791E-01 -0.10155837322E-01  0.10244561751E+01  0.10242710700E+01 0.  0.
     999903    2    3    3    0    0 -0.29242349393E-02  0.10371773424E+00 -0.81407758242E-01  0.13346521746E+00  0.20489549109E-01 0.  0.
         14    1    1    2    0    0  0.35566878292E-02  0.16230797791E-01  0.10155837322E-01  0.19473824918E-01  0.00000000000E+00 0.  1.
     999901    1    3    3    0    0 -0.63245288992E-03 -0.11994853203E+00  0.71251920920E-01  0.89099095762E+00  0.88000000000E+00 0. -1.
        -11    1    4    4    0    0  0.43157046445E-02  0.78604869064E-01 -0.68295126192E-01  0.10422013303E+00  0.51100000000E-03 0.  1.
         11    1    4    4    0    0 -0.72399395837E-02  0.25112865178E-01 -0.13112632051E-01  0.29245084424E-01  0.51100000000E-03 0. -1.
</event>
<event>
 8    1  0.1044719E+005  0.1043930E+01  0.7957747E-01            NaN
         13   -1    0    0    0    0  0.00000000000E+00  0.00000000000E+00  0.74505805969E-08  0.10566000000E+00  0.10566000000E+00 0.  1.
     999900   -1    0    0    0    0 -0.00000000000E+00 -0.00000000000E+00 -0.74505805969E-08  0.93827000000E+00  0.93827000000E+00 0.  1.
     999902    2    1    2    0    0 -0.88091652167E-02 -0.12479625666E-01  0.18205872499E-01  0.10201645578E+01  0.10198877040E+01 0.  0.
     999903    2    3    3    0    0  0.11398943520E+00 -0.58387469494E-01  0.13129226113E-01  0.13043830850E+00  0.20954422350E-01 0.  0.
         14    1    1    2    0    0  0.88091652167E-02  0.12479625666E-01 -0.18205872499E-01  0.23765442180E-01  0.00000000000E+00 0. -1.
     999901    1    3    3    0    0 -0.12279860041E+00  0.45907843828E-01  0.50766463860E-02  0.88972624932E+00  0.88000000000E+00 0.  1.
        -11    1    4    4    0    0  0.19662716433E-01 -0.22391662920E-02  0.46612581400E-02  0.20337766142E-01  0.51100000000E-03 0. -1.
         11    1    4    4    0    0  0.94326718764E-01 -0.56148303202E-01  0.84679679725E-02  0.11010054236E+00  0.51100000000E-03 0.  1.
</event>
<event>
 8    1  0.1044719E+005  0.1043930E+01  0.7957747E-01            NaN
         13   -1    0    0    0    0  0.00000000000E+00  0.00000000000E+00  0.74505805969E-08  0.10566000000E+00  0.10566000000E+00 0.  1.
     999900   -1    0    0    0    0 -0.00000000000E+00 -0.00000000000E+00 -0.74505805969E-08  0.93827000000E+00  0.93827000000E+00 0.  1.
     999902    2    1    2    0    0  0.20963538218E-01  0.73653596997E-03  0.11604397902E-01  0.10199576311E+01  0.10196758773E+01 0.  0.
     999903    2    3    3    0    0  0.23918378647E-01  0.12394276741E+00 -0.27053677771E-01  0.13052918915E+00  0.19289098178E-01 0.  0.
         14    1    1    2    0    0 -0.20963538218E-01 -0.73653596997E-03 -0.11604397902E-01  0.23972368897E-01  0.00000000000E+00 0. -1.
     999901    1    3    3    0    0 -0.29548404288E-02 -0.12320623144E+00  0.38658075673E-01  0.88942844196E+00  0.88000000000E+00 0.  1.
        -11    1    4    4    0    0  0.92679303308E-02  0.23360886255E-01 -0.11717457030E-01  0.27734192967E-01  0.51100000000E-03 0.  1.
         11    1    4    4    0    0  0.14650448316E-01  0.10058188115E+00 -0.15336220741E-01  0.10279499618E+00  0.51100000000E-03 0. -1.
</event>
<event>
 8    1  0.1044719E+005  0.1043930E+01  0.7957747E-01            NaN
         13   -1    0    0    0    0  0.00000000000E+00  0.00000000000E+00  0.74505805969E-08  0.10566000000E+00  0.10566000000E+00 0.  1.
     999900   -1    0    0    0    0 -0.00000000000E+00 -0.00000000000E+00 -0.74505805969E-08  0.93827000000E+00  0.93827000000E+00 0. -1.
     999902    2    1    2    0    0  0.25061207576E-01  0.30756789661E-02 -0.51231711755E-02  0.10181662501E+01  0.10178402340E+01 0.  0.
     999903    2    3    3    0    0  0.25371792484E-01  0.90854728176E-01 -0.87014195071E-01  0.13001570107E+00  0.20839935089E-01 0.  0.
         14    1    1    2    0    0 -0.25061207576E-01 -0.30756789661E-02  0.51231711755E-02  0.25763749905E-01  0.00000000000E+00 0. -1.
     999901    1    3    3    0    0 -0.31058490842E-03 -0.87779049210E-01  0.81891023896E-01  0.88815054903E+00  0.88000000000E+00 0. -1.
        -11    1    4    4    0    0  0.28321998897E-01  0.71141055604E-01 -0.71292752580E-01  0.10462362594E+00  0.51100000000E-03 0. -1.
         11    1    4    4    0    0 -0.29502064131E-02  0.19713672572E-01 -0.15721442491E-01  0.25392075125E-01  0.51100000000E-03 0.  1.
</event>
<event>
 8    1  0.1044719E+005  0.1043930E+01  0.7957747E-01            NaN
         13   -1    0    0    0    0  0.00000000000E+00  0.00000000000E+00  0.74505805969E-08  0.10566000000E+00  0.10566000000E+00 0.  1.
     999900   -1    0    0    0    0 -0.00000000000E+00 -0.00000000000E+00 -0.74505805969E-08  0.93827000000E+00  0.93827000000E+00 0.  1.
     999902    2    1    2    0    0 -0.23347953657E-01  0.60716997280E-03  0.57585911395E-02  0.10198747102E+01  0.10195909805E+01 0.  0.
     999903    2    3    3    0    0 -0.28523194386E-01  0.11543529413E+00 -0.50154793347E-01  0.13063987745E+00  0.20307499524E-01 0.  0.
         14    1    1    2    0    0  0.23347953657E-01 -0.60716997280E-03 -0.57585911395E-02  0.24055289798E-01  0.00000000000E+00 0. -1.
     999901    1    3    3    0    0  0.51752407284E-02 -0.11482812415E+00  0.55913384486E-01  0.88923483275E+00  0.88000000000E+00 0. -1.
        -11    1    4    4    0    0 -0.74466204716E-02  0.10103267104E-01 -0.96331525959E-02  0.15829937225E-01  0.51100000000E-03 0.  1.
         11    1    4    4    0    0 -0.21076573914E-01  0.10533202702E+00 -0.40521640751E-01  0.11480994023E+00  0.51100000000E-03 0. -1.
</event>
<event>
 8    1  0.1044719E+005  0.1043930E+01  0.7957747E-01            NaN
         13   -1    0    0    0    0  0.00000000000E+00  0.00000000000E+00  0.74505805969E-08  0.10566000000E+00  0.10566000000E+00 0.  1.
     999900   -1    0    0    0    0 -0.00000000000E+00 -0.00000000000E+00 -0.74505805969E-08  0.93827000000E+00  0.93827000000E+00 0.  1.
     999902    2    1    2    0    0 -0.85077537983E-03  0.97874003114E-02  0.23242027073E-01  0.10186969097E+01  0.10183843503E+01 0.  0.
     999903    2    3    3    0    0  0.10642021410E+00  0.38093694375E-01  0.62909600111E-01  0.13084454144E+00  0.19654127303E-01 0.  0.
         14    1    1    2    0    0  0.85077537983E-03 -0.97874003114E-02 -0.23242027073E-01  0.25233090299E-01  0.00000000000E+00 0. -1.
     999901    1    3    3    0    0 -0.10727098948E+00 -0.28306294063E-01 -0.39667573038E-01  0.88785236826E+00  0.88000000000E+00 0.  1.
        -11    1    4    4    0    0  0.49983120027E-01  0.28161992067E-01  0.29560618914E-01  0.64540695661E-01  0.51100000000E-03 0.  1.
         11    1    4    4    0    0  0.56437094070E-01  0.99317023081E-02  0.33348981197E-01  0.66303845784E-01  0.51100000000E-03 0. -1.
</event>
<event>
 8    1  0.1044719E+005  0.1043930E+01  0.7957747E-01            NaN
         13   -1    0    0    0    0  0.00000000000E+00  0.00000000000E+00  0.74505805969E-08  0.10566000000E+00  0.10566000000E+00 0. -1.
     999900   -1    0    0    0    0 -0.00000000000E+00 -0.00000000000E+00 -0.74505805969E-08  0.93827000000E+00  0.93827000000E+00 0. -1.
     999902    2    1    2    0    0  0.28359571093E-02 -0.14591173024E-01  0.18473742893E-01  0.10202187335E+01  0.10199431553E+01 0.  0.
     999903    2    3    3    0    0 -0.67748521453E-01 -0.24567240509E-01 -0.10490840856E+00  0.12875653809E+00  0.19469474785E-01 0.  0.
         14    1    1    2    0    0 -0.28359571093E-02  0.14591173024E-01 -0.18473742893E-01  0.23711266508E-01  0.00000000000E+00 0.  1.
     999901    1    3    3    0    0  0.70584478563E-01  0.99760674848E-02  0.12338215145E+00  0.89146219540E+00  0.88000000000E+00 0. -1.
        -11    1    4    4    0    0 -0.38752009405E-01 -0.81896057035E-02 -0.70519449905E-01  0.80882889479E-01  0.51100000000E-03 0.  1.
         11    1    4    4    0    0 -0.28996512048E-01 -0.16377634806E-01 -0.34388958656E-01  0.47873648609E-01  0.51100000000E-03 0. -1.
</event>
<event>
 8    1  0.1044719E+005  0.1043930E+01  0.7957747E-01            NaN
         13   -1    0    0    0    0  0.00000000000E+00  0.00000000000E+00  0.74505805969E-08  0.10566000000E+00  0.10566000000E+00 0. -1.
     999900   -1    0    0    0    0 -0.00000000000E+00 -0.00000000000E+00 -0.74505805969E-08  0.93827000000E+00  0.93827000000E+00 0.  1.
     999902    2    1    2    0    0 -0.31414870361E-02  0.19198736893E-01 -0.23531868489E-01  0.10133978977E+01  0.10129378509E+01 0.  0.
     999903    2    3    3    0    0 -0.52147565863E-01  0.69546113999E-01 -0.91729711146E-01  0.12796726802E+00  0.20130851467E-01 0.  0.
         14    1    1    2    0    0  0.31414870361E-02 -0.19198736893E-01  0.23531868489E-01  0.30532102346E-01  0.00000000000E+00 0. -1.
     999901    1    3    3    0    0  0.49006078827E-01 -0.50347377107E-01  0.68197842657E-01  0.88543062963E+00  0.88000000000E+00 0. -1.
        -11    1    4    4    0    0 -0.30329673808E-01  0.38796167861E-01 -0.37420972685E-01  0.61851613331E-01  0.51100000000E-03 0. -1.
         11    1    4    4    0    0 -0.21817892056E-01  0.30749946138E-01 -0.54308738461E-01  0.66115654693E-01  0.51100000000E-03 0.  1.
</event>
<event>
 8    1  0.1044719E+005  0.1043930E+01  0.7957747E-01            NaN
         13   -1    0    0    0    0  0.00000000000E+00  0.00000000000E+00  0.74505805969E-08  0.10566000000E+00  0.10566000000E+00 0. -1.
     999900   -1    0    0    0    0 -0.00000000000E+00 -0.00000000000E+00 -0.74505805969E-08  0.93827000000E+00  0.93827000000E+00 0.  1.
     999902    2    1    2    0    0 -0.10619599112E-01 -0.21234214063E-01  0.40211262244E-04  0.10201882783E+01  0.10199119834E+01 0.  0.
     999903    2    3    3    0    0 -0.11270698959E+00  0.52775094896E-01  0.33896980228E-01  0.13055605434E+00  0.20194105883E-01 0.  0.
         14    1    1    2    0    0  0.10619599112E-01  0.21234214063E-01 -0.40211262244E-04  0.23741721697E-01  0.00000000000E+00 0. -1.
     999901    1    3    3    0    0  0.10208739048E+00 -0.74009308959E-01 -0.33856768965E-01  0.88963222396E+00  0.88000000000E+00 0. -1.
        -11    1    4    4    0    0 -0.58169171642E-01  0.16422169615E-01  0.18708943384E-01  0.63274211713E-01  0.51100000000E-03 0. -1.
         11    1    4    4    0    0 -0.54537817949E-01  0.36352925281E-01  0.15188036843E-01  0.67281842627E-01  0.51100000000E-03 0.  1.
</event>
<event>
 8    1  0.1044719E+005  0.1043930E+01  0.7957747E-01            NaN
         13   -1    0    0    0    0  0.00000000000E+00  0.00000000000E+00  0.74505805969E-08  0.10566000000E+00  0.10566000000E+00 0.  1.
     999900   -1    0    0    0    0 -0.00000000000E+00 -0.00000000000E+00 -0.74505805969E-08  0.93827000000E+00  0.93827000000E+00 0.  1.
     999902    2    1    2    0    0  0.20262418177E-01  0.10067190792E-01  0.24306073874E-02  0.10211743024E+01  0.10209207286E+01 0.  0.
     999903    2    3    3    0    0  0.75701756171E-01 -0.54855121700E-01 -0.91126426532E-01  0.13210661912E+00  0.20206259916E-01 0.  0.
         14    1    1    2    0    0 -0.20262418177E-01 -0.10067190792E-01 -0.24306073874E-02  0.22755697596E-01  0.00000000000E+00 0. -1.
     999901    1    3    3    0    0 -0.55439337994E-01  0.64922312492E-01  0.93557033919E-01  0.88906768328E+00  0.88000000000E+00 0.  1.
        -11    1    4    4    0    0  0.28331902725E-01 -0.93859687679E-02 -0.25303912392E-01  0.39132367997E-01  0.51100000000E-03 0.  1.
         11    1    4    4    0    0  0.47369853446E-01 -0.45469152932E-01 -0.65822514140E-01  0.92974251127E-01  0.51100000000E-03 0. -1.
</event>
<event>
 8    1  0.1044719E+005  0.1043930E+01  0.7957747E-01            NaN
         13   -1    0    0    0    0  0.00000000000E+00  0.00000000000E+00  0.74505805969E-08  0.10566000000E+00  0.10566000000E+00 0. -1.
     999900   -1    0    0    0    0 -0.00000000000E+00 -0.00000000000E+00 -0.74505805969E-08  0.93827000000E+00  0.93827000000E+00 0. -1.
     999902    2    1    2    0    0 -0.10206452231E-01 -0.51199966885E-02  0.20229599127E-01  0.10207002192E+01  0.10204358455E+01 0.  0.
     999903    2    3    3    0    0  0.12885806619E-01 -0.35874877476E-01  0.12632478830E+00  0.13349375833E+00  0.20238095987E-01 0.  0.
         14    1    1    2    0    0  0.10206452231E-01  0.51199966885E-02 -0.20229599127E-01  0.23229780759E-01  0.00000000000E+00 0.  1.
     999901    1    3    3    0    0 -0.23092258850E-01  0.30754880787E-01 -0.10609518917E+00  0.88720646091E+00  0.88000000000E+00 0. -1.
        -11    1    4    4    0    0  0.53321730367E-03 -0.22998452296E-01  0.48979849845E-01  0.54115616420E-01  0.51100000000E-03 0. -1.
         11    1    4    4    0    0  0.12352589315E-01 -0.12876425180E-01  0.77344938454E-01  0.79378141914E-01  0.51100000000E-03 0.  1.
</event>
<event>
 8    1  0.1044719E+005  0.1043930E+01  0.7957747E-01            NaN
         13   -1    0    0    0    0  0.00000000000E+00  0.00000000000E+00  0.74505805969E-08  0.10566000000E+00  0.10566000000E+00 0.  1.
     999900   -1    0    0    0    0 -0.00000000000E+00 -0.00000000000E+00 -0.74505805969E-08  0.93827000000E+00  0.93827000000E+00 0.  1.
     999902    2    1    2    0    0  0.23090044999E-01  0.35647950063E-02 -0.54505812318E-02  0.10199390272E+01  0.10196568307E+01 0.  0.
     999903    2    3    3    0    0  0.12071553411E+00  0.47631226386E-01 -0.22139721243E-01  0.13328739666E+00  0.20841999608E-01 0.  0.
         14    1    1    2    0    0 -0.23090044999E-01 -0.35647950063E-02  0.54505812318E-02  0.23990972828E-01  0.00000000000E+00 0. -1.
     999901    1    3    3    0    0 -0.97625489115E-01 -0.44066431380E-01  0.16689140011E-01  0.88665163051E+00  0.88000000000E+00 0. -1.
        -11    1    4    4    0    0  0.78135674795E-01  0.28617713705E-01 -0.41939607969E-02  0.83318711233E-01  0.51100000000E-03 0. -1.
         11    1    4    4    0    0  0.42579859318E-01  0.19013512681E-01 -0.17945760446E-01  0.49968685424E-01  0.51100000000E-03 0.  1.
</event>
<event>
 8    1  0.1044719E+005  0.1043930E+01  0.7957747E-01            NaN
         13   -1    0    0    0    0  0.00000000000E+00  0.00000000000E+00  0.74505805969E-08  0.10566000000E+00  0.10566000000E+00 0.  1.
     999900   -1    0    0    0    0 -0.00000000000E+00 -0.00000000000E+00 -0.74505805969E-08  0.93827000000E+00  0.93827000000E+00 0. -1.
     999902    2    1    2    0    0 -0.22719887034E-01  0.20780662904E-02  0.79039714312E-02  0.10197849303E+01  0.10194990533E+01 0.  0.
     999903    2    3    3    0    0 -0.63107417669E-01  0.93721642821E-01 -0.63405828286E-01  0.13123848510E+00  0.20903311034E-01 0.  0.
         14    1    1    2    0    0  0.22719887034E-01 -0.20780662904E-02 -0.79039714312E-02  0.24145069698E-01  0.00000000000E+00 0. -1.
     999901    1    3    3    0    0  0.40387530635E-01 -0.91643576530E-01  0.71309799717E-01  0.88854644520E+00  0.88000000000E+00 0. -1.
        -11    1    4    4    0    0 -0.46955555923E-01  0.51494375360E-01 -0.38169662397E-01  0.79458663305E-01  0.51100000000E-03 0.  1.
         11    1    4    4    0    0 -0.16151861746E-01  0.42227267460E-01 -0.25236165889E-01  0.51779821792E-01  0.51100000000E-03 0. -1.
</event>
<event>
 8    1  0.1044719E+005  0.1043930E+01  0.7957747E-01            NaN
         13   -1    0    0    0    0  0.00000000000E+00  0.00000000000E+00  0.74505805969E-08  0.10566000000E+00  0.10566000000E+00 0. -1.
     999900   -1    0    0    0    0 -0.00000000000E+00 -0.00000000000E+00 -0.74505805969E-08  0.93827000000E+00  0.93827000000E+00 0.  1.
     999902    2    1    2    0    0 -0.19596065142E-01 -0.12900859215E-01 -0.44993664895E-02  0.10200410436E+01  0.10197612703E+01 0.  0.
     999903    2    3    3    0    0  0.80215541092E-01 -0.58288019646E-01 -0.81432937993E-01  0.12990559018E+00  0.20300559168E-01 0.  0.
         14    1    1    2    0    0  0.19596065142E-01  0.12900859215E-01  0.44993664895E-02  0.23888956368E-01  0.00000000000E+00 0.  1.
     999901    1    3    3    0    0 -0.99811606234E-01  0.45387160431E-01  0.76933571503E-01  0.89013545345E+00  0.88000000000E+00 0. -1.
        -11    1    4    4    0    0  0.51979225160E-01 -0.37103228744E-01 -0.39512520177E-01  0.75099865534E-01  0.51100000000E-03 0. -1.
         11    1    4    4    0    0  0.28236315932E-01 -0.21184790902E-01 -0.41920417815E-01  0.54805724644E-01  0.51100000000E-03 0.  1.
</event>
<event>
 8    1  0.1044719E+005  0.1043930E+01  0.7957747E-01            NaN
         13   -1    0    0    0    0  0.00000000000E+00  0.00000000000E+00  0.74505805969E-08  0.10566000000E+00  0.10566000000E+00 0.  1.
     999900   -1    0    0    0    0 -0.00000000000E+00 -0.00000000000E+00 -0.74505805969E-08  0.93827000000E+00  0.93827000000E+00 0.  1.
     999902    2    1    2    0    0  0.46561755286E-02 -0.20517116930E-01  0.99415649444E-02  0.10206605614E+01  0.10203952738E+01 0.  0.
     999903    2    3    3    0    0  0.44009761227E-01  0.94585955635E-01  0.74900546900E-01  0.12992092980E+00  0.19646729708E-01 0.  0.
         14    1    1    2    0    0 -0.46561755286E-02  0.20517116930E-01 -0.99415649444E-02  0.23269438567E-01  0.00000000000E+00 0. -1.
     999901    1    3    3    0    0 -0.39353585699E-01 -0.11510307256E+00 -0.64958981955E-01  0.89073963163E+00  0.88000000000E+00 0.  1.
        -11    1    4    4    0    0  0.56535422905E-02  0.32741980479E-01  0.20292475804E-01  0.38936429232E-01  0.51100000000E-03 0.  1.
         11    1    4    4    0    0  0.38356218937E-01  0.61843975156E-01  0.54608071095E-01  0.90984500570E-01  0.51100000000E-03 0. -1.
</event>
<event>
 8    1  0.1044719E+005  0.1043930E+01  0.7957747E-01            NaN
         13   -1    0    0    0    0  0.00000000000E+00  0.00000000000E+00  0.74505805969E-08  0.10566000000E+00  0.10566000000E+00 0. -1.
     999900   -1    0    0    0    0 -0.00000000000E+00 -0.00000000000E+00 -0.74505805969E-08  0.93827000000E+00  0.93827000000E+00 0. -1.
     999902    2    1    2    0    0  0.17635439146E-01 -0.14833920600E-01 -0.48376295484E-02  0.10203830984E+01  0.10201113718E+01 0.  0.
     999903    2    3    3    0    0  0.28846808364E-01 -0.63776838478E-01  0.10956512758E+00  0.13155854045E+00  0.20087531106E-01 0.  0.
         14    1    1    2    0    0 -0.17635439146E-01  0.14833920600E-01  0.48376295484E-02  0.23546901577E-01  0.00000000000E+00 0. -1.
     999901    1    3    3    0    0 -0.11211369218E-01  0.48942917878E-01 -0.11440275713E+00  0.88882455797E+00  0.88000000000E+00 0. -1.
        -11    1    4    4    0    0  0.13766699846E-01 -0.19521932436E-01  0.22954183740E-01  0.33132816706E-01  0.51100000000E-03 0. -1.
         11    1    4    4    0    0  0.15080108518E-01 -0.44254906042E-01  0.86610943838E-01  0.98425723748E-01  0.51100000000E-03 0.  1.
</event>
<event>
 8    1  0.1044719E+005  0.1043930E+01  0.7957747E-01            NaN
         13   -1    0    0    0    0  0.00000000000E+00  0.00000000000E+00  0.74505805969E-08  0.10566000000E+00  0.10566000000E+00 0.  1.
     999900   -1    0    0    0    0 -0.00000000000E+00 -0.00000000000E+00 -0.74505805969E-08  0.93827000000E+00  0.93827000000E+00 0. -1.
     999902    2    1    2    0    0  0.10893707406E-01  0.18943998780E-01 -0.84203138105E-02  0.10205109984E+01  0.10202422498E+01 0.  0.
     999903    2    3    3    0    0  0.58509401070E-01  0.39097664868E-01 -0.11103886335E+00  0.13304044045E+00  0.20448770321E-01 0.  0.
         14    1    1    2    0    0 -0.10893707406E-01 -0.18943998780E-01  0.84203138105E-02  0.23419001591E-01  0.00000000000E+00 0. -1.
     999901    1    3    3    0    0 -0.47615693664E-01 -0.20153666087E-01  0.10261854954E+00  0.88747055796E+00  0.88000000000E+00 0.  1.
        -11    1    4    4    0    0  0.41363511850E-01  0.37741361412E-01 -0.82279574229E-01  0.99526579013E-01  0.51100000000E-03 0. -1.
         11    1    4    4    0    0  0.17145889220E-01  0.13563034560E-02 -0.28759289125E-01  0.33513861434E-01  0.51100000000E-03 0.  1.
</event>
<event>
 8    1  0.1044719E+005  0.1043930E+01  0.7957747E-01            NaN
         13   -1    0    0    0    0  0.00000000000E+00  0.00000000000E+00  0.74505805969E-08  0.10566000000E+00  0.10566000000E+00 0.  1.
     999900   -1    0    0    0    0 -0.00000000000E+00 -0.00000000000E+00 -0.74505805969E-08  0.93827000000E+00  0.93827000000E+00 0.  1.
     999902    2    1    2    0    0 -0.10527260369E-01 -0.21028477339E-01  0.18128519751E-02  0.10203438494E+01  0.10200712056E+01 0.  0.
     999903    2    3    3    0    0 -0.70970340011E-01  0.51534945733E-01 -0.94014781941E-01  0.13011817478E+00  0.19983002577E-01 0.  0.
         14    1    1    2    0    0  0.10527260369E-01  0.21028477339E-01 -0.18128519751E-02  0.23586150648E-01  0.00000000000E+00 0. -1.
     999901    1    3    3    0    0  0.60443079642E-01 -0.72563423072E-01  0.95827633916E-01  0.89022567457E+00  0.88000000000E+00 0. -1.
        -11    1    4    4    0    0 -0.35041444759E-01  0.29386621073E-01 -0.35143783802E-01  0.57678618307E-01  0.51100000000E-03 0.  1.
         11    1    4    4    0    0 -0.35928895252E-01  0.22148324659E-01 -0.58870998139E-01  0.72439556474E-01  0.51100000000E-03 0. -1.
</event>
<event>
 8    1  0.1044719E+005  0.1043930E+01  0.7957747E-01            NaN
         13   -1    0    0    0    0  0.00000000000E+00  0.00000000000E+00  0.74505805969E-08  0.10566000000E+00  0.10566000000E+00 0.  1.
     999900   -1    0    0    0    0 -0.00000000000E+00 -0.00000000000E+00 -0.74505805969E-08  0.93827000000E+00  0.93827000000E+00 0. -1.
     999902    2    1    2    0    0 -0.22179558348E-02 -0.82957982628E-02  0.21762494907E-01  0.10205345778E+01  0.10202663763E+01 0.  0.
     999903    2    3    3    0    0 -0.42072218717E-01  0.77325473464E-01  0.96758743104E-01  0.13230949273E+00  0.19855655760E-01 0.  0.
         14    1    1    2    0    0  0.22179558348E-02  0.82957982628E-02 -0.21762494907E-01  0.23395422233E-01  0.00000000000E+00 0. -1.
     999901    1    3    3    0    0  0.39854262883E-01 -0.85621271727E-01 -0.74996248197E-01  0.88822508504E+00  0.88000000000E+00 0. -1.
        -11    1    4    4    0    0 -0.23175409484E-01  0.24033509670E-01  0.30755430686E-01  0.45396771135E-01  0.51100000000E-03 0. -1.
         11    1    4    4    0    0 -0.18896809234E-01  0.53291963794E-01  0.66003312418E-01  0.86912721597E-01  0.51100000000E-03 0.  1.
</event>
<event>
 8    1  0.1044719E+005  0.1043930E+01  0.7957747E-01            NaN
         13   -1    0    0    0    0  0.00000000000E+00  0.00000000000E+00  0.74505805969E-08  0.10566000000E+00  0.10566000000E+00 0. -1.
     999900   -1    0    0    0    0 -0.00000000000E+00 -0.00000000000E+00 -0.74505805969E-08  0.93827000000E+00  0.93827000000E+00 0.  1.
     999902    2    1    2    0    0  0.83533685722E-02  0.10758671970E-01  0.19593141126E-01  0.10200674987E+01  0.10197883520E+01 0.  0.
     999903    2    3    3    0    0 -0.27843938707E-01  0.42650750229E-01  0.12116405269E+00  0.13291249545E+00  0.19764421717E-01 0.  0.
         14    1    1    2    0    0 -0.83533685722E-02 -0.10758671970E-01 -0.19593141126E-01  0.23862501300E-01  0.00000000000E+00 0.  1.
     999901    1    3    3    0    0  0.36197307279E-01 -0.31892078258E-01 -0.10157091156E+00  0.88715500325E+00  0.88000000000E+00 0.  1.
        -11    1    4    4    0    0 -0.14049964445E-02  0.17050683807E-01  0.29048126840E-01  0.33715791956E-01  0.51100000000E-03 0.  1.
         11    1    4    4    0    0 -0.26438942263E-01  0.25600066422E-01  0.92115925850E-01  0.99196703498E-01  0.51100000000E-03 0. -1.
</event>
<event>
 8    1  0.1044719E+005  0.1043930E+01  0.7957747E-01            NaN
         13   -1    0    0    0    0  0.00000000000E+00  0.00000000000E+00  0.74505805969E-08  0.10566000000E+00  0.10566000000E+00 0. -1.
     999900   -1    0    0    0    0 -0.00000000000E+00 -0.00000000000E+00 -0.74505805969E-08  0.93827000000E+00  0.93827000000E+00 0. -1.
     999902    2    1    2    0    0  0.20754306418E-01 -0.11993410733E-01  0.99159597959E-03  0.10199390351E+01  0.10196568388E+01 0.  0.
     999903    2    3    3    0    0 -0.53075113691E-01 -0.84589666855E-01 -0.80950821013E-01  0.13008760961E+00  0.19934174679E-01 0.  0.
         14    1    1    2    0    0 -0.20754306418E-01  0.11993410733E-01 -0.99159597959E-03  0.23990964935E-01  0.00000000000E+00 0. -1.
     999901    1    3    3    0    0  0.73829420109E-01  0.72596256122E-01  0.81942416993E-01  0.88985142545E+00  0.88000000000E+00 0.  1.
        -11    1    4    4    0    0 -0.10874311964E-01 -0.33383080466E-01 -0.33312283969E-01  0.48400930841E-01  0.51100000000E-03 0.  1.
         11    1    4    4    0    0 -0.42200801727E-01 -0.51206586389E-01 -0.47638537044E-01  0.81686678772E-01  0.51100000000E-03 0. -1.
</event>
<event>
 7    1  0.1044719E+005  0.1043930E+01  0.7957747E-01            NaN
         13   -1    0    0    0    0  0.00000000000E+00  0.00000000000E+00  0.74505805969E-08  0.10566000000E+00  0.10566000000E+00 0.  1.
     999900   -1    0    0    0    0 -0.00000000000E+00 -0.00000000000E+00 -0.74505805969E-08  0.93827000000E+00  0.93827000000E+00 0.  1.
     999903    2    1    2    0    0  0.54210186985E-01 -0.79373168249E-01 -0.15399701971E-01  0.99586822325E-01  0.21012856760E-01 0.  0.
         14    1    1    2    0    0 -0.74733240486E-02 -0.31397672283E-01  0.45351488253E-01  0.55663469923E-01  0.00000000000E+00 0. -1.
     999901    1    1    2    0    0 -0.46736862936E-01  0.11077084053E+00 -0.29951786282E-01  0.88867970775E+00  0.88000000000E+00 0.  1.
        -11    1    3    3    0    0  0.24506623755E-01 -0.22433308150E-01  0.12100001654E-02  0.33249859305E-01  0.51100000000E-03 0. -1.
         11    1    3    3    0    0  0.29703563230E-01 -0.56939860099E-01 -0.16609702137E-01  0.66336963020E-01  0.51100000000E-03 0.  1.
</event>
<event>
 8    1  0.1044719E+005  0.1043930E+01  0.7957747E-01            NaN
         13   -1    0    0    0    0  0.00000000000E+00  0.00000000000E+00  0.74505805969E-08  0.10566000000E+00  0.10566000000E+00 0.  1.
     999900   -1    0    0    0    0 -0.00000000000E+00 -0.00000000000E+00 -0.74505805969E-08  0.93827000000E+00  0.93827000000E+00 0.  1.
     999902    2    1    2    0    0 -0.12544831287E-01 -0.81678623889E-02  0.18135745623E-01  0.10204142173E+01  0.10201432168E+01 0.  0.
     999903    2    3    3    0    0  0.11407449614E+00 -0.34095672858E-02 -0.55794134575E-01  0.12827032605E+00  0.17767252840E-01 0.  0.
         14    1    1    2    0    0  0.12544831287E-01  0.81678623889E-02 -0.18135745623E-01  0.23515782728E-01  0.00000000000E+00 0. -1.
     999901    1    3    3    0    0 -0.12661932743E+00 -0.47582951032E-02  0.73929880198E-01  0.89214389122E+00  0.88000000000E+00 0.  1.
        -11    1    4    4    0    0  0.43636502374E-01 -0.31678870605E-04 -0.30952878825E-01  0.53502216511E-01  0.51100000000E-03 0.  1.
         11    1    4    4    0    0  0.70437993769E-01 -0.33778884152E-02 -0.24841255750E-01  0.74768109543E-01  0.51100000000E-03 0. -1.
</event>
<event>
 8    1  0.1044719E+005  0.1043930E+01  0.7957747E-01            NaN
         13   -1    0    0    0    0  0.00000000000E+00  0.00000000000E+00  0.74505805969E-08  0.10566000000E+00  0.10566000000E+00 0. -1.
     999900   -1    0    0    0    0 -0.00000000000E+00 -0.00000000000E+00 -0.74505805969E-08  0.93827000000E+00  0.93827000000E+00 0.  1.
     999902    2    1    2    0    0 -0.88191916039E-02  0.98740362865E-02 -0.20853239874E-01  0.10192291428E+01  0.10189297882E+01 0.  0.
     999903    2    3    3    0    0  0.86390942844E-01 -0.67724523662E-01  0.60478185277E-01  0.12698404927E+00  0.20428699528E-01 0.  0.
         14    1    1    2    0    0  0.88191916039E-02 -0.98740362865E-02  0.20853239874E-01  0.24700857200E-01  0.00000000000E+00 0. -1.
     999901    1    3    3    0    0 -0.95210134448E-01  0.77598559949E-01 -0.81331425152E-01  0.89224509353E+00  0.88000000000E+00 0.  1.
        -11    1    4    4    0    0  0.53342179828E-01 -0.51218677646E-01  0.33217713960E-01  0.81070455348E-01  0.51100000000E-03 0. -1.
         11    1    4    4    0    0  0.33048763016E-01 -0.16505846016E-01  0.27260471318E-01  0.45913593924E-01  0.51100000000E-03 0.  1.
</event>
<event>
 8    1  0.1044719E+005  0.1043930E+01  0.7957747E-01            NaN
         13   -1    0    0    0    0  0.00000000000E+00  0.00000000000E+00  0.74505805969E-08  0.10566000000E+00  0.10566000000E+00 0.  1.
     999900   -1    0    0    0    0 -0.00000000000E+00 -0.00000000000E+00 -0.74505805969E-08  0.93827000000E+00  0.93827000000E+00 0.  1.
     999902    2    1    2    0    0  0.21858390190E-01  0.18122062423E-02 -0.94735027236E-03  0.10219761669E+01  0.10217403364E+01 0.  0.
     999903    2    3    3    0    0  0.20502241741E-01 -0.12854674331E-01  0.12849714172E+00  0.13238478152E+00  0.20703390502E-01 0.  0.
         14    1    1    2    0    0 -0.21858390190E-01 -0.18122062423E-02  0.94735027236E-03  0.21953833052E-01  0.00000000000E+00 0.  1.
     999901    1    3    3    0    0  0.13561484483E-02  0.14666880573E-01 -0.12944449199E+00  0.88959138543E+00  0.88000000000E+00 0.  1.
        -11    1    4    4    0    0  0.16816289989E-01  0.13032877317E-03  0.50561916677E-01  0.53287645225E-01  0.51100000000E-03 0.  1.
         11    1    4    4    0    0  0.36859517524E-02 -0.12985003104E-01  0.77935225044E-01  0.79097136292E-01  0.51100000000E-03 0. -1.
</event>
<event>
 8    1  0.1044719E+005  0.1043930E+01  0.7957747E-01            NaN
         13   -1    0    0    0    0  0.00000000000E+00  0.00000000000E+00  0.74505805969E-08  0.10566000000E+00  0.10566000000E+00 0.  1.
     999900   -1    0    0    0    0 -0.00000000000E+00 -0.00000000000E+00 -0.74505805969E-08  0.93827000000E+00  0.93827000000E+00 0.  1.
     999902    2    1    2    0    0  0.22509891947E-01 -0.41467787246E-02  0.74970177349E-02  0.10198448119E+01  0.10195603681E+01 0.  0.
     999903    2    3    3    0    0 -0.39322798921E-01  0.10200862980E+00  0.66154301113E-01  0.12937699707E+00  0.20247783729E-01 0.  0.
         14    1    1    2    0    0 -0.22509891947E-01  0.41467787246E-02 -0.74970177349E-02  0.24085188066E-01  0.00000000000E+00 0. -1.
     999901    1    3    3    0    0  0.61832690868E-01 -0.10615540852E+00 -0.58657283378E-01  0.89046781487E+00  0.88000000000E+00 0. -1.
        -11    1    4    4    0    0 -0.17902960329E-01  0.25745095329E-01  0.25007720854E-01  0.40112007496E-01  0.51100000000E-03 0.  1.
         11    1    4    4    0    0 -0.21419838592E-01  0.76263534471E-01  0.41146580260E-01  0.89264989572E-01  0.51100000000E-03 0. -1.
</event>
<event>
 8    1  0.1044719E+005  0.1043930E+01  0.7957747E-01            NaN
         13   -1    0    0    0    0  0.00000000000E+00  0.00000000000E+00  0.74505805969E-08  0.10566000000E+00  0.10566000000E+00 0.  1.
     999900   -1    0    0    0    0 -0.00000000000E+00 -0.00000000000E+00 -0.74505805969E-08  0.93827000000E+00  0.93827000000E+00 0.  1.
     999902    2    1    2    0    0 -0.23049334942E-01 -0.54458405416E-02  0.38479087989E-02  0.10199355127E+01  0.10196532325E+01 0.  0.
     999903    2    3    3    0    0  0.73620475843E-01 -0.10253994420E+00  0.21384143067E-01  0.12916066075E+00  0.17052275272E-01 0.  0.
         14    1    1    2    0    0  0.23049334942E-01  0.54458405416E-02 -0.38479087989E-02  0.23994487338E-01  0.00000000000E+00 0.  1.
     999901    1    3    3    0    0 -0.96669810786E-01  0.97094103656E-01 -0.17536234268E-01  0.89077485191E+00  0.88000000000E+00 0.  1.
        -11    1    4    4    0    0  0.32839306173E-01 -0.39658312221E-01  0.10563828467E-02  0.51503192366E-01  0.51100000000E-03 0. -1.
         11    1    4    4    0    0  0.40781169670E-01 -0.62881631976E-01  0.20327760220E-01  0.77657468386E-01  0.51100000000E-03 0.  1.
</event>
<event>
 8    1  0.1044719E+005  0.1043930E+01  0.7957747E-01            NaN
         13   -1    0    0    0    0  0.00000000000E+00  0.00000000000E+00  0.74505805969E-08  0.10566000000E+00  0.10566000000E+00 0. -1.
     999900   -1    0    0    0    0 -0.00000000000E+00 -0.00000000000E+00 -0.74505805969E-08  0.93827000000E+00  0.93827000000E+00 0. -1.
     999902    2    1    2    0    0  0.16201442299E-01 -0.20145468172E-01 -0.20958060042E-02  0.10179931725E+01  0.10176627045E+01 0.  0.
     999903    2    3    3    0    0  0.75336007174E-01 -0.31290459912E-01 -0.99868077310E-01  0.13053583565E+00  0.20282126749E-01 0.  0.
         14    1    1    2    0    0 -0.16201442299E-01  0.20145468172E-01  0.20958060042E-02  0.25936827548E-01  0.00000000000E+00 0. -1.
     999901    1    3    3    0    0 -0.59134564875E-01  0.11144991740E-01  0.97772271306E-01  0.88745733680E+00  0.88000000000E+00 0.  1.
        -11    1    4    4    0    0  0.13666026177E-01 -0.13574437860E-01 -0.30173967707E-01  0.35801607267E-01  0.51100000000E-03 0.  1.
         11    1    4    4    0    0  0.61669980996E-01 -0.17716022051E-01 -0.69694109603E-01  0.94734228385E-01  0.51100000000E-03 0. -1.
</event>
<event>
 8    1  0.1044719E+005  0.1043930E+01  0.7957747E-01            NaN
         13   -1    0    0    0    0  0.00000000000E+00  0.00000000000E+00  0.74505805969E-08  0.10566000000E+00  0.10566000000E+00 0. -1.
     999900   -1    0    0    0    0 -0.00000000000E+00 -0.00000000000E+00 -0.74505805969E-08  0.93827000000E+00  0.93827000000E+00 0.  1.
     999902    2    1    2    0    0 -0.72900932243E-02  0.22169870686E-01  0.30618737859E-02  0.10203922920E+01  0.10201207801E+01 0.  0.
     999903    2    3    3    0    0 -0.12473886889E-01  0.77890022353E-01 -0.10412224614E+00  0.13212429048E+00  0.19822526473E-01 0.  0.
         14    1    1    2    0    0  0.72900932243E-02 -0.22169870686E-01 -0.30618737859E-02  0.23537707971E-01  0.00000000000E+00 0. -1.
     999901    1    3    3    0    0  0.51837936652E-02 -0.55720151667E-01  0.10718411993E+00  0.88826800155E+00  0.88000000000E+00 0. -1.
        -11    1    4    4    0    0 -0.87881727851E-02  0.21859888706E-01 -0.43620962535E-01  0.49579594680E-01  0.51100000000E-03 0. -1.
         11    1    4    4    0    0 -0.36857141044E-02  0.56030133647E-01 -0.60501283607E-01  0.82544695796E-01  0.51100000000E-03 0.  1.
</event>
<event>
 8    1  0.1044719E+005  0.1043930E+01  0.7957747E-01            NaN
         13   -1    0    0    0    0  0.00000000000E+00  0.00000000000E+00  0.74505805969E-08  0.10566000000E+00  0.10566000000E+00 0. -1.
     999900   -1    0    0    0    0 -0.00000000000E+00 -0.00000000000E+00 -0.74505805969E-08  0.93827000000E+00  0.93827000000E+00 0.  1.
     999902    2    1    2    0    0  0.51650648575E-02 -0.21094922785E-01  0.21719661685E-02  0.10221036146E+01  0.10218705436E+01 0.  0.
     999903    2    3    3    0    0  0.47283205032E-01  0.25620774699E-01 -0.11856222770E+00  0.13163573776E+00  0.19463813704E-01 0.  0.
         14    1    1    2    0    0 -0.51650648575E-02  0.21094922785E-01 -0.21719661685E-02  0.21826385393E-01  0.00000000000E+00 0. -1.
     999901    1    3    3    0    0 -0.42118140174E-01 -0.46715697484E-01  0.12073419387E+00  0.89046787685E+00  0.88000000000E+00 0. -1.
        -11    1    4    4    0    0  0.14441404980E-01  0.23870788180E-02 -0.50406571968E-01  0.52491293961E-01  0.51100000000E-03 0.  1.
         11    1    4    4    0    0  0.32841800052E-01  0.23233695881E-01 -0.68155655735E-01  0.79144443802E-01  0.51100000000E-03 0. -1.
</event>
<event>
 8    1  0.1044719E+005  0.1043930E+01  0.7957747E-01            NaN
         13   -1    0    0    0    0  0.00000000000E+00  0.00000000000E+00  0.74505805969E-08  0.10566000000E+00  0.10566000000E+00 0. -1.
     999900   -1    0    0    0    0 -0.00000000000E+00 -0.00000000000E+00 -0.74505805969E-08  0.93827000000E+00  0.93827000000E+00 0. -1.
     999902    2    1    2    0    0  0.16773689676E-02  0.14178711265E-01 -0.19437861530E-01  0.10198119594E+01  0.10195267298E+01 0.  0.
     999903    2    3    3    0    0 -0.10937448995E+00 -0.73973192680E-03  0.65040162071E-01  0.12869377884E+00  0.19197389784E-01 0.  0.
         14    1    1    2    0    0 -0.16773689676E-02 -0.14178711265E-01  0.19437861530E-01  0.24118040564E-01  0.00000000000E+00 0. -1.
     999901    1    3    3    0    0  0.11105185892E+00  0.14918443192E-01 -0.84478023601E-01  0.89111818060E+00  0.88000000000E+00 0. -1.
        -11    1    4    4    0    0 -0.61296264852E-01  0.91036893487E-02  0.36326115122E-01  0.71832840717E-01  0.51100000000E-03 0. -1.
         11    1    4    4    0    0 -0.48078225099E-01 -0.98434212756E-02  0.28714046948E-01  0.56860938123E-01  0.51100000000E-03 0.  1.
</event>
<event>
 8    1  0.1044719E+005  0.1043930E+01  0.7957747E-01            NaN
         13   -1    0    0    0    0  0.00000000000E+00  0.00000000000E+00  0.74505805969E-08  0.10566000000E+00  0.10566000000E+00 0.  1.
     999900   -1    0    0    0    0 -0.00000000000E+00 -0.00000000000E+00 -0.74505805969E-08  0.93827000000E+00  0.93827000000E+00 0. -1.
     999902    2    1    2    0    0 -0.16820721621E-01 -0.10221011984E-01 -0.12057203590E-01  0.10208479308E+01  0.10205869467E+01 0.  0.
     999903    2    3    3    0    0  0.53631895982E-02 -0.11909855611E+00  0.52098091914E-01  0.13154351299E+00  0.19397287397E-01 0.  0.
         14    1    1    2    0    0  0.16820721621E-01  0.10221011984E-01  0.12057203590E-01  0.23082069236E-01  0.00000000000E+00 0.  1.
     999901    1    3    3    0    0 -0.22183911219E-01  0.10887754413E+00 -0.64155295503E-01  0.88930441777E+00  0.88000000000E+00 0. -1.
        -11    1    4    4    0    0  0.82377935902E-03 -0.58487847844E-01  0.15201753794E-01  0.60438906321E-01  0.51100000000E-03 0. -1.
         11    1    4    4    0    0  0.45394102392E-02 -0.60610708265E-01  0.36896338120E-01  0.71104606668E-01  0.51100000000E-03 0.  1.
</event>
<event>
 8    1  0.1044719E+005  0.1043930E+01  0.7957747E-01            NaN
         13   -1    0    0    0    0  0.00000000000E+00  0.00000000000E+00  0.74505805969E-08  0.10566000000E+00  0.10566000000E+00 0.  1.
     999900   -1    0    0    0    0 -0.00000000000E+00 -0.00000000000E+00 -0.74505805969E-08  0.93827000000E+00  0.93827000000E+00 0. -1.
     999902    2    1    2    0    0  0.13698170120E-01  0.18825415826E-01 -0.20012916992E-02  0.10205624731E+01  0.10202949182E+01 0.  0.
     999903    2    3    3    0    0  0.11092481171E-01  0.97069964663E-01  0.87366129290E-01  0.13257850084E+00  0.19964898160E-01 0.  0.
         14    1    1    2    0    0 -0.13698170120E-01 -0.18825415826E-01  0.20012916992E-02  0.23367526915E-01  0.00000000000E+00 0. -1.
     999901    1    3    3    0    0  0.26056889494E-02 -0.78244548837E-01 -0.89367420989E-01  0.88798397225E+00  0.88000000000E+00 0. -1.
        -11    1    4    4    0    0  0.15939657509E-01  0.66889882738E-01  0.54974914851E-01  0.88038806660E-01  0.51100000000E-03 0. -1.
         11    1    4    4    0    0 -0.48471763383E-02  0.30180081924E-01  0.32391214439E-01  0.44539694175E-01  0.51100000000E-03 0.  1.
</event>
<event>
 8    1  0.1044719E+005  0.1043930E+01  0.7957747E-01            NaN
         13   -1    0    0    0    0  0.00000000000E+00  0.00000000000E+00  0.74505805969E-08  0.10566000000E+00  0.10566000000E+00 0.  1.
     999900   -1    0    0    0    0 -0.00000000000E+00 -0.00000000000E+00 -0.74505805969E-08  0.93827000000E+00  0.93827000000E+00 0.  1.
     999902    2    1    2    0    0 -0.17437534763E-02  0.23653655079E-01 -0.54435273501E-02  0.10195954964E+01  0.10193050614E+01 0.  0.
     999903    2    3    3    0    0 -0.90479292361E-01  0.49355535785E-01 -0.77573843339E-01  0.13182448708E+00  0.27157374028E-01 0.  0.
         14    1    1    2    0    0  0.17437534763E-02 -0.23653655079E-01  0.54435273501E-02  0.24334503586E-01  0.00000000000E+00 0.  1.
     999901    1    3    3    0    0  0.88735538884E-01 -0.25701880706E-01  0.72130315989E-01  0.88777100934E+00  0.88000000000E+00 0. -1.
        -11    1    4    4    0    0 -0.29575947100E-01  0.23663722265E-01 -0.14814781378E-01  0.40674897253E-01  0.51100000000E-03 0.  1.
         11    1    4    4    0    0 -0.60903345261E-01  0.25691813520E-01 -0.62759061961E-01  0.91149589824E-01  0.51100000000E-03 0. -1.
</event>
<event>
 8    1  0.1044719E+005  0.1043930E+01  0.7957747E-01            NaN
         13   -1    0    0    0    0  0.00000000000E+00  0.00000000000E+00  0.74505805969E-08  0.10566000000E+00  0.10566000000E+00 0. -1.
     999900   -1    0    0    0    0 -0.00000000000E+00 -0.00000000000E+00 -0.74505805969E-08  0.93827000000E+00  0.93827000000E+00 0. -1.
     999902    2    1    2    0    0  0.12975892413E-02 -0.17709568270E-01  0.95584751567E-02  0.10237637660E+01  0.10235651282E+01 0.  0.
     999903    2    3    3    0    0 -0.54560682416E-01 -0.33853601072E-01 -0.11472022214E+00  0.13313142272E+00  0.20983612061E-01 0.  0.
         14    1    1    2    0    0 -0.12975892413E-02  0.17709568270E-01 -0.95584751567E-02  0.20166233993E-01  0.00000000000E+00 0.  1.
     999901    1    3    3    0    0  0.55858271657E-01  0.16144032802E-01  0.12427869730E+00  0.89063234329E+00  0.88000000000E+00 0.  1.
        -11    1    4    4    0    0 -0.32988329624E-01 -0.21779990237E-01 -0.89348463446E-01  0.97703668852E-01  0.51100000000E-03 0.  1.
         11    1    4    4    0    0 -0.21572352792E-01 -0.12073610835E-01 -0.25371758698E-01  0.35427753866E-01  0.51100000000E-03 0. -1.
</event>
<event>
 8    1  0.1044719E+005  0.1043930E+01  0.7957747E-01            NaN
         13   -1    0    0    0    0  0.00000000000E+00  0.00000000000E+00  0.74505805969E-08  0.10566000000E+00  0.10566000000E+00 0.  1.
     999900   -1    0    0    0    0 -0.00000000000E+00 -0.00000000000E+00 -0.74505805969E-08  0.93827000000E+00  0.93827000000E+00 0.  1.
     999902    2    1    2    0    0  0.90633046401E-02 -0.19159913680E-01 -0.18101288405E-01  0.10160570306E+01  0.10156746462E+01 0.  0.
     999903    2    3    3    0    0 -0.11965795067E+00  0.28145719834E-02 -0.35071758065E-01  0.12625928027E+00  0.19632388183E-01 0.  0.
         14    1    1    2    0    0 -0.90633046401E-02  0.19159913680E-01  0.18101288405E-01  0.27872969435E-01  0.00000000000E+00 0.  1.
     999901    1    3    3    0    0  0.12872125531E+00 -0.21974485663E-01  0.16970469660E-01  0.88979775029E+00  0.88000000000E+00 0. -1.
        -11    1    4    4    0    0 -0.28085100306E-01 -0.49782335319E-02 -0.20476907552E-02  0.28600871084E-01  0.51100000000E-03 0.  1.
         11    1    4    4    0    0 -0.91572850366E-01  0.77928055152E-02 -0.33024067310E-01  0.97658409186E-01  0.51100000000E-03 0. -1.
</event>
<event>
 8    1  0.1044719E+005  0.1043930E+01  0.7957747E-01            NaN
         13   -1    0    0    0    0  0.00000000000E+00  0.00000000000E+00  0.74505805969E-08  0.10566000000E+00  0.10566000000E+00 0.  1.
     999900   -1    0    0    0    0 -0.00000000000E+00 -0.00000000000E+00 -0.74505805969E-08  0.93827000000E+00  0.93827000000E+00 0.  1.
     999902    2    1    2    0    0 -0.19553147780E-01  0.89959815292E-02  0.10359439773E-01  0.10200433664E+01  0.10197636482E+01 0.  0.
     999903    2    3    3    0    0  0.57883794118E-01  0.65412623652E-01  0.95163106531E-01  0.13079032066E+00  0.20512098376E-01 0.  0.
         14    1    1    2    0    0  0.19553147780E-01 -0.89959815292E-02 -0.10359439773E-01  0.23886633589E-01  0.00000000000E+00 0.  1.
     999901    1    3    3    0    0 -0.77436941898E-01 -0.56416642123E-01 -0.84803666758E-01  0.88925304575E+00  0.88000000000E+00 0.  1.
        -11    1    4    4    0    0  0.16846258558E-01  0.15511513422E-01  0.38771232845E-01  0.45031911944E-01  0.51100000000E-03 0.  1.
         11    1    4    4    0    0  0.41037535560E-01  0.49901110230E-01  0.56391873686E-01  0.85758408718E-01  0.51100000000E-03 0. -1.
</event>
<event>
 8    1  0.1044719E+005  0.1043930E+01  0.7957747E-01            NaN
         13   -1    0    0    0    0  0.00000000000E+00  0.00000000000E+00  0.74505805969E-08  0.10566000000E+00  0.10566000000E+00 0. -1.
     999900   -1    0    0    0    0 -0.00000000000E+00 -0.00000000000E+00 -0.74505805969E-08  0.93827000000E+00  0.93827000000E+00 0.  1.
     999902    2    1    2    0    0 -0.71068658698E-02  0.25722250879E-01  0.31453715141E-02  0.10170592893E+01  0.10167042652E+01 0.  0.
     999903    2    3    3    0    0 -0.11068730608E+00  0.36011856555E-01  0.53149938044E-01  0.12951478884E+00  0.20015770661E-01 0.  0.
         14    1    1    2    0    0  0.71068658698E-02 -0.25722250879E-01 -0.31453715141E-02  0.26870710722E-01  0.00000000000E+00 0.  1.
     999901    1    3    3    0    0  0.10358044021E+00 -0.10289605676E-01 -0.50004566530E-01  0.88754450044E+00  0.88000000000E+00 0.  1.
        -11    1    4    4    0    0 -0.80726108462E-01  0.22579183129E-01  0.28807328409E-01  0.88637731183E-01  0.51100000000E-03 0. -1.
         11    1    4    4    0    0 -0.29961197618E-01  0.13432673426E-01  0.24342609636E-01  0.40877057660E-01  0.51100000000E-03 0.  1.
</event>
<event>
 8    1  0.1117828E+005  0.1043930E+01  0.7957747E-01            NaN
         13   -1    0    0    0    0  0.00000000000E+00  0.00000000000E+00  0.74505805969E-08  0.10566000000E+00  0.10566000000E+00 0. -1.
     999900   -1    0    0    0    0 -0.00000000000E+00 -0.00000000000E+00 -0.74505805969E-08  0.93827000000E+00  0.93827000000E+00 0. -1.
     999902    2    1    2    0    0  0.67253525140E-02  0.18948738834E-03 -0.23392445266E-01  0.10195892365E+01  0.10192986503E+01 0.  0.
     999903    2    3    3    0    0  0.74192052730E-01 -0.10377677850E+00  0.15326607698E-01  0.13006132512E+00  0.20173322554E-01 0.  0.
         14    1    1    2    0    0 -0.67253525140E-02 -0.18948738834E-03  0.23392445266E-01  0.24340763493E-01  0.00000000000E+00 0. -1.
     999901    1    3    3    0    0 -0.67466700216E-01  0.10396626589E+00 -0.38719052964E-01  0.88952791139E+00  0.88000000000E+00 0. -1.
        -11    1    4    4    0    0  0.48100862808E-01 -0.81686170078E-01  0.83372674452E-02  0.95163514722E-01  0.51100000000E-03 0. -1.
         11    1    4    4    0    0  0.26091189923E-01 -0.22090608424E-01  0.69893402528E-02  0.34897810394E-01  0.51100000000E-03 0.  1.
</event>
<event>
 8    1  0.1044719E+005  0.1043930E+01  0.7957747E-01            NaN
         13   -1    0    0    0    0  0.00000000000E+00  0.00000000000E+00  0.74505805969E-08  0.10566000000E+00  0.10566000000E+00 0.  1.
     999900   -1    0    0    0    0 -0.00000000000E+00 -0.00000000000E+00 -0.74505805969E-08  0.93827000000E+00  0.93827000000E+00 0. -1.
     999902    2    1    2    0    0  0.15529550838E-01 -0.47553352317E-02 -0.10022916071E-01  0.10248449533E+01  0.10246672334E+01 0.  0.
     999903    2    3    3    0    0  0.12715633299E+00 -0.45209085474E-01 -0.10921203371E-01  0.13687093826E+00  0.20044615929E-01 0.  0.
         14    1    1    2    0    0 -0.15529550838E-01  0.47553352317E-02  0.10022916071E-01  0.19085046737E-01  0.00000000000E+00 0.  1.
     999901    1    3    3    0    0 -0.11162678215E+00  0.40453750242E-01  0.89828730036E-03  0.88797401500E+00  0.88000000000E+00 0. -1.
        -11    1    4    4    0    0  0.39823718097E-01 -0.45519315740E-02 -0.23102947357E-02  0.40152797996E-01  0.51100000000E-03 0. -1.
         11    1    4    4    0    0  0.87332614894E-01 -0.40657153900E-01 -0.86109086354E-02  0.96718140263E-01  0.51100000000E-03 0.  1.
</event>
<event>
 8    1  0.1044719E+005  0.1043930E+01  0.7957747E-01            NaN
         13   -1    0    0    0    0  0.00000000000E+00  0.00000000000E+00  0.74505805969E-08  0.10566000000E+00  0.10566000000E+00 0.  1.
     999900   -1    0    0    0    0 -0.00000000000E+00 -0.00000000000E+00 -0.74505805969E-08  0.93827000000E+00  0.93827000000E+00 0. -1.
     999902    2    1    2    0    0  0.22473498737E-01 -0.15822026417E-02 -0.25833133971E-02  0.10212532494E+01  0.10210014517E+01 0.  0.
     999903    2    3    3    0    0  0.87988095481E-01 -0.98779451184E-01 -0.15147787874E-02  0.13348041285E+00  0.17760662634E-01 0.  0.
         14    1    1    2    0    0 -0.22473498737E-01  0.15822026417E-02  0.25833133971E-02  0.22676750622E-01  0.00000000000E+00 0. -1.
     999901    1    3    3    0    0 -0.65514596744E-01  0.97197248543E-01 -0.10685346097E-02  0.88777283653E+00  0.88000000000E+00 0.  1.
        -11    1    4    4    0    0  0.11335396778E-01 -0.22793391505E-01  0.14822842764E-02  0.25504670240E-01  0.51100000000E-03 0. -1.
         11    1    4    4    0    0  0.76652698702E-01 -0.75986059680E-01 -0.29970630638E-02  0.10797574261E+00  0.51100000000E-03 0.  1.
</event>
<event>
 8    1  0.1044719E+005  0.1043930E+01  0.7957747E-01            NaN
         13   -1    0    0    0    0  0.00000000000E+00  0.00000000000E+00  0.74505805969E-08  0.10566000000E+00  0.10566000000E+00 0.  1.
     999900   -1    0    0    0    0 -0.00000000000E+00 -0.00000000000E+00 -0.74505805969E-08  0.93827000000E+00  0.93827000000E+00 0.  1.
     999902    2    1    2    0    0  0.10799012441E-01 -0.85243061946E-02  0.18989661041E-01  0.10204802731E+01  0.10202108106E+01 0.  0.
     999903    2    3    3    0    0 -0.24107275504E-01 -0.11792773405E+00  0.51463019725E-01  0.13242505071E+00  0.19996011259E-01 0.  0.
         14    1    1    2    0    0 -0.10799012441E-01  0.85243061946E-02 -0.18989661041E-01  0.23449726912E-01  0.00000000000E+00 0. -1.
     999901    1    3    3    0    0  0.34906287946E-01  0.10940342786E+00 -0.32473358684E-01  0.88805522238E+00  0.88000000000E+00 0.  1.
        -11    1    4    4    0    0 -0.16290822523E-01 -0.38440306947E-01  0.12688409641E-01  0.43638342738E-01  0.51100000000E-03 0.  1.
         11    1    4    4    0    0 -0.78164529813E-02 -0.79487427104E-01  0.38774610084E-01  0.88786707974E-01  0.51100000000E-03 0. -1.
</event>
<event>
 8    1  0.1044719E+005  0.1043930E+01  0.7957747E-01            NaN
         13   -1    0    0    0    0  0.00000000000E+00  0.00000000000E+00  0.74505805969E-08  0.10566000000E+00  0.10566000000E+00 0. -1.
     999900   -1    0    0    0    0 -0.00000000000E+00 -0.00000000000E+00 -0.74505805969E-08  0.93827000000E+00  0.93827000000E+00 0. -1.
     999902    2    1    2    0    0  0.14145652485E-01 -0.18563654373E-01 -0.11037679005E-01  0.10181125814E+01  0.10177851881E+01 0.  0.
     999903    2    3    3    0    0 -0.83317443676E-01 -0.29781100684E-01  0.88964429463E-01  0.12703160416E+00  0.19840573753E-01 0.  0.
         14    1    1    2    0    0 -0.14145652485E-01  0.18563654373E-01  0.11037679005E-01  0.25817418649E-01  0.00000000000E+00 0.  1.
     999901    1    3    3    0    0  0.97463096161E-01  0.11217446311E-01 -0.10000210847E+00  0.89108097719E+00  0.88000000000E+00 0. -1.
        -11    1    4    4    0    0 -0.28181386787E-01 -0.26781580257E-02  0.19975070366E-01  0.34650074297E-01  0.51100000000E-03 0.  1.
         11    1    4    4    0    0 -0.55136056889E-01 -0.27102942659E-01  0.68989359097E-01  0.92381529862E-01  0.51100000000E-03 0. -1.
</event>
<event>
 8    1  0.1044719E+005  0.1043930E+01  0.7957747E-01            NaN
         13   -1    0    0    0    0  0.00000000000E+00  0.00000000000E+00  0.74505805969E-08  0.10566000000E+00  0.10566000000E+00 0. -1.
     999900   -1    0    0    0    0 -0.00000000000E+00 -0.00000000000E+00 -0.74505805969E-08  0.93827000000E+00  0.93827000000E+00 0. -1.
     999902    2    1    2    0    0  0.46327183249E-02  0.16104062829E-01 -0.17648906512E-01  0.10195930565E+01  0.10193025625E+01 0.  0.
     999903    2    3    3    0    0 -0.61746334930E-01  0.38606896826E-01  0.10392951265E+00  0.12847360980E+00  0.20025545068E-01 0.  0.
         14    1    1    2    0    0 -0.46327183249E-02 -0.16104062829E-01  0.17648906512E-01  0.24336943517E-01  0.00000000000E+00 0.  1.
     999901    1    3    3    0    0  0.66379053255E-01 -0.22502833997E-01 -0.12157841916E+00  0.89111944668E+00  0.88000000000E+00 0. -1.
        -11    1    4    4    0    0 -0.32803119865E-01  0.25819897655E-01  0.73733790119E-01  0.84732784176E-01  0.51100000000E-03 0. -1.
         11    1    4    4    0    0 -0.28943215065E-01  0.12786999171E-01  0.30195722533E-01  0.43740825625E-01  0.51100000000E-03 0.  1.
</event>
<event>
 8    1  0.1044719E+005  0.1043930E+01  0.7957747E-01            NaN
         13   -1    0    0    0    0  0.00000000000E+00  0.00000000000E+00  0.74505805969E-08  0.10566000000E+00  0.10566000000E+00 0.  1.
     999900   -1    0    0    0    0 -0.00000000000E+00 -0.00000000000E+00 -0.74505805969E-08  0.93827000000E+00  0.93827000000E+00 0.  1.
     999902    2    1    2    0    0  0.20812760434E-01 -0.89021930232E-02 -0.77029451149E-02  0.10200185927E+01  0.10197382870E+01 0.  0.
     999903    2    3    3    0    0 -0.87583786158E-02  0.11939764268E+00  0.43733233000E-01  0.12873806414E+00  0.18121457294E-01 0.  0.
         14    1    1    2    0    0 -0.20812760434E-01  0.89021930232E-02  0.77029451149E-02  0.23911407339E-01  0.00000000000E+00 0. -1.
     999901    1    3    3    0    0  0.29571139050E-01 -0.12829983571E+00 -0.51436178115E-01  0.89128052852E+00  0.88000000000E+00 0. -1.
        -11    1    4    4    0    0 -0.13368223857E-01  0.72707126214E-01  0.22833598257E-01  0.77373573924E-01  0.51100000000E-03 0.  1.
         11    1    4    4    0    0  0.46098452412E-02  0.46690516470E-01  0.20899634744E-01  0.51364490213E-01  0.51100000000E-03 0. -1.
</event>
<event>
 8    1  0.1044719E+005  0.1043930E+01  0.7957747E-01            NaN
         13   -1    0    0    0    0  0.00000000000E+00  0.00000000000E+00  0.74505805969E-08  0.10566000000E+00  0.10566000000E+00 0.  1.
     999900   -1    0    0    0    0 -0.00000000000E+00 -0.00000000000E+00 -0.74505805969E-08  0.93827000000E+00  0.93827000000E+00 0.  1.
     999902    2    1    2    0    0  0.37067679166E-02 -0.24510852375E-01  0.38071528619E-02  0.10188498001E+01  0.10185410639E+01 0.  0.
     999903    2    3    3    0    0  0.88048828903E-01 -0.83670206536E-01 -0.46355162278E-01  0.13142111551E+00  0.19220010352E-01 0.  0.
         14    1    1    2    0    0 -0.37067679166E-02  0.24510852375E-01 -0.38071528619E-02  0.25080199869E-01  0.00000000000E+00 0.  1.
     999901    1    3    3    0    0 -0.84342060987E-01  0.59159354160E-01  0.50162315140E-01  0.88742868463E+00  0.88000000000E+00 0. -1.
        -11    1    4    4    0    0  0.42129276530E-02 -0.73366825376E-02 -0.81947074230E-02  0.11789402903E-01  0.51100000000E-03 0.  1.
         11    1    4    4    0    0  0.83835901250E-01 -0.76333523998E-01 -0.38160454855E-01  0.11963171260E+00  0.51100000000E-03 0. -1.
</event>
<event>
 8    1  0.1044719E+005  0.1043930E+01  0.7957747E-01            NaN
         13   -1    0    0    0    0  0.00000000000E+00  0.00000000000E+00  0.74505805969E-08  0.10566000000E+00  0.10566000000E+00 0. -1.
     999900   -1    0    0    0    0 -0.00000000000E+00 -0.00000000000E+00 -0.74505805969E-08  0.93827000000E+00  0.93827000000E+00 0.  1.
     999902    2    1    2    0    0 -0.58800352172E-02  0.28602570065E-01  0.27717622134E-02  0.10145980295E+01  0.10141739481E+01 0.  0.
     999903    2    3    3    0    0 -0.15141523003E-02 -0.46644567841E-01  0.11356758287E+00  0.12445371165E+00  0.20325405244E-01 0.  0.
         14    1    1    2    0    0  0.58800352172E-02 -0.28602570065E-01 -0.27717622134E-02  0.29331970515E-01  0.00000000000E+00 0.  1.
     999901    1    3    3    0    0 -0.43658829168E-02  0.75247137907E-01 -0.11079582066E+00  0.89014431783E+00  0.88000000000E+00 0.  1.
        -11    1    4    4    0    0 -0.95964870306E-02 -0.14009638305E-01  0.32068713866E-01  0.36290853652E-01  0.51100000000E-03 0.  1.
         11    1    4    4    0    0  0.80823347302E-02 -0.32634929536E-01  0.81498869005E-01  0.88162857999E-01  0.51100000000E-03 0. -1.
</event>
<event>
 8    1  0.1044719E+005  0.1043930E+01  0.7957747E-01            NaN
         13   -1    0    0    0    0  0.00000000000E+00  0.00000000000E+00  0.74505805969E-08  0.10566000000E+00  0.10566000000E+00 0. -1.
     999900   -1    0    0    0    0 -0.00000000000E+00 -0.00000000000E+00 -0.74505805969E-08  0.93827000000E+00  0.93827000000E+00 0. -1.
     999902    2    1    2    0    0 -0.12838887378E-01 -0.29871083762E-02 -0.21644575691E-01  0.10185873975E+01  0.10182720849E+01 0.  0.
     999903    2    3    3    0    0  0.96820380772E-01  0.72944879988E-01 -0.37461251314E-01  0.12839585114E+00  0.19672508507E-01 0.  0.
         14    1    1    2    0    0  0.12838887378E-01  0.29871083762E-02  0.21644575691E-01  0.25342602518E-01  0.00000000000E+00 0. -1.
     999901    1    3    3    0    0 -0.10965926815E+00 -0.75931988364E-01  0.15816675623E-01  0.89019154634E+00  0.88000000000E+00 0. -1.
        -11    1    4    4    0    0  0.41322540618E-01  0.39905700958E-01 -0.24820335186E-01  0.62580568005E-01  0.51100000000E-03 0.  1.
         11    1    4    4    0    0  0.55497840154E-01  0.33039179030E-01 -0.12640916128E-01  0.65815283136E-01  0.51100000000E-03 0. -1.
</event>
<event>
 8    1  0.1044719E+005  0.1043930E+01  0.7957747E-01            NaN
         13   -1    0    0    0    0  0.00000000000E+00  0.00000000000E+00  0.74505805969E-08  0.10566000000E+00  0.10566000000E+00 0.  1.
     999900   -1    0    0    0    0 -0.00000000000E+00 -0.00000000000E+00 -0.74505805969E-08  0.93827000000E+00  0.93827000000E+00 0. -1.
     999902    2    1    2    0    0  0.11265308108E-01  0.35202970120E-02  0.20485497622E-01  0.10202877651E+01  0.10200138079E+01 0.  0.
     999903    2    3    3    0    0  0.40015760089E-01 -0.11117038062E+00  0.54600532766E-01  0.13172466907E+00  0.20249831570E-01 0.  0.
         14    1    1    2    0    0 -0.11265308108E-01 -0.35202970120E-02 -0.20485497622E-01  0.23642234891E-01  0.00000000000E+00 0. -1.
     999901    1    3    3    0    0 -0.28750451981E-01  0.11469067764E+00 -0.34115035145E-01  0.88856309604E+00  0.88000000000E+00 0.  1.
        -11    1    4    4    0    0  0.11905209338E-01 -0.44013218711E-01  0.11155780305E-01  0.46942624404E-01  0.51100000000E-03 0. -1.
         11    1    4    4    0    0  0.28110550750E-01 -0.67157161914E-01  0.43444752461E-01  0.84782044663E-01  0.51100000000E-03 0.  1.
</event>
<event>
 8    1  0.1044719E+005  0.1043930E+01  0.7957747E-01            NaN
         13   -1    0    0    0    0  0.00000000000E+00  0.00000000000E+00  0.74505805969E-08  0.10566000000E+00  0.10566000000E+00 0.  1.
     999900   -1    0    0    0    0 -0.00000000000E+00 -0.00000000000E+00 -0.74505805969E-08  0.93827000000E+00  0.93827000000E+00 0. -1.
     999902    2    1    2    0    0 -0.14563798530E-01 -0.14326968737E-01  0.67305081669E-02  0.10224203277E+01  0.10221940425E+01 0.  0.
     999903    2    3    3    0    0  0.57012972999E-02 -0.12156349967E+00 -0.51968395443E-01  0.13373820855E+00  0.19365047285E-01 0.  0.
         14    1    1    2    0    0  0.14563798530E-01  0.14326968737E-01 -0.67305081669E-02  0.21509672267E-01  0.00000000000E+00 0.  1.
     999901    1    3    3    0    0 -0.20265095830E-01  0.10723653094E+00  0.58698903610E-01  0.88868211919E+00  0.88000000000E+00 0.  1.
        -11    1    4    4    0    0  0.38051092011E-02 -0.78624314012E-02 -0.78724239028E-02  0.11769998414E-01  0.51100000000E-03 0.  1.
         11    1    4    4    0    0  0.18961880988E-02 -0.11370106827E+00 -0.44095971540E-01  0.12196821013E+00  0.51100000000E-03 0. -1.
</event>
<event>
 8    1  0.1044719E+005  0.1043930E+01  0.7957747E-01            NaN
         13   -1    0    0    0    0  0.00000000000E+00  0.00000000000E+00  0.74505805969E-08  0.10566000000E+00  0.10566000000E+00 0. -1.
     999900   -1    0    0    0    0 -0.00000000000E+00 -0.00000000000E+00 -0.74505805969E-08  0.93827000000E+00  0.93827000000E+00 0.  1.
     999902    2    1    2    0    0  0.44439798535E-02  0.19089231198E-01 -0.12209479364E-01  0.10208384628E+01  0.10205772621E+01 0.  0.
     999903    2    3    3    0    0  0.10647969574E+00 -0.47996211125E-01  0.53798845178E-01  0.12995752641E+00  0.18790450779E-01 0.  0.
         14    1    1    2    0    0 -0.44439798535E-02 -0.19089231198E-01  0.12209479364E-01  0.23091537216E-01  0.00000000000E+00 0. -1.
     999901    1    3    3    0    0 -0.10203571589E+00  0.67085442323E-01 -0.66008324542E-01  0.89088093638E+00  0.88000000000E+00 0.  1.
        -11    1    4    4    0    0  0.42282752938E-01 -0.13364825045E-01  0.12242010940E-01  0.46006278891E-01  0.51100000000E-03 0.  1.
         11    1    4    4    0    0  0.64196942802E-01 -0.34631386079E-01  0.41556834238E-01  0.83951247518E-01  0.51100000000E-03 0. -1.
</event>
<event>
 8    1  0.1044719E+005  0.1043930E+01  0.7957747E-01            NaN
         13   -1    0    0    0    0  0.00000000000E+00  0.00000000000E+00  0.74505805969E-08  0.10566000000E+00  0.10566000000E+00 0. -1.
     999900   -1    0    0    0    0 -0.00000000000E+00 -0.00000000000E+00 -0.74505805969E-08  0.93827000000E+00  0.93827000000E+00 0.  1.
     999902    2    1    2    0    0 -0.11344702900E-01 -0.13592221279E-01 -0.15679133444E-01  0.10202807719E+01  0.10200066507E+01 0.  0.
     999903    2    3    3    0    0 -0.91735565607E-01  0.79249850010E-02 -0.93718965918E-01  0.13291619272E+00  0.20130830322E-01 0.  0.
         14    1    1    2    0    0  0.11344702900E-01  0.13592221279E-01  0.15679133444E-01  0.23649228079E-01  0.00000000000E+00 0. -1.
     999901    1    3    3    0    0  0.80390862706E-01 -0.21517206280E-01  0.78039832474E-01  0.88736457920E+00  0.88000000000E+00 0. -1.
        -11    1    4    4    0    0 -0.93061622525E-02  0.28239868355E-02 -0.29017261170E-02  0.10161726870E-01  0.51100000000E-03 0. -1.
         11    1    4    4    0    0 -0.82429403354E-01  0.51009981655E-02 -0.90817239801E-01  0.12275446585E+00  0.51100000000E-03 0.  1.
</event>
<event>
 8    1  0.1044719E+005  0.1043930E+01  0.7957747E-01            NaN
         13   -1    0    0    0    0  0.00000000000E+00  0.00000000000E+00  0.74505805969E-08  0.10566000000E+00  0.10566000000E+00 0. -1.
     999900   -1    0    0    0    0 -0.00000000000E+00 -0.00000000000E+00 -0.74505805969E-08  0.93827000000E+00  0.93827000000E+00 0.  1.
     999902    2    1    2    0    0 -0.21006380616E-01 -0.87075037749E-02  0.50121555676E-02  0.10206445893E+01  0.10203789332E+01 0.  0.
     999903    2    3    3    0    0 -0.17062594508E-01  0.71913811613E-01  0.10652633350E+00  0.13113883986E+00  0.19667413646E-01 0.  0.
         14    1    1    2    0    0  0.21006380616E-01  0.87075037749E-02 -0.50121555676E-02  0.23285410712E-01  0.00000000000E+00 0. -1.
     999901    1    3    3    0    0 -0.39437861086E-02 -0.80621315387E-01 -0.10151417793E+00  0.88950574943E+00  0.88000000000E+00 0.  1.
        -11    1    4    4    0    0 -0.18614563950E-01  0.39569947327E-01  0.67451270140E-01  0.80387920031E-01  0.51100000000E-03 0. -1.
         11    1    4    4    0    0  0.15519694423E-02  0.32343864286E-01  0.39075063358E-01  0.50750919829E-01  0.51100000000E-03 0.  1.
</event>
<event>
 8    1  0.1044719E+005  0.1043930E+01  0.7957747E-01            NaN
         13   -1    0    0    0    0  0.00000000000E+00  0.00000000000E+00  0.74505805969E-08  0.10566000000E+00  0.10566000000E+00 0. -1.
     999900   -1    0    0    0    0 -0.00000000000E+00 -0.00000000000E+00 -0.74505805969E-08  0.93827000000E+00  0.93827000000E+00 0. -1.
     999902    2    1    2    0    0 -0.56313189702E-03  0.22413782821E-01 -0.17232367741E-01  0.10156519294E+01  0.10152581900E+01 0.  0.
     999903    2    3    3    0    0 -0.10706636222E+00  0.66947466775E-01 -0.22583233491E-02  0.12798622146E+00  0.20741350776E-01 0.  0.
         14    1    1    2    0    0  0.56313189702E-03 -0.22413782821E-01  0.17232367741E-01  0.28278070582E-01  0.00000000000E+00 0. -1.
     999901    1    3    3    0    0  0.10650323033E+00 -0.44533683954E-01 -0.14974044392E-01  0.88766570796E+00  0.88000000000E+00 0.  1.
        -11    1    4    4    0    0 -0.68736929216E-01  0.52657711452E-01  0.35682340460E-02  0.86663679985E-01  0.51100000000E-03 0.  1.
         11    1    4    4    0    0 -0.38329433009E-01  0.14289755323E-01 -0.58265573951E-02  0.41322541476E-01  0.51100000000E-03 0. -1.
</event>
<event>
 8    1  0.1044719E+005  0.1043930E+01  0.7957747E-01            NaN
         13   -1    0    0    0    0  0.00000000000E+00  0.00000000000E+00  0.74505805969E-08  0.10566000000E+00  0.10566000000E+00 0. -1.
     999900   -1    0    0    0    0 -0.00000000000E+00 -0.00000000000E+00 -0.74505805969E-08  0.93827000000E+00  0.93827000000E+00 0. -1.
     999902    2    1    2    0    0 -0.59980484257E-02 -0.81245090547E-02  0.19982792993E-01  0.10215403540E+01  0.10212949616E+01 0.  0.
     999903    2    3    3    0    0  0.11261927365E+00  0.55638809267E-01  0.32085094319E-01  0.13121328176E+00  0.20216185073E-01 0.  0.
         14    1    1    2    0    0  0.59980484257E-02  0.81245090547E-02 -0.19982792993E-01  0.22389646002E-01  0.00000000000E+00 0.  1.
     999901    1    3    3    0    0 -0.11861732208E+00 -0.63763318321E-01 -0.12102301327E-01  0.89032707224E+00  0.88000000000E+00 0.  1.
        -11    1    4    4    0    0  0.77825294225E-01  0.45866401136E-01  0.16403691955E-01  0.91814189563E-01  0.51100000000E-03 0. -1.
         11    1    4    4    0    0  0.34793979426E-01  0.97724081310E-02  0.15681402364E-01  0.39399092199E-01  0.51100000000E-03 0.  1.
</event>
<event>
 8    1  0.1044719E+005  0.1043930E+01  0.7957747E-01            NaN
         13   -1    0    0    0    0  0.00000000000E+00  0.00000000000E+00  0.74505805969E-08  0.10566000000E+00  0.10566000000E+00 0.  1.
     999900   -1    0    0    0    0 -0.00000000000E+00 -0.00000000000E+00 -0.74505805969E-08  0.93827000000E+00  0.93827000000E+00 0. -1.
     999902    2    1    2    0    0 -0.11070984855E-01  0.19603664627E-01 -0.79310914610E-02  0.10200600904E+01  0.10197807683E+01 0.  0.
     999903    2    3    3    0    0  0.73985546411E-01 -0.78886157551E-02 -0.10496618860E+00  0.13022513432E+00  0.20114510272E-01 0.  0.
         14    1    1    2    0    0  0.11070984855E-01 -0.19603664627E-01  0.79310914610E-02  0.23869909599E-01  0.00000000000E+00 0.  1.
     999901    1    3    3    0    0 -0.85056531266E-01  0.27492280382E-01  0.97035097135E-01  0.88983495608E+00  0.88000000000E+00 0.  1.
        -11    1    4    4    0    0  0.37195063573E-01  0.47005888510E-02 -0.60254778830E-01  0.70968075799E-01  0.51100000000E-03 0.  1.
         11    1    4    4    0    0  0.36790482838E-01 -0.12589204606E-01 -0.44711409766E-01  0.59257058519E-01  0.51100000000E-03 0. -1.
</event>
<event>
 8    1  0.1044719E+005  0.1043930E+01  0.7957747E-01            NaN
         13   -1    0    0    0    0  0.00000000000E+00  0.00000000000E+00  0.74505805969E-08  0.10566000000E+00  0.10566000000E+00 0.  1.
     999900   -1    0    0    0    0 -0.00000000000E+00 -0.00000000000E+00 -0.74505805969E-08  0.93827000000E+00  0.93827000000E+00 0. -1.
     999902    2    1    2    0    0 -0.16641209976E-01 -0.73638078283E-02  0.14468286843E-01  0.10206816267E+01  0.10204168248E+01 0.  0.
     999903    2    3    3    0    0 -0.31104959099E-01  0.11635961498E+00  0.48132652441E-01  0.13127172410E+00  0.20209770874E-01 0.  0.
         14    1    1    2    0    0  0.16641209976E-01  0.73638078283E-02 -0.14468286843E-01  0.23248373263E-01  0.00000000000E+00 0. -1.
     999901    1    3    3    0    0  0.14463749122E-01 -0.12372342281E+00 -0.33664365598E-01  0.88940990263E+00  0.88000000000E+00 0. -1.
        -11    1    4    4    0    0  0.16819773814E-03  0.14000842609E-01  0.11561564158E-01  0.18165427906E-01  0.51100000000E-03 0. -1.
         11    1    4    4    0    0 -0.31273156837E-01  0.10235877237E+00  0.36571088283E-01  0.11310629620E+00  0.51100000000E-03 0.  1.
</event>
<event>
 8    1  0.1044719E+005  0.1043930E+01  0.7957747E-01            NaN
         13   -1    0    0    0    0  0.00000000000E+00  0.00000000000E+00  0.74505805969E-08  0.10566000000E+00  0.10566000000E+00 0. -1.
     999900   -1    0    0    0    0 -0.00000000000E+00 -0.00000000000E+00 -0.74505805969E-08  0.93827000000E+00  0.93827000000E+00 0.  1.
     999902    2    1    2    0    0  0.22871863218E-01 -0.54987460181E-02 -0.46804458128E-02  0.10199453193E+01  0.10196632726E+01 0.  0.
     999903    2    3    3    0    0 -0.86207492175E-01  0.88384331756E-01  0.25204940343E-01  0.12775393044E+00  0.21029881562E-01 0.  0.
         14    1    1    2    0    0 -0.22871863218E-01  0.54987460181E-02  0.46804458128E-02  0.23984680691E-01  0.00000000000E+00 0. -1.
     999901    1    3    3    0    0  0.10907935539E+00 -0.93883077774E-01 -0.29885386156E-01  0.89219138887E+00  0.88000000000E+00 0. -1.
        -11    1    4    4    0    0 -0.13959180271E-01  0.22491307476E-01  0.12044717616E-01  0.29087006881E-01  0.51100000000E-03 0. -1.
         11    1    4    4    0    0 -0.72248311904E-01  0.65893024279E-01  0.13160222727E-01  0.98666923560E-01  0.51100000000E-03 0.  1.
</event>
<event>
 8    1  0.1044719E+005  0.1043930E+01  0.7957747E-01            NaN
         13   -1    0    0    0    0  0.00000000000E+00  0.00000000000E+00  0.74505805969E-08  0.10566000000E+00  0.10566000000E+00 0.  1.
     999900   -1    0    0    0    0 -0.00000000000E+00 -0.00000000000E+00 -0.74505805969E-08  0.93827000000E+00  0.93827000000E+00 0.  1.
     999902    2    1    2    0    0  0.20089568356E-01  0.12996282610E-01 -0.81447924648E-03  0.10199892921E+01  0.10197082909E+01 0.  0.
     999903    2    3    3    0    0 -0.57117366751E-01  0.73528142762E-01  0.89080963644E-01  0.12998580470E+00  0.17091225175E-01 0.  0.
         14    1    1    2    0    0 -0.20089568356E-01 -0.12996282610E-01  0.81447924648E-03  0.23940707902E-01  0.00000000000E+00 0.  1.
     999901    1    3    3    0    0  0.77206935107E-01 -0.60531860152E-01 -0.89895442890E-01  0.89000348739E+00  0.88000000000E+00 0.  1.
        -11    1    4    4    0    0 -0.47627693032E-01  0.69207127804E-01  0.76367954793E-01  0.11353567423E+00  0.51100000000E-03 0.  1.
         11    1    4    4    0    0 -0.94896737194E-02  0.43210149579E-02  0.12713008850E-01  0.16450130474E-01  0.51100000000E-03 0. -1.
</event>
<event>
 8    1  0.1044719E+005  0.1043930E+01  0.7957747E-01            NaN
         13   -1    0    0    0    0  0.00000000000E+00  0.00000000000E+00  0.74505805969E-08  0.10566000000E+00  0.10566000000E+00 0.  1.
     999900   -1    0    0    0    0 -0.00000000000E+00 -0.00000000000E+00 -0.74505805969E-08  0.93827000000E+00  0.93827000000E+00 0. -1.
     999902    2    1    2    0    0 -0.14766536582E-01  0.53385902003E-02 -0.21240013506E-01  0.10175161907E+01  0.10171732935E+01 0.  0.
     999903    2    3    3    0    0  0.72447831805E-01 -0.67326343291E-01 -0.79046125537E-01  0.12834349364E+00  0.21029445137E-01 0.  0.
         14    1    1    2    0    0  0.14766536582E-01 -0.53385902003E-02  0.21240013506E-01  0.26413809299E-01  0.00000000000E+00 0.  1.
     999901    1    3    3    0    0 -0.87214368386E-01  0.72664933492E-01  0.57806112031E-01  0.88917269706E+00  0.88000000000E+00 0. -1.
        -11    1    4    4    0    0  0.88580165605E-02 -0.19734990620E-01 -0.15348262233E-01  0.26528561716E-01  0.51100000000E-03 0. -1.
         11    1    4    4    0    0  0.63589815244E-01 -0.47591352672E-01 -0.63697863304E-01  0.10181493192E+00  0.51100000000E-03 0.  1.
</event>
<event>
 8    1  0.1044719E+005  0.1043930E+01  0.7957747E-01            NaN
         13   -1    0    0    0    0  0.00000000000E+00  0.00000000000E+00  0.74505805969E-08  0.10566000000E+00  0.10566000000E+00 0.  1.
     999900   -1    0    0    0    0 -0.00000000000E+00 -0.00000000000E+00 -0.74505805969E-08  0.93827000000E+00  0.93827000000E+00 0.  1.
     999902    2    1    2    0    0 -0.14176002669E-01  0.12374060205E-01  0.15305178630E-01  0.10196745901E+01  0.10193860627E+01 0.  0.
     999903    2    3    3    0    0 -0.75261480549E-01 -0.99467005277E-02 -0.10284971051E+00  0.12939922268E+00  0.20071586213E-01 0.  0.
         14    1    1    2    0    0  0.14176002669E-01 -0.12374060205E-01 -0.15305178630E-01  0.24255409922E-01  0.00000000000E+00 0. -1.
     999901    1    3    3    0    0  0.61085477880E-01  0.22320760732E-01  0.11815488914E+00  0.89027536740E+00  0.88000000000E+00 0. -1.
        -11    1    4    4    0    0 -0.39556608930E-01  0.25063047264E-02 -0.63231220704E-01  0.74628783095E-01  0.51100000000E-03 0.  1.
         11    1    4    4    0    0 -0.35704871619E-01 -0.12453005254E-01 -0.39618489802E-01  0.54770439585E-01  0.51100000000E-03 0. -1.
</event>
<event>
 8    1  0.1044719E+005  0.1043930E+01  0.7957747E-01            NaN
         13   -1    0    0    0    0  0.00000000000E+00  0.00000000000E+00  0.74505805969E-08  0.10566000000E+00  0.10566000000E+00 0. -1.
     999900   -1    0    0    0    0 -0.00000000000E+00 -0.00000000000E+00 -0.74505805969E-08  0.93827000000E+00  0.93827000000E+00 0. -1.
     999902    2    1    2    0    0  0.67868137755E-02  0.23056288682E-01  0.11471614242E-02  0.10198682198E+01  0.10195843351E+01 0.  0.
     999903    2    3    3    0    0 -0.21572925775E-01 -0.89298181667E-03 -0.12640457338E+00  0.12989783405E+00  0.20715756764E-01 0.  0.
         14    1    1    2    0    0 -0.67868137755E-02 -0.23056288682E-01 -0.11471614242E-02  0.24061780241E-01  0.00000000000E+00 0.  1.
     999901    1    3    3    0    0  0.28359739551E-01  0.23949270499E-01  0.12755173480E+00  0.88997038571E+00  0.88000000000E+00 0.  1.
        -11    1    4    4    0    0 -0.66602754972E-02 -0.10294642759E-01 -0.53820668070E-01  0.55202032315E-01  0.51100000000E-03 0. -1.
         11    1    4    4    0    0 -0.14912650278E-01  0.94016609426E-02 -0.72583905306E-01  0.74695801738E-01  0.51100000000E-03 0.  1.
</event>
<event>
 7    1  0.1044719E+005  0.1043930E+01  0.7957747E-01            NaN
         13   -1    0    0    0    0  0.00000000000E+00  0.00000000000E+00  0.74505805969E-08  0.10566000000E+00  0.10566000000E+00 0. -1.
     999900   -1    0    0    0    0 -0.00000000000E+00 -0.00000000000E+00 -0.74505805969E-08  0.93827000000E+00  0.93827000000E+00 0. -1.
     999903    2    1    2    0    0 -0.78146593217E-01  0.61204604028E-01 -0.62157997375E-01  0.11891522135E+00  0.20599020483E-01 0.  0.
         14    1    1    2    0    0  0.10825864982E-01 -0.69937059314E-02  0.38352038606E-01  0.40459734805E-01  0.00000000000E+00 0. -1.
     999901    1    1    2    0    0  0.67320728235E-01 -0.54210898097E-01  0.23805958769E-01  0.88455504385E+00  0.88000000000E+00 0.  1.
        -11    1    3    3    0    0 -0.54074087553E-01  0.39007091384E-01 -0.52219233985E-01  0.84691614945E-01  0.51100000000E-03 0.  1.
         11    1    3    3    0    0 -0.24072505664E-01  0.22197512644E-01 -0.99387633900E-02  0.34223606403E-01  0.51100000000E-03 0. -1.
</event>
<event>
 7    1  0.1044719E+005  0.1043930E+01  0.7957747E-01            NaN
         13   -1    0    0    0    0  0.00000000000E+00  0.00000000000E+00  0.74505805969E-08  0.10566000000E+00  0.10566000000E+00 0. -1.
     999900   -1    0    0    0    0 -0.00000000000E+00 -0.00000000000E+00 -0.74505805969E-08  0.93827000000E+00  0.93827000000E+00 0. -1.
     999903    2    1    2    0    0 -0.16523447316E-01  0.82306025183E-01  0.21248742146E-01  0.88926386604E-01  0.20225901685E-01 0.  0.
         14    1    1    2    0    0  0.42668717119E-01 -0.17679656230E-01 -0.54727249277E-01  0.71611880847E-01  0.00000000000E+00 0.  1.
     999901    1    1    2    0    0 -0.26145269804E-01 -0.64626368953E-01  0.33478507130E-01  0.88339173255E+00  0.88000000000E+00 0. -1.
        -11    1    3    3    0    0 -0.20029786898E-02  0.45817641247E-01  0.18823714138E-01  0.49576824304E-01  0.51100000000E-03 0.  1.
         11    1    3    3    0    0 -0.14520468626E-01  0.36488383936E-01  0.24250280083E-02  0.39349562300E-01  0.51100000000E-03 0. -1.
</event>
<event>
 8    1  0.1044719E+005  0.1043930E+01  0.7957747E-01            NaN
         13   -1    0    0    0    0  0.00000000000E+00  0.00000000000E+00  0.74505805969E-08  0.10566000000E+00  0.10566000000E+00 0.  1.
     999900   -1    0    0    0    0 -0.00000000000E+00 -0.00000000000E+00 -0.74505805969E-08  0.93827000000E+00  0.93827000000E+00 0.  1.
     999902    2    1    2    0    0 -0.75822996728E-02  0.22346729108E-01  0.26903257735E-02  0.10201790964E+01  0.10199025852E+01 0.  0.
     999903    2    3    3    0    0 -0.60493502952E-01  0.34009974589E-01  0.11043791366E+00  0.13195324141E+00  0.19974555694E-01 0.  0.
         14    1    1    2    0    0  0.75822996728E-02 -0.22346729108E-01 -0.26903257735E-02  0.23750903624E-01  0.00000000000E+00 0. -1.
     999901    1    3    3    0    0  0.52911203279E-01 -0.11663245480E-01 -0.10774758789E+00  0.88822585496E+00  0.88000000000E+00 0.  1.
        -11    1    4    4    0    0 -0.15029400736E-01  0.18580240963E-01  0.42510207105E-01  0.48769735183E-01  0.51100000000E-03 0.  1.
         11    1    4    4    0    0 -0.45464102215E-01  0.15429733626E-01  0.67927706556E-01  0.83183506231E-01  0.51100000000E-03 0. -1.
</event>
<event>
 8    1  0.1044719E+005  0.1043930E+01  0.7957747E-01            NaN
         13   -1    0    0    0    0  0.00000000000E+00  0.00000000000E+00  0.74505805969E-08  0.10566000000E+00  0.10566000000E+00 0.  1.
     999900   -1    0    0    0    0 -0.00000000000E+00 -0.00000000000E+00 -0.74505805969E-08  0.93827000000E+00  0.93827000000E+00 0.  1.
     999902    2    1    2    0    0  0.10512349298E-01 -0.29233622489E-02  0.20502451369E-01  0.10207048833E+01  0.10204406169E+01 0.  0.
     999903    2    3    3    0    0 -0.11903623207E+00 -0.17726022563E-01  0.46775982680E-01  0.13070923602E+00  0.20324256584E-01 0.  0.
         14    1    1    2    0    0 -0.10512349298E-01  0.29233622489E-02 -0.20502451369E-01  0.23225116722E-01  0.00000000000E+00 0. -1.
     999901    1    3    3    0    0  0.12954858136E+00  0.14802660314E-01 -0.26273531311E-01  0.88999564726E+00  0.88000000000E+00 0.  1.
        -11    1    4    4    0    0 -0.39128249929E-01 -0.15189264432E-01  0.18950675043E-01  0.46055650056E-01  0.51100000000E-03 0.  1.
         11    1    4    4    0    0 -0.79907982137E-01 -0.25367581313E-02  0.27825307637E-01  0.84653585967E-01  0.51100000000E-03 0. -1.
</event>
<event>
 8    1  0.1044719E+005  0.1043930E+01  0.7957747E-01            NaN
         13   -1    0    0    0    0  0.00000000000E+00  0.00000000000E+00  0.74505805969E-08  0.10566000000E+00  0.10566000000E+00 0.  1.
     999900   -1    0    0    0    0 -0.00000000000E+00 -0.00000000000E+00 -0.74505805969E-08  0.93827000000E+00  0.93827000000E+00 0.  1.
     999902    2    1    2    0    0 -0.51271299017E-02  0.21918189138E-01 -0.54757574140E-02  0.10207636797E+01  0.10205007650E+01 0.  0.
     999903    2    3    3    0    0 -0.45815119800E-01 -0.99681948737E-01 -0.60986744230E-01  0.12973978795E+00  0.32825500726E-01 0.  0.
         14    1    1    2    0    0  0.51271299017E-02 -0.21918189138E-01  0.54757574140E-02  0.23166320282E-01  0.00000000000E+00 0.  1.
     999901    1    3    3    0    0  0.40687989898E-01  0.12160013788E+00  0.55510986816E-01  0.89102389177E+00  0.88000000000E+00 0. -1.
        -11    1    4    4    0    0 -0.41847673621E-01 -0.53228296730E-01 -0.39631797118E-01  0.78456483633E-01  0.51100000000E-03 0. -1.
         11    1    4    4    0    0 -0.39674461786E-02 -0.46453652007E-01 -0.21354947112E-01  0.51283304312E-01  0.51100000000E-03 0.  1.
</event>
<event>
 8    1  0.1044719E+005  0.1043930E+01  0.7957747E-01            NaN
         13   -1    0    0    0    0  0.00000000000E+00  0.00000000000E+00  0.74505805969E-08  0.10566000000E+00  0.10566000000E+00 0. -1.
     999900   -1    0    0    0    0 -0.00000000000E+00 -0.00000000000E+00 -0.74505805969E-08  0.93827000000E+00  0.93827000000E+00 0. -1.
     999902    2    1    2    0    0 -0.12615199882E-02  0.60266151488E-02  0.23581713913E-01  0.10195577052E+01  0.10192663565E+01 0.  0.
     999903    2    3    3    0    0 -0.43266295185E-01 -0.96043148719E-01 -0.69456259755E-01  0.12779613259E+00  0.20283509836E-01 0.  0.
         14    1    1    2    0    0  0.12615199882E-02 -0.60266151488E-02 -0.23581713913E-01  0.24372294801E-01  0.00000000000E+00 0.  1.
     999901    1    3    3    0    0  0.42004775197E-01  0.10206976387E+00  0.93037973667E-01  0.89176157261E+00  0.88000000000E+00 0.  1.
        -11    1    4    4    0    0 -0.12007887393E-01 -0.50715498154E-01 -0.31151879117E-01  0.60720275083E-01  0.51100000000E-03 0.  1.
         11    1    4    4    0    0 -0.31258407791E-01 -0.45327650565E-01 -0.38304380638E-01  0.67075857508E-01  0.51100000000E-03 0. -1.
</event>
<event>
 8    1  0.1044719E+005  0.1043930E+01  0.7957747E-01            NaN
         13   -1    0    0    0    0  0.00000000000E+00  0.00000000000E+00  0.74505805969E-08  0.10566000000E+00  0.10566000000E+00 0.  1.
     999900   -1    0    0    0    0 -0.00000000000E+00 -0.00000000000E+00 -0.74505805969E-08  0.93827000000E+00  0.93827000000E+00 0.  1.
     999902    2    1    2    0    0 -0.81929237368E-02  0.21016002910E-01 -0.70466457253E-02  0.10202984196E+01  0.10200247121E+01 0.  0.
     999903    2    3    3    0    0  0.12289778049E+00 -0.31159415448E-01 -0.10857084131E-01  0.12905122240E+00  0.21484136191E-01 0.  0.
         14    1    1    2    0    0  0.81929237368E-02 -0.21016002910E-01  0.70466457253E-02  0.23631580431E-01  0.00000000000E+00 0.  1.
     999901    1    3    3    0    0 -0.13109070423E+00  0.52175418359E-01  0.38104384061E-02  0.89124719717E+00  0.88000000000E+00 0. -1.
        -11    1    4    4    0    0  0.71434277735E-01 -0.14425955210E-01 -0.16241455730E-01  0.74665991083E-01  0.51100000000E-03 0. -1.
         11    1    4    4    0    0  0.51463502754E-01 -0.16733460238E-01  0.53843715985E-02  0.54385231320E-01  0.51100000000E-03 0.  1.
</event>
<event>
 8    1  0.1044719E+005  0.1043930E+01  0.7957747E-01            NaN
         13   -1    0    0    0    0  0.00000000000E+00  0.00000000000E+00  0.74505805969E-08  0.10566000000E+00  0.10566000000E+00 0. -1.
     999900   -1    0    0    0    0 -0.00000000000E+00 -0.00000000000E+00 -0.74505805969E-08  0.93827000000E+00  0.93827000000E+00 0.  1.
     999902    2    1    2    0    0 -0.65449186996E-02  0.69867431783E-02 -0.21814486284E-01  0.10201072723E+01  0.10198290664E+01 0.  0.
     999903    2    3    3    0    0 -0.60698807423E-01  0.80900540727E-01  0.78853641822E-01  0.12964112187E+00  0.18965256074E-01 0.  0.
         14    1    1    2    0    0  0.65449186996E-02 -0.69867431783E-02  0.21814486284E-01  0.23822727654E-01  0.00000000000E+00 0. -1.
     999901    1    3    3    0    0  0.54153888724E-01 -0.73913797549E-01 -0.10066812811E+00  0.89046615048E+00  0.88000000000E+00 0.  1.
        -11    1    4    4    0    0 -0.99126631020E-02  0.25620392296E-01  0.26040282535E-01  0.37855287962E-01  0.51100000000E-03 0. -1.
         11    1    4    4    0    0 -0.50786144321E-01  0.55280148431E-01  0.52813359286E-01  0.91785833905E-01  0.51100000000E-03 0.  1.
</event>
<event>
 8    1  0.1044719E+005  0.1043930E+01  0.7957747E-01            NaN
         13   -1    0    0    0    0  0.00000000000E+00  0.00000000000E+00  0.74505805969E-08  0.10566000000E+00  0.10566000000E+00 0. -1.
     999900   -1    0    0    0    0 -0.00000000000E+00 -0.00000000000E+00 -0.74505805969E-08  0.93827000000E+00  0.93827000000E+00 0. -1.
     999902    2    1    2    0    0  0.13346570865E-02  0.99738027429E-02  0.22426629318E-01  0.10193492809E+01  0.10190528665E+01 0.  0.
     999903    2    3    3    0    0 -0.68193095151E-01  0.10903689649E+00 -0.10056002329E-01  0.13047205299E+00  0.19557361963E-01 0.  0.
         14    1    1    2    0    0 -0.13346570865E-02 -0.99738027429E-02 -0.22426629318E-01  0.24580719136E-01  0.00000000000E+00 0.  1.
     999901    1    3    3    0    0  0.69527752238E-01 -0.99063093744E-01  0.32482631646E-01  0.88887722787E+00  0.88000000000E+00 0.  1.
        -11    1    4    4    0    0 -0.47918049132E-01  0.88580980144E-01 -0.12859115167E-01  0.10153003221E+00  0.51100000000E-03 0. -1.
         11    1    4    4    0    0 -0.20275046019E-01  0.20455916343E-01  0.28031128379E-02  0.28942020785E-01  0.51100000000E-03 0.  1.
</event>
<event>
 8    1  0.1044719E+005  0.1043930E+01  0.7957747E-01            NaN
         13   -1    0    0    0    0  0.00000000000E+00  0.00000000000E+00  0.74505805969E-08  0.10566000000E+00  0.10566000000E+00 0.  1.
     999900   -1    0    0    0    0 -0.00000000000E+00 -0.00000000000E+00 -0.74505805969E-08  0.93827000000E+00  0.93827000000E+00 0.  1.
     999902    2    1    2    0    0 -0.45355468447E-02 -0.21666924132E-01  0.79792930463E-03  0.10217790750E+01  0.10215389443E+01 0.  0.
     999903    2    3    3    0    0 -0.15774124621E-01  0.19868592303E-01  0.12771782240E+00  0.13163292745E+00  0.19282154008E-01 0.  0.
         14    1    1    2    0    0  0.45355468447E-02  0.21666924132E-01 -0.79792930463E-03  0.22150924985E-01  0.00000000000E+00 0. -1.
     999901    1    3    3    0    0  0.11238577776E-01 -0.41535516435E-01 -0.12691989310E+00  0.89014614756E+00  0.88000000000E+00 0.  1.
        -11    1    4    4    0    0 -0.14029670434E-01  0.95497936426E-02  0.42387049799E-01  0.45661289106E-01  0.51100000000E-03 0.  1.
         11    1    4    4    0    0 -0.17444541868E-02  0.10318798660E-01  0.85330772602E-01  0.85971638347E-01  0.51100000000E-03 0. -1.
</event>
<event>
 8    1  0.1044719E+005  0.1043930E+01  0.7957747E-01            NaN
         13   -1    0    0    0    0  0.00000000000E+00  0.00000000000E+00  0.74505805969E-08  0.10566000000E+00  0.10566000000E+00 0.  1.
     999900   -1    0    0    0    0 -0.00000000000E+00 -0.00000000000E+00 -0.74505805969E-08  0.93827000000E+00  0.93827000000E+00 0.  1.
     999902    2    1    2    0    0 -0.13986099523E-01  0.18007226039E-01  0.66414982723E-02  0.10201817228E+01  0.10199052735E+01 0.  0.
     999903    2    3    3    0    0  0.21379248604E-01  0.12625806900E-01 -0.12558854632E+00  0.12958391673E+00  0.20075488489E-01 0.  0.
         14    1    1    2    0    0  0.13986099523E-01 -0.18007226039E-01 -0.66414982723E-02  0.23748277175E-01  0.00000000000E+00 0.  1.
     999901    1    3    3    0    0 -0.35365348127E-01  0.53814191389E-02  0.13223004459E+00  0.89059780609E+00  0.88000000000E+00 0. -1.
        -11    1    4    4    0    0  0.88120850700E-02  0.14944939928E-01 -0.50145225970E-01  0.53064195851E-01  0.51100000000E-03 0.  1.
         11    1    4    4    0    0  0.12567163534E-01 -0.23191330272E-02 -0.75443320352E-01  0.76519720883E-01  0.51100000000E-03 0. -1.
</event>
<event>
 8    1  0.1044719E+005  0.1043930E+01  0.7957747E-01            NaN
         13   -1    0    0    0    0  0.00000000000E+00  0.00000000000E+00  0.74505805969E-08  0.10566000000E+00  0.10566000000E+00 0. -1.
     999900   -1    0    0    0    0 -0.00000000000E+00 -0.00000000000E+00 -0.74505805969E-08  0.93827000000E+00  0.93827000000E+00 0. -1.
     999902    2    1    2    0    0 -0.18298977861E-01  0.12787969081E-02  0.17139366045E-01  0.10188253036E+01  0.10185159564E+01 0.  0.
     999903    2    3    3    0    0 -0.12445022205E+00 -0.30266504886E-01  0.24412850309E-01  0.13185512583E+00  0.19643519572E-01 0.  0.
         14    1    1    2    0    0  0.18298977861E-01 -0.12787969081E-02 -0.17139366045E-01  0.25104696388E-01  0.00000000000E+00 0.  1.
     999901    1    3    3    0    0  0.10615124418E+00  0.31545301794E-01 -0.72734842636E-02  0.88697017779E+00  0.88000000000E+00 0.  1.
        -11    1    4    4    0    0 -0.75987686205E-01 -0.21631069116E-01  0.57835368684E-02  0.79219581075E-01  0.51100000000E-03 0.  1.
         11    1    4    4    0    0 -0.48462535841E-01 -0.86354357704E-02  0.18629313440E-01  0.52635544752E-01  0.51100000000E-03 0. -1.
</event>
<event>
 8    1  0.1044719E+005  0.1043930E+01  0.7957747E-01            NaN
         13   -1    0    0    0    0  0.00000000000E+00  0.00000000000E+00  0.74505805969E-08  0.10566000000E+00  0.10566000000E+00 0.  1.
     999900   -1    0    0    0    0 -0.00000000000E+00 -0.00000000000E+00 -0.74505805969E-08  0.93827000000E+00  0.93827000000E+00 0. -1.
     999902    2    1    2    0    0  0.27143562895E-02  0.51146165577E-02  0.13160642986E-01  0.10295519071E+01  0.10294515043E+01 0.  0.
     999903    2    3    3    0    0 -0.56327279031E-01 -0.11995644623E+00 -0.31415657537E-01  0.13763502079E+00  0.19853061598E-01 0.  0.
         14    1    1    2    0    0 -0.27143562895E-02 -0.51146165577E-02 -0.13160642986E-01  0.14378092933E-01  0.00000000000E+00 0. -1.
     999901    1    3    3    0    0  0.59041635320E-01  0.12507106279E+00  0.44576300523E-01  0.89191688627E+00  0.88000000000E+00 0. -1.
        -11    1    4    4    0    0 -0.32120482084E-01 -0.56570713057E-01 -0.24154163654E-01  0.69394925520E-01  0.51100000000E-03 0.  1.
         11    1    4    4    0    0 -0.24206796947E-01 -0.63385733176E-01 -0.72614938824E-02  0.68240095275E-01  0.51100000000E-03 0. -1.
</event>
<event>
 8    1  0.1044719E+005  0.1043930E+01  0.7957747E-01            NaN
         13   -1    0    0    0    0  0.00000000000E+00  0.00000000000E+00  0.74505805969E-08  0.10566000000E+00  0.10566000000E+00 0. -1.
     999900   -1    0    0    0    0 -0.00000000000E+00 -0.00000000000E+00 -0.74505805969E-08  0.93827000000E+00  0.93827000000E+00 0. -1.
     999902    2    1    2    0    0  0.24556765562E-01 -0.16272360407E-01  0.92829619857E-02  0.10130431447E+01  0.10125721778E+01 0.  0.
     999903    2    3    3    0    0  0.76392962254E-01 -0.30800151796E-02  0.99223867578E-01  0.12684316965E+00  0.19961027355E-01 0.  0.
         14    1    1    2    0    0 -0.24556765562E-01  0.16272360407E-01 -0.92829619857E-02  0.30886855315E-01  0.00000000000E+00 0. -1.
     999901    1    3    3    0    0 -0.51836196693E-01 -0.13192345227E-01 -0.89940905593E-01  0.88619997504E+00  0.88000000000E+00 0. -1.
        -11    1    4    4    0    0  0.74684978222E-01 -0.66006404695E-02  0.95509378178E-01  0.12142370801E+00  0.51100000000E-03 0. -1.
         11    1    4    4    0    0  0.17079840325E-02  0.35206252899E-02  0.37144894008E-02  0.54194616334E-02  0.51100000000E-03 0.  1.
</event>
<event>
 8    1  0.1044719E+005  0.1043930E+01  0.7957747E-01            NaN
         13   -1    0    0    0    0  0.00000000000E+00  0.00000000000E+00  0.74505805969E-08  0.10566000000E+00  0.10566000000E+00 0.  1.
     999900   -1    0    0    0    0 -0.00000000000E+00 -0.00000000000E+00 -0.74505805969E-08  0.93827000000E+00  0.93827000000E+00 0.  1.
     999902    2    1    2    0    0 -0.25104220434E-01  0.27061536688E-02 -0.75274381665E-02  0.10175821827E+01  0.10172410192E+01 0.  0.
     999903    2    3    3    0    0 -0.55930025160E-01 -0.22018635903E-01 -0.11415260940E+00  0.13026573824E+00  0.18037635252E-01 0.  0.
         14    1    1    2    0    0  0.25104220434E-01 -0.27061536688E-02  0.75274381665E-02  0.26347817303E-01  0.00000000000E+00 0. -1.
     999901    1    3    3    0    0  0.30825804727E-01  0.24724789572E-01  0.10662517124E+00  0.88731644445E+00  0.88000000000E+00 0. -1.
        -11    1    4    4    0    0 -0.27933515828E-01 -0.16858583358E-01 -0.45940282630E-01  0.56349479398E-01  0.51100000000E-03 0.  1.
         11    1    4    4    0    0 -0.27996509333E-01 -0.51600525450E-02 -0.68212326772E-01  0.73916258846E-01  0.51100000000E-03 0. -1.
</event>
<event>
 8    1  0.1044719E+005  0.1043930E+01  0.7957747E-01            NaN
         13   -1    0    0    0    0  0.00000000000E+00  0.00000000000E+00  0.74505805969E-08  0.10566000000E+00  0.10566000000E+00 0.  1.
     999900   -1    0    0    0    0 -0.00000000000E+00 -0.00000000000E+00 -0.74505805969E-08  0.93827000000E+00  0.93827000000E+00 0. -1.
     999902    2    1    2    0    0 -0.82189761737E-02  0.40541179737E-03 -0.20924824525E-01  0.10214452450E+01  0.10211977400E+01 0.  0.
     999903    2    3    3    0    0 -0.30319010845E-01 -0.73511712122E-01  0.10062859149E+00  0.12974608846E+00  0.19614275612E-01 0.  0.
         14    1    1    2    0    0  0.82189761737E-02 -0.40541179737E-03  0.20924824525E-01  0.22484755046E-01  0.00000000000E+00 0.  1.
     999901    1    3    3    0    0  0.22100034671E-01  0.73917123919E-01 -0.12155341602E+00  0.89169915649E+00  0.88000000000E+00 0. -1.
        -11    1    4    4    0    0 -0.20442514946E-01 -0.35845151549E-01  0.38603965680E-01  0.56509278832E-01  0.51100000000E-03 0. -1.
         11    1    4    4    0    0 -0.98764958992E-02 -0.37666560572E-01  0.62024625814E-01  0.73236809631E-01  0.51100000000E-03 0.  1.
</event>
<event>
 8    1  0.1044719E+005  0.1043930E+01  0.7957747E-01            NaN
         13   -1    0    0    0    0  0.00000000000E+00  0.00000000000E+00  0.74505805969E-08  0.10566000000E+00  0.10566000000E+00 0.  1.
     999900   -1    0    0    0    0 -0.00000000000E+00 -0.00000000000E+00 -0.74505805969E-08  0.93827000000E+00  0.93827000000E+00 0. -1.
     999902    2    1    2    0    0 -0.17510466922E-01  0.12389374644E-01  0.10069582004E-01  0.10202338075E+01  0.10199585837E+01 0.  0.
     999903    2    3    3    0    0 -0.12780880604E+00  0.26692977384E-01 -0.13150502728E-01  0.13292918735E+00  0.21204414230E-01 0.  0.
         14    1    1    2    0    0  0.17510466922E-01 -0.12389374644E-01 -0.10069582004E-01  0.23696192471E-01  0.00000000000E+00 0. -1.
     999901    1    3    3    0    0  0.11029833912E+00 -0.14303602741E-01  0.23220084732E-01  0.88730462018E+00  0.88000000000E+00 0.  1.
        -11    1    4    4    0    0 -0.54333575640E-01  0.21964311764E-01 -0.41912097895E-02  0.58757091433E-01  0.51100000000E-03 0. -1.
         11    1    4    4    0    0 -0.73475230402E-01  0.47286656199E-02 -0.89592929382E-02  0.74172095913E-01  0.51100000000E-03 0.  1.
</event>
<event>
 8    1  0.1044719E+005  0.1043930E+01  0.7957747E-01            NaN
         13   -1    0    0    0    0  0.00000000000E+00  0.00000000000E+00  0.74505805969E-08  0.10566000000E+00  0.10566000000E+00 0. -1.
     999900   -1    0    0    0    0 -0.00000000000E+00 -0.00000000000E+00 -0.74505805969E-08  0.93827000000E+00  0.93827000000E+00 0.  1.
     999902    2    1    2    0    0  0.12519395600E-01  0.15503932566E-01  0.12768684953E-01  0.10202625856E+01  0.10199880377E+01 0.  0.
     999903    2    3    3    0    0  0.78677662519E-01  0.10444715410E+00  0.16348026813E-01  0.13330112944E+00  0.20063662428E-01 0.  0.
         14    1    1    2    0    0 -0.12519395600E-01 -0.15503932566E-01 -0.12768684953E-01  0.23667414447E-01  0.00000000000E+00 0.  1.
     999901    1    3    3    0    0 -0.66158266919E-01 -0.88943221537E-01 -0.35793418601E-02  0.88696145611E+00  0.88000000000E+00 0. -1.
        -11    1    4    4    0    0  0.19092019532E-01  0.39152645456E-01  0.98706417699E-02  0.44666828251E-01  0.51100000000E-03 0. -1.
         11    1    4    4    0    0  0.59585642986E-01  0.65294508647E-01  0.64773850430E-02  0.88634301191E-01  0.51100000000E-03 0.  1.
</event>
<event>
 8    1  0.1044719E+005  0.1043930E+01  0.7957747E-01            NaN
         13   -1    0    0    0    0  0.00000000000E+00  0.00000000000E+00  0.74505805969E-08  0.10566000000E+00  0.10566000000E+00 0.  1.
     999900   -1    0    0    0    0 -0.00000000000E+00 -0.00000000000E+00 -0.74505805969E-08  0.93827000000E+00  0.93827000000E+00 0.  1.
     999902    2    1    2    0    0 -0.26216556158E-01  0.43373613592E-02  0.35349793053E-02  0.10171229748E+01  0.10167696540E+01 0.  0.
     999903    2    3    3    0    0  0.85125053674E-01  0.57104655836E-01  0.70444278017E-01  0.12602354395E+00  0.20305684985E-01 0.  0.
         14    1    1    2    0    0  0.26216556158E-01 -0.43373613592E-02 -0.35349793053E-02  0.26807025180E-01  0.00000000000E+00 0. -1.
     999901    1    3    3    0    0 -0.11134160983E+00 -0.52767294477E-01 -0.66909298711E-01  0.89109943087E+00  0.88000000000E+00 0. -1.
        -11    1    4    4    0    0  0.47785566855E-01  0.38639857599E-01  0.51837666263E-01  0.80398406448E-01  0.51100000000E-03 0. -1.
         11    1    4    4    0    0  0.37339486819E-01  0.18464798238E-01  0.18606611754E-01  0.45625137500E-01  0.51100000000E-03 0.  1.
</event>
<event>
 8    1  0.1044719E+005  0.1043930E+01  0.7957747E-01            NaN
         13   -1    0    0    0    0  0.00000000000E+00  0.00000000000E+00  0.74505805969E-08  0.10566000000E+00  0.10566000000E+00 0.  1.
     999900   -1    0    0    0    0 -0.00000000000E+00 -0.00000000000E+00 -0.74505805969E-08  0.93827000000E+00  0.93827000000E+00 0. -1.
     999902    2    1    2    0    0  0.20219654231E-01 -0.11321451637E-01  0.45650627072E-02  0.10203111626E+01  0.10200377537E+01 0.  0.
     999903    2    3    3    0    0 -0.12058910138E-01 -0.28739898949E-01  0.12578708578E+00  0.13124418707E+00  0.20766477442E-01 0.  0.
         14    1    1    2    0    0 -0.20219654231E-01  0.11321451637E-01 -0.45650627072E-02  0.23618837438E-01  0.00000000000E+00 0. -1.
     999901    1    3    3    0    0  0.32278564368E-01  0.17418447311E-01 -0.12122202308E+00  0.88906697549E+00  0.88000000000E+00 0. -1.
        -11    1    4    4    0    0 -0.88552354205E-02 -0.18242563387E-01  0.40951047427E-01  0.45699624939E-01  0.51100000000E-03 0. -1.
         11    1    4    4    0    0 -0.32036747171E-02 -0.10497335562E-01  0.84836038358E-01  0.85544562135E-01  0.51100000000E-03 0.  1.
</event>
<event>
 8    1  0.1044719E+005  0.1043930E+01  0.7957747E-01            NaN
         13   -1    0    0    0    0  0.00000000000E+00  0.00000000000E+00  0.74505805969E-08  0.10566000000E+00  0.10566000000E+00 0. -1.
     999900   -1    0    0    0    0 -0.00000000000E+00 -0.00000000000E+00 -0.74505805969E-08  0.93827000000E+00  0.93827000000E+00 0.  1.
     999902    2    1    2    0    0  0.34502980008E-03  0.17375714161E-01  0.15087192524E-01  0.10209157030E+01  0.10206562667E+01 0.  0.
     999903    2    3    3    0    0 -0.17954870641E-01  0.12786032079E+00  0.27964900978E-01  0.13372487233E+00  0.20728405141E-01 0.  0.
         14    1    1    2    0    0 -0.34502980008E-03 -0.17375714161E-01 -0.15087192524E-01  0.23014297000E-01  0.00000000000E+00 0.  1.
     999901    1    3    3    0    0  0.18299900441E-01 -0.11048460663E+00 -0.12877708454E-01  0.88719083067E+00  0.88000000000E+00 0.  1.
        -11    1    4    4    0    0 -0.32462431090E-02  0.87587610101E-01  0.14946907009E-01  0.88914558356E-01  0.51100000000E-03 0. -1.
         11    1    4    4    0    0 -0.14708627532E-01  0.40272710688E-01  0.13017993969E-01  0.44810313969E-01  0.51100000000E-03 0.  1.
</event>
<event>
 8    1  0.1044719E+005  0.1043930E+01  0.7957747E-01            NaN
         13   -1    0    0    0    0  0.00000000000E+00  0.00000000000E+00  0.74505805969E-08  0.10566000000E+00  0.10566000000E+00 0.  1.
     999900   -1    0    0    0    0 -0.00000000000E+00 -0.00000000000E+00 -0.74505805969E-08  0.93827000000E+00  0.93827000000E+00 0. -1.
     999902    2    1    2    0    0  0.22360421856E-01 -0.74829028289E-02  0.40761297530E-02  0.10200009981E+01  0.10197202748E+01 0.  0.
     999903    2    3    3    0    0 -0.35210165871E-02 -0.10947294535E-01  0.12893823399E+00  0.13080338451E+00  0.18767429191E-01 0.  0.
         14    1    1    2    0    0 -0.22360421856E-01  0.74829028289E-02 -0.40761297530E-02  0.23929001945E-01  0.00000000000E+00 0. -1.
     999901    1    3    3    0    0  0.25881438444E-01  0.34643917059E-02 -0.12486210424E+00  0.88919761355E+00  0.88000000000E+00 0. -1.
        -11    1    4    4    0    0  0.60560613703E-02 -0.10133652419E-01  0.56022584497E-01  0.57255199636E-01  0.51100000000E-03 0. -1.
         11    1    4    4    0    0 -0.95770779574E-02 -0.81364211587E-03  0.72915649493E-01  0.73548184870E-01  0.51100000000E-03 0.  1.
</event>
<event>
 8    1  0.1044719E+005  0.1043930E+01  0.7957747E-01            NaN
         13   -1    0    0    0    0  0.00000000000E+00  0.00000000000E+00  0.74505805969E-08  0.10566000000E+00  0.10566000000E+00 0.  1.
     999900   -1    0    0    0    0 -0.00000000000E+00 -0.00000000000E+00 -0.74505805969E-08  0.93827000000E+00  0.93827000000E+00 0. -1.
     999902    2    1    2    0    0 -0.15622163617E-01 -0.35500820687E-02 -0.17090477156E-01  0.10205048108E+01  0.10202359185E+01 0.  0.
     999903    2    3    3    0    0 -0.43919514141E-01 -0.42211180635E-01 -0.11705048261E+00  0.13355079663E+00  0.20598356981E-01 0.  0.
         14    1    1    2    0    0  0.15622163617E-01  0.35500820687E-02  0.17090477156E-01  0.23425189182E-01  0.00000000000E+00 0.  1.
     999901    1    3    3    0    0  0.28297350524E-01  0.38661098566E-01  0.99960005449E-01  0.88695401418E+00  0.88000000000E+00 0.  1.
        -11    1    4    4    0    0 -0.24723513729E-01 -0.25770009273E-01 -0.46671267215E-01  0.58769156991E-01  0.51100000000E-03 0.  1.
         11    1    4    4    0    0 -0.19196000412E-01 -0.16441171362E-01 -0.70379215391E-01  0.74781639643E-01  0.51100000000E-03 0. -1.
</event>
<event>
 8    1  0.1044719E+005  0.1043930E+01  0.7957747E-01            NaN
         13   -1    0    0    0    0  0.00000000000E+00  0.00000000000E+00  0.74505805969E-08  0.10566000000E+00  0.10566000000E+00 0. -1.
     999900   -1    0    0    0    0 -0.00000000000E+00 -0.00000000000E+00 -0.74505805969E-08  0.93827000000E+00  0.93827000000E+00 0.  1.
     999902    2    1    2    0    0 -0.67226359694E-02  0.39558314507E-02  0.22542105870E-01  0.10200765102E+01  0.10197975769E+01 0.  0.
     999903    2    3    3    0    0  0.11620208497E+00 -0.53151435952E-01  0.21779242857E-02  0.12946636719E+00  0.20707418568E-01 0.  0.
         14    1    1    2    0    0  0.67226359694E-02 -0.39558314507E-02 -0.22542105870E-01  0.23853489763E-01  0.00000000000E+00 0.  1.
     999901    1    3    3    0    0 -0.12292472094E+00  0.57107267403E-01  0.20364181584E-01  0.89061014305E+00  0.88000000000E+00 0.  1.
        -11    1    4    4    0    0  0.71365840317E-01 -0.42290580308E-01  0.59936846271E-02  0.83173082925E-01  0.51100000000E-03 0. -1.
         11    1    4    4    0    0  0.44836244653E-01 -0.10860855645E-01 -0.38157603414E-02  0.46293284264E-01  0.51100000000E-03 0.  1.
</event>
<event>
 8    1  0.1044719E+005  0.1043930E+01  0.7957747E-01            NaN
         13   -1    0    0    0    0  0.00000000000E+00  0.00000000000E+00  0.74505805969E-08  0.10566000000E+00  0.10566000000E+00 0.  1.
     999900   -1    0    0    0    0 -0.00000000000E+00 -0.00000000000E+00 -0.74505805969E-08  0.93827000000E+00  0.93827000000E+00 0. -1.
     999902    2    1    2    0    0 -0.22172360413E-01 -0.88834920732E-03  0.90531012786E-02  0.10199641624E+01  0.10196825639E+01 0.  0.
     999903    2    3    3    0    0 -0.75219250133E-01  0.85910730653E-01  0.64319954391E-01  0.13238178432E+00  0.18689329959E-01 0.  0.
         14    1    1    2    0    0  0.22172360413E-01  0.88834920732E-03 -0.90531012786E-02  0.23965837631E-01  0.00000000000E+00 0. -1.
     999901    1    3    3    0    0  0.53046889720E-01 -0.86799079861E-01 -0.55266853112E-01  0.88758237805E+00  0.88000000000E+00 0. -1.
        -11    1    4    4    0    0 -0.32011712583E-01  0.23635266998E-01  0.24939115103E-01  0.46963775100E-01  0.51100000000E-03 0. -1.
         11    1    4    4    0    0 -0.43207537550E-01  0.62275463655E-01  0.39380839288E-01  0.85418009217E-01  0.51100000000E-03 0.  1.
</event>
<event>
 8    1  0.1044719E+005  0.1043930E+01  0.7957747E-01            NaN
         13   -1    0    0    0    0  0.00000000000E+00  0.00000000000E+00  0.74505805969E-08  0.10566000000E+00  0.10566000000E+00 0.  1.
     999900   -1    0    0    0    0 -0.00000000000E+00 -0.00000000000E+00 -0.74505805969E-08  0.93827000000E+00  0.93827000000E+00 0. -1.
     999902    2    1    2    0    0  0.67830471228E-02 -0.19417407696E-01 -0.94141172880E-02  0.10213098529E+01  0.10210593247E+01 0.  0.
     999903    2    3    3    0    0 -0.11790424698E+00 -0.24305958319E-01 -0.49247498307E-01  0.13161467057E+00  0.20122483794E-01 0.  0.
         14    1    1    2    0    0 -0.67830471228E-02  0.19417407696E-01  0.94141172880E-02  0.22620147087E-01  0.00000000000E+00 0.  1.
     999901    1    3    3    0    0  0.12468729410E+00  0.48885506226E-02  0.39833381019E-01  0.88969518234E+00  0.88000000000E+00 0.  1.
        -11    1    4    4    0    0 -0.83002594918E-01 -0.98199256220E-02 -0.40234615669E-01  0.92762854211E-01  0.51100000000E-03 0.  1.
         11    1    4    4    0    0 -0.34901652064E-01 -0.14486032697E-01 -0.90128826383E-02  0.38851816361E-01  0.51100000000E-03 0. -1.
</event>
<event>
 8    1  0.1044719E+005  0.1043930E+01  0.7957747E-01            NaN
         13   -1    0    0    0    0  0.00000000000E+00  0.00000000000E+00  0.74505805969E-08  0.10566000000E+00  0.10566000000E+00 0.  1.
     999900   -1    0    0    0    0 -0.00000000000E+00 -0.00000000000E+00 -0.74505805969E-08  0.93827000000E+00  0.93827000000E+00 0. -1.
     999902    2    1    2    0    0  0.15627120811E-01  0.11113342872E-01  0.13386309993E-01  0.10205439659E+01  0.10202759822E+01 0.  0.
     999903    2    3    3    0    0  0.11718631700E+00 -0.35020440610E-01  0.47921562755E-01  0.13283045358E+00  0.19707589146E-01 0.  0.
         14    1    1    2    0    0 -0.15627120811E-01 -0.11113342872E-01 -0.13386309993E-01  0.23386034077E-01  0.00000000000E+00 0. -1.
     999901    1    3    3    0    0 -0.10155919619E+00  0.46133783482E-01 -0.34535252762E-01  0.88771351234E+00  0.88000000000E+00 0. -1.
        -11    1    4    4    0    0  0.53723317409E-01 -0.20336364548E-01  0.12919880233E-01  0.58880786193E-01  0.51100000000E-03 0.  1.
         11    1    4    4    0    0  0.63462999589E-01 -0.14684076062E-01  0.35001682523E-01  0.73949667389E-01  0.51100000000E-03 0. -1.
</event>
<event>
 8    1  0.1044719E+005  0.1043930E+01  0.7957747E-01            NaN
         13   -1    0    0    0    0  0.00000000000E+00  0.00000000000E+00  0.74505805969E-08  0.10566000000E+00  0.10566000000E+00 0.  1.
     999900   -1    0    0    0    0 -0.00000000000E+00 -0.00000000000E+00 -0.74505805969E-08  0.93827000000E+00  0.93827000000E+00 0.  1.
     999902    2    1    2    0    0  0.13307978893E-01 -0.67589194125E-02 -0.18013055888E-01  0.10205365078E+01  0.10202683511E+01 0.  0.
     999903    2    3    3    0    0 -0.30073712360E-01  0.21334084930E-01  0.12146818452E+00  0.12805334022E+00  0.16839439908E-01 0.  0.
         14    1    1    2    0    0 -0.13307978893E-01  0.67589194125E-02  0.18013055888E-01  0.23393492178E-01  0.00000000000E+00 0.  1.
     999901    1    3    3    0    0  0.43381691252E-01 -0.28093004343E-01 -0.13948124041E+00  0.89248316760E+00  0.88000000000E+00 0.  1.
        -11    1    4    4    0    0 -0.15795982190E-01  0.71282902611E-02  0.32530669151E-01  0.36862326728E-01  0.51100000000E-03 0.  1.
         11    1    4    4    0    0 -0.14277730170E-01  0.14205794669E-01  0.88937515367E-01  0.91191013491E-01  0.51100000000E-03 0. -1.
</event>
<event>
 8    1  0.1044719E+005  0.1043930E+01  0.7957747E-01            NaN
         13   -1    0    0    0    0  0.00000000000E+00  0.00000000000E+00  0.74505805969E-08  0.10566000000E+00  0.10566000000E+00 0. -1.
     999900   -1    0    0    0    0 -0.00000000000E+00 -0.00000000000E+00 -0.74505805969E-08  0.93827000000E+00  0.93827000000E+00 0.  1.
     999902    2    1    2    0    0 -0.10749864151E-01  0.16887209260E-01 -0.89165653717E-02  0.10220155629E+01  0.10217805871E+01 0.  0.
     999903    2    3    3    0    0  0.98613681938E-01 -0.49261549641E-01  0.62824305967E-01  0.12989292774E+00  0.27819430612E-01 0.  0.
         14    1    1    2    0    0  0.10749864151E-01 -0.16887209260E-01  0.89165653717E-02  0.21914437110E-01  0.00000000000E+00 0.  1.
     999901    1    3    3    0    0 -0.10936354609E+00  0.66148758901E-01 -0.71740871339E-01  0.89212263514E+00  0.88000000000E+00 0. -1.
        -11    1    4    4    0    0  0.63779683238E-01 -0.39740719218E-01  0.29436527943E-01  0.80709002324E-01  0.51100000000E-03 0.  1.
         11    1    4    4    0    0  0.34833998701E-01 -0.95208304225E-02  0.33387778024E-01  0.49183925421E-01  0.51100000000E-03 0. -1.
</event>
<event>
 8    1  0.1044719E+005  0.1043930E+01  0.7957747E-01            NaN
         13   -1    0    0    0    0  0.00000000000E+00  0.00000000000E+00  0.74505805969E-08  0.10566000000E+00  0.10566000000E+00 0. -1.
     999900   -1    0    0    0    0 -0.00000000000E+00 -0.00000000000E+00 -0.74505805969E-08  0.93827000000E+00  0.93827000000E+00 0.  1.
     999902    2    1    2    0    0  0.11599418961E-01  0.49439533267E-02 -0.21511936227E-01  0.10189950327E+01  0.10186899057E+01 0.  0.
     999903    2    3    3    0    0 -0.72068438165E-01 -0.93758467887E-01  0.43011575774E-01  0.12719586142E+00  0.18554822327E-01 0.  0.
         14    1    1    2    0    0 -0.11599418961E-01 -0.49439533267E-02  0.21511936227E-01  0.24934967314E-01  0.00000000000E+00 0. -1.
     999901    1    3    3    0    0  0.83667857126E-01  0.98702421214E-01 -0.64523512001E-01  0.89179917127E+00  0.88000000000E+00 0. -1.
        -11    1    4    4    0    0 -0.29533784111E-01 -0.52084293493E-01  0.25879110941E-01  0.65230418799E-01  0.51100000000E-03 0. -1.
         11    1    4    4    0    0 -0.42534654054E-01 -0.41674174395E-01  0.17132464834E-01  0.61965442621E-01  0.51100000000E-03 0.  1.
</event>
<event>
 8    1  0.1044719E+005  0.1043930E+01  0.7957747E-01            NaN
         13   -1    0    0    0    0  0.00000000000E+00  0.00000000000E+00  0.74505805969E-08  0.10566000000E+00  0.10566000000E+00 0. -1.
     999900   -1    0    0    0    0 -0.00000000000E+00 -0.00000000000E+00 -0.74505805969E-08  0.93827000000E+00  0.93827000000E+00 0.  1.
     999902    2    1    2    0    0 -0.30444371376E-04  0.21533671764E-01  0.14900957196E-01  0.10177433914E+01  0.10174064440E+01 0.  0.
     999903    2    3    3    0    0  0.84793315452E-01  0.22998032222E-01  0.93948411195E-01  0.13013665718E+00  0.19759295155E-01 0.  0.
         14    1    1    2    0    0  0.30444371376E-04 -0.21533671764E-01 -0.14900957196E-01  0.26186608636E-01  0.00000000000E+00 0. -1.
     999901    1    3    3    0    0 -0.84823759823E-01 -0.14643604579E-02 -0.79047453999E-01  0.88760673418E+00  0.88000000000E+00 0.  1.
        -11    1    4    4    0    0  0.32484946228E-01  0.10906762050E-01  0.50690264077E-01  0.61188178459E-01  0.51100000000E-03 0. -1.
         11    1    4    4    0    0  0.52308369223E-01  0.12091270172E-01  0.43258147118E-01  0.68948478723E-01  0.51100000000E-03 0.  1.
</event>
<event>
 8    1  0.1044719E+005  0.1043930E+01  0.7957747E-01            NaN
         13   -1    0    0    0    0  0.00000000000E+00  0.00000000000E+00  0.74505805969E-08  0.10566000000E+00  0.10566000000E+00 0.  1.
     999900   -1    0    0    0    0 -0.00000000000E+00 -0.00000000000E+00 -0.74505805969E-08  0.93827000000E+00  0.93827000000E+00 0.  1.
     999902    2    1    2    0    0 -0.12855902629E-01  0.14600298454E-01 -0.14525961464E-01  0.10196514806E+01  0.10193623965E+01 0.  0.
     999903    2    3    3    0    0 -0.76945815550E-01  0.96117211472E-02  0.10194884875E+00  0.12965216361E+00  0.20076654459E-01 0.  0.
         14    1    1    2    0    0  0.12855902629E-01 -0.14600298454E-01  0.14525961464E-01  0.24278519391E-01  0.00000000000E+00 0.  1.
     999901    1    3    3    0    0  0.64089912921E-01  0.49885773071E-02 -0.11647481021E+00  0.88999931700E+00  0.88000000000E+00 0.  1.
        -11    1    4    4    0    0 -0.45276105336E-01  0.18632220361E-02  0.44027107602E-01  0.63182629223E-01  0.51100000000E-03 0. -1.
         11    1    4    4    0    0 -0.31669710213E-01  0.77484991110E-02  0.57921741146E-01  0.66469534388E-01  0.51100000000E-03 0.  1.
</event>
<event>
 8    1  0.1044719E+005  0.1043930E+01  0.7957747E-01            NaN
         13   -1    0    0    0    0  0.00000000000E+00  0.00000000000E+00  0.74505805969E-08  0.10566000000E+00  0.10566000000E+00 0.  1.
     999900   -1    0    0    0    0 -0.00000000000E+00 -0.00000000000E+00 -0.74505805969E-08  0.93827000000E+00  0.93827000000E+00 0. -1.
     999902    2    1    2    0    0  0.12220244897E-01 -0.15404099417E-01 -0.94414238076E-02  0.10221180503E+01  0.10218852909E+01 0.  0.
     999903    2    3    3    0    0  0.38623557485E-01 -0.93243563254E-01  0.84658594264E-01  0.13329245978E+00  0.20338657036E-01 0.  0.
         14    1    1    2    0    0 -0.12220244897E-01  0.15404099417E-01  0.94414238076E-02  0.21811949654E-01  0.00000000000E+00 0. -1.
     999901    1    3    3    0    0 -0.26403312588E-01  0.77839463837E-01 -0.94100018072E-01  0.88882559057E+00  0.88000000000E+00 0. -1.
        -11    1    4    4    0    0  0.37785428923E-01 -0.90894697881E-01  0.85725308666E-01  0.13053227344E+00  0.51100000000E-03 0. -1.
         11    1    4    4    0    0  0.83812856206E-03 -0.23488653727E-02 -0.10667144017E-02  0.27601863416E-02  0.51100000000E-03 0.  1.
</event>
<event>
 8    1  0.1044719E+005  0.1043930E+01  0.7957747E-01            NaN
         13   -1    0    0    0    0  0.00000000000E+00  0.00000000000E+00  0.74505805969E-08  0.10566000000E+00  0.10566000000E+00 0. -1.
     999900   -1    0    0    0    0 -0.00000000000E+00 -0.00000000000E+00 -0.74505805969E-08  0.93827000000E+00  0.93827000000E+00 0.  1.
     999902    2    1    2    0    0 -0.17351629045E-01 -0.12005078669E-01  0.63191544463E-02  0.10219042728E+01  0.10216668783E+01 0.  0.
     999903    2    3    3    0    0  0.70471282122E-01  0.29839903645E-02  0.10752553809E+00  0.13163450023E+00  0.28121068752E-01 0.  0.
         14    1    1    2    0    0  0.17351629045E-01  0.12005078669E-01 -0.63191544463E-02  0.22025727168E-01  0.00000000000E+00 0.  1.
     999901    1    3    3    0    0 -0.87822911167E-01 -0.14989069034E-01 -0.10120638364E+00  0.89026977260E+00  0.88000000000E+00 0.  1.
        -11    1    4    4    0    0  0.14036506834E-01 -0.50951024114E-02  0.43042073656E-01  0.45561659521E-01  0.51100000000E-03 0. -1.
         11    1    4    4    0    0  0.56434775288E-01  0.80790927759E-02  0.64483464432E-01  0.86072840711E-01  0.51100000000E-03 0.  1.
</event>
<event>
 8    1  0.1044719E+005  0.1043930E+01  0.7957747E-01            NaN
         13   -1    0    0    0    0  0.00000000000E+00  0.00000000000E+00  0.74505805969E-08  0.10566000000E+00  0.10566000000E+00 0. -1.
     999900   -1    0    0    0    0 -0.00000000000E+00 -0.00000000000E+00 -0.74505805969E-08  0.93827000000E+00  0.93827000000E+00 0. -1.
     999902    2    1    2    0    0  0.17990275576E-01 -0.10084860716E-01  0.10974320523E-01  0.10205678481E+01  0.10203004177E+01 0.  0.
     999903    2    3    3    0    0  0.13157254003E+00  0.14233884828E-02  0.32015737183E-02  0.13315938172E+00  0.20194344281E-01 0.  0.
         14    1    1    2    0    0 -0.17990275576E-01  0.10084860716E-01 -0.10974320523E-01  0.23362151911E-01  0.00000000000E+00 0.  1.
     999901    1    3    3    0    0 -0.11358226445E+00 -0.11508249199E-01  0.77727468048E-02  0.88740846637E+00  0.88000000000E+00 0.  1.
        -11    1    4    4    0    0  0.85636889820E-01  0.86126720787E-02 -0.37127820212E-02  0.86150454960E-01  0.51100000000E-03 0.  1.
         11    1    4    4    0    0  0.45935650207E-01 -0.71892835960E-02  0.69143557395E-02  0.47008926757E-01  0.51100000000E-03 0. -1.
</event>
<event>
 8    1  0.1044719E+005  0.1043930E+01  0.7957747E-01            NaN
         13   -1    0    0    0    0  0.00000000000E+00  0.00000000000E+00  0.74505805969E-08  0.10566000000E+00  0.10566000000E+00 0.  1.
     999900   -1    0    0    0    0 -0.00000000000E+00 -0.00000000000E+00 -0.74505805969E-08  0.93827000000E+00  0.93827000000E+00 0. -1.
     999902    2    1    2    0    0  0.44806228140E-02 -0.21383408479E-01  0.86777883763E-02  0.10204219131E+01  0.10201510920E+01 0.  0.
     999903    2    3    3    0    0  0.77051577008E-01 -0.10356049119E+00  0.27402785860E-01  0.13342121307E+00  0.19712599220E-01 0.  0.
         14    1    1    2    0    0 -0.44806228140E-02  0.21383408479E-01 -0.86777883763E-02  0.23508086909E-01  0.00000000000E+00 0. -1.
     999901    1    3    3    0    0 -0.72570954194E-01  0.82177082711E-01 -0.18724997483E-01  0.88700070003E+00  0.88000000000E+00 0.  1.
        -11    1    4    4    0    0  0.72499694534E-01 -0.88402271599E-01  0.27477434752E-01  0.11758587446E+00  0.51100000000E-03 0. -1.
         11    1    4    4    0    0  0.45518824737E-02 -0.15158219592E-01 -0.74648892378E-04  0.15835338604E-01  0.51100000000E-03 0.  1.
</event>
<event>
 8    1  0.1044719E+005  0.1043930E+01  0.7957747E-01            NaN
         13   -1    0    0    0    0  0.00000000000E+00  0.00000000000E+00  0.74505805969E-08  0.10566000000E+00  0.10566000000E+00 0. -1.
     999900   -1    0    0    0    0 -0.00000000000E+00 -0.00000000000E+00 -0.74505805969E-08  0.93827000000E+00  0.93827000000E+00 0. -1.
     999902    2    1    2    0    0  0.59861862171E-03 -0.42524466543E-02 -0.22663217526E-01  0.10208635075E+01  0.10206028796E+01 0.  0.
     999903    2    3    3    0    0 -0.12597474306E+00  0.29330045392E-01 -0.44597248167E-02  0.13098713026E+00  0.20195338446E-01 0.  0.
         14    1    1    2    0    0 -0.59861862171E-03  0.42524466543E-02  0.22663217526E-01  0.23066492482E-01  0.00000000000E+00 0. -1.
     999901    1    3    3    0    0  0.12657336168E+00 -0.33582492046E-01 -0.18203492709E-01  0.88987637726E+00  0.88000000000E+00 0.  1.
        -11    1    4    4    0    0 -0.44356651532E-01  0.13012822183E-02 -0.52273466776E-02  0.44685480246E-01  0.51100000000E-03 0. -1.
         11    1    4    4    0    0 -0.81618091532E-01  0.28028763174E-01  0.76762186092E-03  0.86301650011E-01  0.51100000000E-03 0.  1.
</event>
<event>
 8    1  0.1044719E+005  0.1043930E+01  0.7957747E-01            NaN
         13   -1    0    0    0    0  0.00000000000E+00  0.00000000000E+00  0.74505805969E-08  0.10566000000E+00  0.10566000000E+00 0. -1.
     999900   -1    0    0    0    0 -0.00000000000E+00 -0.00000000000E+00 -0.74505805969E-08  0.93827000000E+00  0.93827000000E+00 0. -1.
     999902    2    1    2    0    0  0.83913792123E-02  0.76589096095E-02 -0.20606307129E-01  0.10203992959E+01  0.10201279474E+01 0.  0.
     999903    2    3    3    0    0 -0.10602738717E+00 -0.69978940490E-01  0.11347233917E-01  0.12902938468E+00  0.19518285024E-01 0.  0.
         14    1    1    2    0    0 -0.83913792123E-02 -0.76589096095E-02  0.20606307129E-01  0.23530704090E-01  0.00000000000E+00 0. -1.
     999901    1    3    3    0    0  0.11441876638E+00  0.77637850100E-01 -0.31953541046E-01  0.89136991123E+00  0.88000000000E+00 0. -1.
        -11    1    4    4    0    0 -0.40478005969E-01 -0.32516664886E-01 -0.36556990749E-02  0.52052163444E-01  0.51100000000E-03 0.  1.
         11    1    4    4    0    0 -0.65549381200E-01 -0.37462275605E-01  0.15002932992E-01  0.76977221231E-01  0.51100000000E-03 0. -1.
</event>
<event>
 8    1  0.1044719E+005  0.1043930E+01  0.7957747E-01            NaN
         13   -1    0    0    0    0  0.00000000000E+00  0.00000000000E+00  0.74505805969E-08  0.10566000000E+00  0.10566000000E+00 0. -1.
     999900   -1    0    0    0    0 -0.00000000000E+00 -0.00000000000E+00 -0.74505805969E-08  0.93827000000E+00  0.93827000000E+00 0. -1.
     999902    2    1    2    0    0 -0.45452808102E-02  0.69104751077E-02 -0.22414155023E-01  0.10200383992E+01  0.10197585632E+01 0.  0.
     999903    2    3    3    0    0 -0.78179135671E-01  0.47910788688E-01 -0.95311807450E-01  0.13301132067E+00  0.14150966775E-01 0.  0.
         14    1    1    2    0    0  0.45452808102E-02 -0.69104751077E-02  0.22414155023E-01  0.23891600810E-01  0.00000000000E+00 0. -1.
     999901    1    3    3    0    0  0.73633854860E-01 -0.41000313580E-01  0.72897652427E-01  0.88702707852E+00  0.88000000000E+00 0.  1.
        -11    1    4    4    0    0 -0.47273417912E-01  0.33166475441E-01 -0.51295806115E-01  0.77241905597E-01  0.51100000000E-03 0. -1.
         11    1    4    4    0    0 -0.30905717759E-01  0.14744313247E-01 -0.44016001335E-01  0.55769415075E-01  0.51100000000E-03 0.  1.
</event>
<event>
 8    1  0.1044719E+005  0.1043930E+01  0.7957747E-01            NaN
         13   -1    0    0    0    0  0.00000000000E+00  0.00000000000E+00  0.74505805969E-08  0.10566000000E+00  0.10566000000E+00 0.  1.
     999900   -1    0    0    0    0 -0.00000000000E+00 -0.00000000000E+00 -0.74505805969E-08  0.93827000000E+00  0.93827000000E+00 0.  1.
     999902    2    1    2    0    0  0.23694752503E-02  0.26524517166E-01 -0.54226829964E-03  0.10172943382E+01  0.10169455797E+01 0.  0.
     999903    2    3    3    0    0 -0.49077985456E-01 -0.82980906152E-01 -0.78168710599E-01  0.12563064405E+00  0.19448186676E-01 0.  0.
         14    1    1    2    0    0 -0.23694752503E-02 -0.26524517166E-01  0.54226829964E-03  0.26635661786E-01  0.00000000000E+00 0. -1.
     999901    1    3    3    0    0  0.51447460706E-01  0.10950542332E+00  0.77626442300E-01  0.89166369417E+00  0.88000000000E+00 0.  1.
        -11    1    4    4    0    0 -0.14595189342E-01 -0.19338519510E-01 -0.30515981721E-01  0.38967732166E-01  0.51100000000E-03 0.  1.
         11    1    4    4    0    0 -0.34482796113E-01 -0.63642386642E-01 -0.47652728878E-01  0.86662911882E-01  0.51100000000E-03 0. -1.
</event>
<event>
 8    1  0.1044719E+005  0.1043930E+01  0.7957747E-01            NaN
         13   -1    0    0    0    0  0.00000000000E+00  0.00000000000E+00  0.74505805969E-08  0.10566000000E+00  0.10566000000E+00 0.  1.
     999900   -1    0    0    0    0 -0.00000000000E+00 -0.00000000000E+00 -0.74505805969E-08  0.93827000000E+00  0.93827000000E+00 0.  1.
     999902    2    1    2    0    0  0.33836781451E-02 -0.31449008589E-03  0.23241222188E-01  0.10204416499E+01  0.10201712887E+01 0.  0.
     999903    2    3    3    0    0 -0.12276675747E+00  0.20747750506E-01  0.35887205861E-01  0.13110624000E+00  0.19970196124E-01 0.  0.
         14    1    1    2    0    0 -0.33836781451E-02  0.31449008589E-03 -0.23241222188E-01  0.23488350104E-01  0.00000000000E+00 0. -1.
     999901    1    3    3    0    0  0.12615043561E+00 -0.21062240591E-01 -0.12645983673E-01  0.88933540989E+00  0.88000000000E+00 0.  1.
        -11    1    4    4    0    0 -0.75256701432E-01  0.21168281633E-01  0.17197802876E-01  0.80048065576E-01  0.51100000000E-03 0. -1.
         11    1    4    4    0    0 -0.47510056037E-01 -0.42053112743E-03  0.18689402985E-01  0.51058174429E-01  0.51100000000E-03 0.  1.
</event>
<event>
 8    1  0.1044719E+005  0.1043930E+01  0.7957747E-01            NaN
         13   -1    0    0    0    0  0.00000000000E+00  0.00000000000E+00  0.74505805969E-08  0.10566000000E+00  0.10566000000E+00 0. -1.
     999900   -1    0    0    0    0 -0.00000000000E+00 -0.00000000000E+00 -0.74505805969E-08  0.93827000000E+00  0.93827000000E+00 0. -1.
     999902    2    1    2    0    0  0.24687027090E-02 -0.10876006396E-01 -0.20544606877E-01  0.10205534545E+01  0.10202856907E+01 0.  0.
     999903    2    3    3    0    0  0.21104761136E-01 -0.66885197217E-01 -0.11220446102E+00  0.13382584074E+00  0.20011847171E-01 0.  0.
         14    1    1    2    0    0 -0.24687027090E-02  0.10876006396E-01  0.20544606877E-01  0.23376545509E-01  0.00000000000E+00 0. -1.
     999901    1    3    3    0    0 -0.18636058427E-01  0.56009190821E-01  0.91659854143E-01  0.88672761375E+00  0.88000000000E+00 0.  1.
        -11    1    4    4    0    0  0.16949537890E-01 -0.41517209973E-01 -0.53991153916E-01  0.70187401866E-01  0.51100000000E-03 0.  1.
         11    1    4    4    0    0  0.41552232459E-02 -0.25367987244E-01 -0.58213307105E-01  0.63638438872E-01  0.51100000000E-03 0. -1.
</event>
<event>
 8    1  0.1044719E+005  0.1043930E+01  0.7957747E-01            NaN
         13   -1    0    0    0    0  0.00000000000E+00  0.00000000000E+00  0.74505805969E-08  0.10566000000E+00  0.10566000000E+00 0. -1.
     999900   -1    0    0    0    0 -0.00000000000E+00 -0.00000000000E+00 -0.74505805969E-08  0.93827000000E+00  0.93827000000E+00 0. -1.
     999902    2    1    2    0    0 -0.48713954473E-02 -0.21530930446E-01 -0.81632195925E-02  0.10203938658E+01  0.10201223906E+01 0.  0.
     999903    2    3    3    0    0 -0.12477807532E+00 -0.16601914483E-01  0.32044904372E-01  0.13133897417E+00  0.19438585182E-01 0.  0.
         14    1    1    2    0    0  0.48713954473E-02  0.21530930446E-01  0.81632195925E-02  0.23536134211E-01  0.00000000000E+00 0. -1.
     999901    1    3    3    0    0  0.11990667988E+00 -0.49290159635E-02 -0.40208123965E-01  0.88905489162E+00  0.88000000000E+00 0. -1.
        -11    1    4    4    0    0 -0.63243515734E-01 -0.32394281895E-02  0.24563115463E-01  0.67925282036E-01  0.51100000000E-03 0.  1.
         11    1    4    4    0    0 -0.61534559590E-01 -0.13362486293E-01  0.74817889092E-02  0.63413692135E-01  0.51100000000E-03 0. -1.
</event>
<event>
 8    1  0.1044719E+005  0.1043930E+01  0.7957747E-01            NaN
         13   -1    0    0    0    0  0.00000000000E+00  0.00000000000E+00  0.74505805969E-08  0.10566000000E+00  0.10566000000E+00 0.  1.
     999900   -1    0    0    0    0 -0.00000000000E+00 -0.00000000000E+00 -0.74505805969E-08  0.93827000000E+00  0.93827000000E+00 0. -1.
     999902    2    1    2    0    0 -0.17377425922E-02  0.15817721456E-01  0.17750515631E-01  0.10200909382E+01  0.10198123462E+01 0.  0.
     999903    2    3    3    0    0  0.91296535508E-01  0.34431780703E-01  0.86606114953E-01  0.13231678132E+00  0.22056893552E-01 0.  0.
         14    1    1    2    0    0  0.17377425922E-02 -0.15817721456E-01 -0.17750515631E-01  0.23839061780E-01  0.00000000000E+00 0. -1.
     999901    1    3    3    0    0 -0.93034278100E-01 -0.18614059247E-01 -0.68855599322E-01  0.88777415690E+00  0.88000000000E+00 0. -1.
        -11    1    4    4    0    0  0.29948356705E-01  0.81826332849E-02  0.41256816447E-01  0.51635700645E-01  0.51100000000E-03 0.  1.
         11    1    4    4    0    0  0.61348178803E-01  0.26249147418E-01  0.45349298506E-01  0.80681080673E-01  0.51100000000E-03 0. -1.
</event>
<event>
 8    1  0.1044719E+005  0.1043930E+01  0.7957747E-01            NaN
         13   -1    0    0    0    0  0.00000000000E+00  0.00000000000E+00  0.74505805969E-08  0.10566000000E+00  0.10566000000E+00 0. -1.
     999900   -1    0    0    0    0 -0.00000000000E+00 -0.00000000000E+00 -0.74505805969E-08  0.93827000000E+00  0.93827000000E+00 0. -1.
     999902    2    1    2    0    0  0.12046232589E-02 -0.13464957172E-01  0.19916305668E-01  0.10198589506E+01  0.10195748446E+01 0.  0.
     999903    2    3    3    0    0  0.11664104045E+00  0.51582440436E-01  0.13950167062E-01  0.12991944412E+00  0.20459088960E-01 0.  0.
         14    1    1    2    0    0 -0.12046232589E-02  0.13464957172E-01 -0.19916305668E-01  0.24071049422E-01  0.00000000000E+00 0.  1.
     999901    1    3    3    0    0 -0.11543641719E+00 -0.65047397607E-01  0.59661386061E-02  0.88993950646E+00  0.88000000000E+00 0.  1.
        -11    1    4    4    0    0  0.33618984481E-01  0.98393503077E-02 -0.40465613724E-02  0.35265914308E-01  0.51100000000E-03 0. -1.
         11    1    4    4    0    0  0.83022055965E-01  0.41743090128E-01  0.17996728434E-01  0.94653529809E-01  0.51100000000E-03 0.  1.
</event>
<event>
 8    1  0.1044719E+005  0.1043930E+01  0.7957747E-01            NaN
         13   -1    0    0    0    0  0.00000000000E+00  0.00000000000E+00  0.74505805969E-08  0.10566000000E+00  0.10566000000E+00 0. -1.
     999900   -1    0    0    0    0 -0.00000000000E+00 -0.00000000000E+00 -0.74505805969E-08  0.93827000000E+00  0.93827000000E+00 0.  1.
     999902    2    1    2    0    0  0.17921356679E-02  0.22765241191E-01  0.28566705778E-02  0.10209163405E+01  0.10206569187E+01 0.  0.
     999903    2    3    3    0    0 -0.72516094282E-01  0.38156300531E-03  0.10763304799E+00  0.13130921859E+00  0.19962673861E-01 0.  0.
         14    1    1    2    0    0 -0.17921356679E-02 -0.22765241191E-01 -0.28566705778E-02  0.23013659499E-01  0.00000000000E+00 0. -1.
     999901    1    3    3    0    0  0.74308229950E-01  0.22383678186E-01 -0.10477637741E+00  0.88960712191E+00  0.88000000000E+00 0.  1.
        -11    1    4    4    0    0 -0.48154887064E-01  0.92249142711E-02  0.75483572079E-01  0.90011238000E-01  0.51100000000E-03 0.  1.
         11    1    4    4    0    0 -0.24361207219E-01 -0.88433512658E-02  0.32149475910E-01  0.41297980593E-01  0.51100000000E-03 0. -1.
</event>
<event>
 8    1  0.1044719E+005  0.1043930E+01  0.7957747E-01            NaN
         13   -1    0    0    0    0  0.00000000000E+00  0.00000000000E+00  0.74505805969E-08  0.10566000000E+00  0.10566000000E+00 0.  1.
     999900   -1    0    0    0    0 -0.00000000000E+00 -0.00000000000E+00 -0.74505805969E-08  0.93827000000E+00  0.93827000000E+00 0.  1.
     999902    2    1    2    0    0 -0.67377182294E-02 -0.22028343405E-01 -0.27286544052E-02  0.10207332262E+01  0.10204696119E+01 0.  0.
     999903    2    3    3    0    0 -0.34869449643E-01 -0.12687068438E+00  0.13961305702E-01  0.13390637413E+00  0.20590043768E-01 0.  0.
         14    1    1    2    0    0  0.67377182294E-02  0.22028343405E-01  0.27286544052E-02  0.23196773805E-01  0.00000000000E+00 0. -1.
     999901    1    3    3    0    0  0.28131731414E-01  0.10484234098E+00 -0.16689960108E-01  0.88682685206E+00  0.88000000000E+00 0. -1.
        -11    1    4    4    0    0 -0.57399583127E-02 -0.30008831821E-01  0.11736335009E-01  0.32733465890E-01  0.51100000000E-03 0.  1.
         11    1    4    4    0    0 -0.29129491331E-01 -0.96861852560E-01  0.22249706932E-02  0.10117290824E+00  0.51100000000E-03 0. -1.
</event>
<event>
 8    1  0.1044719E+005  0.1043930E+01  0.7957747E-01            NaN
         13   -1    0    0    0    0  0.00000000000E+00  0.00000000000E+00  0.74505805969E-08  0.10566000000E+00  0.10566000000E+00 0.  1.
     999900   -1    0    0    0    0 -0.00000000000E+00 -0.00000000000E+00 -0.74505805969E-08  0.93827000000E+00  0.93827000000E+00 0.  1.
     999902    2    1    2    0    0  0.10303429886E-01  0.20161728248E-01 -0.67465758480E-02  0.10203043309E+01  0.10200307620E+01 0.  0.
     999903    2    3    3    0    0 -0.45549182905E-01 -0.85696882177E-01  0.81864570248E-01  0.12779242907E+00  0.14505632921E-01 0.  0.
         14    1    1    2    0    0 -0.10303429886E-01 -0.20161728248E-01  0.67465758480E-02  0.23625669070E-01  0.00000000000E+00 0.  1.
     999901    1    3    3    0    0  0.55852612790E-01  0.10585861042E+00 -0.88611146096E-01  0.89251190186E+00  0.88000000000E+00 0.  1.
        -11    1    4    4    0    0 -0.37586271641E-02 -0.19026012534E-01  0.17666414370E-01  0.26238897630E-01  0.51100000000E-03 0.  1.
         11    1    4    4    0    0 -0.41790555740E-01 -0.66670869643E-01  0.64198155878E-01  0.10155353144E+00  0.51100000000E-03 0. -1.
</event>
<event>
 8    1  0.1044719E+005  0.1043930E+01  0.7957747E-01            NaN
         13   -1    0    0    0    0  0.00000000000E+00  0.00000000000E+00  0.74505805969E-08  0.10566000000E+00  0.10566000000E+00 0. -1.
     999900   -1    0    0    0    0 -0.00000000000E+00 -0.00000000000E+00 -0.74505805969E-08  0.93827000000E+00  0.93827000000E+00 0. -1.
     999902    2    1    2    0    0  0.18488866408E-01 -0.56078275329E-02  0.12901247165E-01  0.10206979513E+01  0.10204335253E+01 0.  0.
     999903    2    3    3    0    0  0.27976565920E-02 -0.62202032030E-01  0.11555841265E+00  0.13278601211E+00  0.20036431976E-01 0.  0.
         14    1    1    2    0    0 -0.18488866408E-01  0.56078275329E-02 -0.12901247165E-01  0.23232048749E-01  0.00000000000E+00 0.  1.
     999901    1    3    3    0    0  0.15691209816E-01  0.56594204497E-01 -0.10265716548E+00  0.88791193914E+00  0.88000000000E+00 0. -1.
        -11    1    4    4    0    0 -0.39580837164E-02 -0.55985572323E-01  0.96800389882E-01  0.11189560911E+00  0.51100000000E-03 0. -1.
         11    1    4    4    0    0  0.67557403084E-02 -0.62164597069E-02  0.18758022767E-01  0.20890403001E-01  0.51100000000E-03 0.  1.
</event>
<event>
 8    1  0.1044719E+005  0.1043930E+01  0.7957747E-01            NaN
         13   -1    0    0    0    0  0.00000000000E+00  0.00000000000E+00  0.74505805969E-08  0.10566000000E+00  0.10566000000E+00 0. -1.
     999900   -1    0    0    0    0 -0.00000000000E+00 -0.00000000000E+00 -0.74505805969E-08  0.93827000000E+00  0.93827000000E+00 0. -1.
     999902    2    1    2    0    0  0.22447717071E-02 -0.19970058228E-01  0.81188591800E-03  0.10238177802E+01  0.10236202156E+01 0.  0.
     999903    2    3    3    0    0 -0.22571764507E-01 -0.12936307494E+00  0.30051575309E-01  0.13621558779E+00  0.20181661675E-01 0.  0.
         14    1    1    2    0    0 -0.22447717071E-02  0.19970058228E-01 -0.81188591800E-03  0.20112219778E-01  0.00000000000E+00 0.  1.
     999901    1    3    3    0    0  0.24816536214E-01  0.10939301671E+00 -0.29239689391E-01  0.88760219243E+00  0.88000000000E+00 0. -1.
        -11    1    4    4    0    0 -0.32558988116E-02 -0.49309597077E-01  0.29077260554E-02  0.49505082899E-01  0.51100000000E-03 0. -1.
         11    1    4    4    0    0 -0.19315865695E-01 -0.80053477861E-01  0.27143849253E-01  0.86710504892E-01  0.51100000000E-03 0.  1.
</event>
<event>
 8    1  0.1044719E+005  0.1043930E+01  0.7957747E-01            NaN
         13   -1    0    0    0    0  0.00000000000E+00  0.00000000000E+00  0.74505805969E-08  0.10566000000E+00  0.10566000000E+00 0. -1.
     999900   -1    0    0    0    0 -0.00000000000E+00 -0.00000000000E+00 -0.74505805969E-08  0.93827000000E+00  0.93827000000E+00 0.  1.
     999902    2    1    2    0    0  0.10673191773E-01 -0.17596130357E-01  0.10011517839E-01  0.10210439493E+01  0.10207874290E+01 0.  0.
     999903    2    3    3    0    0 -0.69607515849E-01 -0.35937110634E-01 -0.10205061929E+00  0.13012346681E+00  0.19521924469E-01 0.  0.
         14    1    1    2    0    0 -0.10673191773E-01  0.17596130357E-01 -0.10011517839E-01  0.22886050677E-01  0.00000000000E+00 0.  1.
     999901    1    3    3    0    0  0.80280707621E-01  0.18340980277E-01  0.11206213713E+00  0.89092048251E+00  0.88000000000E+00 0. -1.
        -11    1    4    4    0    0 -0.12126236329E-01 -0.49668736258E-03 -0.88507927500E-02  0.15029636029E-01  0.51100000000E-03 0.  1.
         11    1    4    4    0    0 -0.57481279519E-01 -0.35440423272E-01 -0.93199826541E-01  0.11509383079E+00  0.51100000000E-03 0. -1.
</event>
<event>
 8    1  0.1044719E+005  0.1043930E+01  0.7957747E-01            NaN
         13   -1    0    0    0    0  0.00000000000E+00  0.00000000000E+00  0.74505805969E-08  0.10566000000E+00  0.10566000000E+00 0. -1.
     999900   -1    0    0    0    0 -0.00000000000E+00 -0.00000000000E+00 -0.74505805969E-08  0.93827000000E+00  0.93827000000E+00 0. -1.
     999902    2    1    2    0    0 -0.14246129454E-01  0.16216040831E-01  0.10308880191E-01  0.10200096071E+01  0.10197290883E+01 0.  0.
     999903    2    3    3    0    0 -0.56121594586E-01  0.10881573787E+00 -0.46465902076E-01  0.13234320899E+00  0.19108812732E-01 0.  0.
         14    1    1    2    0    0  0.14246129454E-01 -0.16216040831E-01 -0.10308880191E-01  0.23920392878E-01  0.00000000000E+00 0.  1.
     999901    1    3    3    0    0  0.41875465133E-01 -0.92599697035E-01  0.56774782267E-01  0.88766639813E+00  0.88000000000E+00 0.  1.
        -11    1    4    4    0    0 -0.21571363426E-01  0.29300835375E-01 -0.68719129011E-02  0.37031702386E-01  0.51100000000E-03 0. -1.
         11    1    4    4    0    0 -0.34550231160E-01  0.79514902491E-01 -0.39593989175E-01  0.95311506604E-01  0.51100000000E-03 0.  1.
</event>
<event>
 8    1  0.1044719E+005  0.1043930E+01  0.7957747E-01            NaN
         13   -1    0    0    0    0  0.00000000000E+00  0.00000000000E+00  0.74505805969E-08  0.10566000000E+00  0.10566000000E+00 0.  1.
     999900   -1    0    0    0    0 -0.00000000000E+00 -0.00000000000E+00 -0.74505805969E-08  0.93827000000E+00  0.93827000000E+00 0. -1.
     999902    2    1    2    0    0 -0.32540741354E-02 -0.21752160484E-01 -0.68621012482E-02  0.10208901667E+01  0.10206301478E+01 0.  0.
     999903    2    3    3    0    0 -0.68377804723E-01  0.85478245778E-01  0.65294441173E-01  0.12906842055E+00  0.20328267424E-01 0.  0.
         14    1    1    2    0    0  0.32540741354E-02  0.21752160484E-01  0.68621012482E-02  0.23039833283E-01  0.00000000000E+00 0. -1.
     999901    1    3    3    0    0  0.65123730587E-01 -0.10723040626E+00 -0.72156542421E-01  0.89182174616E+00  0.88000000000E+00 0. -1.
        -11    1    4    4    0    0 -0.50073760747E-01  0.61913399639E-01  0.36491657751E-01  0.87593109185E-01  0.51100000000E-03 0. -1.
         11    1    4    4    0    0 -0.18304043976E-01  0.23564846139E-01  0.28802783422E-01  0.41475311370E-01  0.51100000000E-03 0.  1.
</event>
<event>
 8    1  0.1044719E+005  0.1043930E+01  0.7957747E-01            NaN
         13   -1    0    0    0    0  0.00000000000E+00  0.00000000000E+00  0.74505805969E-08  0.10566000000E+00  0.10566000000E+00 0. -1.
     999900   -1    0    0    0    0 -0.00000000000E+00 -0.00000000000E+00 -0.74505805969E-08  0.93827000000E+00  0.93827000000E+00 0.  1.
     999902    2    1    2    0    0  0.10937352274E-01 -0.17032580883E-01 -0.33697276487E-02  0.10234095334E+01  0.10232037839E+01 0.  0.
     999903    2    3    3    0    0 -0.12729633040E+00  0.26901393791E-01 -0.67798641160E-02  0.13152928682E+00  0.18053974979E-01 0.  0.
         14    1    1    2    0    0 -0.10937352274E-01  0.17032580883E-01  0.33697276487E-02  0.20520466630E-01  0.00000000000E+00 0.  1.
     999901    1    3    3    0    0  0.13823368267E+00 -0.43933974674E-01  0.34101364674E-02  0.89188024655E+00  0.88000000000E+00 0.  1.
        -11    1    4    4    0    0 -0.62167926711E-01  0.43945540464E-02 -0.41653432045E-03  0.62326542008E-01  0.51100000000E-03 0. -1.
         11    1    4    4    0    0 -0.65128403689E-01  0.22506839744E-01 -0.63633297956E-02  0.69202744812E-01  0.51100000000E-03 0.  1.
</event>
<event>
 8    1  0.1044719E+005  0.1043930E+01  0.7957747E-01            NaN
         13   -1    0    0    0    0  0.00000000000E+00  0.00000000000E+00  0.74505805969E-08  0.10566000000E+00  0.10566000000E+00 0.  1.
     999900   -1    0    0    0    0 -0.00000000000E+00 -0.00000000000E+00 -0.74505805969E-08  0.93827000000E+00  0.93827000000E+00 0.  1.
     999902    2    1    2    0    0 -0.22535708020E-01 -0.78122540174E-03  0.68210604662E-02  0.10203716615E+01  0.10200996678E+01 0.  0.
     999903    2    3    3    0    0 -0.10257105878E+00  0.62013164683E-01 -0.52585556108E-01  0.13252148328E+00  0.20742423321E-01 0.  0.
         14    1    1    2    0    0  0.22535708020E-01  0.78122540174E-03 -0.68210604662E-02  0.23558338545E-01  0.00000000000E+00 0. -1.
     999901    1    3    3    0    0  0.80035350761E-01 -0.62794390084E-01  0.59406616575E-01  0.88785017818E+00  0.88000000000E+00 0. -1.
        -11    1    4    4    0    0 -0.29295097447E-01  0.22978351285E-01 -0.25728596671E-01  0.45259575450E-01  0.51100000000E-03 0. -1.
         11    1    4    4    0    0 -0.73275961335E-01  0.39034813398E-01 -0.26856959437E-01  0.87261907828E-01  0.51100000000E-03 0.  1.
</event>
<event>
 8    1  0.1044719E+005  0.1043930E+01  0.7957747E-01            NaN
         13   -1    0    0    0    0  0.00000000000E+00  0.00000000000E+00  0.74505805969E-08  0.10566000000E+00  0.10566000000E+00 0. -1.
     999900   -1    0    0    0    0 -0.00000000000E+00 -0.00000000000E+00 -0.74505805969E-08  0.93827000000E+00  0.93827000000E+00 0.  1.
     999902    2    1    2    0    0  0.19645934540E-01  0.93540977639E-02 -0.70833895526E-02  0.10210468993E+01  0.10207904458E+01 0.  0.
     999903    2    3    3    0    0 -0.11716216729E+00 -0.65243619572E-02 -0.53526883580E-01  0.12912449219E+00  0.62021346084E-02 0.  0.
         14    1    1    2    0    0 -0.19645934540E-01 -0.93540977639E-02  0.70833895526E-02  0.22883100675E-01  0.00000000000E+00 0. -1.
     999901    1    3    3    0    0  0.13680810183E+00  0.15878459721E-01  0.46443494027E-01  0.89192240713E+00  0.88000000000E+00 0. -1.
        -11    1    4    4    0    0 -0.53163016906E-01 -0.45839399648E-02 -0.21502677765E-01  0.57532122716E-01  0.51100000000E-03 0.  1.
         11    1    4    4    0    0 -0.63999150388E-01 -0.19404219924E-02 -0.32024205814E-01  0.71592369474E-01  0.51100000000E-03 0. -1.
</event>
<event>
 8    1  0.1044719E+005  0.1043930E+01  0.7957747E-01            NaN
         13   -1    0    0    0    0  0.00000000000E+00  0.00000000000E+00  0.74505805969E-08  0.10566000000E+00  0.10566000000E+00 0. -1.
     999900   -1    0    0    0    0 -0.00000000000E+00 -0.00000000000E+00 -0.74505805969E-08  0.93827000000E+00  0.93827000000E+00 0.  1.
     999902    2    1    2    0    0 -0.22129159607E-01  0.64336725369E-02 -0.90368611520E-02  0.10191760769E+01  0.10188754188E+01 0.  0.
     999903    2    3    3    0    0 -0.44285849829E-02  0.73679199436E-01 -0.10685691352E+00  0.13102967354E+00  0.17382134107E-01 0.  0.
         14    1    1    2    0    0  0.22129159607E-01 -0.64336725369E-02  0.90368611520E-02  0.24753923057E-01  0.00000000000E+00 0.  1.
     999901    1    3    3    0    0 -0.17700574624E-01 -0.67245526899E-01  0.97820052371E-01  0.88814640340E+00  0.88000000000E+00 0. -1.
        -11    1    4    4    0    0  0.63915023314E-02  0.38180278286E-01 -0.54145194238E-01  0.66562362729E-01  0.51100000000E-03 0. -1.
         11    1    4    4    0    0 -0.10820087314E-01  0.35498921150E-01 -0.52711719286E-01  0.64467310812E-01  0.51100000000E-03 0.  1.
</event>
<event>
 8    1  0.1044719E+005  0.1043930E+01  0.7957747E-01            NaN
         13   -1    0    0    0    0  0.00000000000E+00  0.00000000000E+00  0.74505805969E-08  0.10566000000E+00  0.10566000000E+00 0. -1.
     999900   -1    0    0    0    0 -0.00000000000E+00 -0.00000000000E+00 -0.74505805969E-08  0.93827000000E+00  0.93827000000E+00 0.  1.
     999902    2    1    2    0    0 -0.12611343967E-01 -0.53533843145E-02 -0.16745457488E-01  0.10222940330E+01  0.10220650541E+01 0.  0.
     999903    2    3    3    0    0  0.12806592597E+00  0.13854057858E-01  0.93031392581E-02  0.13053310682E+00  0.18961204144E-01 0.  0.
         14    1    1    2    0    0  0.12611343967E-01  0.53533843145E-02  0.16745457488E-01  0.21635966971E-01  0.00000000000E+00 0. -1.
     999901    1    3    3    0    0 -0.14067726994E+00 -0.19207442173E-01 -0.26048596746E-01  0.89176092620E+00  0.88000000000E+00 0.  1.
        -11    1    4    4    0    0  0.82949560379E-01  0.39481972015E-03  0.90903467334E-02  0.83448672694E-01  0.51100000000E-03 0.  1.
         11    1    4    4    0    0  0.45116365595E-01  0.13459238138E-01  0.21279252462E-03  0.47084434131E-01  0.51100000000E-03 0. -1.
</event>
<event>
 8    1  0.1044719E+005  0.1043930E+01  0.7957747E-01            NaN
         13   -1    0    0    0    0  0.00000000000E+00  0.00000000000E+00  0.74505805969E-08  0.10566000000E+00  0.10566000000E+00 0.  1.
     999900   -1    0    0    0    0 -0.00000000000E+00 -0.00000000000E+00 -0.74505805969E-08  0.93827000000E+00  0.93827000000E+00 0. -1.
     999902    2    1    2    0    0  0.22154644432E-01  0.10658941809E-01 -0.28442073923E-04  0.10193445954E+01  0.10190480666E+01 0.  0.
     999903    2    3    3    0    0 -0.64180223860E-01  0.10730162808E+00 -0.25630346911E-01  0.12948563139E+00  0.21837434161E-01 0.  0.
         14    1    1    2    0    0 -0.22154644432E-01 -0.10658941809E-01  0.28442073923E-04  0.24585404600E-01  0.00000000000E+00 0. -1.
     999901    1    3    3    0    0  0.86334868293E-01 -0.96642686272E-01  0.25601904837E-01  0.88985896401E+00  0.88000000000E+00 0. -1.
        -11    1    4    4    0    0 -0.34778768038E-01  0.37982894090E-01 -0.76163105406E-02  0.52062772275E-01  0.51100000000E-03 0.  1.
         11    1    4    4    0    0 -0.29401455822E-01  0.69318733991E-01 -0.18014036370E-01  0.77422859117E-01  0.51100000000E-03 0. -1.
</event>
<event>
 8    1  0.1044719E+005  0.1043930E+01  0.7957747E-01            NaN
         13   -1    0    0    0    0  0.00000000000E+00  0.00000000000E+00  0.74505805969E-08  0.10566000000E+00  0.10566000000E+00 0.  1.
     999900   -1    0    0    0    0 -0.00000000000E+00 -0.00000000000E+00 -0.74505805969E-08  0.93827000000E+00  0.93827000000E+00 0.  1.
     999902    2    1    2    0    0 -0.19301147672E-01  0.35337467008E-02 -0.95041890422E-02  0.10221274479E+01  0.10218948911E+01 0.  0.
     999903    2    3    3    0    0 -0.88299809328E-01 -0.77038865997E-01  0.59873230967E-01  0.13304590632E+00  0.19610359546E-01 0.  0.
         14    1    1    2    0    0  0.19301147672E-01 -0.35337467008E-02  0.95041890422E-02  0.21802552066E-01  0.00000000000E+00 0. -1.
     999901    1    3    3    0    0  0.68998661655E-01  0.80572612698E-01 -0.69377420009E-01  0.88908154161E+00  0.88000000000E+00 0.  1.
        -11    1    4    4    0    0 -0.32732454559E-01 -0.41043996519E-01  0.23731485971E-01  0.57614822564E-01  0.51100000000E-03 0. -1.
         11    1    4    4    0    0 -0.55567354768E-01 -0.35994869478E-01  0.36141744996E-01  0.75431083759E-01  0.51100000000E-03 0.  1.
</event>
<event>
 8    1  0.1044719E+005  0.1043930E+01  0.7957747E-01            NaN
         13   -1    0    0    0    0  0.00000000000E+00  0.00000000000E+00  0.74505805969E-08  0.10566000000E+00  0.10566000000E+00 0.  1.
     999900   -1    0    0    0    0 -0.00000000000E+00 -0.00000000000E+00 -0.74505805969E-08  0.93827000000E+00  0.93827000000E+00 0. -1.
     999902    2    1    2    0    0 -0.42673729768E-02  0.41624858273E-02 -0.69304332202E-02  0.10347884648E+01  0.10347480850E+01 0.  0.
     999903    2    3    3    0    0 -0.93317064588E-01 -0.41171548491E-01  0.98219733138E-01  0.14291314860E+00  0.19336005691E-01 0.  0.
         14    1    1    2    0    0  0.42673729768E-02 -0.41624858273E-02  0.69304332202E-02  0.91415351558E-02  0.00000000000E+00 0.  1.
     999901    1    3    3    0    0  0.89049691611E-01  0.45334034318E-01 -0.10515016636E+00  0.89187531625E+00  0.88000000000E+00 0. -1.
        -11    1    4    4    0    0 -0.63893507316E-01 -0.18083429075E-01  0.62285573875E-01  0.91044739103E-01  0.51100000000E-03 0. -1.
         11    1    4    4    0    0 -0.29423557272E-01 -0.23088119416E-01  0.35934159263E-01  0.51868409496E-01  0.51100000000E-03 0.  1.
</event>
<event>
 8    1  0.1044719E+005  0.1043930E+01  0.7957747E-01            NaN
         13   -1    0    0    0    0  0.00000000000E+00  0.00000000000E+00  0.74505805969E-08  0.10566000000E+00  0.10566000000E+00 0. -1.
     999900   -1    0    0    0    0 -0.00000000000E+00 -0.00000000000E+00 -0.74505805969E-08  0.93827000000E+00  0.93827000000E+00 0. -1.
     999902    2    1    2    0    0 -0.14010181445E-01 -0.19893391453E-01  0.23557310938E-02  0.10194845162E+01  0.10191913938E+01 0.  0.
     999903    2    3    3    0    0 -0.53854722489E-01 -0.23639592950E-01 -0.11522916743E+00  0.13076193306E+00  0.19020005863E-01 0.  0.
         14    1    1    2    0    0  0.14010181445E-01  0.19893391453E-01 -0.23557310938E-02  0.24445483767E-01  0.00000000000E+00 0.  1.
     999901    1    3    3    0    0  0.39844541044E-01  0.37462014971E-02  0.11758489852E+00  0.88872258317E+00  0.88000000000E+00 0.  1.
        -11    1    4    4    0    0 -0.17522693224E-01 -0.72196893668E-02 -0.20183425769E-01  0.27691162654E-01  0.51100000000E-03 0.  1.
         11    1    4    4    0    0 -0.36332029266E-01 -0.16419903583E-01 -0.95045741658E-01  0.10307077041E+00  0.51100000000E-03 0. -1.
</event>
<event>
 8    1  0.1044719E+005  0.1043930E+01  0.7957747E-01            NaN
         13   -1    0    0    0    0  0.00000000000E+00  0.00000000000E+00  0.74505805969E-08  0.10566000000E+00  0.10566000000E+00 0. -1.
     999900   -1    0    0    0    0 -0.00000000000E+00 -0.00000000000E+00 -0.74505805969E-08  0.93827000000E+00  0.93827000000E+00 0.  1.
     999902    2    1    2    0    0 -0.17954900436E-01 -0.13928098942E-01  0.23548959278E-02  0.10210845207E+01  0.10208289193E+01 0.  0.
     999903    2    3    3    0    0  0.49627639825E-01  0.41554665180E-01 -0.11041482846E+00  0.12958985016E+00  0.20307685402E-01 0.  0.
         14    1    1    2    0    0  0.17954900436E-01  0.13928098942E-01 -0.23548959278E-02  0.22845479304E-01  0.00000000000E+00 0. -1.
     999901    1    3    3    0    0 -0.67582540261E-01 -0.55482764123E-01  0.11276972439E+00  0.89149467054E+00  0.88000000000E+00 0. -1.
        -11    1    4    4    0    0  0.20749353691E-01  0.17223376573E-01 -0.65947824278E-01  0.71249961594E-01  0.51100000000E-03 0. -1.
         11    1    4    4    0    0  0.28878286134E-01  0.24331288607E-01 -0.44467004183E-01  0.58339888561E-01  0.51100000000E-03 0.  1.
</event>
<event>
 8    1  0.1044719E+005  0.1043930E+01  0.7957747E-01            NaN
         13   -1    0    0    0    0  0.00000000000E+00  0.00000000000E+00  0.74505805969E-08  0.10566000000E+00  0.10566000000E+00 0. -1.
     999900   -1    0    0    0    0 -0.00000000000E+00 -0.00000000000E+00 -0.74505805969E-08  0.93827000000E+00  0.93827000000E+00 0. -1.
     999902    2    1    2    0    0 -0.18432509530E-01 -0.16688969124E-02 -0.15425286752E-01  0.10198368040E+01  0.10195521686E+01 0.  0.
     999903    2    3    3    0    0 -0.89350175497E-01 -0.21060454462E-01 -0.94645668914E-01  0.13322459064E+00  0.19078582294E-01 0.  0.
         14    1    1    2    0    0  0.18432509530E-01  0.16688969124E-02  0.15425286752E-01  0.24093196049E-01  0.00000000000E+00 0. -1.
     999901    1    3    3    0    0  0.70917665968E-01  0.19391557549E-01  0.79220382162E-01  0.88661221332E+00  0.88000000000E+00 0.  1.
        -11    1    4    4    0    0 -0.64995115810E-01 -0.23792435386E-01 -0.71411771019E-01  0.99450224845E-01  0.51100000000E-03 0.  1.
         11    1    4    4    0    0 -0.24355059687E-01  0.27319809241E-02 -0.23233897895E-01  0.33774365790E-01  0.51100000000E-03 0. -1.
</event>
<event>
 8    1  0.1193178E+005  0.1043930E+01  0.7957747E-01            NaN
         13   -1    0    0    0    0  0.00000000000E+00  0.00000000000E+00  0.74505805969E-08  0.10566000000E+00  0.10566000000E+00 0.  1.
     999900   -1    0    0    0    0 -0.00000000000E+00 -0.00000000000E+00 -0.74505805969E-08  0.93827000000E+00  0.93827000000E+00 0. -1.
     999902    2    1    2    0    0  0.24042439153E-01  0.52873775958E-02  0.10931168859E-02  0.10192887714E+01  0.10189908780E+01 0.  0.
     999903    2    3    3    0    0  0.33861065626E-01  0.56854665033E-02  0.12388244042E+00  0.13070912845E+00  0.23645737903E-01 0.  0.
         14    1    1    2    0    0 -0.24042439153E-01 -0.52873775958E-02 -0.10931168859E-02  0.24641228598E-01  0.00000000000E+00 0. -1.
     999901    1    3    3    0    0 -0.98186264727E-02 -0.39808890756E-03 -0.12278932353E+00  0.88857964295E+00  0.88000000000E+00 0. -1.
        -11    1    4    4    0    0  0.19966337095E-01  0.14978024031E-01  0.74606114583E-01  0.78672290389E-01  0.51100000000E-03 0. -1.
         11    1    4    4    0    0  0.13894728532E-01 -0.92925575281E-02  0.49276325835E-01  0.52036838059E-01  0.51100000000E-03 0.  1.
</event>
<event>
 8    1  0.1044719E+005  0.1043930E+01  0.7957747E-01            NaN
         13   -1    0    0    0    0  0.00000000000E+00  0.00000000000E+00  0.74505805969E-08  0.10566000000E+00  0.10566000000E+00 0.  1.
     999900   -1    0    0    0    0 -0.00000000000E+00 -0.00000000000E+00 -0.74505805969E-08  0.93827000000E+00  0.93827000000E+00 0. -1.
     999902    2    1    2    0    0  0.95275248157E-02  0.34678492675E-02 -0.22373641744E-01  0.10193662146E+01  0.10190702135E+01 0.  0.
     999903    2    3    3    0    0 -0.11203174486E+00  0.45788006760E-01  0.36817590197E-01  0.12803504512E+00  0.19742958494E-01 0.  0.
         14    1    1    2    0    0 -0.95275248157E-02 -0.34678492675E-02  0.22373641744E-01  0.24563785387E-01  0.00000000000E+00 0.  1.
     999901    1    3    3    0    0  0.12155926968E+00 -0.42320157493E-01 -0.59191231940E-01  0.89133116950E+00  0.88000000000E+00 0. -1.
        -11    1    4    4    0    0 -0.59627289061E-01  0.19190395989E-01  0.99965180469E-02  0.63434031821E-01  0.51100000000E-03 0.  1.
         11    1    4    4    0    0 -0.52404455803E-01  0.26597610772E-01  0.26821072150E-01  0.64601013297E-01  0.51100000000E-03 0. -1.
</event>
<event>
 8    1  0.1044719E+005  0.1043930E+01  0.7957747E-01            NaN
         13   -1    0    0    0    0  0.00000000000E+00  0.00000000000E+00  0.74505805969E-08  0.10566000000E+00  0.10566000000E+00 0.  1.
     999900   -1    0    0    0    0 -0.00000000000E+00 -0.00000000000E+00 -0.74505805969E-08  0.93827000000E+00  0.93827000000E+00 0. -1.
     999902    2    1    2    0    0 -0.66279570807E-02  0.18876147653E-01  0.12716066543E-01  0.10202247872E+01  0.10199493513E+01 0.  0.
     999903    2    3    3    0    0  0.46274442174E-01  0.12031818579E+00  0.22452475993E-01  0.13276552131E+00  0.22467312734E-01 0.  0.
         14    1    1    2    0    0  0.66279570807E-02 -0.18876147653E-01 -0.12716066543E-01  0.23705212794E-01  0.00000000000E+00 0. -1.
     999901    1    3    3    0    0 -0.52902399255E-01 -0.10144203814E+00 -0.97364094503E-02  0.88745926589E+00  0.88000000000E+00 0. -1.
        -11    1    4    4    0    0  0.34985920483E-01  0.10601096288E+00  0.13483698978E-01  0.11244736609E+00  0.51100000000E-03 0.  1.
         11    1    4    4    0    0  0.11288521691E-01  0.14307222912E-01  0.89687770155E-02  0.20318155221E-01  0.51100000000E-03 0. -1.
</event>
<event>
 8    1  0.1044719E+005  0.1043930E+01  0.7957747E-01            NaN
         13   -1    0    0    0    0  0.00000000000E+00  0.00000000000E+00  0.74505805969E-08  0.10566000000E+00  0.10566000000E+00 0. -1.
     999900   -1    0    0    0    0 -0.00000000000E+00 -0.00000000000E+00 -0.74505805969E-08  0.93827000000E+00  0.93827000000E+00 0. -1.
     999902    2    1    2    0    0  0.20607448187E-01  0.35934763506E-02  0.10837634627E-01  0.10203708337E+01  0.10200988207E+01 0.  0.
     999903    2    3    3    0    0  0.11409225570E+00 -0.60576350953E-01 -0.17776915717E-01  0.13263440407E+00  0.24276105658E-01 0.  0.
         14    1    1    2    0    0 -0.20607448187E-01 -0.35934763506E-02 -0.10837634627E-01  0.23559166313E-01  0.00000000000E+00 0.  1.
     999901    1    3    3    0    0 -0.93484807513E-01  0.64169827303E-01  0.28614550344E-01  0.88773642961E+00  0.88000000000E+00 0.  1.
        -11    1    4    4    0    0  0.64179975552E-01 -0.47014483153E-01 -0.13903657024E-01  0.80765114298E-01  0.51100000000E-03 0. -1.
         11    1    4    4    0    0  0.49912280148E-01 -0.13561867799E-01 -0.38732586935E-02  0.51869289775E-01  0.51100000000E-03 0.  1.
</event>
<event>
 8    1  0.1044719E+005  0.1043930E+01  0.7957747E-01            NaN
         13   -1    0    0    0    0  0.00000000000E+00  0.00000000000E+00  0.74505805969E-08  0.10566000000E+00  0.10566000000E+00 0. -1.
     999900   -1    0    0    0    0 -0.00000000000E+00 -0.00000000000E+00 -0.74505805969E-08  0.93827000000E+00  0.93827000000E+00 0. -1.
     999902    2    1    2    0    0 -0.14647369811E-01 -0.14207498057E-01 -0.13216919075E-01  0.10196177522E+01  0.10193278546E+01 0.  0.
     999903    2    3    3    0    0  0.10921846888E+00  0.27618853586E-01  0.56359801436E-01  0.12724276951E+00  0.17967196691E-01 0.  0.
         14    1    1    2    0    0  0.14647369811E-01  0.14207498057E-01  0.13216919075E-01  0.24312247803E-01  0.00000000000E+00 0. -1.
     999901    1    3    3    0    0 -0.12386583869E+00 -0.41826351643E-01 -0.69576720511E-01  0.89237498269E+00  0.88000000000E+00 0.  1.
        -11    1    4    4    0    0  0.59972613413E-01  0.22236067804E-01  0.38048778286E-01  0.74425316399E-01  0.51100000000E-03 0.  1.
         11    1    4    4    0    0  0.49245855467E-01  0.53827857829E-02  0.18311023150E-01  0.52817453113E-01  0.51100000000E-03 0. -1.
</event>
<event>
 8    1  0.1044719E+005  0.1043930E+01  0.7957747E-01            NaN
         13   -1    0    0    0    0  0.00000000000E+00  0.00000000000E+00  0.74505805969E-08  0.10566000000E+00  0.10566000000E+00 0. -1.
     999900   -1    0    0    0    0 -0.00000000000E+00 -0.00000000000E+00 -0.74505805969E-08  0.93827000000E+00  0.93827000000E+00 0.  1.
     999902    2    1    2    0    0  0.17380418521E-01  0.15460846004E-01  0.50722917974E-02  0.10201214962E+01  0.10198436264E+01 0.  0.
     999903    2    3    3    0    0 -0.93031338412E-01  0.79040482601E-02  0.87420401093E-01  0.12937513932E+00  0.19449839119E-01 0.  0.
         14    1    1    2    0    0 -0.17380418521E-01 -0.15460846004E-01 -0.50722917974E-02  0.23808503758E-01  0.00000000000E+00 0.  1.
     999901    1    3    3    0    0  0.11041175693E+00  0.75567977435E-02 -0.82348109296E-01  0.89074635692E+00  0.88000000000E+00 0.  1.
        -11    1    4    4    0    0 -0.31757328419E-01  0.98167543537E-02  0.22865098119E-01  0.40348115289E-01  0.51100000000E-03 0. -1.
         11    1    4    4    0    0 -0.61274009993E-01 -0.19127060937E-02  0.64555302974E-01  0.89027024034E-01  0.51100000000E-03 0.  1.
</event>
<event>
 8    1  0.1044719E+005  0.1043930E+01  0.7957747E-01            NaN
         13   -1    0    0    0    0  0.00000000000E+00  0.00000000000E+00  0.74505805969E-08  0.10566000000E+00  0.10566000000E+00 0. -1.
     999900   -1    0    0    0    0 -0.00000000000E+00 -0.00000000000E+00 -0.74505805969E-08  0.93827000000E+00  0.93827000000E+00 0. -1.
     999902    2    1    2    0    0 -0.12112334936E-01 -0.17990151426E-01 -0.97872070453E-02  0.10201362271E+01  0.10198587050E+01 0.  0.
     999903    2    3    3    0    0 -0.12124577286E+00  0.40196332080E-01  0.83182244975E-02  0.13130352026E+00  0.29242760205E-01 0.  0.
         14    1    1    2    0    0  0.12112334936E-01  0.17990151426E-01  0.97872070453E-02  0.23793772876E-01  0.00000000000E+00 0. -1.
     999901    1    3    3    0    0  0.10913343793E+00 -0.58186483507E-01 -0.18105431543E-01  0.88883270686E+00  0.88000000000E+00 0. -1.
        -11    1    4    4    0    0 -0.24255652223E-01 -0.37164899661E-02  0.25912596728E-02  0.24680451984E-01  0.51100000000E-03 0. -1.
         11    1    4    4    0    0 -0.96990120640E-01  0.43912822046E-01  0.57269648247E-02  0.10662306828E+00  0.51100000000E-03 0.  1.
</event>
<event>
 8    1  0.1044719E+005  0.1043930E+01  0.7957747E-01            NaN
         13   -1    0    0    0    0  0.00000000000E+00  0.00000000000E+00  0.74505805969E-08  0.10566000000E+00  0.10566000000E+00 0.  1.
     999900   -1    0    0    0    0 -0.00000000000E+00 -0.00000000000E+00 -0.74505805969E-08  0.93827000000E+00  0.93827000000E+00 0.  1.
     999902    2    1    2    0    0 -0.17456731252E-01 -0.16029648890E-01 -0.54073703601E-02  0.10196210148E+01  0.10193311959E+01 0.  0.
     999903    2    3    3    0    0 -0.14990324747E-02 -0.50692359986E-01  0.11820151586E+00  0.13016314142E+00  0.19972044788E-01 0.  0.
         14    1    1    2    0    0  0.17456731252E-01  0.16029648890E-01  0.54073703601E-02  0.24308985247E-01  0.00000000000E+00 0.  1.
     999901    1    3    3    0    0 -0.15957698777E-01  0.34662711097E-01 -0.12360888622E+00  0.88945787334E+00  0.88000000000E+00 0.  1.
        -11    1    4    4    0    0 -0.45030576113E-02 -0.38119948510E-01  0.65716349356E-01  0.76107211853E-01  0.51100000000E-03 0. -1.
         11    1    4    4    0    0  0.30040251365E-02 -0.12572411476E-01  0.52485166500E-01  0.54055929563E-01  0.51100000000E-03 0.  1.
</event>
<event>
 8    1  0.1044719E+005  0.1043930E+01  0.7957747E-01            NaN
         13   -1    0    0    0    0  0.00000000000E+00  0.00000000000E+00  0.74505805969E-08  0.10566000000E+00  0.10566000000E+00 0.  1.
     999900   -1    0    0    0    0 -0.00000000000E+00 -0.00000000000E+00 -0.74505805969E-08  0.93827000000E+00  0.93827000000E+00 0.  1.
     999902    2    1    2    0    0  0.52860415829E-02 -0.22652444359E-01  0.50031597212E-02  0.10201369952E+01  0.10198594912E+01 0.  0.
     999903    2    3    3    0    0  0.38602621682E-01 -0.10483863465E+00 -0.64488768367E-01  0.13295398562E+00  0.32197194444E-01 0.  0.
         14    1    1    2    0    0 -0.52860415829E-02  0.22652444359E-01 -0.50031597212E-02  0.23793004818E-01  0.00000000000E+00 0. -1.
     999901    1    3    3    0    0 -0.33316580099E-01  0.82186190295E-01  0.69491928089E-01  0.88718300956E+00  0.88000000000E+00 0. -1.
        -11    1    4    4    0    0  0.62178276011E-03 -0.45761407113E-01 -0.21101579573E-01  0.50398718002E-01  0.51100000000E-03 0. -1.
         11    1    4    4    0    0  0.37980838922E-01 -0.59077227541E-01 -0.43387188794E-01  0.82555267619E-01  0.51100000000E-03 0.  1.
</event>
<event>
 7    1  0.1044719E+005  0.1043930E+01  0.7957747E-01            NaN
         13   -1    0    0    0    0  0.00000000000E+00  0.00000000000E+00  0.74505805969E-08  0.10566000000E+00  0.10566000000E+00 0. -1.
     999900   -1    0    0    0    0 -0.00000000000E+00 -0.00000000000E+00 -0.74505805969E-08  0.93827000000E+00  0.93827000000E+00 0.  1.
     999903    2    1    2    0    0 -0.68473757097E-01 -0.20937392050E-01  0.69264401089E-01  0.10164462676E+00  0.20175309036E-01 0.  0.
         14    1    1    2    0    0 -0.42711866806E-01  0.15661285943E-01  0.22107333300E-01  0.50579774902E-01  0.00000000000E+00 0.  1.
     999901    1    1    2    0    0  0.11118562390E+00  0.52761061062E-02 -0.91371734389E-01  0.89170559834E+00  0.88000000000E+00 0. -1.
        -11    1    3    3    0    0 -0.52781469916E-02  0.20097875468E-02  0.12217298934E-01  0.13469283422E-01  0.51100000000E-03 0. -1.
         11    1    3    3    0    0 -0.63195610105E-01 -0.22947179596E-01  0.57047102155E-01  0.88175343341E-01  0.51100000000E-03 0.  1.
</event>
<event>
 8    1  0.1044719E+005  0.1043930E+01  0.7957747E-01            NaN
         13   -1    0    0    0    0  0.00000000000E+00  0.00000000000E+00  0.74505805969E-08  0.10566000000E+00  0.10566000000E+00 0. -1.
     999900   -1    0    0    0    0 -0.00000000000E+00 -0.00000000000E+00 -0.74505805969E-08  0.93827000000E+00  0.93827000000E+00 0.  1.
     999902    2    1    2    0    0 -0.39277888128E-02 -0.22505036171E-01 -0.91061879696E-02  0.10193367725E+01  0.10190400527E+01 0.  0.
     999903    2    3    3    0    0 -0.31256900833E-01 -0.11416810615E+00 -0.57161185502E-01  0.13285029122E+00  0.19247037073E-01 0.  0.
         14    1    1    2    0    0  0.39277888128E-02  0.22505036171E-01  0.91061879696E-02  0.24593227470E-01  0.00000000000E+00 0.  1.
     999901    1    3    3    0    0  0.27329112020E-01  0.91663069983E-01  0.48054997533E-01  0.88648648131E+00  0.88000000000E+00 0. -1.
        -11    1    4    4    0    0 -0.19956566211E-01 -0.86140771089E-01 -0.33852203330E-01  0.94682256891E-01  0.51100000000E-03 0.  1.
         11    1    4    4    0    0 -0.11300334622E-01 -0.28027335065E-01 -0.23308982173E-01  0.38168034327E-01  0.51100000000E-03 0. -1.
</event>
<event>
 8    1  0.1044719E+005  0.1043930E+01  0.7957747E-01            NaN
         13   -1    0    0    0    0  0.00000000000E+00  0.00000000000E+00  0.74505805969E-08  0.10566000000E+00  0.10566000000E+00 0.  1.
     999900   -1    0    0    0    0 -0.00000000000E+00 -0.00000000000E+00 -0.74505805969E-08  0.93827000000E+00  0.93827000000E+00 0. -1.
     999902    2    1    2    0    0  0.21221720184E-01 -0.93235061688E-03  0.92734740499E-02  0.10207518205E+01  0.10204886334E+01 0.  0.
     999903    2    3    3    0    0 -0.11851561083E+00  0.37226430312E-01 -0.25809008119E-01  0.12821980715E+00  0.18505591628E-01 0.  0.
         14    1    1    2    0    0 -0.21221720184E-01  0.93235061688E-03 -0.92734740499E-02  0.23178179527E-01  0.00000000000E+00 0. -1.
     999901    1    3    3    0    0  0.13973733102E+00 -0.38158780929E-01  0.35082482169E-01  0.89253201332E+00  0.88000000000E+00 0.  1.
        -11    1    4    4    0    0 -0.45863433628E-01  0.51282677456E-02 -0.85362023961E-02  0.46934864936E-01  0.51100000000E-03 0. -1.
         11    1    4    4    0    0 -0.72652177206E-01  0.32098162566E-01 -0.17272805723E-01  0.81284942219E-01  0.51100000000E-03 0.  1.
</event>
<event>
 8    1  0.1044719E+005  0.1043930E+01  0.7957747E-01            NaN
         13   -1    0    0    0    0  0.00000000000E+00  0.00000000000E+00  0.74505805969E-08  0.10566000000E+00  0.10566000000E+00 0. -1.
     999900   -1    0    0    0    0 -0.00000000000E+00 -0.00000000000E+00 -0.74505805969E-08  0.93827000000E+00  0.93827000000E+00 0.  1.
     999902    2    1    2    0    0 -0.26295317354E-02 -0.10364242667E-01  0.21416382773E-01  0.10199927192E+01  0.10197117993E+01 0.  0.
     999903    2    3    3    0    0 -0.71662225012E-01 -0.24902696793E-01 -0.10189116488E+00  0.12859963488E+00  0.20010942226E-01 0.  0.
         14    1    1    2    0    0  0.26295317354E-02  0.10364242667E-01 -0.21416382773E-01  0.23937280846E-01  0.00000000000E+00 0.  1.
     999901    1    3    3    0    0  0.69032693277E-01  0.14538454126E-01  0.12330754765E+00  0.89139308428E+00  0.88000000000E+00 0. -1.
        -11    1    4    4    0    0 -0.61832340925E-01 -0.16112901298E-01 -0.74182732380E-01  0.97909156246E-01  0.51100000000E-03 0.  1.
         11    1    4    4    0    0 -0.98298840873E-02 -0.87897954949E-02 -0.27708432500E-01  0.30690478631E-01  0.51100000000E-03 0. -1.
</event>
<event>
 8    1  0.1044719E+005  0.1043930E+01  0.7957747E-01            NaN
         13   -1    0    0    0    0  0.00000000000E+00  0.00000000000E+00  0.74505805969E-08  0.10566000000E+00  0.10566000000E+00 0.  1.
     999900   -1    0    0    0    0 -0.00000000000E+00 -0.00000000000E+00 -0.74505805969E-08  0.93827000000E+00  0.93827000000E+00 0. -1.
     999902    2    1    2    0    0 -0.11572491239E-01 -0.13364815676E-01 -0.17042318715E-01  0.10193743188E+01  0.10190785153E+01 0.  0.
     999903    2    3    3    0    0 -0.47284188774E-01  0.60024669550E-01 -0.10475633415E+00  0.13125546956E+00  0.20380217919E-01 0.  0.
         14    1    1    2    0    0  0.11572491239E-01  0.13364815676E-01  0.17042318715E-01  0.24555681190E-01  0.00000000000E+00 0.  1.
     999901    1    3    3    0    0  0.35711697535E-01 -0.73389485226E-01  0.87714015439E-01  0.88811884925E+00  0.88000000000E+00 0.  1.
        -11    1    4    4    0    0 -0.29738305936E-01  0.22604880576E-01 -0.43234470778E-01  0.57138673858E-01  0.51100000000E-03 0. -1.
         11    1    4    4    0    0 -0.17545882837E-01  0.37419788974E-01 -0.61521863376E-01  0.74116795705E-01  0.51100000000E-03 0.  1.
</event>
<event>
 8    1  0.1044719E+005  0.1043930E+01  0.7957747E-01            NaN
         13   -1    0    0    0    0  0.00000000000E+00  0.00000000000E+00  0.74505805969E-08  0.10566000000E+00  0.10566000000E+00 0. -1.
     999900   -1    0    0    0    0 -0.00000000000E+00 -0.00000000000E+00 -0.74505805969E-08  0.93827000000E+00  0.93827000000E+00 0.  1.
     999902    2    1    2    0    0  0.19808844624E-02 -0.22079155402E-01 -0.92884675471E-02  0.10198948458E+01  0.10196115966E+01 0.  0.
     999903    2    3    3    0    0 -0.57989932163E-01  0.99004432890E-01  0.52225256344E-01  0.12745903726E+00  0.18804755095E-01 0.  0.
         14    1    1    2    0    0 -0.19808844624E-02  0.22079155402E-01  0.92884675471E-02  0.24035154168E-01  0.00000000000E+00 0.  1.
     999901    1    3    3    0    0  0.59970816625E-01 -0.12108358829E+00 -0.61513723891E-01  0.89243580858E+00  0.88000000000E+00 0.  1.
        -11    1    4    4    0    0 -0.20891795722E-01  0.50979113172E-01  0.19056035767E-01  0.58298634018E-01  0.51100000000E-03 0.  1.
         11    1    4    4    0    0 -0.37098136441E-01  0.48025319718E-01  0.33169220578E-01  0.69160403239E-01  0.51100000000E-03 0. -1.
</event>
<event>
 8    1  0.1044719E+005  0.1043930E+01  0.7957747E-01            NaN
         13   -1    0    0    0    0  0.00000000000E+00  0.00000000000E+00  0.74505805969E-08  0.10566000000E+00  0.10566000000E+00 0. -1.
     999900   -1    0    0    0    0 -0.00000000000E+00 -0.00000000000E+00 -0.74505805969E-08  0.93827000000E+00  0.93827000000E+00 0.  1.
     999902    2    1    2    0    0  0.12626652394E-01 -0.55124188683E-02  0.17388759735E-01  0.10217446878E+01  0.10215038027E+01 0.  0.
     999903    2    3    3    0    0 -0.53818905578E-01  0.10403623064E+00  0.56598812773E-01  0.13160236938E+00  0.19893369092E-01 0.  0.
         14    1    1    2    0    0 -0.12626652394E-01  0.55124188683E-02 -0.17388759735E-01  0.22185312204E-01  0.00000000000E+00 0.  1.
     999901    1    3    3    0    0  0.66445557972E-01 -0.10954864951E+00 -0.39210053038E-01  0.89014231842E+00  0.88000000000E+00 0.  1.
        -11    1    4    4    0    0 -0.47613152310E-01  0.81157177191E-01  0.38044888252E-01  0.10149470097E+00  0.51100000000E-03 0.  1.
         11    1    4    4    0    0 -0.62057532683E-02  0.22879053452E-01  0.18553924521E-01  0.30107668402E-01  0.51100000000E-03 0. -1.
</event>
<event>
 8    1  0.1106702E+005  0.1043930E+01  0.7957747E-01            NaN
         13   -1    0    0    0    0  0.00000000000E+00  0.00000000000E+00  0.74505805969E-08  0.10566000000E+00  0.10566000000E+00 0.  1.
     999900   -1    0    0    0    0 -0.00000000000E+00 -0.00000000000E+00 -0.74505805969E-08  0.93827000000E+00  0.93827000000E+00 0.  1.
     999902    2    1    2    0    0  0.27742088902E-02  0.22627685814E-01 -0.49153894698E-02  0.10206089911E+01  0.10203425128E+01 0.  0.
     999903    2    3    3    0    0 -0.10926460235E+00  0.10445451576E-01  0.67538130349E-01  0.13046820757E+00  0.20314855398E-01 0.  0.
         14    1    1    2    0    0 -0.27742088902E-02 -0.22627685814E-01  0.49153894698E-02  0.23321008852E-01  0.00000000000E+00 0. -1.
     999901    1    3    3    0    0  0.11203881124E+00  0.12182234238E-01 -0.72453519819E-01  0.89014078358E+00  0.88000000000E+00 0. -1.
        -11    1    4    4    0    0 -0.61283473080E-01  0.15206986170E-01  0.42710475181E-01  0.76232291795E-01  0.51100000000E-03 0.  1.
         11    1    4    4    0    0 -0.47981129270E-01 -0.47615345934E-02  0.24827655168E-01  0.54235915774E-01  0.51100000000E-03 0. -1.
</event>
<event>
 8    1  0.1044719E+005  0.1043930E+01  0.7957747E-01            NaN
         13   -1    0    0    0    0  0.00000000000E+00  0.00000000000E+00  0.74505805969E-08  0.10566000000E+00  0.10566000000E+00 0. -1.
     999900   -1    0    0    0    0 -0.00000000000E+00 -0.00000000000E+00 -0.74505805969E-08  0.93827000000E+00  0.93827000000E+00 0.  1.
     999902    2    1    2    0    0 -0.11655712759E-01 -0.15375244394E-01  0.85087483969E-02  0.10228432132E+01  0.10226258290E+01 0.  0.
     999903    2    3    3    0    0 -0.61409890143E-01 -0.39297184361E-01  0.11180119953E+00  0.13508363543E+00  0.20799928807E-01 0.  0.
         14    1    1    2    0    0  0.11655712759E-01  0.15375244394E-01 -0.85087483969E-02  0.21086786843E-01  0.00000000000E+00 0. -1.
     999901    1    3    3    0    0  0.49754177384E-01  0.23921939967E-01 -0.10329245114E+00  0.88775957772E+00  0.88000000000E+00 0.  1.
        -11    1    4    4    0    0 -0.11471606672E-01  0.26945189471E-03  0.11480931261E-01  0.16240174493E-01  0.51100000000E-03 0. -1.
         11    1    4    4    0    0 -0.49938283472E-01 -0.39566636256E-01  0.10032026827E+00  0.11884346094E+00  0.51100000000E-03 0.  1.
</event>
<event>
 8    1  0.1044719E+005  0.1043930E+01  0.7957747E-01            NaN
         13   -1    0    0    0    0  0.00000000000E+00  0.00000000000E+00  0.74505805969E-08  0.10566000000E+00  0.10566000000E+00 0. -1.
     999900   -1    0    0    0    0 -0.00000000000E+00 -0.00000000000E+00 -0.74505805969E-08  0.93827000000E+00  0.93827000000E+00 0. -1.
     999902    2    1    2    0    0  0.16778919770E-01 -0.76132862150E-02 -0.13592791765E-01  0.10210333133E+01  0.10207765517E+01 0.  0.
     999903    2    3    3    0    0 -0.67646355325E-01 -0.40043544362E-01  0.10014622035E+00  0.12911632632E+00  0.21499893921E-01 0.  0.
         14    1    1    2    0    0 -0.16778919770E-01  0.76132862150E-02  0.13592791765E-01  0.22896686739E-01  0.00000000000E+00 0. -1.
     999901    1    3    3    0    0  0.84425275095E-01  0.32430258147E-01 -0.11373901211E+00  0.89191698694E+00  0.88000000000E+00 0. -1.
        -11    1    4    4    0    0 -0.42960487644E-01 -0.13025664695E-01  0.54778426600E-01  0.70825197360E-01  0.51100000000E-03 0.  1.
         11    1    4    4    0    0 -0.24685867681E-01 -0.27017879667E-01  0.45367793747E-01  0.58291128960E-01  0.51100000000E-03 0. -1.
</event>
<event>
 8    1  0.1044719E+005  0.1043930E+01  0.7957747E-01            NaN
         13   -1    0    0    0    0  0.00000000000E+00  0.00000000000E+00  0.74505805969E-08  0.10566000000E+00  0.10566000000E+00 0.  1.
     999900   -1    0    0    0    0 -0.00000000000E+00 -0.00000000000E+00 -0.74505805969E-08  0.93827000000E+00  0.93827000000E+00 0.  1.
     999902    2    1    2    0    0  0.11426790820E-01  0.19951009661E-01  0.10365442492E-02  0.10209150319E+01  0.10206555803E+01 0.  0.
     999903    2    3    3    0    0  0.30764491122E-01 -0.11158794247E+00  0.53952795794E-01  0.12935652437E+00  0.20588428882E-01 0.  0.
         14    1    1    2    0    0 -0.11426790820E-01 -0.19951009661E-01 -0.10365442492E-02  0.23014968149E-01  0.00000000000E+00 0.  1.
     999901    1    3    3    0    0 -0.19337700301E-01  0.13153895213E+00 -0.52916251545E-01  0.89155850748E+00  0.88000000000E+00 0. -1.
        -11    1    4    4    0    0  0.89756775155E-02 -0.48064661125E-01  0.12628034662E-01  0.50502503070E-01  0.51100000000E-03 0.  1.
         11    1    4    4    0    0  0.21788813606E-01 -0.63523281349E-01  0.41324761132E-01  0.78854021301E-01  0.51100000000E-03 0. -1.
</event>
<event>
 8    1  0.1044719E+005  0.1043930E+01  0.7957747E-01            NaN
         13   -1    0    0    0    0  0.00000000000E+00  0.00000000000E+00  0.74505805969E-08  0.10566000000E+00  0.10566000000E+00 0. -1.
     999900   -1    0    0    0    0 -0.00000000000E+00 -0.00000000000E+00 -0.74505805969E-08  0.93827000000E+00  0.93827000000E+00 0.  1.
     999902    2    1    2    0    0  0.17866337362E-02 -0.24668026846E-01  0.22952691294E-02  0.10190910816E+01  0.10187883297E+01 0.  0.
     999903    2    3    3    0    0  0.73285063255E-01 -0.33165161211E-01  0.10094932725E+00  0.13065602491E+00  0.20238620478E-01 0.  0.
         14    1    1    2    0    0 -0.17866337362E-02  0.24668026846E-01 -0.22952691294E-02  0.24838918434E-01  0.00000000000E+00 0.  1.
     999901    1    3    3    0    0 -0.71498429519E-01  0.84971343644E-02 -0.98654058116E-01  0.88843505666E+00  0.88000000000E+00 0.  1.
        -11    1    4    4    0    0  0.67134500970E-01 -0.35273515644E-01  0.96615769147E-01  0.12282560847E+00  0.51100000000E-03 0. -1.
         11    1    4    4    0    0  0.61505622855E-02  0.21083544332E-02  0.43335580985E-02  0.78304164408E-02  0.51100000000E-03 0.  1.
</event>
<event>
 8    1  0.1044719E+005  0.1043930E+01  0.7957747E-01            NaN
         13   -1    0    0    0    0  0.00000000000E+00  0.00000000000E+00  0.74505805969E-08  0.10566000000E+00  0.10566000000E+00 0. -1.
     999900   -1    0    0    0    0 -0.00000000000E+00 -0.00000000000E+00 -0.74505805969E-08  0.93827000000E+00  0.93827000000E+00 0.  1.
     999902    2    1    2    0    0  0.32384692525E-04 -0.22291544639E-01 -0.23370915826E-02  0.10215162540E+01  0.10212703272E+01 0.  0.
     999903    2    3    3    0    0 -0.34674435801E-01  0.34424469640E-01 -0.12026182492E+00  0.13116378877E+00  0.18806178316E-01 0.  0.
         14    1    1    2    0    0 -0.32384692525E-04  0.22291544639E-01  0.23370915826E-02  0.22413745966E-01  0.00000000000E+00 0.  1.
     999901    1    3    3    0    0  0.34706820493E-01 -0.56716014279E-01  0.11792473334E+00  0.89035246526E+00  0.88000000000E+00 0. -1.
        -11    1    4    4    0    0 -0.10720390649E-01  0.58436429865E-02 -0.51596024500E-01  0.53023445797E-01  0.51100000000E-03 0.  1.
         11    1    4    4    0    0 -0.23954045151E-01  0.28580826654E-01 -0.68665800425E-01  0.78140342975E-01  0.51100000000E-03 0. -1.
</event>
<event>
 8    1  0.1044719E+005  0.1043930E+01  0.7957747E-01            NaN
         13   -1    0    0    0    0  0.00000000000E+00  0.00000000000E+00  0.74505805969E-08  0.10566000000E+00  0.10566000000E+00 0. -1.
     999900   -1    0    0    0    0 -0.00000000000E+00 -0.00000000000E+00 -0.74505805969E-08  0.93827000000E+00  0.93827000000E+00 0. -1.
     999902    2    1    2    0    0  0.17705057204E-01  0.18684532740E-02 -0.15610991780E-01  0.10202516717E+01  0.10199768675E+01 0.  0.
     999903    2    3    3    0    0 -0.10951802100E+00 -0.54019351884E-01  0.32708816970E-01  0.12803871373E+00  0.20291826059E-01 0.  0.
         14    1    1    2    0    0 -0.17705057204E-01 -0.18684532740E-02  0.15610991780E-01  0.23678328332E-01  0.00000000000E+00 0. -1.
     999901    1    3    3    0    0  0.12722307820E+00  0.55887805158E-01 -0.48319808749E-01  0.89221295794E+00  0.88000000000E+00 0. -1.
        -11    1    4    4    0    0 -0.71537182151E-01 -0.39617359652E-01  0.30756439195E-01  0.87368891997E-01  0.51100000000E-03 0.  1.
         11    1    4    4    0    0 -0.37980838849E-01 -0.14401992232E-01  0.19523777747E-02  0.40669821734E-01  0.51100000000E-03 0. -1.
</event>
<event>
 8    1  0.1044719E+005  0.1043930E+01  0.7957747E-01            NaN
         13   -1    0    0    0    0  0.00000000000E+00  0.00000000000E+00  0.74505805969E-08  0.10566000000E+00  0.10566000000E+00 0. -1.
     999900   -1    0    0    0    0 -0.00000000000E+00 -0.00000000000E+00 -0.74505805969E-08  0.93827000000E+00  0.93827000000E+00 0.  1.
     999902    2    1    2    0    0  0.23246522113E-01 -0.63748949991E-02  0.92365122119E-02  0.10181161813E+01  0.10177888806E+01 0.  0.
     999903    2    3    3    0    0 -0.79841205692E-01  0.21660822755E-01  0.94966212968E-01  0.12751937992E+00  0.19970009510E-01 0.  0.
         14    1    1    2    0    0 -0.23246522113E-01  0.63748949991E-02 -0.92365122119E-02  0.25813818672E-01  0.00000000000E+00 0.  1.
     999901    1    3    3    0    0  0.10308772780E+00 -0.28035717754E-01 -0.85729700756E-01  0.89059680141E+00  0.88000000000E+00 0.  1.
        -11    1    4    4    0    0 -0.40004377903E-01  0.19271682805E-01  0.58593826969E-01  0.73520376015E-01  0.51100000000E-03 0. -1.
         11    1    4    4    0    0 -0.39836827789E-01  0.23891399504E-02  0.36372385999E-01  0.53999003901E-01  0.51100000000E-03 0.  1.
</event>
<event>
 8    1  0.1044719E+005  0.1043930E+01  0.7957747E-01            NaN
         13   -1    0    0    0    0  0.00000000000E+00  0.00000000000E+00  0.74505805969E-08  0.10566000000E+00  0.10566000000E+00 0.  1.
     999900   -1    0    0    0    0 -0.00000000000E+00 -0.00000000000E+00 -0.74505805969E-08  0.93827000000E+00  0.93827000000E+00 0.  1.
     999902    2    1    2    0    0 -0.75283438857E-02 -0.19511893041E-01 -0.11034100259E-01  0.10202838312E+01  0.10200097817E+01 0.  0.
     999903    2    3    3    0    0 -0.10533608160E+00  0.19903872860E-01  0.70293617054E-01  0.13026464387E+00  0.23148015101E-01 0.  0.
         14    1    1    2    0    0  0.75283438857E-02  0.19511893041E-01  0.11034100259E-01  0.23646168828E-01  0.00000000000E+00 0. -1.
     999901    1    3    3    0    0  0.97807737714E-01 -0.39415765901E-01 -0.81327717313E-01  0.89001918730E+00  0.88000000000E+00 0.  1.
        -11    1    4    4    0    0 -0.97526326603E-01  0.12769587771E-01  0.67559449358E-01  0.11932722686E+00  0.51100000000E-03 0.  1.
         11    1    4    4    0    0 -0.78097549969E-02  0.71342850884E-02  0.27341676966E-02  0.10937417009E-01  0.51100000000E-03 0. -1.
</event>
<event>
 8    1  0.1044719E+005  0.1043930E+01  0.7957747E-01            NaN
         13   -1    0    0    0    0  0.00000000000E+00  0.00000000000E+00  0.74505805969E-08  0.10566000000E+00  0.10566000000E+00 0.  1.
     999900   -1    0    0    0    0 -0.00000000000E+00 -0.00000000000E+00 -0.74505805969E-08  0.93827000000E+00  0.93827000000E+00 0.  1.
     999902    2    1    2    0    0  0.18153455486E-01 -0.12370006735E-01  0.83781322735E-02  0.10204191916E+01  0.10201483071E+01 0.  0.
     999903    2    3    3    0    0 -0.69612508373E-01 -0.10885812219E+00  0.36123290970E-03  0.13076920898E+00  0.20111276439E-01 0.  0.
         14    1    1    2    0    0 -0.18153455486E-01  0.12370006735E-01 -0.83781322735E-02  0.23510808432E-01  0.00000000000E+00 0. -1.
     999901    1    3    3    0    0  0.87765963859E-01  0.96488115457E-01  0.80168993638E-02  0.88964998258E+00  0.88000000000E+00 0. -1.
        -11    1    4    4    0    0 -0.23202825423E-01 -0.27827833008E-01  0.78915162535E-02  0.37084990863E-01  0.51100000000E-03 0.  1.
         11    1    4    4    0    0 -0.46409682950E-01 -0.81030289184E-01 -0.75302833438E-02  0.93684218121E-01  0.51100000000E-03 0. -1.
</event>
<event>
 8    1  0.1044719E+005  0.1043930E+01  0.7957747E-01            NaN
         13   -1    0    0    0    0  0.00000000000E+00  0.00000000000E+00  0.74505805969E-08  0.10566000000E+00  0.10566000000E+00 0. -1.
     999900   -1    0    0    0    0 -0.00000000000E+00 -0.00000000000E+00 -0.74505805969E-08  0.93827000000E+00  0.93827000000E+00 0.  1.
     999902    2    1    2    0    0  0.74108507735E-03 -0.73913198268E-02 -0.22660205941E-01  0.10200832864E+01  0.10198045134E+01 0.  0.
     999903    2    3    3    0    0  0.11641969405E+00 -0.56227343024E-01 -0.73119154733E-02  0.13103769266E+00  0.20058751827E-01 0.  0.
         14    1    1    2    0    0 -0.74108507735E-03  0.73913198268E-02  0.22660205941E-01  0.23846713592E-01  0.00000000000E+00 0. -1.
     999901    1    3    3    0    0 -0.11567860897E+00  0.48836023197E-01 -0.15348290467E-01  0.88904559374E+00  0.88000000000E+00 0.  1.
        -11    1    4    4    0    0  0.56949612410E-01 -0.19279303641E-01  0.33286429901E-02  0.60218692179E-01  0.51100000000E-03 0. -1.
         11    1    4    4    0    0  0.59470081639E-01 -0.36948039383E-01 -0.10640558463E-01  0.70819000485E-01  0.51100000000E-03 0.  1.
</event>
<event>
 8    1  0.1044719E+005  0.1043930E+01  0.7957747E-01            NaN
         13   -1    0    0    0    0  0.00000000000E+00  0.00000000000E+00  0.74505805969E-08  0.10566000000E+00  0.10566000000E+00 0. -1.
     999900   -1    0    0    0    0 -0.00000000000E+00 -0.00000000000E+00 -0.74505805969E-08  0.93827000000E+00  0.93827000000E+00 0.  1.
     999902    2    1    2    0    0  0.15926802783E-01  0.89532451620E-02  0.15469618235E-01  0.10199898092E+01  0.10197088203E+01 0.  0.
     999903    2    3    3    0    0 -0.49305533953E-01 -0.76135261586E-01 -0.87372671192E-01  0.12753709439E+00  0.20102562968E-01 0.  0.
         14    1    1    2    0    0 -0.15926802783E-01 -0.89532451620E-02 -0.15469618235E-01  0.23940190771E-01  0.00000000000E+00 0.  1.
     999901    1    3    3    0    0  0.65232336736E-01  0.85088506748E-01  0.10284228943E+00  0.89245271484E+00  0.88000000000E+00 0. -1.
        -11    1    4    4    0    0 -0.20487957888E-01 -0.18437689039E-01 -0.34347602152E-01  0.44042294333E-01  0.51100000000E-03 0. -1.
         11    1    4    4    0    0 -0.28817576065E-01 -0.57697572548E-01 -0.53025069040E-01  0.83494800053E-01  0.51100000000E-03 0.  1.
</event>
<event>
 8    1  0.1044719E+005  0.1043930E+01  0.7957747E-01            NaN
         13   -1    0    0    0    0  0.00000000000E+00  0.00000000000E+00  0.74505805969E-08  0.10566000000E+00  0.10566000000E+00 0.  1.
     999900   -1    0    0    0    0 -0.00000000000E+00 -0.00000000000E+00 -0.74505805969E-08  0.93827000000E+00  0.93827000000E+00 0. -1.
     999902    2    1    2    0    0 -0.17977672727E-01  0.54032199488E-02 -0.18723554649E-01  0.10174165506E+01  0.10170710272E+01 0.  0.
     999903    2    3    3    0    0 -0.17124338309E-01  0.62552652210E-01 -0.11173435064E+00  0.13067093092E+00  0.19602290997E-01 0.  0.
         14    1    1    2    0    0  0.17977672727E-01 -0.54032199488E-02  0.18723554649E-01  0.26513449440E-01  0.00000000000E+00 0.  1.
     999901    1    3    3    0    0 -0.85333441828E-03 -0.57149432262E-01  0.93010795992E-01  0.88674561964E+00  0.88000000000E+00 0.  1.
        -11    1    4    4    0    0 -0.11571152296E-01  0.21231359572E-01 -0.27097167075E-01  0.36320514578E-01  0.51100000000E-03 0. -1.
         11    1    4    4    0    0 -0.55531860127E-02  0.41321292638E-01 -0.84637183566E-01  0.94350416338E-01  0.51100000000E-03 0.  1.
</event>
<event>
 8    1  0.1044719E+005  0.1043930E+01  0.7957747E-01            NaN
         13   -1    0    0    0    0  0.00000000000E+00  0.00000000000E+00  0.74505805969E-08  0.10566000000E+00  0.10566000000E+00 0. -1.
     999900   -1    0    0    0    0 -0.00000000000E+00 -0.00000000000E+00 -0.74505805969E-08  0.93827000000E+00  0.93827000000E+00 0.  1.
     999902    2    1    2    0    0  0.16068759238E-01 -0.17343706337E-01 -0.44986926458E-02  0.10198624407E+01  0.10195784181E+01 0.  0.
     999903    2    3    3    0    0 -0.62927429478E-01 -0.20378301665E-01  0.10901620196E+00  0.12905649224E+00  0.19897470692E-01 0.  0.
         14    1    1    2    0    0 -0.16068759238E-01  0.17343706337E-01  0.44986926458E-02  0.24067559255E-01  0.00000000000E+00 0. -1.
     999901    1    3    3    0    0  0.78996188716E-01  0.30345953278E-02 -0.11351489460E+00  0.89080594851E+00  0.88000000000E+00 0.  1.
        -11    1    4    4    0    0 -0.17491408958E-01 -0.72820271983E-02  0.49738448037E-01  0.53227358018E-01  0.51100000000E-03 0. -1.
         11    1    4    4    0    0 -0.45436020520E-01 -0.13096274467E-01  0.59277753921E-01  0.75829134220E-01  0.51100000000E-03 0.  1.
</event>
<event>
 8    1  0.1044719E+005  0.1043930E+01  0.7957747E-01            NaN
         13   -1    0    0    0    0  0.00000000000E+00  0.00000000000E+00  0.74505805969E-08  0.10566000000E+00  0.10566000000E+00 0. -1.
     999900   -1    0    0    0    0 -0.00000000000E+00 -0.00000000000E+00 -0.74505805969E-08  0.93827000000E+00  0.93827000000E+00 0. -1.
     999902    2    1    2    0    0  0.21377477674E-01  0.34487227978E-02 -0.97138730636E-02  0.10201971205E+01  0.10199210337E+01 0.  0.
     999903    2    3    3    0    0  0.21586109559E-01 -0.83397206931E-01  0.95208101681E-01  0.12971922641E+00  0.18478117449E-01 0.  0.
         14    1    1    2    0    0 -0.21377477674E-01 -0.34487227978E-02  0.97138730636E-02  0.23732879524E-01  0.00000000000E+00 0. -1.
     999901    1    3    3    0    0 -0.20863188528E-03  0.86845929729E-01 -0.10492197474E+00  0.89047789407E+00  0.88000000000E+00 0. -1.
        -11    1    4    4    0    0  0.99624428988E-02 -0.68362579067E-01  0.75361369369E-01  0.10223643968E+00  0.51100000000E-03 0. -1.
         11    1    4    4    0    0  0.11623666660E-01 -0.15034627864E-01  0.19846732312E-01  0.27482786724E-01  0.51100000000E-03 0.  1.
</event>
<event>
 8    1  0.1044719E+005  0.1043930E+01  0.7957747E-01            NaN
         13   -1    0    0    0    0  0.00000000000E+00  0.00000000000E+00  0.74505805969E-08  0.10566000000E+00  0.10566000000E+00 0.  1.
     999900   -1    0    0    0    0 -0.00000000000E+00 -0.00000000000E+00 -0.74505805969E-08  0.93827000000E+00  0.93827000000E+00 0. -1.
     999902    2    1    2    0    0  0.64894865994E-02 -0.41853560149E-02  0.21108941838E-01  0.10214529435E+01  0.10212056100E+01 0.  0.
     999903    2    3    3    0    0 -0.10509414172E+00  0.13316541471E-02  0.78266191964E-01  0.13255008341E+00  0.19934289115E-01 0.  0.
         14    1    1    2    0    0 -0.64894865994E-02  0.41853560149E-02 -0.21108941838E-01  0.22477056453E-01  0.00000000000E+00 0. -1.
     999901    1    3    3    0    0  0.11158362832E+00 -0.55170101620E-02 -0.57157250126E-01  0.88890286013E+00  0.88000000000E+00 0. -1.
        -11    1    4    4    0    0 -0.94419928853E-01 -0.14482732616E-02  0.76141476455E-01  0.12130542452E+00  0.51100000000E-03 0.  1.
         11    1    4    4    0    0 -0.10674212865E-01  0.27799274087E-02  0.21247155092E-02  0.11244658895E-01  0.51100000000E-03 0. -1.
</event>
<event>
 8    1  0.1044719E+005  0.1043930E+01  0.7957747E-01            NaN
         13   -1    0    0    0    0  0.00000000000E+00  0.00000000000E+00  0.74505805969E-08  0.10566000000E+00  0.10566000000E+00 0. -1.
     999900   -1    0    0    0    0 -0.00000000000E+00 -0.00000000000E+00 -0.74505805969E-08  0.93827000000E+00  0.93827000000E+00 0.  1.
     999902    2    1    2    0    0 -0.90731437282E-02 -0.10906221669E-01  0.20037487202E-01  0.10193786558E+01  0.10190829581E+01 0.  0.
     999903    2    3    3    0    0 -0.28644642881E-01 -0.57414072241E-01  0.11462441134E+00  0.13287275625E+00  0.19988056933E-01 0.  0.
         14    1    1    2    0    0  0.90731437282E-02  0.10906221669E-01 -0.20037487202E-01  0.24551344191E-01  0.00000000000E+00 0.  1.
     999901    1    3    3    0    0  0.19571499153E-01  0.46507850573E-01 -0.94586924139E-01  0.88650589956E+00  0.88000000000E+00 0.  1.
        -11    1    4    4    0    0  0.27008981900E-02 -0.20171787477E-02  0.41298405243E-02  0.53554238758E-02  0.51100000000E-03 0. -1.
         11    1    4    4    0    0 -0.31345541071E-01 -0.55396893494E-01  0.11049457082E+00  0.12751733237E+00  0.51100000000E-03 0.  1.
</event>
<event>
 8    1  0.1044719E+005  0.1043930E+01  0.7957747E-01            NaN
         13   -1    0    0    0    0  0.00000000000E+00  0.00000000000E+00  0.74505805969E-08  0.10566000000E+00  0.10566000000E+00 0. -1.
     999900   -1    0    0    0    0 -0.00000000000E+00 -0.00000000000E+00 -0.74505805969E-08  0.93827000000E+00  0.93827000000E+00 0.  1.
     999902    2    1    2    0    0 -0.18254774874E-01  0.12944869126E-01 -0.73571576991E-02  0.10203729583E+01  0.10201009949E+01 0.  0.
     999903    2    3    3    0    0 -0.79693598981E-01 -0.24568765224E-01  0.99160344208E-01  0.13103164024E+00  0.19540290088E-01 0.  0.
         14    1    1    2    0    0  0.18254774874E-01 -0.12944869126E-01  0.73571576991E-02  0.23557041661E-01  0.00000000000E+00 0.  1.
     999901    1    3    3    0    0  0.61438824107E-01  0.37513634351E-01 -0.10651750191E+00  0.88934131810E+00  0.88000000000E+00 0.  1.
        -11    1    4    4    0    0 -0.50919278689E-01 -0.10582827180E-01  0.48512397679E-01  0.71123013314E-01  0.51100000000E-03 0.  1.
         11    1    4    4    0    0 -0.28774320292E-01 -0.13985938045E-01  0.50647946528E-01  0.59908626923E-01  0.51100000000E-03 0. -1.
</event>
<event>
 7    1  0.1044719E+005  0.1043930E+01  0.7957747E-01            NaN
         13   -1    0    0    0    0  0.00000000000E+00  0.00000000000E+00  0.74505805969E-08  0.10566000000E+00  0.10566000000E+00 0.  1.
     999900   -1    0    0    0    0 -0.00000000000E+00 -0.00000000000E+00 -0.74505805969E-08  0.93827000000E+00  0.93827000000E+00 0.  1.
     999902    2    1    2    0    0 -0.13541987450E-01 -0.16397345755E-01 -0.12791739626E-01  0.10191129298E+01  0.10188107168E+01 0.  0.
         14    1    1    2    0    0  0.13541987450E-01  0.16397345755E-01  0.12791739626E-01  0.24817070225E-01  0.00000000000E+00 0. -1.
     999901    1    3    3    0    0 -0.20125856932E-02 -0.11958565403E+00  0.63221512408E-01  0.89033799132E+00  0.88000000000E+00 0. -1.
        -11    1    3    3    0    0 -0.14885032346E-02  0.22569720646E-01 -0.18667380279E-01  0.29331555353E-01  0.51100000000E-03 0.  1.
         11    1    3    3    0    0 -0.10040898522E-01  0.80618587633E-01 -0.57345871754E-01  0.99443383105E-01  0.51100000000E-03 0. -1.
</event>
<event>
 7    1  0.1044719E+005  0.1043930E+01  0.7957747E-01            NaN
         13   -1    0    0    0    0  0.00000000000E+00  0.00000000000E+00  0.74505805969E-08  0.10566000000E+00  0.10566000000E+00 0.  1.
     999900   -1    0    0    0    0 -0.00000000000E+00 -0.00000000000E+00 -0.74505805969E-08  0.93827000000E+00  0.93827000000E+00 0. -1.
     999903    2    1    2    0    0  0.13290413538E+00  0.27447189313E-01  0.44015531701E-01  0.14425448864E+00  0.21333847763E-01 0.  0.
         14    1    1    2    0    0  0.70520253988E-02 -0.97597212248E-03 -0.95636275031E-03  0.71831896480E-02  0.00000000000E+00 0. -1.
     999901    1    1    2    0    0 -0.13995616078E+00 -0.26471217190E-01 -0.43059168951E-01  0.89249232171E+00  0.88000000000E+00 0.  1.
        -11    1    3    3    0    0  0.94474878101E-01  0.96762462191E-02  0.32444808276E-01  0.10035964846E+00  0.51100000000E-03 0.  1.
         11    1    3    3    0    0  0.38429257279E-01  0.17770943094E-01  0.11570723425E-01  0.43894840187E-01  0.51100000000E-03 0. -1.
</event>
<event>
 8    1  0.1044719E+005  0.1043930E+01  0.7957747E-01            NaN
         13   -1    0    0    0    0  0.00000000000E+00  0.00000000000E+00  0.74505805969E-08  0.10566000000E+00  0.10566000000E+00 0.  1.
     999900   -1    0    0    0    0 -0.00000000000E+00 -0.00000000000E+00 -0.74505805969E-08  0.93827000000E+00  0.93827000000E+00 0.  1.
     999902    2    1    2    0    0 -0.15007566662E-01 -0.18074697670E-01 -0.36318694319E-02  0.10201579107E+01  0.10198809002E+01 0.  0.
     999903    2    3    3    0    0  0.10790110667E+00 -0.68901845397E-01 -0.12286713477E-01  0.13012148043E+00  0.19761660397E-01 0.  0.
         14    1    1    2    0    0  0.15007566662E-01  0.18074697670E-01  0.36318694319E-02  0.23772089276E-01  0.00000000000E+00 0.  1.
     999901    1    3    3    0    0 -0.12290867333E+00  0.50827147728E-01  0.86548440456E-02  0.89003643029E+00  0.88000000000E+00 0.  1.
        -11    1    4    4    0    0  0.62540008073E-01 -0.31663445813E-01  0.27740412084E-03  0.70101101879E-01  0.51100000000E-03 0.  1.
         11    1    4    4    0    0  0.45361098595E-01 -0.37238399584E-01 -0.12564117598E-01  0.60020378551E-01  0.51100000000E-03 0. -1.
</event>
<event>
 8    1  0.1044719E+005  0.1043930E+01  0.7957747E-01            NaN
         13   -1    0    0    0    0  0.00000000000E+00  0.00000000000E+00  0.74505805969E-08  0.10566000000E+00  0.10566000000E+00 0. -1.
     999900   -1    0    0    0    0 -0.00000000000E+00 -0.00000000000E+00 -0.74505805969E-08  0.93827000000E+00  0.93827000000E+00 0. -1.
     999902    2    1    2    0    0  0.49616128710E-02 -0.15679786839E-01 -0.94081652622E-02  0.10249830506E+01  0.10248079172E+01 0.  0.
     999903    2    3    3    0    0 -0.76942612098E-01  0.99710831977E-01  0.35493804538E-01  0.13254846821E+00  0.21139316287E-01 0.  0.
         14    1    1    2    0    0 -0.49616128710E-02  0.15679786839E-01  0.94081652622E-02  0.18946949391E-01  0.00000000000E+00 0. -1.
     999901    1    3    3    0    0  0.81904224969E-01 -0.11539061882E+00 -0.44901969800E-01  0.89243458240E+00  0.88000000000E+00 0. -1.
        -11    1    4    4    0    0 -0.36633279015E-01  0.53398181563E-01  0.79185991951E-02  0.65240541535E-01  0.51100000000E-03 0.  1.
         11    1    4    4    0    0 -0.40309333082E-01  0.46312650415E-01  0.27575205343E-01  0.67307926670E-01  0.51100000000E-03 0. -1.
</event>
<event>
 8    1  0.1044719E+005  0.1043930E+01  0.7957747E-01            NaN
         13   -1    0    0    0    0  0.00000000000E+00  0.00000000000E+00  0.74505805969E-08  0.10566000000E+00  0.10566000000E+00 0. -1.
     999900   -1    0    0    0    0 -0.00000000000E+00 -0.00000000000E+00 -0.74505805969E-08  0.93827000000E+00  0.93827000000E+00 0.  1.
     999902    2    1    2    0    0 -0.19487020830E-01 -0.91891162967E-02  0.10417628767E-01  0.10199986225E+01  0.10197178429E+01 0.  0.
     999903    2    3    3    0    0  0.61317405142E-01  0.33530464225E-01 -0.10497938350E+00  0.12777063133E+00  0.20507244237E-01 0.  0.
         14    1    1    2    0    0  0.19487020830E-01  0.91891162967E-02 -0.10417628767E-01  0.23931377484E-01  0.00000000000E+00 0.  1.
     999901    1    3    3    0    0 -0.80804425972E-01 -0.42719580521E-01  0.11539701227E+00  0.89222799119E+00  0.88000000000E+00 0.  1.
        -11    1    4    4    0    0  0.58241708700E-01  0.26880855432E-01 -0.85035591569E-01  0.10651755712E+00  0.51100000000E-03 0. -1.
         11    1    4    4    0    0  0.30756964424E-02  0.66496087928E-02 -0.19943791929E-01  0.21253074206E-01  0.51100000000E-03 0.  1.
</event>
<event>
 8    1  0.1044719E+005  0.1043930E+01  0.7957747E-01            NaN
         13   -1    0    0    0    0  0.00000000000E+00  0.00000000000E+00  0.74505805969E-08  0.10566000000E+00  0.10566000000E+00 0.  1.
     999900   -1    0    0    0    0 -0.00000000000E+00 -0.00000000000E+00 -0.74505805969E-08  0.93827000000E+00  0.93827000000E+00 0. -1.
     999902    2    1    2    0    0 -0.17537884003E-01  0.23618699219E-03  0.17270579061E-01  0.10193148408E+01  0.10190175851E+01 0.  0.
     999903    2    3    3    0    0 -0.11673982832E+00 -0.34551092326E-01 -0.44129045431E-01  0.13093367577E+00  0.19346557870E-01 0.  0.
         14    1    1    2    0    0  0.17537884003E-01 -0.23618699219E-03 -0.17270579061E-01  0.24615159164E-01  0.00000000000E+00 0. -1.
     999901    1    3    3    0    0  0.99201944321E-01  0.34787279319E-01  0.61399624491E-01  0.88838116507E+00  0.88000000000E+00 0. -1.
        -11    1    4    4    0    0 -0.53719745886E-01 -0.13288007242E-01 -0.10222528946E-01  0.56277379591E-01  0.51100000000E-03 0.  1.
         11    1    4    4    0    0 -0.63020082438E-01 -0.21263085085E-01 -0.33906516485E-01  0.74656296177E-01  0.51100000000E-03 0. -1.
</event>
<event>
 8    1  0.1044719E+005  0.1043930E+01  0.7957747E-01            NaN
         13   -1    0    0    0    0  0.00000000000E+00  0.00000000000E+00  0.74505805969E-08  0.10566000000E+00  0.10566000000E+00 0.  1.
     999900   -1    0    0    0    0 -0.00000000000E+00 -0.00000000000E+00 -0.74505805969E-08  0.93827000000E+00  0.93827000000E+00 0.  1.
     999902    2    1    2    0    0  0.54095224407E-02  0.21573933199E-01  0.86564116135E-02  0.10200630566E+01  0.10197838047E+01 0.  0.
     999903    2    3    3    0    0  0.73336207840E-01  0.85802859048E-01  0.67602499027E-01  0.13315041672E+00  0.20459853282E-01 0.  0.
         14    1    1    2    0    0 -0.54095224407E-02 -0.21573933199E-01 -0.86564116135E-02  0.23866943431E-01  0.00000000000E+00 0. -1.
     999901    1    3    3    0    0 -0.67926685400E-01 -0.64228925849E-01 -0.58946087414E-01  0.88691263985E+00  0.88000000000E+00 0.  1.
        -11    1    4    4    0    0  0.49924281734E-01  0.58296498400E-01  0.34493578938E-01  0.84148581339E-01  0.51100000000E-03 0.  1.
         11    1    4    4    0    0  0.23411926106E-01  0.27506360649E-01  0.33108920089E-01  0.49001835380E-01  0.51100000000E-03 0. -1.
</event>
