<event>
 8    1  0.1071333E+005  0.1043930E+01  0.7957747E-01            NaN
         13   -1    0    0    0    0  0.00000000000E+00  0.00000000000E+00  0.74505805969E-08  0.10566000000E+00  0.10566000000E+00 0.  1.
     999900   -1    0    0    0    0 -0.00000000000E+00 -0.00000000000E+00 -0.74505805969E-08  0.93827000000E+00  0.93827000000E+00 0.  1.
     999902    2    1    2    0    0 -0.11730205521E-01  0.20557243170E-01 -0.98865323861E-03  0.10202408590E+01  0.10199658008E+01 0.  0.
     999903    2    3    3    0    0 -0.20225663865E-01  0.10335393297E+00 -0.78649070819E-01  0.13290856206E+00  0.19695090490E-01 0.  0.
         14    1    1    2    0    0  0.11730205521E-01 -0.20557243170E-01  0.98865323861E-03  0.23689141047E-01  0.00000000000E+00 0. -1.
     999901    1    3    3    0    0  0.84954583440E-02 -0.82796689796E-01  0.77660417581E-01  0.88733229689E+00  0.88000000000E+00 0. -1.
        -11    1    4    4    0    0 -0.20042191409E-01  0.51240032548E-01 -0.40139946870E-01  0.68108052591E-01  0.51100000000E-03 0. -1.
         11    1    4    4    0    0 -0.18347245549E-03  0.52113900418E-01 -0.38509123950E-01  0.64800509468E-01  0.51100000000E-03 0.  1.
</event>
<event>
 8    1  0.1071333E+005  0.1043930E+01  0.7957747E-01            NaN
         13   -1    0    0    0    0  0.00000000000E+00  0.00000000000E+00  0.74505805969E-08  0.10566000000E+00  0.10566000000E+00 0. -1.
     999900   -1    0    0    0    0 -0.00000000000E+00 -0.00000000000E+00 -0.74505805969E-08  0.93827000000E+00  0.93827000000E+00 0. -1.
     999902    2    1    2    0    0  0.13486486949E-01  0.55135434247E-02  0.18745204735E-01  0.10201883237E+01  0.10199120299E+01 0.  0.
     999903    2    3    3    0    0 -0.36965157388E-01 -0.59178091411E-01 -0.10519764488E+00  0.12772420345E+00  0.19454004595E-01 0.  0.
         14    1    1    2    0    0 -0.13486486949E-01 -0.55135434247E-02 -0.18745204735E-01  0.23741676265E-01  0.00000000000E+00 0.  1.
     999901    1    3    3    0    0  0.50451644337E-01  0.64691634836E-01  0.12394284961E+00  0.89246412029E+00  0.88000000000E+00 0.  1.
        -11    1    4    4    0    0 -0.33765560828E-01 -0.39168515059E-01 -0.68892557106E-01  0.86143666138E-01  0.51100000000E-03 0. -1.
         11    1    4    4    0    0 -0.31995965600E-02 -0.20009576352E-01 -0.36305087769E-01  0.41580537308E-01  0.51100000000E-03 0.  1.
</event>
<event>
 8    1  0.1071333E+005  0.1043930E+01  0.7957747E-01            NaN
         13   -1    0    0    0    0  0.00000000000E+00  0.00000000000E+00  0.74505805969E-08  0.10566000000E+00  0.10566000000E+00 0. -1.
     999900   -1    0    0    0    0 -0.00000000000E+00 -0.00000000000E+00 -0.74505805969E-08  0.93827000000E+00  0.93827000000E+00 0.  1.
     999902    2    1    2    0    0 -0.60412292966E-02 -0.19671401885E-01 -0.11995406201E-01  0.10201108843E+01  0.10198327637E+01 0.  0.
     999903    2    3    3    0    0  0.23787956698E-01 -0.93394362112E-01  0.86509446425E-01  0.13105067193E+00  0.20050449728E-01 0.  0.
         14    1    1    2    0    0  0.60412292966E-02  0.19671401885E-01  0.11995406201E-01  0.23819115715E-01  0.00000000000E+00 0. -1.
     999901    1    3    3    0    0 -0.29829185995E-01  0.73722960227E-01 -0.98504852626E-01  0.88906021235E+00  0.88000000000E+00 0.  1.
        -11    1    4    4    0    0  0.19747232289E-01 -0.86358701931E-01  0.70962194825E-01  0.11350626766E+00  0.51100000000E-03 0. -1.
         11    1    4    4    0    0  0.40407244093E-02 -0.70356601813E-02  0.15547251601E-01  0.17544404272E-01  0.51100000000E-03 0.  1.
</event>
<event>
 8    1  0.1071333E+005  0.1043930E+01  0.7957747E-01            NaN
         13   -1    0    0    0    0  0.00000000000E+00  0.00000000000E+00  0.74505805969E-08  0.10566000000E+00  0.10566000000E+00 0.  1.
     999900   -1    0    0    0    0 -0.00000000000E+00 -0.00000000000E+00 -0.74505805969E-08  0.93827000000E+00  0.93827000000E+00 0. -1.
     999902    2    1    2    0    0 -0.16673924744E-01 -0.23840392501E-02 -0.20487025140E-01  0.10174079034E+01  0.10170621516E+01 0.  0.
     999903    2    3    3    0    0  0.44137765678E-02  0.12337617938E+00 -0.28086153889E-01  0.12818460720E+00  0.20032434218E-01 0.  0.
         14    1    1    2    0    0  0.16673924744E-01  0.23840392501E-02  0.20487025140E-01  0.26522096610E-01  0.00000000000E+00 0.  1.
     999901    1    3    3    0    0 -0.21087701312E-01 -0.12576021863E+00  0.75991287495E-02  0.88922329619E+00  0.88000000000E+00 0. -1.
        -11    1    4    4    0    0 -0.49735791530E-03  0.78238005349E-01 -0.26984322766E-01  0.82763806353E-01  0.51100000000E-03 0. -1.
         11    1    4    4    0    0  0.49111344831E-02  0.45138174027E-01 -0.11018311234E-02  0.45420800843E-01  0.51100000000E-03 0.  1.
</event>
<event>
 8    1  0.1071333E+005  0.1043930E+01  0.7957747E-01            NaN
         13   -1    0    0    0    0  0.00000000000E+00  0.00000000000E+00  0.74505805969E-08  0.10566000000E+00  0.10566000000E+00 0. -1.
     999900   -1    0    0    0    0 -0.00000000000E+00 -0.00000000000E+00 -0.74505805969E-08  0.93827000000E+00  0.93827000000E+00 0. -1.
     999902    2    1    2    0    0 -0.41367338580E-02 -0.15678670856E-01  0.17098743441E-01  0.10203651891E+01  0.10200930442E+01 0.  0.
     999903    2    3    3    0    0 -0.48771442545E-01 -0.58749135394E-01  0.10735444679E+00  0.13357693130E+00  0.22084039761E-01 0.  0.
         14    1    1    2    0    0  0.41367338580E-02  0.15678670856E-01 -0.17098743441E-01  0.23564810928E-01  0.00000000000E+00 0.  1.
     999901    1    3    3    0    0  0.44634708687E-01  0.43070464538E-01 -0.90255703351E-01  0.88678825777E+00  0.88000000000E+00 0. -1.
        -11    1    4    4    0    0 -0.32224264256E-01 -0.51720058724E-01  0.89137466193E-01  0.10797738968E+00  0.51100000000E-03 0. -1.
         11    1    4    4    0    0 -0.16547178289E-01 -0.70290766696E-02  0.18216980598E-01  0.25599541622E-01  0.51100000000E-03 0.  1.
</event>
<event>
 8    1  0.1071333E+005  0.1043930E+01  0.7957747E-01            NaN
         13   -1    0    0    0    0  0.00000000000E+00  0.00000000000E+00  0.74505805969E-08  0.10566000000E+00  0.10566000000E+00 0.  1.
     999900   -1    0    0    0    0 -0.00000000000E+00 -0.00000000000E+00 -0.74505805969E-08  0.93827000000E+00  0.93827000000E+00 0.  1.
     999902    2    1    2    0    0 -0.18469030365E-02  0.19066516782E-01  0.13032529093E-01  0.10207612726E+01  0.10204983027E+01 0.  0.
     999903    2    3    3    0    0  0.11724409295E+00  0.87795865551E-02 -0.49493387600E-01  0.13048155451E+00  0.27433231299E-01 0.  0.
         14    1    1    2    0    0  0.18469030365E-02 -0.19066516782E-01 -0.13032529093E-01  0.23168727362E-01  0.00000000000E+00 0. -1.
     999901    1    3    3    0    0 -0.11909099598E+00  0.10286930226E-01  0.62525916693E-01  0.89027971813E+00  0.88000000000E+00 0.  1.
        -11    1    4    4    0    0  0.87252114496E-01  0.12319209507E-01 -0.25007314393E-01  0.91598697049E-01  0.51100000000E-03 0.  1.
         11    1    4    4    0    0  0.29991978451E-01 -0.35396229516E-02 -0.24486073207E-01  0.38882857458E-01  0.51100000000E-03 0. -1.
</event>
<event>
 8    1  0.1071333E+005  0.1043930E+01  0.7957747E-01            NaN
         13   -1    0    0    0    0  0.00000000000E+00  0.00000000000E+00  0.74505805969E-08  0.10566000000E+00  0.10566000000E+00 0.  1.
     999900   -1    0    0    0    0 -0.00000000000E+00 -0.00000000000E+00 -0.74505805969E-08  0.93827000000E+00  0.93827000000E+00 0.  1.
     999902    2    1    2    0    0  0.19144031172E-02 -0.18995504834E-01  0.16306449850E-01  0.10188223428E+01  0.10185129217E+01 0.  0.
     999903    2    3    3    0    0 -0.82499864699E-01  0.84339803297E-01 -0.41811651887E-01  0.12686849407E+00  0.20687446894E-01 0.  0.
         14    1    1    2    0    0 -0.19144031172E-02  0.18995504834E-01 -0.16306449850E-01  0.25107657197E-01  0.00000000000E+00 0. -1.
     999901    1    3    3    0    0  0.84414267816E-01 -0.10333530813E+00  0.58118101737E-01  0.89195384873E+00  0.88000000000E+00 0. -1.
        -11    1    4    4    0    0 -0.63589018053E-01  0.66216160641E-01 -0.23081425457E-01  0.94663385050E-01  0.51100000000E-03 0.  1.
         11    1    4    4    0    0 -0.18910846646E-01  0.18123642656E-01 -0.18730226430E-01  0.32205109022E-01  0.51100000000E-03 0. -1.
</event>
<event>
 8    1  0.1071333E+005  0.1043930E+01  0.7957747E-01            NaN
         13   -1    0    0    0    0  0.00000000000E+00  0.00000000000E+00  0.74505805969E-08  0.10566000000E+00  0.10566000000E+00 0. -1.
     999900   -1    0    0    0    0 -0.00000000000E+00 -0.00000000000E+00 -0.74505805969E-08  0.93827000000E+00  0.93827000000E+00 0. -1.
     999902    2    1    2    0    0 -0.10935266230E-01 -0.17807125952E-01 -0.44962757361E-02  0.10225550081E+01  0.10223315775E+01 0.  0.
     999903    2    3    3    0    0 -0.11082589523E-01  0.97515656021E-01  0.83765298987E-01  0.13065284347E+00  0.20528351916E-01 0.  0.
         14    1    1    2    0    0  0.10935266230E-01  0.17807125952E-01  0.44962757361E-02  0.21374991875E-01  0.00000000000E+00 0.  1.
     999901    1    3    3    0    0  0.14732329353E-03 -0.11532278197E+00 -0.88261574723E-01  0.89190216466E+00  0.88000000000E+00 0. -1.
        -11    1    4    4    0    0 -0.15509953502E-01  0.60743837639E-01  0.46046904265E-01  0.77787858835E-01  0.51100000000E-03 0. -1.
         11    1    4    4    0    0  0.44273639792E-02  0.36771818382E-01  0.37718394722E-01  0.52864984633E-01  0.51100000000E-03 0.  1.
</event>
<event>
 7    1  0.1071333E+005  0.1043930E+01  0.7957747E-01            NaN
         13   -1    0    0    0    0  0.00000000000E+00  0.00000000000E+00  0.74505805969E-08  0.10566000000E+00  0.10566000000E+00 0.  1.
     999900   -1    0    0    0    0 -0.00000000000E+00 -0.00000000000E+00 -0.74505805969E-08  0.93827000000E+00  0.93827000000E+00 0.  1.
     999903    2    1    2    0    0  0.86273365137E-02 -0.64540833937E-01 -0.57959342268E-01  0.89524960621E-01  0.20383401028E-01 0.  0.
         14    1    1    2    0    0 -0.62080698501E-01  0.28453255052E-01  0.20290246639E-01  0.71241104414E-01  0.00000000000E+00 0.  1.
     999901    1    1    2    0    0  0.53453361987E-01  0.36087578884E-01  0.37669095629E-01  0.88316393497E+00  0.88000000000E+00 0. -1.
        -11    1    3    3    0    0 -0.13636124437E-05 -0.25078987055E-01 -0.34994964969E-01  0.43056524334E-01  0.51100000000E-03 0.  1.
         11    1    3    3    0    0  0.86287001261E-02 -0.39461846882E-01 -0.22964377299E-01  0.46468436287E-01  0.51100000000E-03 0. -1.
</event>
<event>
 8    1  0.1071333E+005  0.1043930E+01  0.7957747E-01            NaN
         13   -1    0    0    0    0  0.00000000000E+00  0.00000000000E+00  0.74505805969E-08  0.10566000000E+00  0.10566000000E+00 0.  1.
     999900   -1    0    0    0    0 -0.00000000000E+00 -0.00000000000E+00 -0.74505805969E-08  0.93827000000E+00  0.93827000000E+00 0. -1.
     999902    2    1    2    0    0 -0.19204376096E-01  0.12332423087E-01 -0.47934112994E-02  0.10206089041E+01  0.10203424237E+01 0.  0.
     999903    2    3    3    0    0 -0.13102377356E+00  0.72072170723E-02 -0.13671864435E-01  0.13347381165E+00  0.20227834908E-01 0.  0.
         14    1    1    2    0    0  0.19204376096E-01 -0.12332423087E-01  0.47934112994E-02  0.23321095865E-01  0.00000000000E+00 0.  1.
     999901    1    3    3    0    0  0.11181939746E+00  0.51252060148E-02  0.88784531358E-02  0.88713509248E+00  0.88000000000E+00 0. -1.
        -11    1    4    4    0    0 -0.84042404539E-01 -0.97694954523E-03 -0.16674777938E-01  0.85687744348E-01  0.51100000000E-03 0. -1.
         11    1    4    4    0    0 -0.46981369017E-01  0.81841666175E-02  0.30029135028E-02  0.47786067305E-01  0.51100000000E-03 0.  1.
</event>
<event>
 8    1  0.1071333E+005  0.1043930E+01  0.7957747E-01            NaN
         13   -1    0    0    0    0  0.00000000000E+00  0.00000000000E+00  0.74505805969E-08  0.10566000000E+00  0.10566000000E+00 0.  1.
     999900   -1    0    0    0    0 -0.00000000000E+00 -0.00000000000E+00 -0.74505805969E-08  0.93827000000E+00  0.93827000000E+00 0. -1.
     999902    2    1    2    0    0 -0.11929158585E-01 -0.94028855586E-02  0.24817518864E-01  0.10148331217E+01  0.10144159091E+01 0.  0.
     999903    2    3    3    0    0 -0.11392710048E+00 -0.36256921289E-01  0.42337651462E-01  0.12836164763E+00  0.19755689926E-01 0.  0.
         14    1    1    2    0    0  0.11929158585E-01  0.94028855586E-02 -0.24817518864E-01  0.29096878251E-01  0.00000000000E+00 0. -1.
     999901    1    3    3    0    0  0.10199794190E+00  0.26854035731E-01 -0.17520132598E-01  0.88647147412E+00  0.88000000000E+00 0. -1.
        -11    1    4    4    0    0 -0.87141086794E-01 -0.22440248272E-01  0.24204191155E-01  0.93183892066E-01  0.51100000000E-03 0. -1.
         11    1    4    4    0    0 -0.26786013689E-01 -0.13816673017E-01  0.18133460307E-01  0.35177755561E-01  0.51100000000E-03 0.  1.
</event>
<event>
 8    1  0.1071333E+005  0.1043930E+01  0.7957747E-01            NaN
         13   -1    0    0    0    0  0.00000000000E+00  0.00000000000E+00  0.74505805969E-08  0.10566000000E+00  0.10566000000E+00 0. -1.
     999900   -1    0    0    0    0 -0.00000000000E+00 -0.00000000000E+00 -0.74505805969E-08  0.93827000000E+00  0.93827000000E+00 0.  1.
     999902    2    1    2    0    0 -0.37687637594E-02 -0.17346841283E-01  0.15858937838E-01  0.10201261685E+01  0.10198484090E+01 0.  0.
     999903    2    3    3    0    0  0.73615329619E-01  0.80482973816E-01 -0.63692586998E-01  0.12777678868E+00  0.19324498918E-01 0.  0.
         14    1    1    2    0    0  0.37687637594E-02  0.17346841283E-01 -0.15858937838E-01  0.23803831459E-01  0.00000000000E+00 0.  1.
     999901    1    3    3    0    0 -0.77384093378E-01 -0.97829815099E-01  0.79551524836E-01  0.89234937986E+00  0.88000000000E+00 0. -1.
        -11    1    4    4    0    0  0.44776126887E-02  0.80169071909E-02 -0.21829252281E-03  0.91993798119E-02  0.51100000000E-03 0. -1.
         11    1    4    4    0    0  0.69137716930E-01  0.72466066625E-01 -0.63474294475E-01  0.11857740887E+00  0.51100000000E-03 0.  1.
</event>
<event>
 8    1  0.1071333E+005  0.1043930E+01  0.7957747E-01            NaN
         13   -1    0    0    0    0  0.00000000000E+00  0.00000000000E+00  0.74505805969E-08  0.10566000000E+00  0.10566000000E+00 0.  1.
     999900   -1    0    0    0    0 -0.00000000000E+00 -0.00000000000E+00 -0.74505805969E-08  0.93827000000E+00  0.93827000000E+00 0.  1.
     999902    2    1    2    0    0  0.14320570436E-01 -0.19585534100E-01 -0.29081419302E-02  0.10194937733E+01  0.10192008755E+01 0.  0.
     999903    2    3    3    0    0  0.25308752800E-01  0.84085189838E-01  0.91336544725E-01  0.12834259643E+00  0.20459851861E-01 0.  0.
         14    1    1    2    0    0 -0.14320570436E-01  0.19585534100E-01  0.29081419302E-02  0.24436226654E-01  0.00000000000E+00 0. -1.
     999901    1    3    3    0    0 -0.10988182363E-01 -0.10367072394E+00 -0.94244686655E-01  0.89115117691E+00  0.88000000000E+00 0.  1.
        -11    1    4    4    0    0  0.10520098056E-01  0.47621328483E-01  0.63828604136E-01  0.80329416882E-01  0.51100000000E-03 0. -1.
         11    1    4    4    0    0  0.14788654744E-01  0.36463861355E-01  0.27507940588E-01  0.48013179550E-01  0.51100000000E-03 0.  1.
</event>
<event>
 8    1  0.1071333E+005  0.1043930E+01  0.7957747E-01            NaN
         13   -1    0    0    0    0  0.00000000000E+00  0.00000000000E+00  0.74505805969E-08  0.10566000000E+00  0.10566000000E+00 0. -1.
     999900   -1    0    0    0    0 -0.00000000000E+00 -0.00000000000E+00 -0.74505805969E-08  0.93827000000E+00  0.93827000000E+00 0.  1.
     999902    2    1    2    0    0 -0.18853996425E-01  0.42434210985E-03 -0.14592564197E-01  0.10200847452E+01  0.10198060066E+01 0.  0.
     999903    2    3    3    0    0 -0.74635210459E-01  0.69380916257E-01 -0.82399354518E-01  0.13303101864E+00  0.22879513000E-01 0.  0.
         14    1    1    2    0    0  0.18853996425E-01 -0.42434210985E-03  0.14592564197E-01  0.23845254816E-01  0.00000000000E+00 0. -1.
     999901    1    3    3    0    0  0.55781214034E-01 -0.68956574147E-01  0.67806790321E-01  0.88705372654E+00  0.88000000000E+00 0. -1.
        -11    1    4    4    0    0 -0.18434566499E-01  0.17568674094E-01 -0.34274044180E-01  0.42702023101E-01  0.51100000000E-03 0. -1.
         11    1    4    4    0    0 -0.56200643959E-01  0.51812242163E-01 -0.48125310338E-01  0.90328995542E-01  0.51100000000E-03 0.  1.
</event>
<event>
 8    1  0.1071333E+005  0.1043930E+01  0.7957747E-01            NaN
         13   -1    0    0    0    0  0.00000000000E+00  0.00000000000E+00  0.74505805969E-08  0.10566000000E+00  0.10566000000E+00 0. -1.
     999900   -1    0    0    0    0 -0.00000000000E+00 -0.00000000000E+00 -0.74505805969E-08  0.93827000000E+00  0.93827000000E+00 0. -1.
     999902    2    1    2    0    0  0.24020121402E-02 -0.12318493685E-01 -0.20758908637E-01  0.10196720686E+01  0.10193834804E+01 0.  0.
     999903    2    3    3    0    0  0.87876295991E-01  0.89319577449E-01  0.21930749719E-01  0.12868466259E+00  0.19456471661E-01 0.  0.
         14    1    1    2    0    0 -0.24020121402E-02  0.12318493685E-01  0.20758908637E-01  0.24257931420E-01  0.00000000000E+00 0. -1.
     999901    1    3    3    0    0 -0.85474283851E-01 -0.10163807113E+00 -0.42689658356E-01  0.89098740599E+00  0.88000000000E+00 0. -1.
        -11    1    4    4    0    0  0.39082632061E-01  0.47922972892E-01  0.28359099587E-02  0.61906114124E-01  0.51100000000E-03 0.  1.
         11    1    4    4    0    0  0.48793663930E-01  0.41396604557E-01  0.19094839760E-01  0.66778548465E-01  0.51100000000E-03 0. -1.
</event>
<event>
 8    1  0.1071333E+005  0.1043930E+01  0.7957747E-01            NaN
         13   -1    0    0    0    0  0.00000000000E+00  0.00000000000E+00  0.74505805969E-08  0.10566000000E+00  0.10566000000E+00 0. -1.
     999900   -1    0    0    0    0 -0.00000000000E+00 -0.00000000000E+00 -0.74505805969E-08  0.93827000000E+00  0.93827000000E+00 0. -1.
     999902    2    1    2    0    0 -0.22792501263E-01 -0.73081302240E-02 -0.14123867546E-02  0.10199528918E+01  0.10196710253E+01 0.  0.
     999903    2    3    3    0    0 -0.99171300070E-01 -0.67711850280E-02  0.85190683237E-01  0.13240903320E+00  0.19847011290E-01 0.  0.
         14    1    1    2    0    0  0.22792501263E-01  0.73081302240E-02  0.14123867546E-02  0.23977108198E-01  0.00000000000E+00 0. -1.
     999901    1    3    3    0    0  0.76378798807E-01 -0.53694519600E-03 -0.86603069992E-01  0.88754385861E+00  0.88000000000E+00 0. -1.
        -11    1    4    4    0    0 -0.12823390493E-01  0.27532084185E-02  0.19452758247E-01  0.23466794088E-01  0.51100000000E-03 0. -1.
         11    1    4    4    0    0 -0.86347909577E-01 -0.95243934465E-02  0.65737924990E-01  0.10894223911E+00  0.51100000000E-03 0.  1.
</event>
<event>
 8    1  0.1071333E+005  0.1043930E+01  0.7957747E-01            NaN
         13   -1    0    0    0    0  0.00000000000E+00  0.00000000000E+00  0.74505805969E-08  0.10566000000E+00  0.10566000000E+00 0. -1.
     999900   -1    0    0    0    0 -0.00000000000E+00 -0.00000000000E+00 -0.74505805969E-08  0.93827000000E+00  0.93827000000E+00 0.  1.
     999902    2    1    2    0    0 -0.13302594495E-01 -0.19172461919E-01 -0.33872990150E-02  0.10203500061E+01  0.10200775063E+01 0.  0.
     999903    2    3    3    0    0  0.86627351996E-01 -0.69906352695E-01 -0.66266307704E-01  0.13101672124E+00  0.19569400780E-01 0.  0.
         14    1    1    2    0    0  0.13302594495E-01  0.19172461919E-01  0.33872990150E-02  0.23579993870E-01  0.00000000000E+00 0. -1.
     999901    1    3    3    0    0 -0.99929946490E-01  0.50733890777E-01  0.62879008689E-01  0.88933328489E+00  0.88000000000E+00 0.  1.
        -11    1    4    4    0    0  0.50914273996E-01 -0.40187747338E-01 -0.49592938647E-01  0.81651938233E-01  0.51100000000E-03 0.  1.
         11    1    4    4    0    0  0.35713077999E-01 -0.29718605358E-01 -0.16673369057E-01  0.49364783007E-01  0.51100000000E-03 0. -1.
</event>
<event>
 8    1  0.1071333E+005  0.1043930E+01  0.7957747E-01            NaN
         13   -1    0    0    0    0  0.00000000000E+00  0.00000000000E+00  0.74505805969E-08  0.10566000000E+00  0.10566000000E+00 0. -1.
     999900   -1    0    0    0    0 -0.00000000000E+00 -0.00000000000E+00 -0.74505805969E-08  0.93827000000E+00  0.93827000000E+00 0.  1.
     999902    2    1    2    0    0  0.16780900362E-02 -0.11757114108E-01 -0.24185329456E-01  0.10169860604E+01  0.10166290726E+01 0.  0.
     999903    2    3    3    0    0 -0.10280093176E+00 -0.12302131642E-01  0.68838617277E-01  0.12593633247E+00  0.20045712639E-01 0.  0.
         14    1    1    2    0    0 -0.16780900362E-02  0.11757114108E-01  0.24185329456E-01  0.26943939564E-01  0.00000000000E+00 0. -1.
     999901    1    3    3    0    0  0.10447902179E+00  0.54501753445E-03 -0.93023946733E-01  0.89104972796E+00  0.88000000000E+00 0.  1.
        -11    1    4    4    0    0 -0.69154434443E-01 -0.10812756602E-02  0.37902066180E-01  0.78869085845E-01  0.51100000000E-03 0. -1.
         11    1    4    4    0    0 -0.33646497312E-01 -0.11220855982E-01  0.30936551096E-01  0.47067246628E-01  0.51100000000E-03 0.  1.
</event>
<event>
 8    1  0.1071333E+005  0.1043930E+01  0.7957747E-01            NaN
         13   -1    0    0    0    0  0.00000000000E+00  0.00000000000E+00  0.74505805969E-08  0.10566000000E+00  0.10566000000E+00 0.  1.
     999900   -1    0    0    0    0 -0.00000000000E+00 -0.00000000000E+00 -0.74505805969E-08  0.93827000000E+00  0.93827000000E+00 0. -1.
     999902    2    1    2    0    0  0.47362462257E-03 -0.20795367050E-01  0.12474964744E-01  0.10196751787E+01  0.10193866654E+01 0.  0.
     999903    2    3    3    0    0  0.67927597853E-01  0.10552094110E+00 -0.11610704792E-01  0.12777497818E+00  0.21043027847E-01 0.  0.
         14    1    1    2    0    0 -0.47362462257E-03  0.20795367050E-01 -0.12474964744E-01  0.24254821302E-01  0.00000000000E+00 0. -1.
     999901    1    3    3    0    0 -0.67453973231E-01 -0.12631630815E+00  0.24085669537E-01  0.89190020052E+00  0.88000000000E+00 0. -1.
        -11    1    4    4    0    0  0.34718837032E-01  0.72587552629E-01 -0.66248163375E-02  0.80737226569E-01  0.51100000000E-03 0. -1.
         11    1    4    4    0    0  0.33208760822E-01  0.32933388475E-01 -0.49858884547E-02  0.47037751609E-01  0.51100000000E-03 0.  1.
</event>
<event>
 8    1  0.1071333E+005  0.1043930E+01  0.7957747E-01            NaN
         13   -1    0    0    0    0  0.00000000000E+00  0.00000000000E+00  0.74505805969E-08  0.10566000000E+00  0.10566000000E+00 0. -1.
     999900   -1    0    0    0    0 -0.00000000000E+00 -0.00000000000E+00 -0.74505805969E-08  0.93827000000E+00  0.93827000000E+00 0.  1.
     999902    2    1    2    0    0  0.19348540244E-01  0.44550630277E-02 -0.92209196773E-02  0.10220384730E+01  0.10218039936E+01 0.  0.
     999903    2    3    3    0    0 -0.12727738660E+00 -0.12631226713E-01 -0.65227219433E-02  0.12973898065E+00  0.20750329409E-01 0.  0.
         14    1    1    2    0    0 -0.19348540244E-01 -0.44550630277E-02  0.92209196773E-02  0.21891527033E-01  0.00000000000E+00 0. -1.
     999901    1    3    3    0    0  0.14662592684E+00  0.17086289741E-01 -0.26981977340E-02  0.89229949232E+00  0.88000000000E+00 0. -1.
        -11    1    4    4    0    0 -0.97893487906E-01 -0.39455414905E-02 -0.11662373332E-01  0.98665973592E-01  0.51100000000E-03 0.  1.
         11    1    4    4    0    0 -0.29383898692E-01 -0.86856852225E-02  0.51396513892E-02  0.31073007057E-01  0.51100000000E-03 0. -1.
</event>
<event>
 8    1  0.1071333E+005  0.1043930E+01  0.7957747E-01            NaN
         13   -1    0    0    0    0  0.00000000000E+00  0.00000000000E+00  0.74505805969E-08  0.10566000000E+00  0.10566000000E+00 0.  1.
     999900   -1    0    0    0    0 -0.00000000000E+00 -0.00000000000E+00 -0.74505805969E-08  0.93827000000E+00  0.93827000000E+00 0.  1.
     999902    2    1    2    0    0  0.19503155932E-01  0.15777679407E-02 -0.11955173755E-01  0.10209999188E+01  0.10207423992E+01 0.  0.
     999903    2    3    3    0    0  0.54237092485E-01 -0.51889800696E-01 -0.10845449662E+00  0.13343169804E+00  0.20184810817E-01 0.  0.
         14    1    1    2    0    0 -0.19503155932E-01 -0.15777679407E-02  0.11955173755E-01  0.22930081171E-01  0.00000000000E+00 0.  1.
     999901    1    3    3    0    0 -0.34733936553E-01  0.53467568637E-01  0.96499322861E-01  0.88756822079E+00  0.88000000000E+00 0. -1.
        -11    1    4    4    0    0  0.28323764984E-01 -0.40417885410E-01 -0.70586769609E-01  0.86131261971E-01  0.51100000000E-03 0. -1.
         11    1    4    4    0    0  0.25913327501E-01 -0.11471915287E-01 -0.37867727008E-01  0.47300436068E-01  0.51100000000E-03 0.  1.
</event>
<event>
 8    1  0.1071333E+005  0.1043930E+01  0.7957747E-01            NaN
         13   -1    0    0    0    0  0.00000000000E+00  0.00000000000E+00  0.74505805969E-08  0.10566000000E+00  0.10566000000E+00 0. -1.
     999900   -1    0    0    0    0 -0.00000000000E+00 -0.00000000000E+00 -0.74505805969E-08  0.93827000000E+00  0.93827000000E+00 0. -1.
     999902    2    1    2    0    0  0.42641928569E-02  0.12644230798E-01  0.17907436786E-01  0.10215975974E+01  0.10213534720E+01 0.  0.
     999903    2    3    3    0    0  0.81820479463E-01 -0.82518778453E-01 -0.55074993524E-01  0.13008348588E+00  0.19609149150E-01 0.  0.
         14    1    1    2    0    0 -0.42641928569E-02 -0.12644230798E-01 -0.17907436786E-01  0.22332402590E-01  0.00000000000E+00 0.  1.
     999901    1    3    3    0    0 -0.77556286606E-01  0.95163009251E-01  0.72982430310E-01  0.89151411153E+00  0.88000000000E+00 0.  1.
        -11    1    4    4    0    0  0.41720414057E-01 -0.48157326197E-01 -0.39725190940E-01  0.75087102300E-01  0.51100000000E-03 0. -1.
         11    1    4    4    0    0  0.40100065405E-01 -0.34361452256E-01 -0.15349802585E-01  0.54996383581E-01  0.51100000000E-03 0.  1.
</event>
<event>
 8    1  0.1071333E+005  0.1043930E+01  0.7957747E-01            NaN
         13   -1    0    0    0    0  0.00000000000E+00  0.00000000000E+00  0.74505805969E-08  0.10566000000E+00  0.10566000000E+00 0.  1.
     999900   -1    0    0    0    0 -0.00000000000E+00 -0.00000000000E+00 -0.74505805969E-08  0.93827000000E+00  0.93827000000E+00 0. -1.
     999902    2    1    2    0    0 -0.11496978509E-01  0.81879304922E-02  0.17126037378E-01  0.10217371210E+01  0.10214960698E+01 0.  0.
     999903    2    3    3    0    0 -0.19446997842E-01 -0.10854555310E+00 -0.65752697836E-01  0.13013250364E+00  0.21230365243E-01 0.  0.
         14    1    1    2    0    0  0.11496978509E-01 -0.81879304922E-02 -0.17126037378E-01  0.22192878967E-01  0.00000000000E+00 0. -1.
     999901    1    3    3    0    0  0.79500193339E-02  0.11673348360E+00  0.82878735214E-01  0.89160461739E+00  0.88000000000E+00 0.  1.
        -11    1    4    4    0    0 -0.15608633087E-01 -0.65722679938E-01 -0.51114109079E-01  0.84711353153E-01  0.51100000000E-03 0.  1.
         11    1    4    4    0    0 -0.38383647559E-02 -0.42822873165E-01 -0.14638588757E-01  0.45421150491E-01  0.51100000000E-03 0. -1.
</event>
<event>
 8    1  0.1071333E+005  0.1043930E+01  0.7957747E-01            NaN
         13   -1    0    0    0    0  0.00000000000E+00  0.00000000000E+00  0.74505805969E-08  0.10566000000E+00  0.10566000000E+00 0.  1.
     999900   -1    0    0    0    0 -0.00000000000E+00 -0.00000000000E+00 -0.74505805969E-08  0.93827000000E+00  0.93827000000E+00 0.  1.
     999902    2    1    2    0    0 -0.10475735146E-02 -0.15252729642E-01 -0.30815496253E-02  0.10283338748E+01  0.10282155995E+01 0.  0.
     999903    2    3    3    0    0  0.62000766307E-01 -0.11133687860E+00  0.52252665438E-01  0.13913809652E+00  0.19724941000E-01 0.  0.
         14    1    1    2    0    0  0.10475735146E-02  0.15252729642E-01  0.30815496253E-02  0.15596125156E-01  0.00000000000E+00 0. -1.
     999901    1    3    3    0    0 -0.63048339822E-01  0.96084148962E-01 -0.55334215063E-01  0.88919577833E+00  0.88000000000E+00 0. -1.
        -11    1    4    4    0    0  0.21213616472E-01 -0.52362178047E-01  0.30495331015E-01  0.64203127248E-01  0.51100000000E-03 0.  1.
         11    1    4    4    0    0  0.40787149835E-01 -0.58974700557E-01  0.21757334423E-01  0.74934969271E-01  0.51100000000E-03 0. -1.
</event>
<event>
 8    1  0.1243160E+005  0.1043930E+01  0.7957747E-01            NaN
         13   -1    0    0    0    0  0.00000000000E+00  0.00000000000E+00  0.74505805969E-08  0.10566000000E+00  0.10566000000E+00 0.  1.
     999900   -1    0    0    0    0 -0.00000000000E+00 -0.00000000000E+00 -0.74505805969E-08  0.93827000000E+00  0.93827000000E+00 0. -1.
     999902    2    1    2    0    0  0.17909495909E-01  0.14966526577E-01  0.22477232097E-02  0.10204822022E+01  0.10202127846E+01 0.  0.
     999903    2    3    3    0    0  0.52799552876E-01  0.89899997447E-01  0.80446360299E-01  0.13315623732E+00  0.19727248327E-01 0.  0.
         14    1    1    2    0    0 -0.17909495909E-01 -0.14966526577E-01 -0.22477232097E-02  0.23447797788E-01  0.00000000000E+00 0. -1.
     999901    1    3    3    0    0 -0.34890056967E-01 -0.74933470871E-01 -0.78198637089E-01  0.88732596489E+00  0.88000000000E+00 0. -1.
        -11    1    4    4    0    0  0.33874530128E-01  0.52439397804E-01  0.59516244036E-01  0.86254383416E-01  0.51100000000E-03 0.  1.
         11    1    4    4    0    0  0.18925022748E-01  0.37460599644E-01  0.20930116263E-01  0.46901853902E-01  0.51100000000E-03 0. -1.
</event>
<event>
 8    1  0.1071333E+005  0.1043930E+01  0.7957747E-01            NaN
         13   -1    0    0    0    0  0.00000000000E+00  0.00000000000E+00  0.74505805969E-08  0.10566000000E+00  0.10566000000E+00 0.  1.
     999900   -1    0    0    0    0 -0.00000000000E+00 -0.00000000000E+00 -0.74505805969E-08  0.93827000000E+00  0.93827000000E+00 0.  1.
     999902    2    1    2    0    0 -0.17160913641E-01  0.30544502700E-01 -0.76052568185E-03  0.10088865698E+01  0.10082777736E+01 0.  0.
     999903    2    3    3    0    0 -0.11994873916E+00 -0.76547645710E-02  0.61035488225E-02  0.12205420873E+00  0.20339152249E-01 0.  0.
         14    1    1    2    0    0  0.17160913641E-01 -0.30544502700E-01  0.76052568185E-03  0.35043430219E-01  0.00000000000E+00 0. -1.
     999901    1    3    3    0    0  0.10278782551E+00  0.38199267271E-01 -0.68640745043E-02  0.88683236105E+00  0.88000000000E+00 0.  1.
        -11    1    4    4    0    0 -0.76424470781E-01  0.46642257668E-02  0.14930533972E-02  0.76582929335E-01  0.51100000000E-03 0. -1.
         11    1    4    4    0    0 -0.43524268375E-01 -0.12318990338E-01  0.46104954252E-02  0.45471279392E-01  0.51100000000E-03 0.  1.
</event>
<event>
 8    1  0.1071333E+005  0.1043930E+01  0.7957747E-01            NaN
         13   -1    0    0    0    0  0.00000000000E+00  0.00000000000E+00  0.74505805969E-08  0.10566000000E+00  0.10566000000E+00 0.  1.
     999900   -1    0    0    0    0 -0.00000000000E+00 -0.00000000000E+00 -0.74505805969E-08  0.93827000000E+00  0.93827000000E+00 0. -1.
     999902    2    1    2    0    0 -0.22735160155E-01 -0.62963120649E-02 -0.60599071969E-03  0.10203313077E+01  0.10200583705E+01 0.  0.
     999903    2    3    3    0    0 -0.78317500335E-01 -0.51588671725E-02  0.10474907109E+00  0.13230519359E+00  0.19288638824E-01 0.  0.
         14    1    1    2    0    0  0.22735160155E-01  0.62963120649E-02  0.60599071969E-03  0.23598692287E-01  0.00000000000E+00 0.  1.
     999901    1    3    3    0    0  0.55582340179E-01 -0.11374448924E-02 -0.10535506181E+00  0.88802611413E+00  0.88000000000E+00 0.  1.
        -11    1    4    4    0    0 -0.66478766449E-01 -0.36659246516E-02  0.75234681143E-01  0.10046583379E+00  0.51100000000E-03 0. -1.
         11    1    4    4    0    0 -0.11838733886E-01 -0.14929425209E-02  0.29514389943E-01  0.31839359794E-01  0.51100000000E-03 0.  1.
</event>
<event>
 8    1  0.1071333E+005  0.1043930E+01  0.7957747E-01            NaN
         13   -1    0    0    0    0  0.00000000000E+00  0.00000000000E+00  0.74505805969E-08  0.10566000000E+00  0.10566000000E+00 0. -1.
     999900   -1    0    0    0    0 -0.00000000000E+00 -0.00000000000E+00 -0.74505805969E-08  0.93827000000E+00  0.93827000000E+00 0.  1.
     999902    2    1    2    0    0 -0.16898103862E-01  0.15483922894E-01  0.14379042758E-01  0.10168734915E+01  0.10165134741E+01 0.  0.
     999903    2    3    3    0    0  0.19061759706E-01  0.20674356413E-01 -0.12098872688E+00  0.12578175353E+00  0.19798934153E-01 0.  0.
         14    1    1    2    0    0  0.16898103862E-01 -0.15483922894E-01 -0.14379042758E-01  0.27056508514E-01  0.00000000000E+00 0. -1.
     999901    1    3    3    0    0 -0.35959863569E-01 -0.51904335189E-02  0.13536776964E+00  0.89109173795E+00  0.88000000000E+00 0. -1.
        -11    1    4    4    0    0  0.11437092155E-02  0.13445889677E-01 -0.32261674388E-01  0.34973944234E-01  0.51100000000E-03 0. -1.
         11    1    4    4    0    0  0.17918050491E-01  0.72284667361E-02 -0.88727052493E-01  0.90807809300E-01  0.51100000000E-03 0.  1.
</event>
<event>
 8    1  0.1071333E+005  0.1043930E+01  0.7957747E-01            NaN
         13   -1    0    0    0    0  0.00000000000E+00  0.00000000000E+00  0.74505805969E-08  0.10566000000E+00  0.10566000000E+00 0. -1.
     999900   -1    0    0    0    0 -0.00000000000E+00 -0.00000000000E+00 -0.74505805969E-08  0.93827000000E+00  0.93827000000E+00 0.  1.
     999902    2    1    2    0    0  0.15061128457E-01  0.56052711025E-02  0.16905925041E-01  0.10206047571E+01  0.10203381808E+01 0.  0.
     999903    2    3    3    0    0 -0.14768950394E-01  0.10552561116E+00  0.76102024320E-01  0.13247296163E+00  0.20094550317E-01 0.  0.
         14    1    1    2    0    0 -0.15061128457E-01 -0.56052711025E-02 -0.16905925041E-01  0.23325242894E-01  0.00000000000E+00 0.  1.
     999901    1    3    3    0    0  0.29830078851E-01 -0.99920340054E-01 -0.59196099278E-01  0.88813179547E+00  0.88000000000E+00 0.  1.
        -11    1    4    4    0    0  0.36134846394E-02  0.41206796722E-01  0.25522874032E-01  0.48607978637E-01  0.51100000000E-03 0.  1.
         11    1    4    4    0    0 -0.18382435033E-01  0.64318814435E-01  0.50579150288E-01  0.83864982996E-01  0.51100000000E-03 0. -1.
</event>
<event>
 8    1  0.1071333E+005  0.1043930E+01  0.7957747E-01            NaN
         13   -1    0    0    0    0  0.00000000000E+00  0.00000000000E+00  0.74505805969E-08  0.10566000000E+00  0.10566000000E+00 0.  1.
     999900   -1    0    0    0    0 -0.00000000000E+00 -0.00000000000E+00 -0.74505805969E-08  0.93827000000E+00  0.93827000000E+00 0. -1.
     999902    2    1    2    0    0 -0.57505363857E-02  0.43640966689E-02  0.27071722783E-01  0.10159122880E+01  0.10155258662E+01 0.  0.
     999903    2    3    3    0    0  0.11349080394E+00  0.43585170187E-01 -0.23442954783E-01  0.12557048711E+00  0.20941477125E-01 0.  0.
         14    1    1    2    0    0  0.57505363857E-02 -0.43640966689E-02 -0.27071722783E-01  0.28017711950E-01  0.00000000000E+00 0. -1.
     999901    1    3    3    0    0 -0.11924134033E+00 -0.39221073518E-01  0.50514677567E-01  0.89034180094E+00  0.88000000000E+00 0.  1.
        -11    1    4    4    0    0  0.67833546156E-01  0.18144378980E-01 -0.60368197523E-02  0.70479165619E-01  0.51100000000E-03 0.  1.
         11    1    4    4    0    0  0.45657257787E-01  0.25440791206E-01 -0.17406135031E-01  0.55091321491E-01  0.51100000000E-03 0. -1.
</event>
<event>
 8    1  0.1071333E+005  0.1043930E+01  0.7957747E-01            NaN
         13   -1    0    0    0    0  0.00000000000E+00  0.00000000000E+00  0.74505805969E-08  0.10566000000E+00  0.10566000000E+00 0. -1.
     999900   -1    0    0    0    0 -0.00000000000E+00 -0.00000000000E+00 -0.74505805969E-08  0.93827000000E+00  0.93827000000E+00 0.  1.
     999902    2    1    2    0    0  0.11829190582E-01 -0.19024131492E-01  0.63527297293E-02  0.10206447149E+01  0.10203790617E+01 0.  0.
     999903    2    3    3    0    0  0.45473625660E-01  0.10023507495E+00  0.67525436590E-01  0.12986033781E+00  0.13751431573E-01 0.  0.
         14    1    1    2    0    0 -0.11829190582E-01  0.19024131492E-01 -0.63527297293E-02  0.23285285136E-01  0.00000000000E+00 0.  1.
     999901    1    3    3    0    0 -0.33644435078E-01 -0.11925920644E+00 -0.61172706861E-01  0.89078437705E+00  0.88000000000E+00 0. -1.
        -11    1    4    4    0    0  0.11829317791E-01  0.42250640978E-01  0.27309196015E-01  0.51682712104E-01  0.51100000000E-03 0. -1.
         11    1    4    4    0    0  0.33644307869E-01  0.57984433968E-01  0.40216240575E-01  0.78177625709E-01  0.51100000000E-03 0.  1.
</event>
<event>
 8    1  0.1071333E+005  0.1043930E+01  0.7957747E-01            NaN
         13   -1    0    0    0    0  0.00000000000E+00  0.00000000000E+00  0.74505805969E-08  0.10566000000E+00  0.10566000000E+00 0.  1.
     999900   -1    0    0    0    0 -0.00000000000E+00 -0.00000000000E+00 -0.74505805969E-08  0.93827000000E+00  0.93827000000E+00 0. -1.
     999902    2    1    2    0    0 -0.38659326808E-02  0.22746565819E-01  0.15365485245E-02  0.10208061449E+01  0.10205442043E+01 0.  0.
     999903    2    3    3    0    0  0.88501484261E-01  0.93645450586E-01 -0.24972742903E-01  0.13274019349E+00  0.19857944186E-01 0.  0.
         14    1    1    2    0    0  0.38659326808E-02 -0.22746565819E-01 -0.15365485245E-02  0.23123855072E-01  0.00000000000E+00 0.  1.
     999901    1    3    3    0    0 -0.92367416942E-01 -0.70898884767E-01  0.26509291427E-01  0.88806595144E+00  0.88000000000E+00 0.  1.
        -11    1    4    4    0    0  0.46273745811E-01  0.49685298018E-01 -0.23212393265E-01  0.71756286920E-01  0.51100000000E-03 0. -1.
         11    1    4    4    0    0  0.42227738450E-01  0.43960152568E-01 -0.17603496381E-02  0.60983906568E-01  0.51100000000E-03 0.  1.
</event>
<event>
 8    1  0.1071333E+005  0.1043930E+01  0.7957747E-01            NaN
         13   -1    0    0    0    0  0.00000000000E+00  0.00000000000E+00  0.74505805969E-08  0.10566000000E+00  0.10566000000E+00 0. -1.
     999900   -1    0    0    0    0 -0.00000000000E+00 -0.00000000000E+00 -0.74505805969E-08  0.93827000000E+00  0.93827000000E+00 0.  1.
     999902    2    1    2    0    0 -0.61358217156E-02 -0.15376747450E-01  0.17226272497E-01  0.10200378018E+01  0.10197579517E+01 0.  0.
     999903    2    3    3    0    0  0.75103369517E-01 -0.21207211109E-01 -0.99974128454E-01  0.12853921264E+00  0.20910306344E-01 0.  0.
         14    1    1    2    0    0  0.61358217156E-02  0.15376747450E-01 -0.17226272497E-01  0.23892198191E-01  0.00000000000E+00 0.  1.
     999901    1    3    3    0    0 -0.81239191233E-01  0.58304636594E-02  0.11720040095E+00  0.89149858916E+00  0.88000000000E+00 0. -1.
        -11    1    4    4    0    0  0.34968730039E-01 -0.20625043749E-01 -0.48020526389E-01  0.62884311127E-01  0.51100000000E-03 0. -1.
         11    1    4    4    0    0  0.40134639478E-01 -0.58216736067E-03 -0.51953602065E-01  0.65654901518E-01  0.51100000000E-03 0.  1.
</event>
<event>
 8    1  0.1071333E+005  0.1043930E+01  0.7957747E-01            NaN
         13   -1    0    0    0    0  0.00000000000E+00  0.00000000000E+00  0.74505805969E-08  0.10566000000E+00  0.10566000000E+00 0.  1.
     999900   -1    0    0    0    0 -0.00000000000E+00 -0.00000000000E+00 -0.74505805969E-08  0.93827000000E+00  0.93827000000E+00 0.  1.
     999902    2    1    2    0    0  0.22563882651E-01 -0.52912723314E-02 -0.47295195052E-02  0.10202763593E+01  0.10200021346E+01 0.  0.
     999903    2    3    3    0    0  0.26669950120E-01  0.47382754529E-02  0.12624077099E+00  0.13051758941E+00  0.19088514673E-01 0.  0.
         14    1    1    2    0    0 -0.22563882651E-01  0.52912723314E-02  0.47295195052E-02  0.23653640690E-01  0.00000000000E+00 0.  1.
     999901    1    3    3    0    0 -0.41060674691E-02 -0.10029547784E-01 -0.13097029049E+00  0.88975876990E+00  0.88000000000E+00 0.  1.
        -11    1    4    4    0    0  0.49772313070E-02 -0.25980249688E-02  0.63085385671E-01  0.63336794768E-01  0.51100000000E-03 0. -1.
         11    1    4    4    0    0  0.21692718813E-01  0.73363004217E-02  0.63155385317E-01  0.67180794643E-01  0.51100000000E-03 0.  1.
</event>
<event>
 8    1  0.1071333E+005  0.1043930E+01  0.7957747E-01            NaN
         13   -1    0    0    0    0  0.00000000000E+00  0.00000000000E+00  0.74505805969E-08  0.10566000000E+00  0.10566000000E+00 0.  1.
     999900   -1    0    0    0    0 -0.00000000000E+00 -0.00000000000E+00 -0.74505805969E-08  0.93827000000E+00  0.93827000000E+00 0. -1.
     999902    2    1    2    0    0  0.57321863382E-02 -0.21474337612E-01 -0.76832346515E-02  0.10204132564E+01  0.10201422335E+01 0.  0.
     999903    2    3    3    0    0 -0.21381072206E-01 -0.80887292207E-01  0.99645779803E-01  0.13149000586E+00  0.18985149954E-01 0.  0.
         14    1    1    2    0    0 -0.57321863382E-02  0.21474337612E-01  0.76832346515E-02  0.23516743626E-01  0.00000000000E+00 0.  1.
     999901    1    3    3    0    0  0.27113258544E-01  0.59412954596E-01 -0.10732901445E+00  0.88892325052E+00  0.88000000000E+00 0. -1.
        -11    1    4    4    0    0 -0.19451558239E-02 -0.22638359999E-01  0.39270650537E-01  0.45373164858E-01  0.51100000000E-03 0. -1.
         11    1    4    4    0    0 -0.19435916382E-01 -0.58248932208E-01  0.60375129267E-01  0.86116841001E-01  0.51100000000E-03 0.  1.
</event>
<event>
 8    1  0.1071333E+005  0.1043930E+01  0.7957747E-01            NaN
         13   -1    0    0    0    0  0.00000000000E+00  0.00000000000E+00  0.74505805969E-08  0.10566000000E+00  0.10566000000E+00 0. -1.
     999900   -1    0    0    0    0 -0.00000000000E+00 -0.00000000000E+00 -0.74505805969E-08  0.93827000000E+00  0.93827000000E+00 0. -1.
     999902    2    1    2    0    0 -0.18888551510E-01  0.10768345075E-01  0.14821598712E-01  0.10176162313E+01  0.10172759605E+01 0.  0.
     999903    2    3    3    0    0  0.11289990956E+00  0.52348486168E-01  0.15100189906E-01  0.12683164220E+00  0.19274235277E-01 0.  0.
         14    1    1    2    0    0  0.18888551510E-01 -0.10768345075E-01 -0.14821598712E-01  0.26313768681E-01  0.00000000000E+00 0.  1.
     999901    1    3    3    0    0 -0.13178846107E+00 -0.41580141093E-01 -0.27859119364E-03  0.89078458912E+00  0.88000000000E+00 0.  1.
        -11    1    4    4    0    0  0.81453314370E-01  0.33150731653E-01  0.18367373552E-01  0.89840052110E-01  0.51100000000E-03 0.  1.
         11    1    4    4    0    0  0.31446595185E-01  0.19197754515E-01 -0.32671836456E-02  0.36991590087E-01  0.51100000000E-03 0. -1.
</event>
<event>
 8    1  0.1071333E+005  0.1043930E+01  0.7957747E-01            NaN
         13   -1    0    0    0    0  0.00000000000E+00  0.00000000000E+00  0.74505805969E-08  0.10566000000E+00  0.10566000000E+00 0.  1.
     999900   -1    0    0    0    0 -0.00000000000E+00 -0.00000000000E+00 -0.74505805969E-08  0.93827000000E+00  0.93827000000E+00 0. -1.
     999902    2    1    2    0    0 -0.14760007187E-01 -0.18551814553E-01 -0.47051952886E-02  0.10197604634E+01  0.10194739998E+01 0.  0.
     999903    2    3    3    0    0 -0.65365215423E-01  0.19319955145E-01  0.10906990068E+00  0.13018757125E+00  0.20166517279E-01 0.  0.
         14    1    1    2    0    0  0.14760007187E-01  0.18551814553E-01  0.47051952886E-02  0.24169536571E-01  0.00000000000E+00 0. -1.
     999901    1    3    3    0    0  0.50605208236E-01 -0.37871769698E-01 -0.11377509597E+00  0.88957289218E+00  0.88000000000E+00 0.  1.
        -11    1    4    4    0    0 -0.38789235920E-01  0.11552477342E-01  0.82082759773E-01  0.91519971202E-01  0.51100000000E-03 0. -1.
         11    1    4    4    0    0 -0.26575979503E-01  0.77674778034E-02  0.26987140906E-01  0.38667600045E-01  0.51100000000E-03 0.  1.
</event>
<event>
 8    1  0.1071333E+005  0.1043930E+01  0.7957747E-01            NaN
         13   -1    0    0    0    0  0.00000000000E+00  0.00000000000E+00  0.74505805969E-08  0.10566000000E+00  0.10566000000E+00 0.  1.
     999900   -1    0    0    0    0 -0.00000000000E+00 -0.00000000000E+00 -0.74505805969E-08  0.93827000000E+00  0.93827000000E+00 0. -1.
     999902    2    1    2    0    0 -0.23557163489E-01  0.84850600806E-03  0.27103286517E-02  0.10202022568E+01  0.10199262910E+01 0.  0.
     999903    2    3    3    0    0  0.12082122663E+00  0.33687896339E-01 -0.18612692429E-01  0.12757791462E+00  0.14037407771E-01 0.  0.
         14    1    1    2    0    0  0.23557163489E-01 -0.84850600806E-03 -0.27103286517E-02  0.23727743160E-01  0.00000000000E+00 0.  1.
     999901    1    3    3    0    0 -0.14437839011E+00 -0.32839390331E-01  0.21323021081E-01  0.89262434222E+00  0.88000000000E+00 0. -1.
        -11    1    4    4    0    0  0.10494775893E+00  0.31105853842E-01 -0.11768430036E-01  0.11009252161E+00  0.51100000000E-03 0. -1.
         11    1    4    4    0    0  0.15873467695E-01  0.25820424969E-02 -0.68442623932E-02  0.17485393013E-01  0.51100000000E-03 0.  1.
</event>
<event>
 8    1  0.1071333E+005  0.1043930E+01  0.7957747E-01            NaN
         13   -1    0    0    0    0  0.00000000000E+00  0.00000000000E+00  0.74505805969E-08  0.10566000000E+00  0.10566000000E+00 0.  1.
     999900   -1    0    0    0    0 -0.00000000000E+00 -0.00000000000E+00 -0.74505805969E-08  0.93827000000E+00  0.93827000000E+00 0.  1.
     999902    2    1    2    0    0  0.18160641649E-02 -0.46166239700E-02 -0.23452036001E-01  0.10199589905E+01  0.10196772690E+01 0.  0.
     999903    2    3    3    0    0  0.12858533363E+00  0.33777105254E-02 -0.13114207004E-01  0.13077890309E+00  0.19635226351E-01 0.  0.
         14    1    1    2    0    0 -0.18160641649E-02  0.46166239700E-02  0.23452036001E-01  0.23971009543E-01  0.00000000000E+00 0.  1.
     999901    1    3    3    0    0 -0.12676926947E+00 -0.79943344954E-02 -0.10337828997E-01  0.88918008737E+00  0.88000000000E+00 0.  1.
        -11    1    4    4    0    0  0.83675486455E-01  0.75608836176E-02 -0.80265941977E-03  0.84021779187E-01  0.51100000000E-03 0.  1.
         11    1    4    4    0    0  0.44909847177E-01 -0.41831730921E-02 -0.12311547585E-01  0.46757123901E-01  0.51100000000E-03 0. -1.
</event>
<event>
 8    1  0.1071333E+005  0.1043930E+01  0.7957747E-01            NaN
         13   -1    0    0    0    0  0.00000000000E+00  0.00000000000E+00  0.74505805969E-08  0.10566000000E+00  0.10566000000E+00 0. -1.
     999900   -1    0    0    0    0 -0.00000000000E+00 -0.00000000000E+00 -0.74505805969E-08  0.93827000000E+00  0.93827000000E+00 0. -1.
     999902    2    1    2    0    0  0.15493463047E-01  0.13964806357E-01 -0.10506123252E-01  0.10205753037E+01  0.10203080460E+01 0.  0.
     999903    2    3    3    0    0 -0.12447861828E+00  0.70584092676E-02  0.25286090759E-01  0.12876760892E+00  0.19923934666E-01 0.  0.
         14    1    1    2    0    0 -0.15493463047E-01 -0.13964806357E-01  0.10506123252E-01  0.23354696306E-01  0.00000000000E+00 0. -1.
     999901    1    3    3    0    0  0.13997208132E+00  0.69063970892E-02 -0.35792214011E-01  0.89180769477E+00  0.88000000000E+00 0.  1.
        -11    1    4    4    0    0 -0.52969631306E-01  0.12144757454E-02  0.20653473851E-01  0.56869006454E-01  0.51100000000E-03 0.  1.
         11    1    4    4    0    0 -0.71508986969E-01  0.58439335221E-02  0.46326169080E-02  0.71898602468E-01  0.51100000000E-03 0. -1.
</event>
<event>
 8    1  0.1071333E+005  0.1043930E+01  0.7957747E-01            NaN
         13   -1    0    0    0    0  0.00000000000E+00  0.00000000000E+00  0.74505805969E-08  0.10566000000E+00  0.10566000000E+00 0.  1.
     999900   -1    0    0    0    0 -0.00000000000E+00 -0.00000000000E+00 -0.74505805969E-08  0.93827000000E+00  0.93827000000E+00 0. -1.
     999902    2    1    2    0    0  0.92578882963E-02  0.18317736266E-01 -0.15434921483E-01  0.10182495647E+01  0.10179256806E+01 0.  0.
     999903    2    3    3    0    0  0.34164493236E-01  0.23198644644E-01  0.11921236719E+00  0.12764636763E+00  0.19406621683E-01 0.  0.
         14    1    1    2    0    0 -0.92578882963E-02 -0.18317736266E-01  0.15434921483E-01  0.25680435331E-01  0.00000000000E+00 0. -1.
     999901    1    3    3    0    0 -0.24906604939E-01 -0.48809083779E-02 -0.13464728867E+00  0.89060319704E+00  0.88000000000E+00 0.  1.
        -11    1    4    4    0    0  0.31134854300E-01  0.20494445569E-01  0.80434536453E-01  0.88653128692E-01  0.51100000000E-03 0. -1.
         11    1    4    4    0    0  0.30296389357E-02  0.27041990746E-02  0.38777830739E-01  0.38993238934E-01  0.51100000000E-03 0.  1.
</event>
<event>
 8    1  0.1071333E+005  0.1043930E+01  0.7957747E-01            NaN
         13   -1    0    0    0    0  0.00000000000E+00  0.00000000000E+00  0.74505805969E-08  0.10566000000E+00  0.10566000000E+00 0. -1.
     999900   -1    0    0    0    0 -0.00000000000E+00 -0.00000000000E+00 -0.74505805969E-08  0.93827000000E+00  0.93827000000E+00 0. -1.
     999902    2    1    2    0    0 -0.11559966524E-01  0.18242161375E-01 -0.93754893489E-02  0.10203862306E+01  0.10201145771E+01 0.  0.
     999903    2    3    3    0    0 -0.97545954595E-01 -0.75103513959E-02  0.85058039468E-01  0.13079392317E+00  0.17336713156E-01 0.  0.
         14    1    1    2    0    0  0.11559966524E-01 -0.18242161375E-01  0.93754893489E-02  0.23543769413E-01  0.00000000000E+00 0. -1.
     999901    1    3    3    0    0  0.85985988071E-01  0.25752512771E-01 -0.94433528817E-01  0.88959230742E+00  0.88000000000E+00 0. -1.
        -11    1    4    4    0    0 -0.11207195158E-01 -0.42703374105E-02  0.16981721231E-01  0.20796080926E-01  0.51100000000E-03 0.  1.
         11    1    4    4    0    0 -0.86338759437E-01 -0.32400139854E-02  0.68076318237E-01  0.10999784224E+00  0.51100000000E-03 0. -1.
</event>
<event>
 8    1  0.1071333E+005  0.1043930E+01  0.7957747E-01            NaN
         13   -1    0    0    0    0  0.00000000000E+00  0.00000000000E+00  0.74505805969E-08  0.10566000000E+00  0.10566000000E+00 0. -1.
     999900   -1    0    0    0    0 -0.00000000000E+00 -0.00000000000E+00 -0.74505805969E-08  0.93827000000E+00  0.93827000000E+00 0. -1.
     999902    2    1    2    0    0 -0.15270696439E-01 -0.19017701545E-01 -0.47526289928E-02  0.10190813657E+01  0.10187783740E+01 0.  0.
     999903    2    3    3    0    0 -0.12421807285E+00  0.19628207854E-01  0.29849179785E-01  0.13084698097E+00  0.20360813509E-01 0.  0.
         14    1    1    2    0    0  0.15270696439E-01  0.19017701545E-01  0.47526289928E-02  0.24848634251E-01  0.00000000000E+00 0. -1.
     999901    1    3    3    0    0  0.10894737642E+00 -0.38645909399E-01 -0.34601808778E-01  0.88823438478E+00  0.88000000000E+00 0.  1.
        -11    1    4    4    0    0 -0.18223321505E-01  0.27875316048E-02  0.12116357711E-01  0.22066423007E-01  0.51100000000E-03 0. -1.
         11    1    4    4    0    0 -0.10599475135E+00  0.16840676249E-01  0.17732822074E-01  0.10878055796E+00  0.51100000000E-03 0.  1.
</event>
<event>
 8    1  0.1071333E+005  0.1043930E+01  0.7957747E-01            NaN
         13   -1    0    0    0    0  0.00000000000E+00  0.00000000000E+00  0.74505805969E-08  0.10566000000E+00  0.10566000000E+00 0. -1.
     999900   -1    0    0    0    0 -0.00000000000E+00 -0.00000000000E+00 -0.74505805969E-08  0.93827000000E+00  0.93827000000E+00 0. -1.
     999902    2    1    2    0    0  0.91964150836E-02 -0.15564086661E-01  0.14874453161E-01  0.10205192290E+01  0.10202506714E+01 0.  0.
     999903    2    3    3    0    0  0.12774450281E+00  0.17097839332E-01 -0.16161215993E-01  0.13142774701E+00  0.20026823819E-01 0.  0.
         14    1    1    2    0    0 -0.91964150836E-02  0.15564086661E-01 -0.14874453161E-01  0.23410771043E-01  0.00000000000E+00 0.  1.
     999901    1    3    3    0    0 -0.11854808773E+00 -0.32661925992E-01  0.31035669154E-01  0.88909148195E+00  0.88000000000E+00 0.  1.
        -11    1    4    4    0    0  0.22708091176E-01 -0.44407925184E-02 -0.44379320452E-02  0.23565534259E-01  0.51100000000E-03 0.  1.
         11    1    4    4    0    0  0.10503641164E+00  0.21538631850E-01 -0.11723283947E-01  0.10786221275E+00  0.51100000000E-03 0. -1.
</event>
<event>
 8    1  0.1071333E+005  0.1043930E+01  0.7957747E-01            NaN
         13   -1    0    0    0    0  0.00000000000E+00  0.00000000000E+00  0.74505805969E-08  0.10566000000E+00  0.10566000000E+00 0. -1.
     999900   -1    0    0    0    0 -0.00000000000E+00 -0.00000000000E+00 -0.74505805969E-08  0.93827000000E+00  0.93827000000E+00 0.  1.
     999902    2    1    2    0    0 -0.64661625235E-02 -0.20499581572E-02  0.23565626568E-01  0.10194075135E+01  0.10191125190E+01 0.  0.
     999903    2    3    3    0    0 -0.12447799960E+00  0.19960404985E-01  0.29953033814E-01  0.13123407961E+00  0.20784832618E-01 0.  0.
         14    1    1    2    0    0  0.64661625235E-02  0.20499581572E-02 -0.23565626568E-01  0.24522486452E-01  0.00000000000E+00 0.  1.
     999901    1    3    3    0    0  0.11801183707E+00 -0.22010363142E-01 -0.63874072459E-02  0.88817343393E+00  0.88000000000E+00 0. -1.
        -11    1    4    4    0    0 -0.22719912842E-01  0.11668506903E-01  0.36686408416E-02  0.25808303694E-01  0.51100000000E-03 0. -1.
         11    1    4    4    0    0 -0.10175808675E+00  0.82918980818E-02  0.26284392973E-01  0.10542577592E+00  0.51100000000E-03 0.  1.
</event>
<event>
 7    1  0.1071333E+005  0.1043930E+01  0.7957747E-01            NaN
         13   -1    0    0    0    0  0.00000000000E+00  0.00000000000E+00  0.74505805969E-08  0.10566000000E+00  0.10566000000E+00 0.  1.
     999900   -1    0    0    0    0 -0.00000000000E+00 -0.00000000000E+00 -0.74505805969E-08  0.93827000000E+00  0.93827000000E+00 0.  1.
     999903    2    1    2    0    0 -0.69030978760E-01  0.34591697822E-01  0.43253192493E-01  0.90452948851E-01  0.18682497376E-01 0.  0.
         14    1    1    2    0    0  0.39949373125E-01 -0.38783147570E-01  0.40737076873E-01  0.68989813601E-01  0.00000000000E+00 0.  1.
     999901    1    1    2    0    0  0.29081605634E-01  0.41914497477E-02 -0.83990269366E-01  0.88448723755E+00  0.88000000000E+00 0.  1.
        -11    1    3    3    0    0 -0.36090162262E-01  0.77029810700E-02  0.20803173328E-01  0.42365892779E-01  0.51100000000E-03 0.  1.
         11    1    3    3    0    0 -0.32940816498E-01  0.26888716752E-01  0.22450019166E-01  0.48087056072E-01  0.51100000000E-03 0. -1.
</event>
<event>
 8    1  0.1071333E+005  0.1043930E+01  0.7957747E-01            NaN
         13   -1    0    0    0    0  0.00000000000E+00  0.00000000000E+00  0.74505805969E-08  0.10566000000E+00  0.10566000000E+00 0.  1.
     999900   -1    0    0    0    0 -0.00000000000E+00 -0.00000000000E+00 -0.74505805969E-08  0.93827000000E+00  0.93827000000E+00 0.  1.
     999902    2    1    2    0    0 -0.11755565008E-01  0.10791955960E-01  0.30252681777E-01  0.10097264274E+01  0.10091469536E+01 0.  0.
     999903    2    3    3    0    0 -0.59993609738E-01 -0.93098521628E-01  0.47460598398E-01  0.12213628965E+00  0.19954871819E-01 0.  0.
         14    1    1    2    0    0  0.11755565008E-01 -0.10791955960E-01 -0.30252681777E-01  0.34203572573E-01  0.00000000000E+00 0. -1.
     999901    1    3    3    0    0  0.48238044730E-01  0.10389047759E+00 -0.17207916621E-01  0.88759013778E+00  0.88000000000E+00 0. -1.
        -11    1    4    4    0    0 -0.16854900001E-01 -0.25050450417E-01  0.36301670685E-02  0.30414666759E-01  0.51100000000E-03 0. -1.
         11    1    4    4    0    0 -0.43138709737E-01 -0.68048071211E-01  0.43830431329E-01  0.91721622886E-01  0.51100000000E-03 0.  1.
</event>
<event>
 8    1  0.1071333E+005  0.1043930E+01  0.7957747E-01            NaN
         13   -1    0    0    0    0  0.00000000000E+00  0.00000000000E+00  0.74505805969E-08  0.10566000000E+00  0.10566000000E+00 0.  1.
     999900   -1    0    0    0    0 -0.00000000000E+00 -0.00000000000E+00 -0.74505805969E-08  0.93827000000E+00  0.93827000000E+00 0.  1.
     999902    2    1    2    0    0 -0.13280220382E-01  0.18660695656E-01  0.49062571577E-02  0.10205065678E+01  0.10202377163E+01 0.  0.
     999903    2    3    3    0    0  0.33119177748E-02 -0.75926651892E-01 -0.10192211066E+00  0.12885957179E+00  0.20996364743E-01 0.  0.
         14    1    1    2    0    0  0.13280220382E-01 -0.18660695656E-01 -0.49062571577E-02  0.23423432180E-01  0.00000000000E+00 0. -1.
     999901    1    3    3    0    0 -0.16592138157E-01  0.94587347548E-01  0.10682836782E+00  0.89164699603E+00  0.88000000000E+00 0.  1.
        -11    1    4    4    0    0 -0.17245693818E-03 -0.46452560583E-01 -0.45076264655E-01  0.64730216147E-01  0.51100000000E-03 0. -1.
         11    1    4    4    0    0  0.34843747130E-02 -0.29474091309E-01 -0.56845846006E-01  0.64129355640E-01  0.51100000000E-03 0.  1.
</event>
<event>
 8    1  0.1071333E+005  0.1043930E+01  0.7957747E-01            NaN
         13   -1    0    0    0    0  0.00000000000E+00  0.00000000000E+00  0.74505805969E-08  0.10566000000E+00  0.10566000000E+00 0.  1.
     999900   -1    0    0    0    0 -0.00000000000E+00 -0.00000000000E+00 -0.74505805969E-08  0.93827000000E+00  0.93827000000E+00 0.  1.
     999902    2    1    2    0    0  0.18062224273E-02 -0.15382824527E-01  0.17680515157E-01  0.10204248017E+01  0.10201540480E+01 0.  0.
     999903    2    3    3    0    0 -0.30539570888E-02  0.75018318288E-01  0.10599787330E+00  0.13138265215E+00  0.19717439191E-01 0.  0.
         14    1    1    2    0    0 -0.18062224273E-02  0.15382824527E-01 -0.17680515157E-01  0.23505198278E-01  0.00000000000E+00 0. -1.
     999901    1    3    3    0    0  0.48601795161E-02 -0.90401142815E-01 -0.88317358147E-01  0.88904214957E+00  0.88000000000E+00 0.  1.
        -11    1    4    4    0    0  0.43951225543E-02  0.17390846688E-01  0.37389272064E-01  0.41472610687E-01  0.51100000000E-03 0.  1.
         11    1    4    4    0    0 -0.74490796432E-02  0.57627471600E-01  0.68608601240E-01  0.89910041461E-01  0.51100000000E-03 0. -1.
</event>
<event>
 8    1  0.1071333E+005  0.1043930E+01  0.7957747E-01            NaN
         13   -1    0    0    0    0  0.00000000000E+00  0.00000000000E+00  0.74505805969E-08  0.10566000000E+00  0.10566000000E+00 0.  1.
     999900   -1    0    0    0    0 -0.00000000000E+00 -0.00000000000E+00 -0.74505805969E-08  0.93827000000E+00  0.93827000000E+00 0.  1.
     999902    2    1    2    0    0  0.41393134007E-02 -0.15478574529E-01  0.93700681167E-02  0.10253687942E+01  0.10252007831E+01 0.  0.
     999903    2    3    3    0    0  0.12095716385E+00 -0.10700236581E-01  0.58227111704E-01  0.13629272691E+00  0.20980474742E-01 0.  0.
         14    1    1    2    0    0 -0.41393134007E-02  0.15478574529E-01 -0.93700681167E-02  0.18561205817E-01  0.00000000000E+00 0. -1.
     999901    1    3    3    0    0 -0.11681785045E+00 -0.47783379477E-02 -0.48857043587E-01  0.88907606728E+00  0.88000000000E+00 0.  1.
        -11    1    4    4    0    0  0.34970452471E-01 -0.24848989837E-02  0.27676941488E-01  0.44669693082E-01  0.51100000000E-03 0. -1.
         11    1    4    4    0    0  0.85986711380E-01 -0.82153375972E-02  0.30550170216E-01  0.91623033823E-01  0.51100000000E-03 0.  1.
</event>
<event>
 8    1  0.1071333E+005  0.1043930E+01  0.7957747E-01            NaN
         13   -1    0    0    0    0  0.00000000000E+00  0.00000000000E+00  0.74505805969E-08  0.10566000000E+00  0.10566000000E+00 0. -1.
     999900   -1    0    0    0    0 -0.00000000000E+00 -0.00000000000E+00 -0.74505805969E-08  0.93827000000E+00  0.93827000000E+00 0.  1.
     999902    2    1    2    0    0  0.55090479427E-02  0.11053481141E-01 -0.19973672515E-01  0.10204464601E+01  0.10201762109E+01 0.  0.
     999903    2    3    3    0    0  0.11628153432E+00  0.44581585435E-01  0.35757909219E-01  0.13112048679E+00  0.20125630477E-01 0.  0.
         14    1    1    2    0    0 -0.55090479427E-02 -0.11053481141E-01  0.19973672515E-01  0.23483539944E-01  0.00000000000E+00 0. -1.
     999901    1    3    3    0    0 -0.11077248638E+00 -0.33528104294E-01 -0.55731581734E-01  0.88932597326E+00  0.88000000000E+00 0.  1.
        -11    1    4    4    0    0  0.63731768475E-01  0.13794111888E-01  0.16956608997E-01  0.67378064275E-01  0.51100000000E-03 0. -1.
         11    1    4    4    0    0  0.52549765842E-01  0.30787473547E-01  0.18801300222E-01  0.63742422519E-01  0.51100000000E-03 0.  1.
</event>
<event>
 8    1  0.1071333E+005  0.1043930E+01  0.7957747E-01            NaN
         13   -1    0    0    0    0  0.00000000000E+00  0.00000000000E+00  0.74505805969E-08  0.10566000000E+00  0.10566000000E+00 0. -1.
     999900   -1    0    0    0    0 -0.00000000000E+00 -0.00000000000E+00 -0.74505805969E-08  0.93827000000E+00  0.93827000000E+00 0. -1.
     999902    2    1    2    0    0 -0.15025564058E-01 -0.16208352909E-01  0.39106562950E-02  0.10214851451E+01  0.10212385275E+01 0.  0.
     999903    2    3    3    0    0  0.98044689970E-01  0.80502163572E-01  0.14067779459E-01  0.12893768221E+00  0.18266469374E-01 0.  0.
         14    1    1    2    0    0  0.15025564058E-01  0.16208352909E-01 -0.39106562950E-02  0.22444854910E-01  0.00000000000E+00 0.  1.
     999901    1    3    3    0    0 -0.11307025403E+00 -0.96710516481E-01 -0.10157123164E-01  0.89254746288E+00  0.88000000000E+00 0.  1.
        -11    1    4    4    0    0  0.22780951950E-01  0.28346528717E-01  0.74788162631E-02  0.37130732228E-01  0.51100000000E-03 0.  1.
         11    1    4    4    0    0  0.75263738020E-01  0.52155634855E-01  0.65889631956E-02  0.91806949981E-01  0.51100000000E-03 0. -1.
</event>
<event>
 8    1  0.1071333E+005  0.1043930E+01  0.7957747E-01            NaN
         13   -1    0    0    0    0  0.00000000000E+00  0.00000000000E+00  0.74505805969E-08  0.10566000000E+00  0.10566000000E+00 0.  1.
     999900   -1    0    0    0    0 -0.00000000000E+00 -0.00000000000E+00 -0.74505805969E-08  0.93827000000E+00  0.93827000000E+00 0. -1.
     999902    2    1    2    0    0  0.79239884363E-02  0.44551864556E-02  0.15850960710E-01  0.10256573091E+01  0.10254945267E+01 0.  0.
     999903    2    3    3    0    0  0.11023809675E+00  0.25836874278E-01 -0.71245244612E-01  0.13520175019E+00  0.19586891701E-01 0.  0.
         14    1    1    2    0    0 -0.79239884363E-02 -0.44551864556E-02 -0.15850960710E-01  0.18272690949E-01  0.00000000000E+00 0. -1.
     999901    1    3    3    0    0 -0.10231410831E+00 -0.21381687822E-01  0.87096205321E-01  0.89045555887E+00  0.88000000000E+00 0.  1.
        -11    1    4    4    0    0  0.81960084356E-01  0.26581333849E-01 -0.58658723778E-01  0.10423593302E+00  0.51100000000E-03 0.  1.
         11    1    4    4    0    0  0.28278012391E-01 -0.74445957141E-03 -0.12586520833E-01  0.30965817162E-01  0.51100000000E-03 0. -1.
</event>
<event>
 8    1  0.1071333E+005  0.1043930E+01  0.7957747E-01            NaN
         13   -1    0    0    0    0  0.00000000000E+00  0.00000000000E+00  0.74505805969E-08  0.10566000000E+00  0.10566000000E+00 0. -1.
     999900   -1    0    0    0    0 -0.00000000000E+00 -0.00000000000E+00 -0.74505805969E-08  0.93827000000E+00  0.93827000000E+00 0. -1.
     999902    2    1    2    0    0 -0.14484698802E-01 -0.91315727995E-03  0.19099261123E-01  0.10199420420E+01  0.10196599172E+01 0.  0.
     999903    2    3    3    0    0  0.74214426269E-01  0.10335007845E+00  0.14683409042E-02  0.12918438330E+00  0.22303118172E-01 0.  0.
         14    1    1    2    0    0  0.14484698802E-01  0.91315727995E-03 -0.19099261123E-01  0.23987958043E-01  0.00000000000E+00 0.  1.
     999901    1    3    3    0    0 -0.88699125071E-01 -0.10426323573E+00  0.17630920219E-01  0.89075765866E+00  0.88000000000E+00 0.  1.
        -11    1    4    4    0    0  0.25124117412E-01  0.24149053583E-01 -0.72404374721E-02  0.35596111030E-01  0.51100000000E-03 0. -1.
         11    1    4    4    0    0  0.49090308857E-01  0.79201024870E-01  0.87087783764E-02  0.93588272267E-01  0.51100000000E-03 0.  1.
</event>
<event>
 8    1  0.1071333E+005  0.1043930E+01  0.7957747E-01            NaN
         13   -1    0    0    0    0  0.00000000000E+00  0.00000000000E+00  0.74505805969E-08  0.10566000000E+00  0.10566000000E+00 0. -1.
     999900   -1    0    0    0    0 -0.00000000000E+00 -0.00000000000E+00 -0.74505805969E-08  0.93827000000E+00  0.93827000000E+00 0.  1.
     999902    2    1    2    0    0 -0.67808353260E-02  0.17390260177E-01 -0.19161162445E-01  0.10171802145E+01  0.10168284210E+01 0.  0.
     999903    2    3    3    0    0  0.60609778278E-02 -0.11963866271E+00  0.29457130841E-01  0.12515690972E+00  0.21127811686E-01 0.  0.
         14    1    1    2    0    0  0.67808353260E-02 -0.17390260177E-01  0.19161162445E-01  0.26749785475E-01  0.00000000000E+00 0. -1.
     999901    1    3    3    0    0 -0.12841813154E-01  0.13702892288E+00 -0.48618293286E-01  0.89202330480E+00  0.88000000000E+00 0.  1.
        -11    1    4    4    0    0  0.58104895599E-02 -0.61033103617E-01  0.25539385727E-01  0.66417790315E-01  0.51100000000E-03 0.  1.
         11    1    4    4    0    0  0.25048826788E-03 -0.58605559091E-01  0.39177451141E-02  0.58739119405E-01  0.51100000000E-03 0. -1.
</event>
<event>
 8    1  0.1071333E+005  0.1043930E+01  0.7957747E-01            NaN
         13   -1    0    0    0    0  0.00000000000E+00  0.00000000000E+00  0.74505805969E-08  0.10566000000E+00  0.10566000000E+00 0.  1.
     999900   -1    0    0    0    0 -0.00000000000E+00 -0.00000000000E+00 -0.74505805969E-08  0.93827000000E+00  0.93827000000E+00 0. -1.
     999902    2    1    2    0    0 -0.17634588774E-01  0.16437957803E-01  0.13518925959E-02  0.10197843422E+01  0.10194984511E+01 0.  0.
     999903    2    3    3    0    0 -0.12011772406E-01  0.67601925438E-01  0.11061117735E+00  0.13153496337E+00  0.18769950314E-01 0.  0.
         14    1    1    2    0    0  0.17634588774E-01 -0.16437957803E-01 -0.13518925959E-02  0.24145657820E-01  0.00000000000E+00 0.  1.
     999901    1    3    3    0    0 -0.56228163685E-02 -0.51163967636E-01 -0.10925928476E+00  0.88824937881E+00  0.88000000000E+00 0. -1.
        -11    1    4    4    0    0 -0.14706425814E-01  0.56163647372E-01  0.80878642562E-01  0.99560284201E-01  0.51100000000E-03 0.  1.
         11    1    4    4    0    0  0.26946534080E-02  0.11438278066E-01  0.29732534789E-01  0.31974679171E-01  0.51100000000E-03 0. -1.
</event>
<event>
 8    1  0.1071333E+005  0.1043930E+01  0.7957747E-01            NaN
         13   -1    0    0    0    0  0.00000000000E+00  0.00000000000E+00  0.74505805969E-08  0.10566000000E+00  0.10566000000E+00 0. -1.
     999900   -1    0    0    0    0 -0.00000000000E+00 -0.00000000000E+00 -0.74505805969E-08  0.93827000000E+00  0.93827000000E+00 0.  1.
     999902    2    1    2    0    0 -0.49414195039E-02  0.18031467568E-01  0.14816400235E-01  0.10200746617E+01  0.10197956846E+01 0.  0.
     999903    2    3    3    0    0  0.67881486876E-01 -0.10266429874E+00 -0.28049449794E-01  0.12782574756E+00  0.20119532999E-01 0.  0.
         14    1    1    2    0    0  0.49414195039E-02 -0.18031467568E-01 -0.14816400235E-01  0.23855338297E-01  0.00000000000E+00 0.  1.
     999901    1    3    3    0    0 -0.72822906380E-01  0.12069576631E+00  0.42865850030E-01  0.89224891415E+00  0.88000000000E+00 0. -1.
        -11    1    4    4    0    0  0.54043518224E-02 -0.14596666978E-01 -0.95632469786E-02  0.18275298062E-01  0.51100000000E-03 0. -1.
         11    1    4    4    0    0  0.62477135053E-01 -0.88067631762E-01 -0.18486202816E-01  0.10955044949E+00  0.51100000000E-03 0.  1.
</event>
<event>
 8    1  0.1071333E+005  0.1043930E+01  0.7957747E-01            NaN
         13   -1    0    0    0    0  0.00000000000E+00  0.00000000000E+00  0.74505805969E-08  0.10566000000E+00  0.10566000000E+00 0.  1.
     999900   -1    0    0    0    0 -0.00000000000E+00 -0.00000000000E+00 -0.74505805969E-08  0.93827000000E+00  0.93827000000E+00 0. -1.
     999902    2    1    2    0    0 -0.10309048962E-01 -0.67565371262E-02  0.21149242419E-01  0.10194510756E+01  0.10191571409E+01 0.  0.
     999903    2    3    3    0    0  0.67554772359E-01  0.71430584479E-01  0.83230333330E-01  0.13038973773E+00  0.20204446360E-01 0.  0.
         14    1    1    2    0    0  0.10309048962E-01  0.67565371262E-02 -0.21149242419E-01  0.24478924391E-01  0.00000000000E+00 0. -1.
     999901    1    3    3    0    0 -0.77863821321E-01 -0.78187121605E-01 -0.62081090911E-01  0.88906133788E+00  0.88000000000E+00 0. -1.
        -11    1    4    4    0    0  0.46751499194E-01  0.36993606262E-01  0.56080184642E-01  0.81850337883E-01  0.51100000000E-03 0.  1.
         11    1    4    4    0    0  0.20803273166E-01  0.34436978217E-01  0.27150148688E-01  0.48539399851E-01  0.51100000000E-03 0. -1.
</event>
<event>
 8    1  0.1071333E+005  0.1043930E+01  0.7957747E-01            NaN
         13   -1    0    0    0    0  0.00000000000E+00  0.00000000000E+00  0.74505805969E-08  0.10566000000E+00  0.10566000000E+00 0.  1.
     999900   -1    0    0    0    0 -0.00000000000E+00 -0.00000000000E+00 -0.74505805969E-08  0.93827000000E+00  0.93827000000E+00 0.  1.
     999902    2    1    2    0    0 -0.13897607509E-01 -0.14686157559E-01  0.14044879652E-01  0.10193111990E+01  0.10190138542E+01 0.  0.
     999903    2    3    3    0    0 -0.69803528451E-01  0.43931538094E-01 -0.96945442818E-01  0.12864832343E+00  0.18693838921E-01 0.  0.
         14    1    1    2    0    0  0.13897607509E-01  0.14686157559E-01 -0.14044879652E-01  0.24618801002E-01  0.00000000000E+00 0. -1.
     999901    1    3    3    0    0  0.55905920942E-01 -0.58617695653E-01  0.11099032247E+00  0.89066287557E+00  0.88000000000E+00 0. -1.
        -11    1    4    4    0    0 -0.65704166181E-01  0.40426797721E-01 -0.81235371588E-01  0.11203039831E+00  0.51100000000E-03 0. -1.
         11    1    4    4    0    0 -0.40993622704E-02  0.35047403732E-02 -0.15710071230E-01  0.16617925116E-01  0.51100000000E-03 0.  1.
</event>
<event>
 8    1  0.1071333E+005  0.1043930E+01  0.7957747E-01            NaN
         13   -1    0    0    0    0  0.00000000000E+00  0.00000000000E+00  0.74505805969E-08  0.10566000000E+00  0.10566000000E+00 0. -1.
     999900   -1    0    0    0    0 -0.00000000000E+00 -0.00000000000E+00 -0.74505805969E-08  0.93827000000E+00  0.93827000000E+00 0.  1.
     999902    2    1    2    0    0 -0.35958237291E-02 -0.13056643837E-01  0.23599292302E-01  0.10167209483E+01  0.10163568046E+01 0.  0.
     999903    2    3    3    0    0 -0.12234568692E-01 -0.30055055723E-01 -0.11921426535E+00  0.12500390453E+00  0.18998527330E-01 0.  0.
         14    1    1    2    0    0  0.35958237291E-02  0.13056643837E-01 -0.23599292302E-01  0.27209051688E-01  0.00000000000E+00 0.  1.
     999901    1    3    3    0    0  0.86387449627E-02  0.16998411886E-01  0.14281355765E+00  0.89171704378E+00  0.88000000000E+00 0. -1.
        -11    1    4    4    0    0  0.34837435953E-02 -0.81287915748E-02 -0.48782169991E-01  0.49579985397E-01  0.51100000000E-03 0. -1.
         11    1    4    4    0    0 -0.15718312287E-01 -0.21926264148E-01 -0.70432095354E-01  0.75423919134E-01  0.51100000000E-03 0.  1.
</event>
<event>
 8    1  0.1071333E+005  0.1043930E+01  0.7957747E-01            NaN
         13   -1    0    0    0    0  0.00000000000E+00  0.00000000000E+00  0.74505805969E-08  0.10566000000E+00  0.10566000000E+00 0.  1.
     999900   -1    0    0    0    0 -0.00000000000E+00 -0.00000000000E+00 -0.74505805969E-08  0.93827000000E+00  0.93827000000E+00 0.  1.
     999902    2    1    2    0    0 -0.13511533216E-01  0.15773383376E-01  0.84560893732E-02  0.10215053127E+01  0.10212591431E+01 0.  0.
     999903    2    3    3    0    0  0.78510729146E-01 -0.93119634635E-01 -0.36755763189E-01  0.12888563011E+00  0.20623253262E-01 0.  0.
         14    1    1    2    0    0  0.13511533216E-01 -0.15773383376E-01 -0.84560893732E-02  0.22424687299E-01  0.00000000000E+00 0. -1.
     999901    1    3    3    0    0 -0.92022262361E-01  0.10889301801E+00  0.45211852562E-01  0.89261968259E+00  0.88000000000E+00 0.  1.
        -11    1    4    4    0    0  0.48420442073E-01 -0.66596024639E-01 -0.16617648729E-01  0.83999863563E-01  0.51100000000E-03 0. -1.
         11    1    4    4    0    0  0.30090287073E-01 -0.26523609995E-01 -0.20138114460E-01  0.44885766545E-01  0.51100000000E-03 0.  1.
</event>
<event>
 8    1  0.1071333E+005  0.1043930E+01  0.7957747E-01            NaN
         13   -1    0    0    0    0  0.00000000000E+00  0.00000000000E+00  0.74505805969E-08  0.10566000000E+00  0.10566000000E+00 0.  1.
     999900   -1    0    0    0    0 -0.00000000000E+00 -0.00000000000E+00 -0.74505805969E-08  0.93827000000E+00  0.93827000000E+00 0.  1.
     999902    2    1    2    0    0 -0.20134092625E-01  0.66161370164E-03 -0.14301901044E-01  0.10192244583E+01  0.10189249887E+01 0.  0.
     999903    2    3    3    0    0 -0.24088230755E-01 -0.98037187202E-01 -0.81706795289E-01  0.13113633862E+00  0.18144034115E-01 0.  0.
         14    1    1    2    0    0  0.20134092625E-01 -0.66161370164E-03  0.14301901044E-01  0.24705541727E-01  0.00000000000E+00 0.  1.
     999901    1    3    3    0    0  0.39541381301E-02  0.98698800903E-01  0.67404894245E-01  0.88808811966E+00  0.88000000000E+00 0.  1.
        -11    1    4    4    0    0 -0.17264424489E-01 -0.91442528349E-01 -0.74599935994E-01  0.11926947604E+00  0.51100000000E-03 0.  1.
         11    1    4    4    0    0 -0.68238062662E-02 -0.65946588529E-02 -0.71068592949E-02  0.11866862575E-01  0.51100000000E-03 0. -1.
</event>
<event>
 8    1  0.1071333E+005  0.1043930E+01  0.7957747E-01            NaN
         13   -1    0    0    0    0  0.00000000000E+00  0.00000000000E+00  0.74505805969E-08  0.10566000000E+00  0.10566000000E+00 0.  1.
     999900   -1    0    0    0    0 -0.00000000000E+00 -0.00000000000E+00 -0.74505805969E-08  0.93827000000E+00  0.93827000000E+00 0.  1.
     999902    2    1    2    0    0 -0.20252844592E-01 -0.13406143033E-02  0.21924852872E-01  0.10140523472E+01  0.10136120998E+01 0.  0.
     999903    2    3    3    0    0  0.11981775192E+00 -0.62115264885E-02  0.17461307417E-01  0.12294998442E+00  0.20418733412E-01 0.  0.
         14    1    1    2    0    0  0.20252844592E-01  0.13406143033E-02 -0.21924852872E-01  0.29877652757E-01  0.00000000000E+00 0. -1.
     999901    1    3    3    0    0 -0.14007059652E+00  0.48709121851E-02  0.44635454551E-02  0.89110236282E+00  0.88000000000E+00 0. -1.
        -11    1    4    4    0    0  0.58497932171E-01 -0.11859464360E-01  0.13770405302E-01  0.61257980266E-01  0.51100000000E-03 0. -1.
         11    1    4    4    0    0  0.61319819754E-01  0.56479378712E-02  0.36909021156E-02  0.61692004152E-01  0.51100000000E-03 0.  1.
</event>
<event>
 8    1  0.1071333E+005  0.1043930E+01  0.7957747E-01            NaN
         13   -1    0    0    0    0  0.00000000000E+00  0.00000000000E+00  0.74505805969E-08  0.10566000000E+00  0.10566000000E+00 0.  1.
     999900   -1    0    0    0    0 -0.00000000000E+00 -0.00000000000E+00 -0.74505805969E-08  0.93827000000E+00  0.93827000000E+00 0. -1.
     999902    2    1    2    0    0  0.19993448673E-01 -0.46213709911E-03 -0.14100084444E-01  0.10194603465E+01  0.10191666371E+01 0.  0.
     999903    2    3    3    0    0 -0.57171141604E-01 -0.11188684888E+00 -0.21736748238E-01  0.12905136238E+00  0.19863572802E-01 0.  0.
         14    1    1    2    0    0 -0.19993448673E-01  0.46213709911E-03  0.14100084444E-01  0.24469653489E-01  0.00000000000E+00 0. -1.
     999901    1    3    3    0    0  0.77164590277E-01  0.11142471178E+00  0.76366637940E-02  0.89040898413E+00  0.88000000000E+00 0. -1.
        -11    1    4    4    0    0 -0.10049131101E-01 -0.33467785267E-01 -0.12419454661E-01  0.37088834730E-01  0.51100000000E-03 0.  1.
         11    1    4    4    0    0 -0.47122010503E-01 -0.78419063609E-01 -0.93172935772E-02  0.91962527650E-01  0.51100000000E-03 0. -1.
</event>
<event>
 8    1  0.1071333E+005  0.1043930E+01  0.7957747E-01            NaN
         13   -1    0    0    0    0  0.00000000000E+00  0.00000000000E+00  0.74505805969E-08  0.10566000000E+00  0.10566000000E+00 0.  1.
     999900   -1    0    0    0    0 -0.00000000000E+00 -0.00000000000E+00 -0.74505805969E-08  0.93827000000E+00  0.93827000000E+00 0.  1.
     999902    2    1    2    0    0 -0.57833629000E-02 -0.23167892483E-01 -0.48284729308E-02  0.10195678843E+01  0.10192767819E+01 0.  0.
     999903    2    3    3    0    0 -0.78908293297E-01  0.58666513693E-01 -0.81760089204E-01  0.12942036900E+00  0.19915851632E-01 0.  0.
         14    1    1    2    0    0  0.57833629000E-02  0.23167892483E-01  0.48284729308E-02  0.24362115659E-01  0.00000000000E+00 0.  1.
     999901    1    3    3    0    0  0.73124930397E-01 -0.81834406176E-01  0.76931616274E-01  0.89014751534E+00  0.88000000000E+00 0. -1.
        -11    1    4    4    0    0 -0.44700041614E-01  0.23339229481E-01 -0.49108683124E-01  0.70389894390E-01  0.51100000000E-03 0. -1.
         11    1    4    4    0    0 -0.34208251683E-01  0.35327284212E-01 -0.32651406081E-01  0.59030474613E-01  0.51100000000E-03 0.  1.
</event>
<event>
 8    1  0.1071333E+005  0.1043930E+01  0.7957747E-01            NaN
         13   -1    0    0    0    0  0.00000000000E+00  0.00000000000E+00  0.74505805969E-08  0.10566000000E+00  0.10566000000E+00 0. -1.
     999900   -1    0    0    0    0 -0.00000000000E+00 -0.00000000000E+00 -0.74505805969E-08  0.93827000000E+00  0.93827000000E+00 0. -1.
     999902    2    1    2    0    0 -0.16627157621E-01 -0.33015349576E-02  0.16766541133E-01  0.10200871938E+01  0.10198085132E+01 0.  0.
     999903    2    3    3    0    0  0.71997192421E-01 -0.10416829775E+00  0.20967695769E-01  0.12989281678E+00  0.19946669239E-01 0.  0.
         14    1    1    2    0    0  0.16627157621E-01  0.33015349576E-02 -0.16766541133E-01  0.23842806152E-01  0.00000000000E+00 0.  1.
     999901    1    3    3    0    0 -0.88624350042E-01  0.10086676279E+00 -0.42011546357E-02  0.89019437706E+00  0.88000000000E+00 0. -1.
        -11    1    4    4    0    0  0.41155002173E-01 -0.74085555284E-01  0.93340272916E-02  0.85263057018E-01  0.51100000000E-03 0. -1.
         11    1    4    4    0    0  0.30842190248E-01 -0.30082742465E-01  0.11633668477E-01  0.44629759766E-01  0.51100000000E-03 0.  1.
</event>
<event>
 8    1  0.1071333E+005  0.1043930E+01  0.7957747E-01            NaN
         13   -1    0    0    0    0  0.00000000000E+00  0.00000000000E+00  0.74505805969E-08  0.10566000000E+00  0.10566000000E+00 0. -1.
     999900   -1    0    0    0    0 -0.00000000000E+00 -0.00000000000E+00 -0.74505805969E-08  0.93827000000E+00  0.93827000000E+00 0.  1.
     999902    2    1    2    0    0 -0.20448385258E-01 -0.95239693873E-02 -0.58585692739E-02  0.10206240933E+01  0.10203579639E+01 0.  0.
     999903    2    3    3    0    0  0.11157399803E+00 -0.56385482768E-01  0.24289622461E-01  0.12903291761E+00  0.20770853725E-01 0.  0.
         14    1    1    2    0    0  0.20448385258E-01  0.95239693873E-02  0.58585692739E-02  0.23305906687E-01  0.00000000000E+00 0. -1.
     999901    1    3    3    0    0 -0.13202238329E+00  0.46861513381E-01 -0.30148191734E-01  0.89159117570E+00  0.88000000000E+00 0. -1.
        -11    1    4    4    0    0  0.10467529337E+00 -0.52482340041E-01  0.17136123773E-01  0.11834365601E+00  0.51100000000E-03 0.  1.
         11    1    4    4    0    0  0.68987046572E-02 -0.39031427271E-02  0.71534986875E-02  0.10689261601E-01  0.51100000000E-03 0. -1.
</event>
<event>
 8    1  0.1071333E+005  0.1043930E+01  0.7957747E-01            NaN
         13   -1    0    0    0    0  0.00000000000E+00  0.00000000000E+00  0.74505805969E-08  0.10566000000E+00  0.10566000000E+00 0.  1.
     999900   -1    0    0    0    0 -0.00000000000E+00 -0.00000000000E+00 -0.74505805969E-08  0.93827000000E+00  0.93827000000E+00 0. -1.
     999902    2    1    2    0    0  0.13097926817E-01 -0.17996086743E-01  0.49037760289E-02  0.10211382944E+01  0.10208839084E+01 0.  0.
     999903    2    3    3    0    0  0.28502630996E-01 -0.45540923443E-01 -0.11946491973E+00  0.13183317498E+00  0.14891047552E-01 0.  0.
         14    1    1    2    0    0 -0.13097926817E-01  0.17996086743E-01 -0.49037760289E-02  0.22791705603E-01  0.00000000000E+00 0. -1.
     999901    1    3    3    0    0 -0.15404704179E-01  0.27544836700E-01  0.12436869576E+00  0.88930511942E+00  0.88000000000E+00 0.  1.
        -11    1    4    4    0    0  0.26388368431E-01 -0.29609893665E-01 -0.84113270003E-01  0.92996747808E-01  0.51100000000E-03 0. -1.
         11    1    4    4    0    0  0.21142625657E-02 -0.15931029778E-01 -0.35351649726E-01  0.38836427170E-01  0.51100000000E-03 0.  1.
</event>
<event>
 8    1  0.1071333E+005  0.1043930E+01  0.7957747E-01            NaN
         13   -1    0    0    0    0  0.00000000000E+00  0.00000000000E+00  0.74505805969E-08  0.10566000000E+00  0.10566000000E+00 0.  1.
     999900   -1    0    0    0    0 -0.00000000000E+00 -0.00000000000E+00 -0.74505805969E-08  0.93827000000E+00  0.93827000000E+00 0.  1.
     999902    2    1    2    0    0  0.65351133301E-02 -0.22332375433E-01  0.64857388421E-03  0.10206520416E+01  0.10203865575E+01 0.  0.
     999903    2    3    3    0    0  0.82318128097E-01  0.89952674398E-02  0.99918479985E-01  0.13128203942E+00  0.19851503281E-01 0.  0.
         14    1    1    2    0    0 -0.65351133301E-02  0.22332375433E-01 -0.64857388421E-03  0.23277958390E-01  0.00000000000E+00 0. -1.
     999901    1    3    3    0    0 -0.75783014767E-01 -0.31327642873E-01 -0.99269906101E-01  0.88937000219E+00  0.88000000000E+00 0.  1.
        -11    1    4    4    0    0  0.56029227230E-01  0.24353186795E-02  0.53371002903E-01  0.77420476316E-01  0.51100000000E-03 0. -1.
         11    1    4    4    0    0  0.26288900867E-01  0.65599487603E-02  0.46547477082E-01  0.53861563106E-01  0.51100000000E-03 0.  1.
</event>
<event>
 8    1  0.1071333E+005  0.1043930E+01  0.7957747E-01            NaN
         13   -1    0    0    0    0  0.00000000000E+00  0.00000000000E+00  0.74505805969E-08  0.10566000000E+00  0.10566000000E+00 0.  1.
     999900   -1    0    0    0    0 -0.00000000000E+00 -0.00000000000E+00 -0.74505805969E-08  0.93827000000E+00  0.93827000000E+00 0. -1.
     999902    2    1    2    0    0  0.13694585956E-01  0.24538391152E-01 -0.78510954570E-02  0.10147527139E+01  0.10143331584E+01 0.  0.
     999903    2    3    3    0    0 -0.79808325485E-01 -0.34280794313E-01 -0.86529474802E-01  0.12436359760E+00  0.20842569991E-01 0.  0.
         14    1    1    2    0    0 -0.13694585956E-01 -0.24538391152E-01  0.78510954570E-02  0.29177286110E-01  0.00000000000E+00 0.  1.
     999901    1    3    3    0    0  0.93502911441E-01  0.58819185465E-01  0.78678379345E-01  0.89038911629E+00  0.88000000000E+00 0.  1.
        -11    1    4    4    0    0 -0.49221495902E-01 -0.11387255241E-01 -0.56268067809E-01  0.75622627677E-01  0.51100000000E-03 0. -1.
         11    1    4    4    0    0 -0.30586829583E-01 -0.22893539072E-01 -0.30261406993E-01  0.48740969926E-01  0.51100000000E-03 0.  1.
</event>
<event>
 8    1  0.1071333E+005  0.1043930E+01  0.7957747E-01            NaN
         13   -1    0    0    0    0  0.00000000000E+00  0.00000000000E+00  0.74505805969E-08  0.10566000000E+00  0.10566000000E+00 0. -1.
     999900   -1    0    0    0    0 -0.00000000000E+00 -0.00000000000E+00 -0.74505805969E-08  0.93827000000E+00  0.93827000000E+00 0. -1.
     999902    2    1    2    0    0  0.16308482238E-01  0.13212711838E-01 -0.84253912497E-02  0.10213129806E+01  0.10210625225E+01 0.  0.
     999903    2    3    3    0    0  0.12579425829E+00 -0.34802094081E-01 -0.17480499454E-01  0.13318317496E+00  0.19920066802E-01 0.  0.
         14    1    1    2    0    0 -0.16308482238E-01 -0.13212711838E-01  0.84253912497E-02  0.22617019360E-01  0.00000000000E+00 0. -1.
     999901    1    3    3    0    0 -0.10948577605E+00  0.48014805919E-01  0.90551082040E-02  0.88812980568E+00  0.88000000000E+00 0.  1.
        -11    1    4    4    0    0  0.71951232720E-01 -0.12032958994E-01 -0.33031003596E-02  0.73027005861E-01  0.51100000000E-03 0. -1.
         11    1    4    4    0    0  0.53843025570E-01 -0.22769135087E-01 -0.14177399094E-01  0.60156169103E-01  0.51100000000E-03 0.  1.
</event>
<event>
 8    1  0.1071333E+005  0.1043930E+01  0.7957747E-01            NaN
         13   -1    0    0    0    0  0.00000000000E+00  0.00000000000E+00  0.74505805969E-08  0.10566000000E+00  0.10566000000E+00 0.  1.
     999900   -1    0    0    0    0 -0.00000000000E+00 -0.00000000000E+00 -0.74505805969E-08  0.93827000000E+00  0.93827000000E+00 0.  1.
     999902    2    1    2    0    0  0.11379437076E-01  0.19142309354E-01  0.68213689672E-02  0.10206394296E+01  0.10203736544E+01 0.  0.
     999903    2    3    3    0    0  0.48225160224E-01  0.98237202752E-01  0.74394197435E-01  0.13374614591E+00  0.19424748439E-01 0.  0.
         14    1    1    2    0    0 -0.11379437076E-01 -0.19142309354E-01 -0.68213689672E-02  0.23290570413E-01  0.00000000000E+00 0.  1.
     999901    1    3    3    0    0 -0.36845723148E-01 -0.79094893398E-01 -0.67572828468E-01  0.88689328367E+00  0.88000000000E+00 0.  1.
        -11    1    4    4    0    0  0.12107489844E-01  0.15483685242E-01  0.21351086776E-01  0.29025262213E-01  0.51100000000E-03 0.  1.
         11    1    4    4    0    0  0.36117670380E-01  0.82753517510E-01  0.53043110659E-01  0.10472088370E+00  0.51100000000E-03 0. -1.
</event>
<event>
 8    1  0.1071333E+005  0.1043930E+01  0.7957747E-01            NaN
         13   -1    0    0    0    0  0.00000000000E+00  0.00000000000E+00  0.74505805969E-08  0.10566000000E+00  0.10566000000E+00 0. -1.
     999900   -1    0    0    0    0 -0.00000000000E+00 -0.00000000000E+00 -0.74505805969E-08  0.93827000000E+00  0.93827000000E+00 0.  1.
     999902    2    1    2    0    0  0.14829106612E-01  0.60151905006E-02 -0.17475850112E-01  0.10202342144E+01  0.10199590001E+01 0.  0.
     999903    2    3    3    0    0 -0.12449155100E+00 -0.96731609618E-02 -0.25754342748E-01  0.12909735425E+00  0.20276202593E-01 0.  0.
         14    1    1    2    0    0 -0.14829106612E-01 -0.60151905006E-02  0.17475850112E-01  0.23695785634E-01  0.00000000000E+00 0. -1.
     999901    1    3    3    0    0  0.13932065761E+00  0.15688351462E-01  0.82784926361E-02  0.89113686011E+00  0.88000000000E+00 0. -1.
        -11    1    4    4    0    0 -0.89165135230E-01 -0.15946385876E-01 -0.17010993605E-01  0.92164763264E-01  0.51100000000E-03 0.  1.
         11    1    4    4    0    0 -0.35326415770E-01  0.62732249145E-02 -0.87433491427E-02  0.36932590990E-01  0.51100000000E-03 0. -1.
</event>
<event>
 8    1  0.1071333E+005  0.1043930E+01  0.7957747E-01            NaN
         13   -1    0    0    0    0  0.00000000000E+00  0.00000000000E+00  0.74505805969E-08  0.10566000000E+00  0.10566000000E+00 0. -1.
     999900   -1    0    0    0    0 -0.00000000000E+00 -0.00000000000E+00 -0.74505805969E-08  0.93827000000E+00  0.93827000000E+00 0.  1.
     999902    2    1    2    0    0 -0.14040810857E-01  0.93369684063E-02 -0.16091676514E-01  0.10206219456E+01  0.10203557666E+01 0.  0.
     999903    2    3    3    0    0  0.79808410935E-01 -0.45671007448E-01 -0.90857103732E-01  0.13077733950E+00  0.19811003264E-01 0.  0.
         14    1    1    2    0    0  0.14040810857E-01 -0.93369684063E-02  0.16091676514E-01  0.23308054435E-01  0.00000000000E+00 0. -1.
     999901    1    3    3    0    0 -0.93849221792E-01  0.55007975854E-01  0.74765427219E-01  0.88984460607E+00  0.88000000000E+00 0. -1.
        -11    1    4    4    0    0  0.32339086861E-01 -0.98403427633E-02 -0.41212725453E-01  0.53304772253E-01  0.51100000000E-03 0.  1.
         11    1    4    4    0    0  0.47469324074E-01 -0.35830664685E-01 -0.49644378280E-01  0.77472567246E-01  0.51100000000E-03 0. -1.
</event>
<event>
 8    1  0.1071333E+005  0.1043930E+01  0.7957747E-01            NaN
         13   -1    0    0    0    0  0.00000000000E+00  0.00000000000E+00  0.74505805969E-08  0.10566000000E+00  0.10566000000E+00 0. -1.
     999900   -1    0    0    0    0 -0.00000000000E+00 -0.00000000000E+00 -0.74505805969E-08  0.93827000000E+00  0.93827000000E+00 0.  1.
     999902    2    1    2    0    0 -0.14367194586E-01 -0.16932357982E-01 -0.10775002992E-01  0.10192475828E+01  0.10189486805E+01 0.  0.
     999903    2    3    3    0    0  0.49616427817E-01  0.94856776350E-01  0.64727661830E-01  0.12667189032E+00  0.19912299283E-01 0.  0.
         14    1    1    2    0    0  0.14367194586E-01  0.16932357982E-01  0.10775002992E-01  0.24682417154E-01  0.00000000000E+00 0.  1.
     999901    1    3    3    0    0 -0.63983622403E-01 -0.11178913433E+00 -0.75502664822E-01  0.89257569252E+00  0.88000000000E+00 0. -1.
        -11    1    4    4    0    0  0.17068544356E-01  0.45547944968E-01  0.38461231346E-01  0.62011917684E-01  0.51100000000E-03 0. -1.
         11    1    4    4    0    0  0.32547883461E-01  0.49308831382E-01  0.26266430484E-01  0.64659972637E-01  0.51100000000E-03 0.  1.
</event>
<event>
 8    1  0.1071333E+005  0.1043930E+01  0.7957747E-01            NaN
         13   -1    0    0    0    0  0.00000000000E+00  0.00000000000E+00  0.74505805969E-08  0.10566000000E+00  0.10566000000E+00 0. -1.
     999900   -1    0    0    0    0 -0.00000000000E+00 -0.00000000000E+00 -0.74505805969E-08  0.93827000000E+00  0.93827000000E+00 0. -1.
     999902    2    1    2    0    0 -0.17447831981E-01 -0.10296064239E-01  0.12293203841E-01  0.10202327715E+01  0.10199575233E+01 0.  0.
     999903    2    3    3    0    0  0.10316645271E+00  0.70962791986E-02 -0.72189368998E-01  0.12782725579E+00  0.20852534251E-01 0.  0.
         14    1    1    2    0    0  0.17447831981E-01  0.10296064239E-01 -0.12293203841E-01  0.23697228537E-01  0.00000000000E+00 0.  1.
     999901    1    3    3    0    0 -0.12061428469E+00 -0.17392343438E-01  0.84482572839E-01  0.89240551567E+00  0.88000000000E+00 0.  1.
        -11    1    4    4    0    0  0.71242568064E-01 -0.79809203914E-04 -0.39010973164E-01  0.81225778064E-01  0.51100000000E-03 0.  1.
         11    1    4    4    0    0  0.31923884644E-01  0.71760884025E-02 -0.33178395834E-01  0.46601477731E-01  0.51100000000E-03 0. -1.
</event>
<event>
 8    1  0.1071333E+005  0.1043930E+01  0.7957747E-01            NaN
         13   -1    0    0    0    0  0.00000000000E+00  0.00000000000E+00  0.74505805969E-08  0.10566000000E+00  0.10566000000E+00 0.  1.
     999900   -1    0    0    0    0 -0.00000000000E+00 -0.00000000000E+00 -0.74505805969E-08  0.93827000000E+00  0.93827000000E+00 0.  1.
     999902    2    1    2    0    0  0.15632996622E-01  0.91777802157E-03 -0.18396392913E-01  0.10197709402E+01  0.10194847278E+01 0.  0.
     999903    2    3    3    0    0  0.79984344564E-01  0.95893105807E-01  0.31137187781E-01  0.13094306904E+00  0.24157395360E-01 0.  0.
         14    1    1    2    0    0 -0.15632996622E-01 -0.91777802157E-03  0.18396392913E-01  0.24159059835E-01  0.00000000000E+00 0.  1.
     999901    1    3    3    0    0 -0.64351347942E-01 -0.94975327785E-01 -0.49533580694E-01  0.88882787112E+00  0.88000000000E+00 0.  1.
        -11    1    4    4    0    0  0.31324010083E-02  0.10262244264E-01  0.84482046837E-02  0.13665975149E-01  0.51100000000E-03 0.  1.
         11    1    4    4    0    0  0.76851943555E-01  0.85630861543E-01  0.22688983098E-01  0.11727709389E+00  0.51100000000E-03 0. -1.
</event>
<event>
 8    1  0.1071333E+005  0.1043930E+01  0.7957747E-01            NaN
         13   -1    0    0    0    0  0.00000000000E+00  0.00000000000E+00  0.74505805969E-08  0.10566000000E+00  0.10566000000E+00 0. -1.
     999900   -1    0    0    0    0 -0.00000000000E+00 -0.00000000000E+00 -0.74505805969E-08  0.93827000000E+00  0.93827000000E+00 0.  1.
     999902    2    1    2    0    0 -0.17556421352E-01 -0.12371281876E-01  0.10008507205E-01  0.10202351321E+01  0.10199599395E+01 0.  0.
     999903    2    3    3    0    0 -0.11951663484E-02 -0.24596427130E-01  0.12820250208E+00  0.13209833792E+00  0.20191005214E-01 0.  0.
         14    1    1    2    0    0  0.17556421352E-01  0.12371281876E-01 -0.10008507205E-01  0.23694867850E-01  0.00000000000E+00 0.  1.
     999901    1    3    3    0    0 -0.16361255004E-01  0.12225145253E-01 -0.11819399487E+00  0.88813679423E+00  0.88000000000E+00 0.  1.
        -11    1    4    4    0    0 -0.45961670339E-02 -0.23546844712E-01  0.74364208080E-01  0.78140099896E-01  0.51100000000E-03 0.  1.
         11    1    4    4    0    0  0.34010006855E-02 -0.10495824176E-02  0.53838293999E-01  0.53958238023E-01  0.51100000000E-03 0. -1.
</event>
<event>
 8    1  0.1071333E+005  0.1043930E+01  0.7957747E-01            NaN
         13   -1    0    0    0    0  0.00000000000E+00  0.00000000000E+00  0.74505805969E-08  0.10566000000E+00  0.10566000000E+00 0.  1.
     999900   -1    0    0    0    0 -0.00000000000E+00 -0.00000000000E+00 -0.74505805969E-08  0.93827000000E+00  0.93827000000E+00 0.  1.
     999902    2    1    2    0    0  0.21909175999E-01 -0.29108863963E-02  0.48549895178E-03  0.10218229658E+01  0.10215837961E+01 0.  0.
     999903    2    3    3    0    0 -0.10967914979E+00  0.59325311311E-01 -0.29069520294E-01  0.12937558305E+00  0.18547129638E-01 0.  0.
         14    1    1    2    0    0 -0.21909175999E-01  0.29108863963E-02 -0.48549895178E-03  0.22107034215E-01  0.00000000000E+00 0. -1.
     999901    1    3    3    0    0  0.13158832579E+00 -0.62236197707E-01  0.29555019246E-01  0.89244738274E+00  0.88000000000E+00 0. -1.
        -11    1    4    4    0    0 -0.95444800578E-01  0.53529566371E-01 -0.19200976947E-01  0.11110383913E+00  0.51100000000E-03 0. -1.
         11    1    4    4    0    0 -0.14234349214E-01  0.57957449403E-02 -0.98685433467E-02  0.18271743916E-01  0.51100000000E-03 0.  1.
</event>
<event>
 8    1  0.1071333E+005  0.1043930E+01  0.7957747E-01            NaN
         13   -1    0    0    0    0  0.00000000000E+00  0.00000000000E+00  0.74505805969E-08  0.10566000000E+00  0.10566000000E+00 0. -1.
     999900   -1    0    0    0    0 -0.00000000000E+00 -0.00000000000E+00 -0.74505805969E-08  0.93827000000E+00  0.93827000000E+00 0.  1.
     999902    2    1    2    0    0  0.86707752878E-02 -0.19983020524E-01  0.14852288174E-01  0.10175653662E+01  0.10172237613E+01 0.  0.
     999903    2    3    3    0    0  0.42578623368E-01 -0.59613914696E-01 -0.10310695030E+00  0.12816403275E+00  0.20693431278E-01 0.  0.
         14    1    1    2    0    0 -0.86707752878E-02  0.19983020524E-01 -0.14852288174E-01  0.26364633837E-01  0.00000000000E+00 0. -1.
     999901    1    3    3    0    0 -0.33907848081E-01  0.39630894172E-01  0.11795923847E+00  0.88940133341E+00  0.88000000000E+00 0. -1.
        -11    1    4    4    0    0  0.18782656234E-01 -0.14024966175E-01 -0.22160154789E-01  0.32261764252E-01  0.51100000000E-03 0. -1.
         11    1    4    4    0    0  0.23795967135E-01 -0.45588948521E-01 -0.80946795508E-01  0.95902268499E-01  0.51100000000E-03 0.  1.
</event>
<event>
 8    1  0.1103050E+005  0.1043930E+01  0.7957747E-01            NaN
         13   -1    0    0    0    0  0.00000000000E+00  0.00000000000E+00  0.74505805969E-08  0.10566000000E+00  0.10566000000E+00 0.  1.
     999900   -1    0    0    0    0 -0.00000000000E+00 -0.00000000000E+00 -0.74505805969E-08  0.93827000000E+00  0.93827000000E+00 0. -1.
     999902    2    1    2    0    0  0.61053070684E-02 -0.23087036594E-01 -0.12295522901E-02  0.10200177054E+01  0.10197373787E+01 0.  0.
     999903    2    3    3    0    0  0.76253967645E-01  0.98240314349E-01  0.25437071732E-01  0.12852891160E+00  0.20169520446E-01 0.  0.
         14    1    1    2    0    0 -0.61053070684E-02  0.23087036594E-01  0.12295522901E-02  0.23912294577E-01  0.00000000000E+00 0.  1.
     999901    1    3    3    0    0 -0.70148660577E-01 -0.12132735094E+00 -0.26666624022E-01  0.89148879382E+00  0.88000000000E+00 0. -1.
        -11    1    4    4    0    0  0.46462348824E-01  0.66089186819E-01  0.25422175860E-01  0.84694029418E-01  0.51100000000E-03 0. -1.
         11    1    4    4    0    0  0.29791618821E-01  0.32151127530E-01  0.14895872173E-04  0.43834882186E-01  0.51100000000E-03 0.  1.
</event>
<event>
 8    1  0.1071333E+005  0.1043930E+01  0.7957747E-01            NaN
         13   -1    0    0    0    0  0.00000000000E+00  0.00000000000E+00  0.74505805969E-08  0.10566000000E+00  0.10566000000E+00 0. -1.
     999900   -1    0    0    0    0 -0.00000000000E+00 -0.00000000000E+00 -0.74505805969E-08  0.93827000000E+00  0.93827000000E+00 0. -1.
     999902    2    1    2    0    0  0.22043064269E-01 -0.61977691337E-02 -0.23587187884E-01  0.10110565387E+01  0.10105219740E+01 0.  0.
     999903    2    3    3    0    0 -0.11121495183E+00 -0.41707645888E-01 -0.85849638855E-02  0.12018970415E+00  0.16234843486E-01 0.  0.
         14    1    1    2    0    0 -0.22043064269E-01  0.61977691337E-02  0.23587187884E-01  0.32873461285E-01  0.00000000000E+00 0. -1.
     999901    1    3    3    0    0  0.13325801610E+00  0.35509876754E-01 -0.15002223999E-01  0.89086683456E+00  0.88000000000E+00 0. -1.
        -11    1    4    4    0    0 -0.37399228370E-01 -0.13314538414E-01 -0.10535144769E-01  0.41075900625E-01  0.51100000000E-03 0. -1.
         11    1    4    4    0    0 -0.73815723460E-01 -0.28393107474E-01  0.19501808834E-02  0.79113803526E-01  0.51100000000E-03 0.  1.
</event>
<event>
 8    1  0.1071333E+005  0.1043930E+01  0.7957747E-01            NaN
         13   -1    0    0    0    0  0.00000000000E+00  0.00000000000E+00  0.74505805969E-08  0.10566000000E+00  0.10566000000E+00 0. -1.
     999900   -1    0    0    0    0 -0.00000000000E+00 -0.00000000000E+00 -0.74505805969E-08  0.93827000000E+00  0.93827000000E+00 0.  1.
     999902    2    1    2    0    0 -0.14312494910E-02  0.15287483586E-01 -0.16790157073E-01  0.10211777473E+01  0.10209242511E+01 0.  0.
     999903    2    3    3    0    0 -0.64086733558E-01 -0.91180900643E-01  0.61940847246E-01  0.12906800203E+00  0.20020352882E-01 0.  0.
         14    1    1    2    0    0  0.14312494910E-02 -0.15287483586E-01  0.16790157073E-01  0.22752252725E-01  0.00000000000E+00 0. -1.
     999901    1    3    3    0    0  0.62655484067E-01  0.10646838423E+00 -0.78731004320E-01  0.89210974525E+00  0.88000000000E+00 0.  1.
        -11    1    4    4    0    0 -0.23827402396E-01 -0.27475525984E-01  0.10619117844E-01  0.37890320899E-01  0.51100000000E-03 0.  1.
         11    1    4    4    0    0 -0.40259331162E-01 -0.63705374659E-01  0.51321729403E-01  0.91177681129E-01  0.51100000000E-03 0. -1.
</event>
<event>
 8    1  0.1071333E+005  0.1043930E+01  0.7957747E-01            NaN
         13   -1    0    0    0    0  0.00000000000E+00  0.00000000000E+00  0.74505805969E-08  0.10566000000E+00  0.10566000000E+00 0. -1.
     999900   -1    0    0    0    0 -0.00000000000E+00 -0.00000000000E+00 -0.74505805969E-08  0.93827000000E+00  0.93827000000E+00 0. -1.
     999902    2    1    2    0    0  0.11584661318E-01  0.13665973163E-02  0.20873732375E-01  0.10200179807E+01  0.10197376605E+01 0.  0.
     999903    2    3    3    0    0 -0.66524392265E-01  0.35871468008E-01  0.10609943889E+00  0.13178657420E+00  0.19958788139E-01 0.  0.
         14    1    1    2    0    0 -0.11584661318E-01 -0.13665973163E-02 -0.20873732375E-01  0.23912019349E-01  0.00000000000E+00 0.  1.
     999901    1    3    3    0    0  0.78109053583E-01 -0.34504870692E-01 -0.85225706514E-01  0.88823140645E+00  0.88000000000E+00 0. -1.
        -11    1    4    4    0    0 -0.47241387880E-01  0.17180236969E-01  0.78944594997E-01  0.93591770319E-01  0.51100000000E-03 0. -1.
         11    1    4    4    0    0 -0.19283004385E-01  0.18691231039E-01  0.27154843892E-01  0.38194803883E-01  0.51100000000E-03 0.  1.
</event>
<event>
 8    1  0.1071333E+005  0.1043930E+01  0.7957747E-01            NaN
         13   -1    0    0    0    0  0.00000000000E+00  0.00000000000E+00  0.74505805969E-08  0.10566000000E+00  0.10566000000E+00 0.  1.
     999900   -1    0    0    0    0 -0.00000000000E+00 -0.00000000000E+00 -0.74505805969E-08  0.93827000000E+00  0.93827000000E+00 0. -1.
     999902    2    1    2    0    0  0.19032085666E-01 -0.10719123084E-01 -0.10946653708E-01  0.10194974579E+01  0.10192046495E+01 0.  0.
     999903    2    3    3    0    0  0.11523730872E+00  0.21876952405E-03  0.59669173426E-01  0.13137490024E+00  0.20476058611E-01 0.  0.
         14    1    1    2    0    0 -0.19032085666E-01  0.10719123084E-01  0.10946653708E-01  0.24432542067E-01  0.00000000000E+00 0.  1.
     999901    1    3    3    0    0 -0.96205223049E-01 -0.10937892608E-01 -0.70615827134E-01  0.88812255769E+00  0.88000000000E+00 0.  1.
        -11    1    4    4    0    0  0.19578033326E-01  0.66778629773E-02  0.62291685411E-02  0.21609185653E-01  0.51100000000E-03 0. -1.
         11    1    4    4    0    0  0.95659275389E-01 -0.64590934532E-02  0.53440004885E-01  0.10976571459E+00  0.51100000000E-03 0.  1.
</event>
<event>
 8    1  0.1087504E+005  0.1043930E+01  0.7957747E-01            NaN
         13   -1    0    0    0    0  0.00000000000E+00  0.00000000000E+00  0.74505805969E-08  0.10566000000E+00  0.10566000000E+00 0.  1.
     999900   -1    0    0    0    0 -0.00000000000E+00 -0.00000000000E+00 -0.74505805969E-08  0.93827000000E+00  0.93827000000E+00 0. -1.
     999902    2    1    2    0    0 -0.26924193660E-01  0.94453227617E-03 -0.14025028307E-01  0.10135572200E+01  0.10131020346E+01 0.  0.
     999903    2    3    3    0    0  0.76414184533E-01  0.91781390717E-01  0.17972629366E-01  0.12229182443E+00  0.19217794777E-01 0.  0.
         14    1    1    2    0    0  0.26924193660E-01 -0.94453227617E-03  0.14025028307E-01  0.30372779993E-01  0.00000000000E+00 0.  1.
     999901    1    3    3    0    0 -0.10333837819E+00 -0.90836858440E-01 -0.31997657673E-01  0.89126539558E+00  0.88000000000E+00 0. -1.
        -11    1    4    4    0    0  0.55322892129E-01  0.51974303586E-01  0.10904080711E-01  0.76688400191E-01  0.51100000000E-03 0.  1.
         11    1    4    4    0    0  0.21091292404E-01  0.39807087131E-01  0.70685486556E-02  0.45603424238E-01  0.51100000000E-03 0. -1.
</event>
<event>
 8    1  0.1071333E+005  0.1043930E+01  0.7957747E-01            NaN
         13   -1    0    0    0    0  0.00000000000E+00  0.00000000000E+00  0.74505805969E-08  0.10566000000E+00  0.10566000000E+00 0.  1.
     999900   -1    0    0    0    0 -0.00000000000E+00 -0.00000000000E+00 -0.74505805969E-08  0.93827000000E+00  0.93827000000E+00 0. -1.
     999902    2    1    2    0    0  0.18200785013E-01  0.76245506501E-02 -0.14764736983E-01  0.10192845175E+01  0.10189865200E+01 0.  0.
     999903    2    3    3    0    0  0.42770993836E-01  0.88231535147E-01 -0.86751808438E-01  0.13233281673E+00  0.19285652893E-01 0.  0.
         14    1    1    2    0    0 -0.18200785013E-01 -0.76245506501E-02  0.14764736983E-01  0.24645482464E-01  0.00000000000E+00 0.  1.
     999901    1    3    3    0    0 -0.24570208823E-01 -0.80606984497E-01  0.71987071455E-01  0.88695170081E+00  0.88000000000E+00 0.  1.
        -11    1    4    4    0    0  0.36830617561E-01  0.62436507691E-01 -0.55021250812E-01  0.91007752661E-01  0.51100000000E-03 0.  1.
         11    1    4    4    0    0  0.59403762747E-02  0.25795027456E-01 -0.31730557627E-01  0.41325064066E-01  0.51100000000E-03 0. -1.
</event>
<event>
 8    1  0.1071333E+005  0.1043930E+01  0.7957747E-01            NaN
         13   -1    0    0    0    0  0.00000000000E+00  0.00000000000E+00  0.74505805969E-08  0.10566000000E+00  0.10566000000E+00 0.  1.
     999900   -1    0    0    0    0 -0.00000000000E+00 -0.00000000000E+00 -0.74505805969E-08  0.93827000000E+00  0.93827000000E+00 0. -1.
     999902    2    1    2    0    0  0.20697658650E-01 -0.56495921376E-02 -0.12381949535E-01  0.10191585721E+01  0.10188574834E+01 0.  0.
     999903    2    3    3    0    0  0.11401917586E+00  0.10322908692E-01 -0.63963399249E-01  0.13257824733E+00  0.19461251588E-01 0.  0.
         14    1    1    2    0    0 -0.20697658650E-01  0.56495921376E-02  0.12381949535E-01  0.24771427880E-01  0.00000000000E+00 0. -1.
     999901    1    3    3    0    0 -0.93321517208E-01 -0.15972500830E-01  0.51581449714E-01  0.88658032479E+00  0.88000000000E+00 0.  1.
        -11    1    4    4    0    0  0.90770156978E-01  0.72691743093E-02 -0.41395261481E-01  0.10002945110E+00  0.51100000000E-03 0.  1.
         11    1    4    4    0    0  0.23249018880E-01  0.30537343832E-02 -0.22568137768E-01  0.32548796228E-01  0.51100000000E-03 0. -1.
</event>
<event>
 8    1  0.1071333E+005  0.1043930E+01  0.7957747E-01            NaN
         13   -1    0    0    0    0  0.00000000000E+00  0.00000000000E+00  0.74505805969E-08  0.10566000000E+00  0.10566000000E+00 0. -1.
     999900   -1    0    0    0    0 -0.00000000000E+00 -0.00000000000E+00 -0.74505805969E-08  0.93827000000E+00  0.93827000000E+00 0. -1.
     999902    2    1    2    0    0 -0.20530460225E-01  0.10106679825E-01 -0.49272778684E-02  0.10205222483E+01  0.10202537608E+01 0.  0.
     999903    2    3    3    0    0 -0.76676344143E-01  0.19103801057E-01 -0.10498415698E+00  0.13302876236E+00  0.20754792979E-01 0.  0.
         14    1    1    2    0    0  0.20530460225E-01 -0.10106679825E-01  0.49272778684E-02  0.23407751736E-01  0.00000000000E+00 0.  1.
     999901    1    3    3    0    0  0.56145883918E-01 -0.89971212314E-02  0.10005687911E+00  0.88749348591E+00  0.88000000000E+00 0.  1.
        -11    1    4    4    0    0 -0.26818241278E-01  0.12133655333E-01 -0.25534595312E-01  0.38970762576E-01  0.51100000000E-03 0.  1.
         11    1    4    4    0    0 -0.49858102865E-01  0.69701457238E-02 -0.79449561667E-01  0.94057999780E-01  0.51100000000E-03 0. -1.
</event>
<event>
 8    1  0.1071333E+005  0.1043930E+01  0.7957747E-01            NaN
         13   -1    0    0    0    0  0.00000000000E+00  0.00000000000E+00  0.74505805969E-08  0.10566000000E+00  0.10566000000E+00 0. -1.
     999900   -1    0    0    0    0 -0.00000000000E+00 -0.00000000000E+00 -0.74505805969E-08  0.93827000000E+00  0.93827000000E+00 0. -1.
     999902    2    1    2    0    0 -0.22136292087E-02 -0.50350038981E-02  0.23191090827E-01  0.10200956107E+01  0.10198171291E+01 0.  0.
     999903    2    3    3    0    0 -0.41872374224E-01  0.46014980598E-01 -0.10972686788E+00  0.12776938074E+00  0.20355710682E-01 0.  0.
         14    1    1    2    0    0  0.22136292087E-02  0.50350038981E-02 -0.23191090827E-01  0.23834389278E-01  0.00000000000E+00 0.  1.
     999901    1    3    3    0    0  0.39658745016E-01 -0.51049984497E-01  0.13291795870E+00  0.89232622998E+00  0.88000000000E+00 0.  1.
        -11    1    4    4    0    0 -0.11593572339E-01  0.25465302251E-01 -0.58079842941E-01  0.64470317320E-01  0.51100000000E-03 0. -1.
         11    1    4    4    0    0 -0.30278801886E-01  0.20549678348E-01 -0.51647024935E-01  0.63299063417E-01  0.51100000000E-03 0.  1.
</event>
<event>
 8    1  0.1071333E+005  0.1043930E+01  0.7957747E-01            NaN
         13   -1    0    0    0    0  0.00000000000E+00  0.00000000000E+00  0.74505805969E-08  0.10566000000E+00  0.10566000000E+00 0. -1.
     999900   -1    0    0    0    0 -0.00000000000E+00 -0.00000000000E+00 -0.74505805969E-08  0.93827000000E+00  0.93827000000E+00 0. -1.
     999902    2    1    2    0    0 -0.15412129229E-01 -0.18311517454E-01 -0.10481593607E-01  0.10178012954E+01  0.10174658558E+01 0.  0.
     999903    2    3    3    0    0  0.90722809912E-01  0.25512780086E-01  0.81100841524E-01  0.12562836555E+00  0.17989150839E-01 0.  0.
         14    1    1    2    0    0  0.15412129229E-01  0.18311517454E-01  0.10481593607E-01  0.26128704587E-01  0.00000000000E+00 0. -1.
     999901    1    3    3    0    0 -0.10613493914E+00 -0.43824297540E-01 -0.91582435132E-01  0.89217292987E+00  0.88000000000E+00 0. -1.
        -11    1    4    4    0    0  0.75415336925E-01  0.14118584649E-01  0.62298723156E-01  0.98834202096E-01  0.51100000000E-03 0. -1.
         11    1    4    4    0    0  0.15307472987E-01  0.11394195437E-01  0.18802118368E-01  0.26794163451E-01  0.51100000000E-03 0.  1.
</event>
<event>
 8    1  0.1071333E+005  0.1043930E+01  0.7957747E-01            NaN
         13   -1    0    0    0    0  0.00000000000E+00  0.00000000000E+00  0.74505805969E-08  0.10566000000E+00  0.10566000000E+00 0.  1.
     999900   -1    0    0    0    0 -0.00000000000E+00 -0.00000000000E+00 -0.74505805969E-08  0.93827000000E+00  0.93827000000E+00 0. -1.
     999902    2    1    2    0    0  0.18666926535E-01 -0.55279512165E-02 -0.12279643053E-01  0.10209125713E+01  0.10206530636E+01 0.  0.
     999903    2    3    3    0    0 -0.12685586143E+00  0.12089534548E-01 -0.93432630548E-02  0.12878260321E+00  0.16096456139E-01 0.  0.
         14    1    1    2    0    0 -0.18666926535E-01  0.55279512165E-02  0.12279643053E-01  0.23017428710E-01  0.00000000000E+00 0.  1.
     999901    1    3    3    0    0  0.14552278796E+00 -0.17617485765E-01 -0.29363799987E-02  0.89212996808E+00  0.88000000000E+00 0.  1.
        -11    1    4    4    0    0 -0.89087102809E-01  0.19599290711E-02 -0.29685834241E-02  0.89159558194E-01  0.51100000000E-03 0. -1.
         11    1    4    4    0    0 -0.37768758620E-01  0.10129605477E-01 -0.63746796306E-02  0.39623045014E-01  0.51100000000E-03 0.  1.
</event>
<event>
 8    1  0.1071333E+005  0.1043930E+01  0.7957747E-01            NaN
         13   -1    0    0    0    0  0.00000000000E+00  0.00000000000E+00  0.74505805969E-08  0.10566000000E+00  0.10566000000E+00 0.  1.
     999900   -1    0    0    0    0 -0.00000000000E+00 -0.00000000000E+00 -0.74505805969E-08  0.93827000000E+00  0.93827000000E+00 0.  1.
     999902    2    1    2    0    0  0.95569238709E-02  0.10995321276E-01 -0.18913809233E-01  0.10200560798E+01  0.10197766628E+01 0.  0.
     999903    2    3    3    0    0 -0.57553780910E-03  0.62232226194E-01  0.11111891321E+00  0.12896888091E+00  0.20307096016E-01 0.  0.
         14    1    1    2    0    0 -0.95569238709E-02 -0.10995321276E-01  0.18913809233E-01  0.23873920154E-01  0.00000000000E+00 0.  1.
     999901    1    3    3    0    0  0.10132461680E-01 -0.51236904919E-01 -0.13003272244E+00  0.89108719894E+00  0.88000000000E+00 0.  1.
        -11    1    4    4    0    0  0.97010293125E-02  0.27514413079E-01  0.52661585860E-01  0.60205121402E-01  0.51100000000E-03 0.  1.
         11    1    4    4    0    0 -0.10276567122E-01  0.34717813115E-01  0.58457327351E-01  0.68763759506E-01  0.51100000000E-03 0. -1.
</event>
<event>
 8    1  0.1071333E+005  0.1043930E+01  0.7957747E-01            NaN
         13   -1    0    0    0    0  0.00000000000E+00  0.00000000000E+00  0.74505805969E-08  0.10566000000E+00  0.10566000000E+00 0. -1.
     999900   -1    0    0    0    0 -0.00000000000E+00 -0.00000000000E+00 -0.74505805969E-08  0.93827000000E+00  0.93827000000E+00 0. -1.
     999902    2    1    2    0    0 -0.18512299356E-01 -0.13780693458E-01  0.80645682566E-02  0.10194831188E+01  0.10191899624E+01 0.  0.
     999903    2    3    3    0    0  0.11482741158E-01  0.12559049018E+00  0.90671071306E-02  0.12800960019E+00  0.19985513296E-01 0.  0.
         14    1    1    2    0    0  0.18512299356E-01  0.13780693458E-01 -0.80645682566E-02  0.24446881208E-01  0.00000000000E+00 0.  1.
     999901    1    3    3    0    0 -0.29995040514E-01 -0.13937118364E+00 -0.10025388740E-02  0.89147351860E+00  0.88000000000E+00 0. -1.
        -11    1    4    4    0    0  0.11440404490E-01  0.32142399167E-01  0.48554211743E-02  0.34465242127E-01  0.51100000000E-03 0.  1.
         11    1    4    4    0    0  0.42336667546E-04  0.93448091010E-01  0.42116859563E-02  0.93544358063E-01  0.51100000000E-03 0. -1.
</event>
<event>
 8    1  0.1071333E+005  0.1043930E+01  0.7957747E-01            NaN
         13   -1    0    0    0    0  0.00000000000E+00  0.00000000000E+00  0.74505805969E-08  0.10566000000E+00  0.10566000000E+00 0. -1.
     999900   -1    0    0    0    0 -0.00000000000E+00 -0.00000000000E+00 -0.74505805969E-08  0.93827000000E+00  0.93827000000E+00 0.  1.
     999902    2    1    2    0    0  0.67190500957E-02  0.21898277662E-01  0.79384516586E-02  0.10196874916E+01  0.10193992747E+01 0.  0.
     999903    2    3    3    0    0 -0.26948087858E-01  0.10300579756E+00  0.76568754713E-01  0.13265760233E+00  0.19971767241E-01 0.  0.
         14    1    1    2    0    0 -0.67190500957E-02 -0.21898277662E-01 -0.79384516586E-02  0.24242508399E-01  0.00000000000E+00 0. -1.
     999901    1    3    3    0    0  0.33667137953E-01 -0.81107519901E-01 -0.68630303055E-01  0.88702988927E+00  0.88000000000E+00 0.  1.
        -11    1    4    4    0    0 -0.75463549811E-02  0.35200743751E-01  0.37690121002E-01  0.52123374568E-01  0.51100000000E-03 0. -1.
         11    1    4    4    0    0 -0.19401732877E-01  0.67805053811E-01  0.38878633711E-01  0.80534227762E-01  0.51100000000E-03 0.  1.
</event>
<event>
 8    1  0.1071333E+005  0.1043930E+01  0.7957747E-01            NaN
         13   -1    0    0    0    0  0.00000000000E+00  0.00000000000E+00  0.74505805969E-08  0.10566000000E+00  0.10566000000E+00 0. -1.
     999900   -1    0    0    0    0 -0.00000000000E+00 -0.00000000000E+00 -0.74505805969E-08  0.93827000000E+00  0.93827000000E+00 0.  1.
     999902    2    1    2    0    0 -0.14701724183E-01 -0.27534388017E-02  0.18167490149E-01  0.10203974732E+01  0.10201260822E+01 0.  0.
     999903    2    3    3    0    0 -0.11747958569E+00  0.23147854433E-01 -0.46806163605E-01  0.13165918693E+00  0.28390990329E-01 0.  0.
         14    1    1    2    0    0  0.14701724183E-01  0.27534388017E-02 -0.18167490149E-01  0.23532526798E-01  0.00000000000E+00 0.  1.
     999901    1    3    3    0    0  0.10277786151E+00 -0.25901293235E-01  0.64973653754E-01  0.88873828627E+00  0.88000000000E+00 0. -1.
        -11    1    4    4    0    0 -0.75235984048E-01  0.12704518617E-01 -0.15016442520E-01  0.77766398630E-01  0.51100000000E-03 0. -1.
         11    1    4    4    0    0 -0.42243601644E-01  0.10443335816E-01 -0.31789721085E-01  0.53892788297E-01  0.51100000000E-03 0.  1.
</event>
<event>
 8    1  0.1071333E+005  0.1043930E+01  0.7957747E-01            NaN
         13   -1    0    0    0    0  0.00000000000E+00  0.00000000000E+00  0.74505805969E-08  0.10566000000E+00  0.10566000000E+00 0.  1.
     999900   -1    0    0    0    0 -0.00000000000E+00 -0.00000000000E+00 -0.74505805969E-08  0.93827000000E+00  0.93827000000E+00 0. -1.
     999902    2    1    2    0    0  0.14307339797E-01 -0.16642979620E-01 -0.10481781440E-01  0.10196080658E+01  0.10193179344E+01 0.  0.
     999903    2    3    3    0    0 -0.67732064879E-01 -0.47204446628E-01 -0.99746008372E-01  0.13077030251E+00  0.18322484481E-01 0.  0.
         14    1    1    2    0    0 -0.14307339797E-01  0.16642979620E-01  0.10481781440E-01  0.24321934233E-01  0.00000000000E+00 0. -1.
     999901    1    3    3    0    0  0.82039404676E-01  0.30561467008E-01  0.89264226932E-01  0.88883776326E+00  0.88000000000E+00 0.  1.
        -11    1    4    4    0    0 -0.44001531450E-01 -0.31487862522E-01 -0.78075238872E-01  0.94992759209E-01  0.51100000000E-03 0. -1.
         11    1    4    4    0    0 -0.23730533429E-01 -0.15716584107E-01 -0.21670769500E-01  0.35777543299E-01  0.51100000000E-03 0.  1.
</event>
<event>
 8    1  0.1071333E+005  0.1043930E+01  0.7957747E-01            NaN
         13   -1    0    0    0    0  0.00000000000E+00  0.00000000000E+00  0.74505805969E-08  0.10566000000E+00  0.10566000000E+00 0.  1.
     999900   -1    0    0    0    0 -0.00000000000E+00 -0.00000000000E+00 -0.74505805969E-08  0.93827000000E+00  0.93827000000E+00 0.  1.
     999902    2    1    2    0    0 -0.16458430859E-01  0.17180781895E-01  0.33818672119E-02  0.10198988486E+01  0.10196156948E+01 0.  0.
     999903    2    3    3    0    0  0.16828525319E-01  0.46048446660E-01  0.12030524083E+00  0.13107240949E+00  0.17405943080E-01 0.  0.
         14    1    1    2    0    0  0.16458430859E-01 -0.17180781895E-01 -0.33818672119E-02  0.24031151422E-01  0.00000000000E+00 0.  1.
     999901    1    3    3    0    0 -0.33286956178E-01 -0.28867664766E-01 -0.11692337362E+00  0.88882643909E+00  0.88000000000E+00 0.  1.
        -11    1    4    4    0    0  0.27713095675E-02  0.30019373980E-01  0.79597982159E-01  0.85117230075E-01  0.51100000000E-03 0.  1.
         11    1    4    4    0    0  0.14057215752E-01  0.16029072681E-01  0.40707258670E-01  0.45955179416E-01  0.51100000000E-03 0. -1.
</event>
<event>
 8    1  0.1071333E+005  0.1043930E+01  0.7957747E-01            NaN
         13   -1    0    0    0    0  0.00000000000E+00  0.00000000000E+00  0.74505805969E-08  0.10566000000E+00  0.10566000000E+00 0.  1.
     999900   -1    0    0    0    0 -0.00000000000E+00 -0.00000000000E+00 -0.74505805969E-08  0.93827000000E+00  0.93827000000E+00 0.  1.
     999902    2    1    2    0    0 -0.71830717708E-02  0.81707732192E-02 -0.13576927216E-01  0.10265319827E+01  0.10263845383E+01 0.  0.
     999903    2    3    3    0    0 -0.38102372069E-02  0.13439912719E+00  0.15067719186E-01  0.13705714370E+00  0.21908472786E-01 0.  0.
         14    1    1    2    0    0  0.71830717708E-02 -0.81707732192E-02  0.13576927216E-01  0.17398017349E-01  0.00000000000E+00 0. -1.
     999901    1    3    3    0    0 -0.33728345639E-02 -0.12622835397E+00 -0.28644646401E-01  0.88947483895E+00  0.88000000000E+00 0.  1.
        -11    1    4    4    0    0 -0.36108539821E-02  0.86204425378E-01  0.20116602561E-01  0.88595598316E-01  0.51100000000E-03 0.  1.
         11    1    4    4    0    0 -0.19938322484E-03  0.48194701815E-01 -0.50488833754E-02  0.48461545384E-01  0.51100000000E-03 0. -1.
</event>
<event>
 7    1  0.1071333E+005  0.1043930E+01  0.7957747E-01            NaN
         13   -1    0    0    0    0  0.00000000000E+00  0.00000000000E+00  0.74505805969E-08  0.10566000000E+00  0.10566000000E+00 0. -1.
     999900   -1    0    0    0    0 -0.00000000000E+00 -0.00000000000E+00 -0.74505805969E-08  0.93827000000E+00  0.93827000000E+00 0. -1.
     999903    2    1    2    0    0 -0.10316105740E-01 -0.11830048612E+00 -0.14101887128E-01  0.12107605053E+00  0.18950454784E-01 0.  0.
         14    1    1    2    0    0 -0.51205916077E-02  0.38670089137E-01  0.13804871537E-02  0.39032063704E-01  0.00000000000E+00 0. -1.
     999901    1    1    2    0    0  0.15436697348E-01  0.79630396983E-01  0.12721399975E-01  0.88382188577E+00  0.88000000000E+00 0.  1.
        -11    1    3    3    0    0 -0.13020622352E-01 -0.43747701809E-01 -0.50773048782E-02  0.45928620334E-01  0.51100000000E-03 0.  1.
         11    1    3    3    0    0  0.27045166116E-02 -0.74552784310E-01 -0.90245822503E-02  0.75147430191E-01  0.51100000000E-03 0. -1.
</event>
<event>
 8    1  0.1071333E+005  0.1043930E+01  0.7957747E-01            NaN
         13   -1    0    0    0    0  0.00000000000E+00  0.00000000000E+00  0.74505805969E-08  0.10566000000E+00  0.10566000000E+00 0.  1.
     999900   -1    0    0    0    0 -0.00000000000E+00 -0.00000000000E+00 -0.74505805969E-08  0.93827000000E+00  0.93827000000E+00 0.  1.
     999902    2    1    2    0    0  0.69721701571E-02 -0.95373668183E-02  0.19930631085E-01  0.10207609996E+01  0.10204980234E+01 0.  0.
     999903    2    3    3    0    0 -0.12500231384E+00  0.18619455667E-01 -0.20052477797E-01  0.12957711284E+00  0.20392736721E-01 0.  0.
         14    1    1    2    0    0 -0.69721701571E-02  0.95373668183E-02 -0.19930631085E-01  0.23169000366E-01  0.00000000000E+00 0. -1.
     999901    1    3    3    0    0  0.13197448400E+00 -0.28156822485E-01  0.39983108882E-01  0.89118388679E+00  0.88000000000E+00 0. -1.
        -11    1    4    4    0    0 -0.99965683894E-01  0.10040916048E-01 -0.89341270676E-02  0.10086643495E+00  0.51100000000E-03 0.  1.
         11    1    4    4    0    0 -0.25036629951E-01  0.85785396189E-02 -0.11118350729E-01  0.28710677896E-01  0.51100000000E-03 0. -1.
</event>
<event>
 8    1  0.1071333E+005  0.1043930E+01  0.7957747E-01            NaN
         13   -1    0    0    0    0  0.00000000000E+00  0.00000000000E+00  0.74505805969E-08  0.10566000000E+00  0.10566000000E+00 0. -1.
     999900   -1    0    0    0    0 -0.00000000000E+00 -0.00000000000E+00 -0.74505805969E-08  0.93827000000E+00  0.93827000000E+00 0.  1.
     999902    2    1    2    0    0  0.10332013337E-01 -0.61264123965E-03  0.20866476921E-01  0.10206376045E+01  0.10203717872E+01 0.  0.
     999903    2    3    3    0    0  0.61522400171E-01  0.11472606252E+00  0.52446624543E-02  0.13149896887E+00  0.17815644393E-01 0.  0.
         14    1    1    2    0    0 -0.10332013337E-01  0.61264123965E-03 -0.20866476921E-01  0.23292395497E-01  0.00000000000E+00 0.  1.
     999901    1    3    3    0    0 -0.51190386833E-01 -0.11533870376E+00  0.15621814467E-01  0.88913863563E+00  0.88000000000E+00 0. -1.
        -11    1    4    4    0    0  0.32234938487E-01  0.72343627355E-01 -0.33230109191E-02  0.79271654459E-01  0.51100000000E-03 0. -1.
         11    1    4    4    0    0  0.29287461684E-01  0.42382435166E-01  0.85676733734E-02  0.52227314410E-01  0.51100000000E-03 0.  1.
</event>
<event>
 8    1  0.1071333E+005  0.1043930E+01  0.7957747E-01            NaN
         13   -1    0    0    0    0  0.00000000000E+00  0.00000000000E+00  0.74505805969E-08  0.10566000000E+00  0.10566000000E+00 0. -1.
     999900   -1    0    0    0    0 -0.00000000000E+00 -0.00000000000E+00 -0.74505805969E-08  0.93827000000E+00  0.93827000000E+00 0. -1.
     999902    2    1    2    0    0 -0.92548730108E-02 -0.39919519688E-02  0.21993784194E-01  0.10197367179E+01  0.10194496844E+01 0.  0.
     999903    2    3    3    0    0 -0.50241150181E-01 -0.70082462475E-01 -0.93532127631E-01  0.12878550331E+00  0.20043009904E-01 0.  0.
         14    1    1    2    0    0  0.92548730108E-02  0.39919519688E-02 -0.21993784194E-01  0.24193282087E-01  0.00000000000E+00 0.  1.
     999901    1    3    3    0    0  0.40986277170E-01  0.66090510506E-01  0.11552591183E+00  0.89095121460E+00  0.88000000000E+00 0.  1.
        -11    1    4    4    0    0 -0.34653452442E-01 -0.31691506142E-01 -0.46212886886E-01  0.65887065218E-01  0.51100000000E-03 0. -1.
         11    1    4    4    0    0 -0.15587697740E-01 -0.38390956333E-01 -0.47319240745E-01  0.62898438094E-01  0.51100000000E-03 0.  1.
</event>
<event>
 8    1  0.1071333E+005  0.1043930E+01  0.7957747E-01            NaN
         13   -1    0    0    0    0  0.00000000000E+00  0.00000000000E+00  0.74505805969E-08  0.10566000000E+00  0.10566000000E+00 0.  1.
     999900   -1    0    0    0    0 -0.00000000000E+00 -0.00000000000E+00 -0.74505805969E-08  0.93827000000E+00  0.93827000000E+00 0.  1.
     999902    2    1    2    0    0  0.20906520298E-01  0.30236361962E-02 -0.98033972179E-02  0.10206419867E+01  0.10203762705E+01 0.  0.
     999903    2    3    3    0    0  0.59266139208E-01  0.23586481330E-01 -0.11528477216E+00  0.13327475075E+00  0.20069457809E-01 0.  0.
         14    1    1    2    0    0 -0.20906520298E-01 -0.30236361962E-02  0.98033972179E-02  0.23288013308E-01  0.00000000000E+00 0. -1.
     999901    1    3    3    0    0 -0.38359618910E-01 -0.20562845133E-01  0.10548137494E+00  0.88736723594E+00  0.88000000000E+00 0. -1.
        -11    1    4    4    0    0  0.15438698059E-01  0.13575733863E-01 -0.24652108058E-01  0.32103605722E-01  0.51100000000E-03 0.  1.
         11    1    4    4    0    0  0.43827441149E-01  0.10010747467E-01 -0.90632664105E-01  0.10117114503E+00  0.51100000000E-03 0. -1.
</event>
<event>
 8    1  0.1071333E+005  0.1043930E+01  0.7957747E-01            NaN
         13   -1    0    0    0    0  0.00000000000E+00  0.00000000000E+00  0.74505805969E-08  0.10566000000E+00  0.10566000000E+00 0.  1.
     999900   -1    0    0    0    0 -0.00000000000E+00 -0.00000000000E+00 -0.74505805969E-08  0.93827000000E+00  0.93827000000E+00 0.  1.
     999902    2    1    2    0    0  0.12012714488E-01  0.19751582435E-01 -0.18872826045E-02  0.10207353421E+01  0.10204717764E+01 0.  0.
     999903    2    3    3    0    0 -0.25247296176E-01 -0.83676946491E-01 -0.92972723418E-01  0.12922969071E+00  0.20423719605E-01 0.  0.
         14    1    1    2    0    0 -0.12012714488E-01 -0.19751582435E-01  0.18872826045E-02  0.23194657869E-01  0.00000000000E+00 0. -1.
     999901    1    3    3    0    0  0.37260010664E-01  0.10342852893E+00  0.91085440814E-01  0.89150565142E+00  0.88000000000E+00 0. -1.
        -11    1    4    4    0    0 -0.22113103619E-01 -0.42905958846E-01 -0.57659977419E-01  0.75198701938E-01  0.51100000000E-03 0.  1.
         11    1    4    4    0    0 -0.31341925574E-02 -0.40770987645E-01 -0.35312745999E-01  0.54030988770E-01  0.51100000000E-03 0. -1.
</event>
<event>
 8    1  0.1071333E+005  0.1043930E+01  0.7957747E-01            NaN
         13   -1    0    0    0    0  0.00000000000E+00  0.00000000000E+00  0.74505805969E-08  0.10566000000E+00  0.10566000000E+00 0. -1.
     999900   -1    0    0    0    0 -0.00000000000E+00 -0.00000000000E+00 -0.74505805969E-08  0.93827000000E+00  0.93827000000E+00 0. -1.
     999902    2    1    2    0    0 -0.52918665608E-02 -0.14004962429E-01  0.57479753002E-02  0.10278931037E+01  0.10277679945E+01 0.  0.
     999903    2    3    3    0    0 -0.62468698465E-01  0.56357525060E-01 -0.10537281314E+00  0.13628337997E+00  0.19779307047E-01 0.  0.
         14    1    1    2    0    0  0.52918665608E-02  0.14004962429E-01 -0.57479753002E-02  0.16036896345E-01  0.00000000000E+00 0.  1.
     999901    1    3    3    0    0  0.57176831904E-01 -0.70362487489E-01  0.11112078844E+00  0.89160972369E+00  0.88000000000E+00 0.  1.
        -11    1    4    4    0    0 -0.33782054242E-01  0.33843350654E-01 -0.44508555258E-01  0.65328953645E-01  0.51100000000E-03 0. -1.
         11    1    4    4    0    0 -0.28686644223E-01  0.22514174406E-01 -0.60864257882E-01  0.70954426321E-01  0.51100000000E-03 0.  1.
</event>
<event>
 8    1  0.1071333E+005  0.1043930E+01  0.7957747E-01            NaN
         13   -1    0    0    0    0  0.00000000000E+00  0.00000000000E+00  0.74505805969E-08  0.10566000000E+00  0.10566000000E+00 0. -1.
     999900   -1    0    0    0    0 -0.00000000000E+00 -0.00000000000E+00 -0.74505805969E-08  0.93827000000E+00  0.93827000000E+00 0.  1.
     999902    2    1    2    0    0 -0.23569143667E-01 -0.57239997857E-02 -0.23216103696E-02  0.10195648901E+01  0.10192737152E+01 0.  0.
     999903    2    3    3    0    0 -0.16017829657E-01 -0.91167694636E-01 -0.90470082164E-01  0.13101112107E+00  0.20272115483E-01 0.  0.
         14    1    1    2    0    0  0.23569143667E-01  0.57239997857E-02  0.23216103696E-02  0.24365109921E-01  0.00000000000E+00 0. -1.
     999901    1    3    3    0    0 -0.75513140101E-02  0.85443694850E-01  0.88148471795E-01  0.88855376900E+00  0.88000000000E+00 0. -1.
        -11    1    4    4    0    0 -0.44592830668E-02 -0.58545865656E-01 -0.45613776761E-01  0.74353085627E-01  0.51100000000E-03 0.  1.
         11    1    4    4    0    0 -0.11558546591E-01 -0.32621828979E-01 -0.44856305403E-01  0.56658035447E-01  0.51100000000E-03 0. -1.
</event>
<event>
 8    1  0.1071333E+005  0.1043930E+01  0.7957747E-01            NaN
         13   -1    0    0    0    0  0.00000000000E+00  0.00000000000E+00  0.74505805969E-08  0.10566000000E+00  0.10566000000E+00 0.  1.
     999900   -1    0    0    0    0 -0.00000000000E+00 -0.00000000000E+00 -0.74505805969E-08  0.93827000000E+00  0.93827000000E+00 0.  1.
     999902    2    1    2    0    0 -0.38969765312E-02 -0.21653968420E-01 -0.10834630678E-01  0.10194051148E+01  0.10191100618E+01 0.  0.
     999903    2    3    3    0    0  0.87557786336E-01 -0.48366041176E-01  0.79860947502E-01  0.12962806606E+00  0.20494503829E-01 0.  0.
         14    1    1    2    0    0  0.38969765312E-02  0.21653968420E-01  0.10834630678E-01  0.24524885247E-01  0.00000000000E+00 0.  1.
     999901    1    3    3    0    0 -0.91454762867E-01  0.26712072756E-01 -0.90695578180E-01  0.88977704869E+00  0.88000000000E+00 0. -1.
        -11    1    4    4    0    0  0.40475057984E-01 -0.24047368408E-01  0.24829661087E-01  0.53228558471E-01  0.51100000000E-03 0.  1.
         11    1    4    4    0    0  0.47082728351E-01 -0.24318672768E-01  0.55031286414E-01  0.76399507588E-01  0.51100000000E-03 0. -1.
</event>
<event>
 8    1  0.1071333E+005  0.1043930E+01  0.7957747E-01            NaN
         13   -1    0    0    0    0  0.00000000000E+00  0.00000000000E+00  0.74505805969E-08  0.10566000000E+00  0.10566000000E+00 0. -1.
     999900   -1    0    0    0    0 -0.00000000000E+00 -0.00000000000E+00 -0.74505805969E-08  0.93827000000E+00  0.93827000000E+00 0.  1.
     999902    2    1    2    0    0 -0.36616305286E-02  0.18887103440E-01 -0.10819515814E-01  0.10218575707E+01  0.10216191573E+01 0.  0.
     999903    2    3    3    0    0 -0.12375078849E+00  0.21099203772E-01  0.37071331509E-01  0.13240839701E+00  0.19956601141E-01 0.  0.
         14    1    1    2    0    0  0.36616305286E-02 -0.18887103440E-01  0.10819515814E-01  0.22072429339E-01  0.00000000000E+00 0.  1.
     999901    1    3    3    0    0  0.12008915796E+00 -0.22121003323E-02 -0.47890847323E-01  0.88944917365E+00  0.88000000000E+00 0. -1.
        -11    1    4    4    0    0 -0.12953123028E-01  0.86710163440E-02  0.37209121123E-02  0.16033596869E-01  0.51100000000E-03 0.  1.
         11    1    4    4    0    0 -0.11079766546E+00  0.12428187428E-01  0.33350419396E-01  0.11637480014E+00  0.51100000000E-03 0. -1.
</event>
<event>
 8    1  0.1071333E+005  0.1043930E+01  0.7957747E-01            NaN
         13   -1    0    0    0    0  0.00000000000E+00  0.00000000000E+00  0.74505805969E-08  0.10566000000E+00  0.10566000000E+00 0.  1.
     999900   -1    0    0    0    0 -0.00000000000E+00 -0.00000000000E+00 -0.74505805969E-08  0.93827000000E+00  0.93827000000E+00 0. -1.
     999902    2    1    2    0    0  0.41330804490E-02 -0.10442590999E-01  0.21053186501E-01  0.10200685934E+01  0.10197894727E+01 0.  0.
     999903    2    3    3    0    0 -0.80041662452E-01  0.12604937937E-01  0.10229197083E+00  0.13202787591E+00  0.20053940550E-01 0.  0.
         14    1    1    2    0    0 -0.41330804490E-02  0.10442590999E-01 -0.21053186501E-01  0.23861406551E-01  0.00000000000E+00 0. -1.
     999901    1    3    3    0    0  0.84174742901E-01 -0.23047528936E-01 -0.81238784330E-01  0.88804071754E+00  0.88000000000E+00 0. -1.
        -11    1    4    4    0    0 -0.22643284690E-01 -0.25225234393E-02  0.39616859252E-01  0.45703808639E-01  0.51100000000E-03 0.  1.
         11    1    4    4    0    0 -0.57398377761E-01  0.15127461377E-01  0.62675111579E-01  0.86324067269E-01  0.51100000000E-03 0. -1.
</event>
<event>
 8    1  0.1071333E+005  0.1043930E+01  0.7957747E-01            NaN
         13   -1    0    0    0    0  0.00000000000E+00  0.00000000000E+00  0.74505805969E-08  0.10566000000E+00  0.10566000000E+00 0. -1.
     999900   -1    0    0    0    0 -0.00000000000E+00 -0.00000000000E+00 -0.74505805969E-08  0.93827000000E+00  0.93827000000E+00 0.  1.
     999902    2    1    2    0    0  0.58445685028E-02 -0.21014981637E-01 -0.11717059021E-01  0.10191695899E+01  0.10188687723E+01 0.  0.
     999903    2    3    3    0    0  0.91873807576E-01  0.53804572999E-01  0.68680101560E-01  0.12817985983E+00  0.19426567429E-01 0.  0.
         14    1    1    2    0    0 -0.58445685028E-02  0.21014981637E-01  0.11717059021E-01  0.24760410059E-01  0.00000000000E+00 0. -1.
     999901    1    3    3    0    0 -0.86029239073E-01 -0.74819554636E-01 -0.80397160581E-01  0.89098973011E+00  0.88000000000E+00 0.  1.
        -11    1    4    4    0    0  0.58475766981E-01  0.29631537679E-01  0.52105439051E-01  0.83741753319E-01  0.51100000000E-03 0. -1.
         11    1    4    4    0    0  0.33398040595E-01  0.24173035320E-01  0.16574662510E-01  0.44438106513E-01  0.51100000000E-03 0.  1.
</event>
<event>
 8    1  0.1071333E+005  0.1043930E+01  0.7957747E-01            NaN
         13   -1    0    0    0    0  0.00000000000E+00  0.00000000000E+00  0.74505805969E-08  0.10566000000E+00  0.10566000000E+00 0. -1.
     999900   -1    0    0    0    0 -0.00000000000E+00 -0.00000000000E+00 -0.74505805969E-08  0.93827000000E+00  0.93827000000E+00 0. -1.
     999902    2    1    2    0    0  0.11414093640E-01  0.18308321662E-01  0.87489388551E-02  0.10206486747E+01  0.10203831129E+01 0.  0.
     999903    2    3    3    0    0  0.69089714829E-01  0.86265936160E-01  0.72974978744E-01  0.13381740619E+00  0.19145501807E-01 0.  0.
         14    1    1    2    0    0 -0.11414093640E-01 -0.18308321662E-01 -0.87489388551E-02  0.23281325280E-01  0.00000000000E+00 0.  1.
     999901    1    3    3    0    0 -0.57675621189E-01 -0.67957614498E-01 -0.64226039889E-01  0.88683126853E+00  0.88000000000E+00 0. -1.
        -11    1    4    4    0    0  0.13555204674E-01  0.17103396338E-01  0.59052397474E-02  0.22614214944E-01  0.51100000000E-03 0.  1.
         11    1    4    4    0    0  0.55534510154E-01  0.69162539822E-01  0.67069738997E-01  0.11120319124E+00  0.51100000000E-03 0. -1.
</event>
<event>
 8    1  0.1071333E+005  0.1043930E+01  0.7957747E-01            NaN
         13   -1    0    0    0    0  0.00000000000E+00  0.00000000000E+00  0.74505805969E-08  0.10566000000E+00  0.10566000000E+00 0.  1.
     999900   -1    0    0    0    0 -0.00000000000E+00 -0.00000000000E+00 -0.74505805969E-08  0.93827000000E+00  0.93827000000E+00 0. -1.
     999902    2    1    2    0    0  0.15499703884E-01  0.10776055482E-01 -0.14059715362E-01  0.10203919502E+01  0.10201204303E+01 0.  0.
     999903    2    3    3    0    0 -0.74978034232E-03 -0.10997524247E+00 -0.67155030222E-01  0.13041215596E+00  0.20060314354E-01 0.  0.
         14    1    1    2    0    0 -0.15499703884E-01 -0.10776055482E-01  0.14059715362E-01  0.23538049798E-01  0.00000000000E+00 0.  1.
     999901    1    3    3    0    0  0.16249484226E-01  0.12075129795E+00  0.53095314861E-01  0.88997979424E+00  0.88000000000E+00 0. -1.
        -11    1    4    4    0    0 -0.66270407475E-02 -0.99826390915E-01 -0.60514588569E-01  0.11692520063E+00  0.51100000000E-03 0.  1.
         11    1    4    4    0    0  0.58772604052E-02 -0.10148851555E-01 -0.66404416529E-02  0.13486955331E-01  0.51100000000E-03 0. -1.
</event>
<event>
 8    1  0.1071333E+005  0.1043930E+01  0.7957747E-01            NaN
         13   -1    0    0    0    0  0.00000000000E+00  0.00000000000E+00  0.74505805969E-08  0.10566000000E+00  0.10566000000E+00 0.  1.
     999900   -1    0    0    0    0 -0.00000000000E+00 -0.00000000000E+00 -0.74505805969E-08  0.93827000000E+00  0.93827000000E+00 0. -1.
     999902    2    1    2    0    0  0.55160494786E-02 -0.23058362742E-01 -0.77554883821E-03  0.10202083565E+01  0.10199325342E+01 0.  0.
     999903    2    3    3    0    0 -0.43463613491E-01 -0.12396270416E+00 -0.64518144409E-02  0.13307087364E+00  0.20258178146E-01 0.  0.
         14    1    1    2    0    0 -0.55160494786E-02  0.23058362742E-01  0.77554883821E-03  0.23721643497E-01  0.00000000000E+00 0. -1.
     999901    1    3    3    0    0  0.48979662970E-01  0.10090434142E+00  0.56762656027E-02  0.88713748286E+00  0.88000000000E+00 0. -1.
        -11    1    4    4    0    0 -0.10959113604E-01 -0.54641298693E-01  0.36026036779E-02  0.55848129496E-01  0.51100000000E-03 0.  1.
         11    1    4    4    0    0 -0.32504499887E-01 -0.69321405469E-01 -0.10054418119E-01  0.77222744149E-01  0.51100000000E-03 0. -1.
</event>
<event>
 8    1  0.1071333E+005  0.1043930E+01  0.7957747E-01            NaN
         13   -1    0    0    0    0  0.00000000000E+00  0.00000000000E+00  0.74505805969E-08  0.10566000000E+00  0.10566000000E+00 0.  1.
     999900   -1    0    0    0    0 -0.00000000000E+00 -0.00000000000E+00 -0.74505805969E-08  0.93827000000E+00  0.93827000000E+00 0. -1.
     999902    2    1    2    0    0 -0.14931254519E-01 -0.14727662890E-01 -0.88002388523E-02  0.10211859762E+01  0.10209326654E+01 0.  0.
     999903    2    3    3    0    0 -0.11696831656E-01  0.11129781773E+00  0.61781283356E-01  0.12940425707E+00  0.20112550122E-01 0.  0.
         14    1    1    2    0    0  0.14931254519E-01  0.14727662890E-01  0.88002388523E-02  0.22744023821E-01  0.00000000000E+00 0. -1.
     999901    1    3    3    0    0 -0.32344228625E-02 -0.12602548062E+00 -0.70581522208E-01  0.89178171911E+00  0.88000000000E+00 0.  1.
        -11    1    4    4    0    0 -0.72207719496E-02  0.12033391888E-01  0.10844681791E-01  0.17742894692E-01  0.51100000000E-03 0. -1.
         11    1    4    4    0    0 -0.44760597068E-02  0.99264425844E-01  0.50936601565E-01  0.11166136238E+00  0.51100000000E-03 0.  1.
</event>
<event>
 8    1  0.1071333E+005  0.1043930E+01  0.7957747E-01            NaN
         13   -1    0    0    0    0  0.00000000000E+00  0.00000000000E+00  0.74505805969E-08  0.10566000000E+00  0.10566000000E+00 0.  1.
     999900   -1    0    0    0    0 -0.00000000000E+00 -0.00000000000E+00 -0.74505805969E-08  0.93827000000E+00  0.93827000000E+00 0.  1.
     999902    2    1    2    0    0 -0.85515348214E-02 -0.12360690360E-01  0.17762901747E-01  0.10206612207E+01  0.10203959483E+01 0.  0.
     999903    2    3    3    0    0  0.57298340565E-01 -0.13478017789E-01  0.11711032644E+00  0.13262554271E+00  0.20247202884E-01 0.  0.
         14    1    1    2    0    0  0.85515348214E-02  0.12360690360E-01 -0.17762901747E-01  0.23268779350E-01  0.00000000000E+00 0. -1.
     999901    1    3    3    0    0 -0.65849875386E-01  0.11173274289E-02 -0.99347424691E-01  0.88803567794E+00  0.88000000000E+00 0.  1.
        -11    1    4    4    0    0  0.35101914199E-01 -0.91402054591E-02  0.49772714042E-01  0.61589543921E-01  0.51100000000E-03 0.  1.
         11    1    4    4    0    0  0.22196426366E-01 -0.43378123299E-02  0.67337612396E-01  0.71035998785E-01  0.51100000000E-03 0. -1.
</event>
<event>
 8    1  0.1071333E+005  0.1043930E+01  0.7957747E-01            NaN
         13   -1    0    0    0    0  0.00000000000E+00  0.00000000000E+00  0.74505805969E-08  0.10566000000E+00  0.10566000000E+00 0.  1.
     999900   -1    0    0    0    0 -0.00000000000E+00 -0.00000000000E+00 -0.74505805969E-08  0.93827000000E+00  0.93827000000E+00 0. -1.
     999902    2    1    2    0    0 -0.45211453929E-02 -0.18188678259E-01 -0.14784260618E-01  0.10200586126E+01  0.10197792556E+01 0.  0.
     999903    2    3    3    0    0  0.23476531443E-01 -0.65061178628E-01  0.10807902944E+00  0.12984723929E+00  0.19877737646E-01 0.  0.
         14    1    1    2    0    0  0.45211453929E-02  0.18188678259E-01  0.14784260618E-01  0.23871387360E-01  0.00000000000E+00 0.  1.
     999901    1    3    3    0    0 -0.27997676836E-01  0.46872500369E-01 -0.12286329006E+00  0.89021137335E+00  0.88000000000E+00 0. -1.
        -11    1    4    4    0    0 -0.20197439363E-02 -0.15522101990E-01  0.17326169397E-01  0.23355348054E-01  0.51100000000E-03 0. -1.
         11    1    4    4    0    0  0.25496275380E-01 -0.49539076638E-01  0.90752860041E-01  0.10649189124E+00  0.51100000000E-03 0.  1.
</event>
<event>
 8    1  0.1071333E+005  0.1043930E+01  0.7957747E-01            NaN
         13   -1    0    0    0    0  0.00000000000E+00  0.00000000000E+00  0.74505805969E-08  0.10566000000E+00  0.10566000000E+00 0.  1.
     999900   -1    0    0    0    0 -0.00000000000E+00 -0.00000000000E+00 -0.74505805969E-08  0.93827000000E+00  0.93827000000E+00 0.  1.
     999902    2    1    2    0    0  0.16751406438E-01 -0.13899613549E-01 -0.90316682713E-02  0.10203635003E+01  0.10200913160E+01 0.  0.
     999903    2    3    3    0    0 -0.97704852030E-01  0.54950122251E-01  0.57944987750E-01  0.12776818684E+00  0.20033320207E-01 0.  0.
         14    1    1    2    0    0 -0.16751406438E-01  0.13899613549E-01  0.90316682713E-02  0.23566499660E-01  0.00000000000E+00 0.  1.
     999901    1    3    3    0    0  0.11445625847E+00 -0.68849735800E-01 -0.66976656021E-01  0.89259531350E+00  0.88000000000E+00 0.  1.
        -11    1    4    4    0    0 -0.21169461567E-02  0.34634663114E-02  0.63627182909E-02  0.75645465806E-02  0.51100000000E-03 0.  1.
         11    1    4    4    0    0 -0.95587905873E-01  0.51486655939E-01  0.51582269459E-01  0.12020364026E+00  0.51100000000E-03 0. -1.
</event>
<event>
 8    1  0.1071333E+005  0.1043930E+01  0.7957747E-01            NaN
         13   -1    0    0    0    0  0.00000000000E+00  0.00000000000E+00  0.74505805969E-08  0.10566000000E+00  0.10566000000E+00 0.  1.
     999900   -1    0    0    0    0 -0.00000000000E+00 -0.00000000000E+00 -0.74505805969E-08  0.93827000000E+00  0.93827000000E+00 0.  1.
     999902    2    1    2    0    0  0.57938804516E-02 -0.14959666484E-01 -0.18196939799E-01  0.10196712018E+01  0.10193825928E+01 0.  0.
     999903    2    3    3    0    0 -0.84497006507E-01  0.61871989035E-01 -0.74196353034E-01  0.12995693203E+00  0.20391621869E-01 0.  0.
         14    1    1    2    0    0 -0.57938804516E-02  0.14959666484E-01  0.18196939799E-01  0.24258798199E-01  0.00000000000E+00 0.  1.
     999901    1    3    3    0    0  0.90290886959E-01 -0.76831655518E-01  0.55999413235E-01  0.88971426977E+00  0.88000000000E+00 0. -1.
        -11    1    4    4    0    0 -0.31294666407E-01  0.20923954911E-01 -0.15271528933E-01  0.40628176818E-01  0.51100000000E-03 0. -1.
         11    1    4    4    0    0 -0.53202340101E-01  0.40948034124E-01 -0.58924824101E-01  0.89328755209E-01  0.51100000000E-03 0.  1.
</event>
<event>
 8    1  0.1071333E+005  0.1043930E+01  0.7957747E-01            NaN
         13   -1    0    0    0    0  0.00000000000E+00  0.00000000000E+00  0.74505805969E-08  0.10566000000E+00  0.10566000000E+00 0.  1.
     999900   -1    0    0    0    0 -0.00000000000E+00 -0.00000000000E+00 -0.74505805969E-08  0.93827000000E+00  0.93827000000E+00 0. -1.
     999902    2    1    2    0    0  0.13895913391E-01 -0.20826420728E-01  0.38822550955E-02  0.10185940944E+01  0.10182789505E+01 0.  0.
     999903    2    3    3    0    0  0.62737554785E-01  0.48672346799E-02 -0.11117498210E+00  0.12939004710E+00  0.20547916907E-01 0.  0.
         14    1    1    2    0    0 -0.13895913391E-01  0.20826420728E-01 -0.38822550955E-02  0.25335905627E-01  0.00000000000E+00 0.  1.
     999901    1    3    3    0    0 -0.48841641394E-01 -0.25693655408E-01  0.11505723719E+00  0.88920404728E+00  0.88000000000E+00 0.  1.
        -11    1    4    4    0    0  0.93569005338E-02  0.73334985337E-02 -0.29232789084E-01  0.31561826103E-01  0.51100000000E-03 0.  1.
         11    1    4    4    0    0  0.53380654252E-01 -0.24662638538E-02 -0.81942193015E-01  0.97828220994E-01  0.51100000000E-03 0. -1.
</event>
<event>
 8    1  0.1210006E+005  0.1043930E+01  0.7957747E-01            NaN
         13   -1    0    0    0    0  0.00000000000E+00  0.00000000000E+00  0.74505805969E-08  0.10566000000E+00  0.10566000000E+00 0. -1.
     999900   -1    0    0    0    0 -0.00000000000E+00 -0.00000000000E+00 -0.74505805969E-08  0.93827000000E+00  0.93827000000E+00 0.  1.
     999902    2    1    2    0    0 -0.21663002430E-01 -0.96150344626E-02 -0.22790838468E-02  0.10201197336E+01  0.10198418221E+01 0.  0.
     999903    2    3    3    0    0  0.96769305465E-01 -0.76883383667E-01  0.31021065406E-01  0.12901921050E+00  0.20206360761E-01 0.  0.
         14    1    1    2    0    0  0.21663002430E-01  0.96150344626E-02  0.22790838468E-02  0.23810266382E-01  0.00000000000E+00 0. -1.
     999901    1    3    3    0    0 -0.11843230790E+00  0.67268349204E-01 -0.33300149253E-01  0.89110052312E+00  0.88000000000E+00 0.  1.
        -11    1    4    4    0    0  0.44920064720E-01 -0.23376486841E-01  0.10235383637E-01  0.51665235416E-01  0.51100000000E-03 0.  1.
         11    1    4    4    0    0  0.51849240745E-01 -0.53506896826E-01  0.20785681769E-01  0.77353975085E-01  0.51100000000E-03 0. -1.
</event>
<event>
 8    1  0.1071333E+005  0.1043930E+01  0.7957747E-01            NaN
         13   -1    0    0    0    0  0.00000000000E+00  0.00000000000E+00  0.74505805969E-08  0.10566000000E+00  0.10566000000E+00 0.  1.
     999900   -1    0    0    0    0 -0.00000000000E+00 -0.00000000000E+00 -0.74505805969E-08  0.93827000000E+00  0.93827000000E+00 0. -1.
     999902    2    1    2    0    0  0.80894828925E-02 -0.32895718934E-02  0.20553111724E-01  0.10215986002E+01  0.10213544970E+01 0.  0.
     999903    2    3    3    0    0  0.91225696524E-01 -0.83010019790E-01 -0.42974490834E-01  0.13182181012E+00  0.17815489588E-01 0.  0.
         14    1    1    2    0    0 -0.80894828925E-02  0.32895718934E-02 -0.20553111724E-01  0.22331399827E-01  0.00000000000E+00 0. -1.
     999901    1    3    3    0    0 -0.83136213631E-01  0.79720447896E-01  0.63527602557E-01  0.88977679005E+00  0.88000000000E+00 0.  1.
        -11    1    4    4    0    0  0.19183030901E-01 -0.11777283941E-01 -0.22442904724E-02  0.22627219280E-01  0.51100000000E-03 0. -1.
         11    1    4    4    0    0  0.72042665622E-01 -0.71232735849E-01 -0.40730200361E-01  0.10919459084E+00  0.51100000000E-03 0.  1.
</event>
<event>
 8    1  0.1071333E+005  0.1043930E+01  0.7957747E-01            NaN
         13   -1    0    0    0    0  0.00000000000E+00  0.00000000000E+00  0.74505805969E-08  0.10566000000E+00  0.10566000000E+00 0.  1.
     999900   -1    0    0    0    0 -0.00000000000E+00 -0.00000000000E+00 -0.74505805969E-08  0.93827000000E+00  0.93827000000E+00 0.  1.
     999902    2    1    2    0    0  0.93830225442E-02  0.19217812433E-01  0.96159760428E-02  0.10204814942E+01  0.10202120602E+01 0.  0.
     999903    2    3    3    0    0  0.10762320677E-01 -0.53549034835E-01 -0.11482315682E+00  0.12875170653E+00  0.20231606809E-01 0.  0.
         14    1    1    2    0    0 -0.93830225442E-02 -0.19217812433E-01 -0.96159760428E-02  0.23448505753E-01  0.00000000000E+00 0. -1.
     999901    1    3    3    0    0 -0.13792981323E-02  0.72766847268E-01  0.12443913286E+00  0.89172978772E+00  0.88000000000E+00 0. -1.
        -11    1    4    4    0    0  0.14521226847E-01 -0.31808345377E-01 -0.82579130456E-01  0.89678374052E-01  0.51100000000E-03 0. -1.
         11    1    4    4    0    0 -0.37589061704E-02 -0.21740689458E-01 -0.32244026359E-01  0.39073332473E-01  0.51100000000E-03 0.  1.
</event>
<event>
 8    1  0.1071333E+005  0.1043930E+01  0.7957747E-01            NaN
         13   -1    0    0    0    0  0.00000000000E+00  0.00000000000E+00  0.74505805969E-08  0.10566000000E+00  0.10566000000E+00 0. -1.
     999900   -1    0    0    0    0 -0.00000000000E+00 -0.00000000000E+00 -0.74505805969E-08  0.93827000000E+00  0.93827000000E+00 0. -1.
     999902    2    1    2    0    0  0.70091202229E-02 -0.43436373283E-02  0.13380096925E-01  0.10282130682E+01  0.10280929392E+01 0.  0.
     999903    2    3    3    0    0 -0.52434863353E-03 -0.30646861403E-01  0.13449312606E+00  0.13949659003E+00  0.20769993190E-01 0.  0.
         14    1    1    2    0    0 -0.70091202229E-02  0.43436373283E-02 -0.13380096925E-01  0.15716931801E-01  0.00000000000E+00 0. -1.
     999901    1    3    3    0    0  0.75334688564E-02  0.26303224075E-01 -0.12111302913E+00  0.88871647817E+00  0.88000000000E+00 0. -1.
        -11    1    4    4    0    0 -0.77607139723E-02 -0.10137768068E-01  0.76454948220E-01  0.77515309785E-01  0.51100000000E-03 0. -1.
         11    1    4    4    0    0  0.72363653387E-02 -0.20509093335E-01  0.58038177837E-01  0.61981280241E-01  0.51100000000E-03 0.  1.
</event>
<event>
 8    1  0.1071333E+005  0.1043930E+01  0.7957747E-01            NaN
         13   -1    0    0    0    0  0.00000000000E+00  0.00000000000E+00  0.74505805969E-08  0.10566000000E+00  0.10566000000E+00 0. -1.
     999900   -1    0    0    0    0 -0.00000000000E+00 -0.00000000000E+00 -0.74505805969E-08  0.93827000000E+00  0.93827000000E+00 0. -1.
     999902    2    1    2    0    0 -0.19203287523E-01  0.88572832243E-02 -0.75588795708E-02  0.10214721644E+01  0.10212252584E+01 0.  0.
     999903    2    3    3    0    0 -0.94789376437E-01 -0.88558535659E-01  0.18279526377E-01  0.13250044282E+00  0.19864192423E-01 0.  0.
         14    1    1    2    0    0  0.19203287523E-01 -0.88572832243E-02  0.75588795708E-02  0.22457835563E-01  0.00000000000E+00 0. -1.
     999901    1    3    3    0    0  0.75586088915E-01  0.97415818883E-01 -0.25838405947E-01  0.88897172161E+00  0.88000000000E+00 0.  1.
        -11    1    4    4    0    0 -0.64764146585E-01 -0.47733718601E-01  0.13701430651E-01  0.81614293462E-01  0.51100000000E-03 0. -1.
         11    1    4    4    0    0 -0.30025229853E-01 -0.40824817057E-01  0.45780957255E-02  0.50886149362E-01  0.51100000000E-03 0.  1.
</event>
<event>
 8    1  0.1071333E+005  0.1043930E+01  0.7957747E-01            NaN
         13   -1    0    0    0    0  0.00000000000E+00  0.00000000000E+00  0.74505805969E-08  0.10566000000E+00  0.10566000000E+00 0. -1.
     999900   -1    0    0    0    0 -0.00000000000E+00 -0.00000000000E+00 -0.74505805969E-08  0.93827000000E+00  0.93827000000E+00 0.  1.
     999902    2    1    2    0    0  0.25680280641E-02  0.12182597219E-01  0.20721396706E-01  0.10197559080E+01  0.10194693351E+01 0.  0.
     999903    2    3    3    0    0  0.67138331799E-01 -0.17539195038E-01  0.11087383298E+00  0.13229877053E+00  0.19869043403E-01 0.  0.
         14    1    1    2    0    0 -0.25680280641E-02 -0.12182597219E-01 -0.20721396706E-01  0.24174092011E-01  0.00000000000E+00 0.  1.
     999901    1    3    3    0    0 -0.64570303735E-01  0.29721792257E-01 -0.90152436270E-01  0.88745713746E+00  0.88000000000E+00 0.  1.
        -11    1    4    4    0    0  0.27620479051E-01 -0.40677455567E-02  0.28234024447E-01  0.39709679858E-01  0.51100000000E-03 0. -1.
         11    1    4    4    0    0  0.39517852748E-01 -0.13471449481E-01  0.82639808529E-01  0.92589090673E-01  0.51100000000E-03 0.  1.
</event>
<event>
 8    1  0.1071333E+005  0.1043930E+01  0.7957747E-01            NaN
         13   -1    0    0    0    0  0.00000000000E+00  0.00000000000E+00  0.74505805969E-08  0.10566000000E+00  0.10566000000E+00 0. -1.
     999900   -1    0    0    0    0 -0.00000000000E+00 -0.00000000000E+00 -0.74505805969E-08  0.93827000000E+00  0.93827000000E+00 0.  1.
     999902    2    1    2    0    0 -0.27599390295E-02 -0.19774580469E-01  0.12123614582E-01  0.10205712045E+01  0.10203038519E+01 0.  0.
     999903    2    3    3    0    0 -0.41821685324E-01 -0.62402281761E-01  0.10857963581E+00  0.13341467662E+00  0.19153080521E-01 0.  0.
         14    1    1    2    0    0  0.27599390295E-02  0.19774580469E-01 -0.12123614582E-01  0.23358795489E-01  0.00000000000E+00 0. -1.
     999901    1    3    3    0    0  0.39061746295E-01  0.42627701292E-01 -0.96456021230E-01  0.88715652789E+00  0.88000000000E+00 0.  1.
        -11    1    4    4    0    0  0.13413936594E-02 -0.35277655909E-02  0.10343702886E-01  0.11022603023E-01  0.51100000000E-03 0. -1.
         11    1    4    4    0    0 -0.43163078984E-01 -0.58874516170E-01  0.98235932926E-01  0.12239207360E+00  0.51100000000E-03 0.  1.
</event>
<event>
 8    1  0.1071333E+005  0.1043930E+01  0.7957747E-01            NaN
         13   -1    0    0    0    0  0.00000000000E+00  0.00000000000E+00  0.74505805969E-08  0.10566000000E+00  0.10566000000E+00 0.  1.
     999900   -1    0    0    0    0 -0.00000000000E+00 -0.00000000000E+00 -0.74505805969E-08  0.93827000000E+00  0.93827000000E+00 0. -1.
     999902    2    1    2    0    0 -0.15379221696E-01  0.15628108498E-01  0.84184916430E-02  0.10204432114E+01  0.10201728866E+01 0.  0.
     999903    2    3    3    0    0  0.69748403133E-01 -0.94870521534E-01  0.47182079251E-01  0.12861403751E+00  0.21217126270E-01 0.  0.
         14    1    1    2    0    0  0.15379221696E-01 -0.15628108498E-01 -0.84184916430E-02  0.23486788557E-01  0.00000000000E+00 0. -1.
     999901    1    3    3    0    0 -0.85127624829E-01  0.11049863003E+00 -0.38763587608E-01  0.89182917393E+00  0.88000000000E+00 0.  1.
        -11    1    4    4    0    0  0.20290021280E-01 -0.45212331468E-01  0.19553987477E-01  0.53277194254E-01  0.51100000000E-03 0.  1.
         11    1    4    4    0    0  0.49458381853E-01 -0.49658190066E-01  0.27628091774E-01  0.75336843259E-01  0.51100000000E-03 0. -1.
</event>
<event>
 8    1  0.1071333E+005  0.1043930E+01  0.7957747E-01            NaN
         13   -1    0    0    0    0  0.00000000000E+00  0.00000000000E+00  0.74505805969E-08  0.10566000000E+00  0.10566000000E+00 0. -1.
     999900   -1    0    0    0    0 -0.00000000000E+00 -0.00000000000E+00 -0.74505805969E-08  0.93827000000E+00  0.93827000000E+00 0. -1.
     999902    2    1    2    0    0  0.38360257334E-02  0.16213252878E-01  0.18557095864E-01  0.10189910652E+01  0.10186858399E+01 0.  0.
     999903    2    3    3    0    0 -0.65340868454E-01  0.89531446200E-01 -0.63907779609E-01  0.12940607440E+00  0.19401516641E-01 0.  0.
         14    1    1    2    0    0 -0.38360257334E-02 -0.16213252878E-01 -0.18557095864E-01  0.24938934805E-01  0.00000000000E+00 0.  1.
     999901    1    3    3    0    0  0.69176894187E-01 -0.73318193322E-01  0.82464875473E-01  0.88958499080E+00  0.88000000000E+00 0.  1.
        -11    1    4    4    0    0 -0.21399351875E-01  0.43334567371E-01 -0.21979998520E-01  0.53096124584E-01  0.51100000000E-03 0.  1.
         11    1    4    4    0    0 -0.43941516578E-01  0.46196878829E-01 -0.41927781089E-01  0.76309949815E-01  0.51100000000E-03 0. -1.
</event>
<event>
 8    1  0.1071333E+005  0.1043930E+01  0.7957747E-01            NaN
         13   -1    0    0    0    0  0.00000000000E+00  0.00000000000E+00  0.74505805969E-08  0.10566000000E+00  0.10566000000E+00 0.  1.
     999900   -1    0    0    0    0 -0.00000000000E+00 -0.00000000000E+00 -0.74505805969E-08  0.93827000000E+00  0.93827000000E+00 0.  1.
     999902    2    1    2    0    0  0.21598085511E-01  0.52974773923E-02 -0.37969033701E-02  0.10213699238E+01  0.10211207393E+01 0.  0.
     999903    2    3    3    0    0 -0.12120188707E+00  0.39600452066E-01 -0.66216983431E-02  0.12919476960E+00  0.19731912459E-01 0.  0.
         14    1    1    2    0    0 -0.21598085511E-01 -0.52974773923E-02  0.37969033701E-02  0.22560076233E-01  0.00000000000E+00 0. -1.
     999901    1    3    3    0    0  0.14279997259E+00 -0.34302974673E-01  0.28247949730E-02  0.89217515416E+00  0.88000000000E+00 0. -1.
        -11    1    4    4    0    0 -0.54521340561E-01  0.18184233099E-01 -0.12804655796E-01  0.58885169958E-01  0.51100000000E-03 0.  1.
         11    1    4    4    0    0 -0.66680546514E-01  0.21416218967E-01  0.61829574528E-02  0.70309599644E-01  0.51100000000E-03 0. -1.
</event>
<event>
 8    1  0.1071333E+005  0.1043930E+01  0.7957747E-01            NaN
         13   -1    0    0    0    0  0.00000000000E+00  0.00000000000E+00  0.74505805969E-08  0.10566000000E+00  0.10566000000E+00 0. -1.
     999900   -1    0    0    0    0 -0.00000000000E+00 -0.00000000000E+00 -0.74505805969E-08  0.93827000000E+00  0.93827000000E+00 0. -1.
     999902    2    1    2    0    0 -0.50203567514E-02  0.22148204621E-02  0.22370271196E-01  0.10208965798E+01  0.10206367073E+01 0.  0.
     999903    2    3    3    0    0 -0.10025636775E+00 -0.38670440882E-01  0.76151577250E-01  0.13318382715E+00  0.19802192388E-01 0.  0.
         14    1    1    2    0    0  0.50203567514E-02 -0.22148204621E-02 -0.22370271196E-01  0.23033420176E-01  0.00000000000E+00 0.  1.
     999901    1    3    3    0    0  0.95236010998E-01  0.40885261345E-01 -0.53781306054E-01  0.88771275268E+00  0.88000000000E+00 0. -1.
        -11    1    4    4    0    0 -0.58205985479E-01 -0.12166826279E-01  0.44170734511E-01  0.74076199386E-01  0.51100000000E-03 0.  1.
         11    1    4    4    0    0 -0.42050382271E-01 -0.26503614603E-01  0.31980842739E-01  0.59107627761E-01  0.51100000000E-03 0. -1.
</event>
<event>
 8    1  0.1071333E+005  0.1043930E+01  0.7957747E-01            NaN
         13   -1    0    0    0    0  0.00000000000E+00  0.00000000000E+00  0.74505805969E-08  0.10566000000E+00  0.10566000000E+00 0. -1.
     999900   -1    0    0    0    0 -0.00000000000E+00 -0.00000000000E+00 -0.74505805969E-08  0.93827000000E+00  0.93827000000E+00 0.  1.
     999902    2    1    2    0    0 -0.17842457856E-01  0.11992221382E-01  0.88017046152E-02  0.10206999186E+01  0.10204355380E+01 0.  0.
     999903    2    3    3    0    0 -0.65282061497E-01  0.27659665386E-02  0.11420953943E+00  0.13309276938E+00  0.20011702607E-01 0.  0.
         14    1    1    2    0    0  0.17842457856E-01 -0.11992221382E-01 -0.88017046152E-02  0.23230081363E-01  0.00000000000E+00 0.  1.
     999901    1    3    3    0    0  0.47439603641E-01  0.92262548434E-02 -0.10540783481E+00  0.88760714926E+00  0.88000000000E+00 0. -1.
        -11    1    4    4    0    0 -0.64217447539E-01  0.50544240620E-02  0.10218165352E+00  0.12079229780E+00  0.51100000000E-03 0. -1.
         11    1    4    4    0    0 -0.10646139584E-02 -0.22884575234E-02  0.12027885902E-01  0.12300471576E-01  0.51100000000E-03 0.  1.
</event>
<event>
 7    1  0.1071333E+005  0.1043930E+01  0.7957747E-01            NaN
         13   -1    0    0    0    0  0.00000000000E+00  0.00000000000E+00  0.74505805969E-08  0.10566000000E+00  0.10566000000E+00 0.  1.
     999900   -1    0    0    0    0 -0.00000000000E+00 -0.00000000000E+00 -0.74505805969E-08  0.93827000000E+00  0.93827000000E+00 0. -1.
     999903    2    1    2    0    0  0.18882695017E-01 -0.36275156042E-01  0.62975258607E-01  0.76781258174E-01  0.16032320272E-01 0.  0.
         14    1    1    2    0    0 -0.43853569948E-01  0.11044694918E-03 -0.73959609973E-01  0.85983554841E-01  0.00000000000E+00 0. -1.
     999901    1    1    2    0    0  0.24970874931E-01  0.36164709093E-01  0.10984351367E-01  0.88116518698E+00  0.88000000000E+00 0. -1.
        -11    1    3    3    0    0  0.21983057967E-02  0.11081847612E-02  0.15215853330E-02  0.29388713423E-02  0.51100000000E-03 0. -1.
         11    1    3    3    0    0  0.16684389220E-01 -0.37383340803E-01  0.61453673274E-01  0.73842386832E-01  0.51100000000E-03 0.  1.
</event>
<event>
 8    1  0.1071333E+005  0.1043930E+01  0.7957747E-01            NaN
         13   -1    0    0    0    0  0.00000000000E+00  0.00000000000E+00  0.74505805969E-08  0.10566000000E+00  0.10566000000E+00 0. -1.
     999900   -1    0    0    0    0 -0.00000000000E+00 -0.00000000000E+00 -0.74505805969E-08  0.93827000000E+00  0.93827000000E+00 0. -1.
     999902    2    1    2    0    0 -0.20566783524E-01 -0.90028258682E-02  0.60044020180E-02  0.10206900279E+01  0.10204254195E+01 0.  0.
     999903    2    3    3    0    0 -0.58734985418E-01  0.48472816989E-02  0.11680167834E+00  0.13281353114E+00  0.22880282769E-01 0.  0.
         14    1    1    2    0    0  0.20566783524E-01  0.90028258682E-02 -0.60044020180E-02  0.23239972068E-01  0.00000000000E+00 0. -1.
     999901    1    3    3    0    0  0.38168201894E-01 -0.13850107567E-01 -0.11079727632E+00  0.88787649679E+00  0.88000000000E+00 0. -1.
        -11    1    4    4    0    0 -0.49973137437E-01 -0.35051880238E-03  0.77556079666E-01  0.92263990499E-01  0.51100000000E-03 0. -1.
         11    1    4    4    0    0 -0.87618479808E-02  0.51978005013E-02  0.39245598671E-01  0.40549540641E-01  0.51100000000E-03 0.  1.
</event>
<event>
 8    1  0.1071333E+005  0.1043930E+01  0.7957747E-01            NaN
         13   -1    0    0    0    0  0.00000000000E+00  0.00000000000E+00  0.74505805969E-08  0.10566000000E+00  0.10566000000E+00 0. -1.
     999900   -1    0    0    0    0 -0.00000000000E+00 -0.00000000000E+00 -0.74505805969E-08  0.93827000000E+00  0.93827000000E+00 0. -1.
     999902    2    1    2    0    0  0.91803144629E-02  0.13547390136E-01  0.17514189871E-01  0.10199600855E+01  0.10196783901E+01 0.  0.
     999903    2    3    3    0    0 -0.95157458266E-01  0.73843760764E-01  0.48217912409E-01  0.13121673578E+00  0.19621972521E-01 0.  0.
         14    1    1    2    0    0 -0.91803144629E-02 -0.13547390136E-01 -0.17514189871E-01  0.23969914476E-01  0.00000000000E+00 0.  1.
     999901    1    3    3    0    0  0.10433777273E+00 -0.60296370627E-01 -0.30703722538E-01  0.88874334974E+00  0.88000000000E+00 0.  1.
        -11    1    4    4    0    0 -0.73299244466E-01  0.52626356642E-01  0.44220366816E-01  0.10048887807E+00  0.51100000000E-03 0.  1.
         11    1    4    4    0    0 -0.21858213799E-01  0.21217404122E-01  0.39975455923E-02  0.30727857718E-01  0.51100000000E-03 0. -1.
</event>
<event>
 8    1  0.1071333E+005  0.1043930E+01  0.7957747E-01            NaN
         13   -1    0    0    0    0  0.00000000000E+00  0.00000000000E+00  0.74505805969E-08  0.10566000000E+00  0.10566000000E+00 0. -1.
     999900   -1    0    0    0    0 -0.00000000000E+00 -0.00000000000E+00 -0.74505805969E-08  0.93827000000E+00  0.93827000000E+00 0. -1.
     999902    2    1    2    0    0  0.78760162555E-02  0.41772814658E-03  0.24111582748E-01  0.10185612288E+01  0.10182452565E+01 0.  0.
     999903    2    3    3    0    0 -0.38456583126E-01 -0.87646431473E-01  0.86732836626E-01  0.13074174975E+00  0.20248813345E-01 0.  0.
         14    1    1    2    0    0 -0.78760162555E-02 -0.41772814658E-03 -0.24111582748E-01  0.25368771186E-01  0.00000000000E+00 0.  1.
     999901    1    3    3    0    0  0.46332599381E-01  0.88064159620E-01 -0.62621253878E-01  0.88781947907E+00  0.88000000000E+00 0.  1.
        -11    1    4    4    0    0 -0.39704565356E-02 -0.20507399780E-01  0.10204495990E-01  0.23253189679E-01  0.51100000000E-03 0. -1.
         11    1    4    4    0    0 -0.34486126590E-01 -0.67139031694E-01  0.76528340636E-01  0.10748856007E+00  0.51100000000E-03 0.  1.
</event>
<event>
 8    1  0.1071333E+005  0.1043930E+01  0.7957747E-01            NaN
         13   -1    0    0    0    0  0.00000000000E+00  0.00000000000E+00  0.74505805969E-08  0.10566000000E+00  0.10566000000E+00 0.  1.
     999900   -1    0    0    0    0 -0.00000000000E+00 -0.00000000000E+00 -0.74505805969E-08  0.93827000000E+00  0.93827000000E+00 0.  1.
     999902    2    1    2    0    0  0.58841282963E-02 -0.11156977479E-01 -0.19237519511E-01  0.10209260162E+01  0.10206668151E+01 0.  0.
     999903    2    3    3    0    0 -0.11589183469E+00  0.11622531642E-02  0.54243327398E-01  0.12942134240E+00  0.19372070621E-01 0.  0.
         14    1    1    2    0    0 -0.58841282963E-02  0.11156977479E-01  0.19237519511E-01  0.23003983768E-01  0.00000000000E+00 0.  1.
     999901    1    3    3    0    0  0.12177596299E+00 -0.12319230643E-01 -0.73480846908E-01  0.89150467383E+00  0.88000000000E+00 0. -1.
        -11    1    4    4    0    0 -0.78023261294E-01 -0.26589191823E-02  0.26980444880E-01  0.82600875789E-01  0.51100000000E-03 0. -1.
         11    1    4    4    0    0 -0.37868573399E-01  0.38211723465E-02  0.27262882518E-01  0.46820466609E-01  0.51100000000E-03 0.  1.
</event>
<event>
 8    1  0.1071333E+005  0.1043930E+01  0.7957747E-01            NaN
         13   -1    0    0    0    0  0.00000000000E+00  0.00000000000E+00  0.74505805969E-08  0.10566000000E+00  0.10566000000E+00 0. -1.
     999900   -1    0    0    0    0 -0.00000000000E+00 -0.00000000000E+00 -0.74505805969E-08  0.93827000000E+00  0.93827000000E+00 0.  1.
     999902    2    1    2    0    0 -0.20265162154E-01 -0.11142436139E-01  0.41914333876E-02  0.10204268344E+01  0.10201561280E+01 0.  0.
     999903    2    3    3    0    0 -0.11812142168E+00 -0.50802618750E-01  0.31089611522E-01  0.13370687318E+00  0.19426467988E-01 0.  0.
         14    1    1    2    0    0  0.20265162154E-01  0.11142436139E-01 -0.41914333876E-02  0.23503165619E-01  0.00000000000E+00 0. -1.
     999901    1    3    3    0    0  0.97856259526E-01  0.39660182610E-01 -0.26898178134E-01  0.88671996121E+00  0.88000000000E+00 0.  1.
        -11    1    4    4    0    0 -0.59535856718E-01 -0.36048722938E-01  0.17931204761E-01  0.71873624410E-01  0.51100000000E-03 0. -1.
         11    1    4    4    0    0 -0.58585564962E-01 -0.14753895811E-01  0.13158406760E-01  0.61833248766E-01  0.51100000000E-03 0.  1.
</event>
<event>
 8    1  0.1071333E+005  0.1043930E+01  0.7957747E-01            NaN
         13   -1    0    0    0    0  0.00000000000E+00  0.00000000000E+00  0.74505805969E-08  0.10566000000E+00  0.10566000000E+00 0.  1.
     999900   -1    0    0    0    0 -0.00000000000E+00 -0.00000000000E+00 -0.74505805969E-08  0.93827000000E+00  0.93827000000E+00 0.  1.
     999902    2    1    2    0    0 -0.43990636356E-02 -0.10883809052E-01 -0.20532592085E-01  0.10202784377E+01  0.10200042618E+01 0.  0.
     999903    2    3    3    0    0  0.44081581823E-01 -0.72369030118E-01 -0.10172920197E+00  0.13307851953E+00  0.13438729486E-01 0.  0.
         14    1    1    2    0    0  0.43990636356E-02  0.10883809052E-01  0.20532592085E-01  0.23651562275E-01  0.00000000000E+00 0.  1.
     999901    1    3    3    0    0 -0.48480645459E-01  0.61485221066E-01  0.81196609883E-01  0.88719991820E+00  0.88000000000E+00 0. -1.
        -11    1    4    4    0    0  0.18380405302E-01 -0.40541440073E-01 -0.46840920312E-01  0.64620280090E-01  0.51100000000E-03 0. -1.
         11    1    4    4    0    0  0.25701176521E-01 -0.31827590045E-01 -0.54888281656E-01  0.68458239437E-01  0.51100000000E-03 0.  1.
</event>
<event>
 8    1  0.1071333E+005  0.1043930E+01  0.7957747E-01            NaN
         13   -1    0    0    0    0  0.00000000000E+00  0.00000000000E+00  0.74505805969E-08  0.10566000000E+00  0.10566000000E+00 0. -1.
     999900   -1    0    0    0    0 -0.00000000000E+00 -0.00000000000E+00 -0.74505805969E-08  0.93827000000E+00  0.93827000000E+00 0.  1.
     999902    2    1    2    0    0  0.18480131158E-01 -0.92117319631E-02  0.10969428235E-01  0.10205483916E+01  0.10202805105E+01 0.  0.
     999903    2    3    3    0    0  0.49285033109E-01  0.31973578118E-01 -0.11441965948E+00  0.13017341723E+00  0.20048338904E-01 0.  0.
         14    1    1    2    0    0 -0.18480131158E-01  0.92117319631E-02 -0.10969428235E-01  0.23381608353E-01  0.00000000000E+00 0.  1.
     999901    1    3    3    0    0 -0.30804901951E-01 -0.41185310081E-01  0.12538908771E+00  0.89037497442E+00  0.88000000000E+00 0. -1.
        -11    1    4    4    0    0  0.25499134520E-01  0.11241206949E-01 -0.35191811830E-01  0.44892040896E-01  0.51100000000E-03 0.  1.
         11    1    4    4    0    0  0.23785898589E-01  0.20732371168E-01 -0.79227847646E-01  0.85281376334E-01  0.51100000000E-03 0. -1.
</event>
<event>
 8    1  0.1071333E+005  0.1043930E+01  0.7957747E-01            NaN
         13   -1    0    0    0    0  0.00000000000E+00  0.00000000000E+00  0.74505805969E-08  0.10566000000E+00  0.10566000000E+00 0.  1.
     999900   -1    0    0    0    0 -0.00000000000E+00 -0.00000000000E+00 -0.74505805969E-08  0.93827000000E+00  0.93827000000E+00 0. -1.
     999902    2    1    2    0    0 -0.19106745490E-01  0.77206096065E-02  0.11548671087E-01  0.10203069744E+01  0.10200334674E+01 0.  0.
     999903    2    3    3    0    0  0.11347071553E+00 -0.11866697708E-01 -0.53439663603E-01  0.12779146783E+00  0.21411207456E-01 0.  0.
         14    1    1    2    0    0  0.19106745490E-01 -0.77206096065E-02 -0.11548671087E-01  0.23623025627E-01  0.00000000000E+00 0. -1.
     999901    1    3    3    0    0 -0.13257746102E+00  0.19587307315E-01  0.64988334691E-01  0.89251550655E+00  0.88000000000E+00 0.  1.
        -11    1    4    4    0    0  0.19556041643E-01 -0.51143650425E-02 -0.18355630960E-01  0.27309079140E-01  0.51100000000E-03 0.  1.
         11    1    4    4    0    0  0.93914673892E-01 -0.67523326659E-02 -0.35084032643E-01  0.10048238869E+00  0.51100000000E-03 0. -1.
</event>
<event>
 8    1  0.1071333E+005  0.1043930E+01  0.7957747E-01            NaN
         13   -1    0    0    0    0  0.00000000000E+00  0.00000000000E+00  0.74505805969E-08  0.10566000000E+00  0.10566000000E+00 0.  1.
     999900   -1    0    0    0    0 -0.00000000000E+00 -0.00000000000E+00 -0.74505805969E-08  0.93827000000E+00  0.93827000000E+00 0. -1.
     999902    2    1    2    0    0  0.12919861610E-01 -0.84631095720E-02 -0.17682526691E-01  0.10204519507E+01  0.10201818294E+01 0.  0.
     999903    2    3    3    0    0 -0.99090344351E-01 -0.71420635116E-02 -0.83173806418E-01  0.13093683611E+00  0.18885644339E-01 0.  0.
         14    1    1    2    0    0 -0.12919861610E-01  0.84631095720E-02  0.17682526691E-01  0.23478049277E-01  0.00000000000E+00 0.  1.
     999901    1    3    3    0    0  0.11201020596E+00 -0.13210460604E-02  0.65491279726E-01  0.88951511461E+00  0.88000000000E+00 0. -1.
        -11    1    4    4    0    0 -0.46919866608E-01 -0.11393331420E-01 -0.46387183210E-01  0.66957552005E-01  0.51100000000E-03 0. -1.
         11    1    4    4    0    0 -0.52170477743E-01  0.42512679083E-02 -0.36786623208E-01  0.63979284106E-01  0.51100000000E-03 0.  1.
</event>
<event>
 8    1  0.1071333E+005  0.1043930E+01  0.7957747E-01            NaN
         13   -1    0    0    0    0  0.00000000000E+00  0.00000000000E+00  0.74505805969E-08  0.10566000000E+00  0.10566000000E+00 0.  1.
     999900   -1    0    0    0    0 -0.00000000000E+00 -0.00000000000E+00 -0.74505805969E-08  0.93827000000E+00  0.93827000000E+00 0. -1.
     999902    2    1    2    0    0 -0.94641977233E-02 -0.21641967019E-01  0.33591555735E-02  0.10200714648E+01  0.10197924120E+01 0.  0.
     999903    2    3    3    0    0  0.13048444937E-01 -0.61746986202E-01 -0.11336662460E+00  0.13117319201E+00  0.19273362642E-01 0.  0.
         14    1    1    2    0    0  0.94641977233E-02  0.21641967019E-01 -0.33591555735E-02  0.23858535184E-01  0.00000000000E+00 0. -1.
     999901    1    3    3    0    0 -0.22512642661E-01  0.40105019184E-01  0.11672578018E+00  0.88889827281E+00  0.88000000000E+00 0.  1.
        -11    1    4    4    0    0  0.17811071264E-01 -0.41279098299E-01 -0.76390961782E-01  0.88639936704E-01  0.51100000000E-03 0. -1.
         11    1    4    4    0    0 -0.47626263266E-02 -0.20467887903E-01 -0.36975662820E-01  0.42533255304E-01  0.51100000000E-03 0.  1.
</event>
<event>
 8    1  0.1071333E+005  0.1043930E+01  0.7957747E-01            NaN
         13   -1    0    0    0    0  0.00000000000E+00  0.00000000000E+00  0.74505805969E-08  0.10566000000E+00  0.10566000000E+00 0. -1.
     999900   -1    0    0    0    0 -0.00000000000E+00 -0.00000000000E+00 -0.74505805969E-08  0.93827000000E+00  0.93827000000E+00 0.  1.
     999902    2    1    2    0    0  0.13165250846E-01  0.17387660338E-01  0.79881611811E-02  0.10207036081E+01  0.10204393124E+01 0.  0.
     999903    2    3    3    0    0  0.10524385812E+00 -0.29975000236E-01  0.71777158551E-01  0.13233953424E+00  0.19672862538E-01 0.  0.
         14    1    1    2    0    0 -0.13165250846E-01 -0.17387660338E-01 -0.79881611811E-02  0.23226391905E-01  0.00000000000E+00 0.  1.
     999901    1    3    3    0    0 -0.92078607279E-01  0.47362660574E-01 -0.63788997370E-01  0.88836407386E+00  0.88000000000E+00 0.  1.
        -11    1    4    4    0    0  0.83681638894E-01 -0.18218041491E-01  0.62740075015E-01  0.10616539859E+00  0.51100000000E-03 0. -1.
         11    1    4    4    0    0  0.21562219230E-01 -0.11756958746E-01  0.90370835360E-02  0.26174135648E-01  0.51100000000E-03 0.  1.
</event>
<event>
 8    1  0.1071333E+005  0.1043930E+01  0.7957747E-01            NaN
         13   -1    0    0    0    0  0.00000000000E+00  0.00000000000E+00  0.74505805969E-08  0.10566000000E+00  0.10566000000E+00 0.  1.
     999900   -1    0    0    0    0 -0.00000000000E+00 -0.00000000000E+00 -0.74505805969E-08  0.93827000000E+00  0.93827000000E+00 0. -1.
     999902    2    1    2    0    0  0.63603249229E-02  0.20199866474E-01 -0.11051086153E-01  0.10200424542E+01  0.10197627143E+01 0.  0.
     999903    2    3    3    0    0  0.33566250617E-01  0.11248167402E+00  0.57588910940E-01  0.13214181585E+00  0.19135220474E-01 0.  0.
         14    1    1    2    0    0 -0.63603249229E-02 -0.20199866474E-01  0.11051086153E-01  0.23887545790E-01  0.00000000000E+00 0. -1.
     999901    1    3    3    0    0 -0.27205925694E-01 -0.92281807544E-01 -0.68639997094E-01  0.88790063836E+00  0.88000000000E+00 0.  1.
        -11    1    4    4    0    0  0.12235556218E-01  0.39942884363E-01  0.10539759409E-01  0.43087010764E-01  0.51100000000E-03 0.  1.
         11    1    4    4    0    0  0.21330694398E-01  0.72538789656E-01  0.47049151531E-01  0.89054805087E-01  0.51100000000E-03 0. -1.
</event>
<event>
 8    1  0.1071333E+005  0.1043930E+01  0.7957747E-01            NaN
         13   -1    0    0    0    0  0.00000000000E+00  0.00000000000E+00  0.74505805969E-08  0.10566000000E+00  0.10566000000E+00 0. -1.
     999900   -1    0    0    0    0 -0.00000000000E+00 -0.00000000000E+00 -0.74505805969E-08  0.93827000000E+00  0.93827000000E+00 0. -1.
     999902    2    1    2    0    0  0.26278667914E-02 -0.17517478198E-01  0.15886307434E-01  0.10201362510E+01  0.10198587295E+01 0.  0.
     999903    2    3    3    0    0 -0.76075416113E-01 -0.76631790309E-01  0.74474154358E-01  0.13271231376E+00  0.20155851065E-01 0.  0.
         14    1    1    2    0    0 -0.26278667914E-02  0.17517478198E-01 -0.15886307434E-01  0.23793748973E-01  0.00000000000E+00 0.  1.
     999901    1    3    3    0    0  0.78703282905E-01  0.59114312111E-01 -0.58587846924E-01  0.88742393727E+00  0.88000000000E+00 0. -1.
        -11    1    4    4    0    0 -0.26722455901E-01 -0.31621525897E-01  0.17627336896E-01  0.44999940849E-01  0.51100000000E-03 0. -1.
         11    1    4    4    0    0 -0.49352960213E-01 -0.45010264412E-01  0.56846817462E-01  0.87712372906E-01  0.51100000000E-03 0.  1.
</event>
<event>
 8    1  0.1071333E+005  0.1043930E+01  0.7957747E-01            NaN
         13   -1    0    0    0    0  0.00000000000E+00  0.00000000000E+00  0.74505805969E-08  0.10566000000E+00  0.10566000000E+00 0. -1.
     999900   -1    0    0    0    0 -0.00000000000E+00 -0.00000000000E+00 -0.74505805969E-08  0.93827000000E+00  0.93827000000E+00 0.  1.
     999902    2    1    2    0    0  0.14025160688E-01  0.57836858051E-02  0.17831822448E-01  0.10205178227E+01  0.10202492325E+01 0.  0.
     999903    2    3    3    0    0 -0.77487820213E-01 -0.13911142085E-01  0.10329802720E+00  0.13143572072E+00  0.20173846984E-01 0.  0.
         14    1    1    2    0    0 -0.14025160688E-01 -0.57836858051E-02 -0.17831822448E-01  0.23412177294E-01  0.00000000000E+00 0.  1.
     999901    1    3    3    0    0  0.91512980901E-01  0.19694827890E-01 -0.85466204751E-01  0.88908210199E+00  0.88000000000E+00 0.  1.
        -11    1    4    4    0    0 -0.48872343984E-01 -0.12469451811E-01  0.50578996924E-01  0.71431710646E-01  0.51100000000E-03 0.  1.
         11    1    4    4    0    0 -0.28615476229E-01 -0.14416902742E-02  0.52719030276E-01  0.60004010073E-01  0.51100000000E-03 0. -1.
</event>
<event>
 8    1  0.1071333E+005  0.1043930E+01  0.7957747E-01            NaN
         13   -1    0    0    0    0  0.00000000000E+00  0.00000000000E+00  0.74505805969E-08  0.10566000000E+00  0.10566000000E+00 0. -1.
     999900   -1    0    0    0    0 -0.00000000000E+00 -0.00000000000E+00 -0.74505805969E-08  0.93827000000E+00  0.93827000000E+00 0. -1.
     999902    2    1    2    0    0  0.16358698409E-02 -0.29631489146E-02 -0.23303320461E-01  0.10203821537E+01  0.10201104050E+01 0.  0.
     999903    2    3    3    0    0  0.26836972860E-01 -0.11735722866E+00  0.44848009718E-01  0.13000824072E+00  0.19946339276E-01 0.  0.
         14    1    1    2    0    0 -0.16358698409E-02  0.29631489146E-02  0.23303320461E-01  0.23547846316E-01  0.00000000000E+00 0. -1.
     999901    1    3    3    0    0 -0.25201103019E-01  0.11439407974E+00 -0.68151330179E-01  0.89037391296E+00  0.88000000000E+00 0. -1.
        -11    1    4    4    0    0  0.10161677408E-01 -0.76419902456E-01  0.21606813875E-01  0.80064828146E-01  0.51100000000E-03 0. -1.
         11    1    4    4    0    0  0.16675295453E-01 -0.40937326200E-01  0.23241195843E-01  0.49943412579E-01  0.51100000000E-03 0.  1.
</event>
<event>
 7    1  0.1071333E+005  0.1043930E+01  0.7957747E-01            NaN
         13   -1    0    0    0    0  0.00000000000E+00  0.00000000000E+00  0.74505805969E-08  0.10566000000E+00  0.10566000000E+00 0. -1.
     999900   -1    0    0    0    0 -0.00000000000E+00 -0.00000000000E+00 -0.74505805969E-08  0.93827000000E+00  0.93827000000E+00 0.  1.
     999903    2    1    2    0    0  0.21592302446E-01 -0.24253196155E-01  0.68757587341E-01  0.78756392844E-01  0.20506548907E-01 0.  0.
         14    1    1    2    0    0 -0.59002925080E-01 -0.90282747772E-03  0.48328525272E-01  0.76274547658E-01  0.00000000000E+00 0. -1.
     999901    1    1    2    0    0  0.37410622634E-01  0.25156023633E-01 -0.11708611261E+00  0.88889905950E+00  0.88000000000E+00 0.  1.
        -11    1    3    3    0    0 -0.24776958179E-02 -0.76651919511E-02  0.81777460586E-02  0.11490465431E-01  0.51100000000E-03 0. -1.
         11    1    3    3    0    0  0.24069998264E-01 -0.16588004204E-01  0.60579841283E-01  0.67265927413E-01  0.51100000000E-03 0.  1.
</event>
<event>
 8    1  0.1071333E+005  0.1043930E+01  0.7957747E-01            NaN
         13   -1    0    0    0    0  0.00000000000E+00  0.00000000000E+00  0.74505805969E-08  0.10566000000E+00  0.10566000000E+00 0. -1.
     999900   -1    0    0    0    0 -0.00000000000E+00 -0.00000000000E+00 -0.74505805969E-08  0.93827000000E+00  0.93827000000E+00 0. -1.
     999902    2    1    2    0    0  0.68133830951E-03  0.54113500244E-02 -0.23867831183E-01  0.10194469386E+01  0.10191529033E+01 0.  0.
     999903    2    3    3    0    0 -0.84054922044E-01 -0.80720265530E-01  0.50405426503E-01  0.12809100192E+00  0.16899898367E-01 0.  0.
         14    1    1    2    0    0 -0.68133830951E-03 -0.54113500244E-02  0.23867831183E-01  0.24483061417E-01  0.00000000000E+00 0. -1.
     999901    1    3    3    0    0  0.84736260354E-01  0.86131615554E-01 -0.74273257686E-01  0.89135593666E+00  0.88000000000E+00 0. -1.
        -11    1    4    4    0    0 -0.44409847355E-01 -0.32070303898E-01  0.19637092546E-01  0.58194634279E-01  0.51100000000E-03 0. -1.
         11    1    4    4    0    0 -0.39645074689E-01 -0.48649961632E-01  0.30768333957E-01  0.69896367640E-01  0.51100000000E-03 0.  1.
</event>
<event>
 8    1  0.1071333E+005  0.1043930E+01  0.7957747E-01            NaN
         13   -1    0    0    0    0  0.00000000000E+00  0.00000000000E+00  0.74505805969E-08  0.10566000000E+00  0.10566000000E+00 0.  1.
     999900   -1    0    0    0    0 -0.00000000000E+00 -0.00000000000E+00 -0.74505805969E-08  0.93827000000E+00  0.93827000000E+00 0. -1.
     999902    2    1    2    0    0 -0.55110257679E-02 -0.12853450401E-01 -0.19679177328E-01  0.10197876593E+01  0.10195018477E+01 0.  0.
     999903    2    3    3    0    0 -0.42346484283E-01 -0.10782948592E+00 -0.61944787631E-01  0.13290340526E+00  0.20142880827E-01 0.  0.
         14    1    1    2    0    0  0.55110257679E-02  0.12853450401E-01  0.19679177328E-01  0.24142340660E-01  0.00000000000E+00 0.  1.
     999901    1    3    3    0    0  0.36835458515E-01  0.94976035523E-01  0.42265610303E-01  0.88688425408E+00  0.88000000000E+00 0. -1.
        -11    1    4    4    0    0 -0.22868041328E-01 -0.60371068704E-01 -0.23151513721E-01  0.68584742904E-01  0.51100000000E-03 0. -1.
         11    1    4    4    0    0 -0.19478442955E-01 -0.47458417220E-01 -0.38793273910E-01  0.64318662351E-01  0.51100000000E-03 0.  1.
</event>
<event>
 8    1  0.1071333E+005  0.1043930E+01  0.7957747E-01            NaN
         13   -1    0    0    0    0  0.00000000000E+00  0.00000000000E+00  0.74505805969E-08  0.10566000000E+00  0.10566000000E+00 0.  1.
     999900   -1    0    0    0    0 -0.00000000000E+00 -0.00000000000E+00 -0.74505805969E-08  0.93827000000E+00  0.93827000000E+00 0.  1.
     999902    2    1    2    0    0  0.51158152558E-02 -0.22431472529E-01  0.55425871329E-02  0.10202643541E+01  0.10199898477E+01 0.  0.
     999903    2    3    3    0    0 -0.11649028755E-01 -0.11267610424E+00 -0.65802205635E-01  0.13261846014E+00  0.20642707301E-01 0.  0.
         14    1    1    2    0    0 -0.51158152558E-02  0.22431472529E-01 -0.55425871329E-02  0.23665645938E-01  0.00000000000E+00 0. -1.
     999901    1    3    3    0    0  0.16764844011E-01  0.90244631712E-01  0.71344792768E-01  0.88764589393E+00  0.88000000000E+00 0.  1.
        -11    1    4    4    0    0 -0.35586252779E-02 -0.93217593006E-02 -0.12636705063E-01  0.16109203772E-01  0.51100000000E-03 0. -1.
         11    1    4    4    0    0 -0.80904034775E-02 -0.10335434494E+00 -0.53165500572E-01  0.11650925636E+00  0.51100000000E-03 0.  1.
</event>
<event>
 8    1  0.1071333E+005  0.1043930E+01  0.7957747E-01            NaN
         13   -1    0    0    0    0  0.00000000000E+00  0.00000000000E+00  0.74505805969E-08  0.10566000000E+00  0.10566000000E+00 0. -1.
     999900   -1    0    0    0    0 -0.00000000000E+00 -0.00000000000E+00 -0.74505805969E-08  0.93827000000E+00  0.93827000000E+00 0. -1.
     999902    2    1    2    0    0  0.79340518944E-02  0.21320764346E-01 -0.53774801418E-02  0.10205539126E+01  0.10202861593E+01 0.  0.
     999903    2    3    3    0    0  0.10175597065E+00 -0.78341605473E-01 -0.45645497122E-02  0.12997219185E+00  0.19500021218E-01 0.  0.
         14    1    1    2    0    0 -0.79340518944E-02 -0.21320764346E-01  0.53774801418E-02  0.23376087450E-01  0.00000000000E+00 0.  1.
     999901    1    3    3    0    0 -0.93821918758E-01  0.99662369820E-01 -0.81293042956E-03  0.89058172070E+00  0.88000000000E+00 0.  1.
        -11    1    4    4    0    0  0.81152622138E-02 -0.56462368388E-03  0.13225682873E-03  0.81519870935E-02  0.51100000000E-03 0. -1.
         11    1    4    4    0    0  0.93640708439E-01 -0.77776981789E-01 -0.46968065410E-02  0.12182020475E+00  0.51100000000E-03 0.  1.
</event>
<event>
 8    1  0.1071333E+005  0.1043930E+01  0.7957747E-01            NaN
         13   -1    0    0    0    0  0.00000000000E+00  0.00000000000E+00  0.74505805969E-08  0.10566000000E+00  0.10566000000E+00 0. -1.
     999900   -1    0    0    0    0 -0.00000000000E+00 -0.00000000000E+00 -0.74505805969E-08  0.93827000000E+00  0.93827000000E+00 0. -1.
     999902    2    1    2    0    0  0.14065632719E-02 -0.15388757458E-01 -0.19180654090E-01  0.10192989268E+01  0.10190012818E+01 0.  0.
     999903    2    3    3    0    0 -0.31035393344E-01 -0.55266245052E-01  0.10973306917E+00  0.12842214372E+00  0.20816989376E-01 0.  0.
         14    1    1    2    0    0 -0.14065632719E-02  0.15388757458E-01  0.19180654090E-01  0.24631073214E-01  0.00000000000E+00 0. -1.
     999901    1    3    3    0    0  0.32441956616E-01  0.39877487594E-01 -0.12891372326E+00  0.89087678307E+00  0.88000000000E+00 0. -1.
        -11    1    4    4    0    0 -0.57573804158E-02 -0.30796591965E-01  0.56612684423E-01  0.64705754493E-01  0.51100000000E-03 0.  1.
         11    1    4    4    0    0 -0.25278012928E-01 -0.24469653087E-01  0.53120384742E-01  0.63716389225E-01  0.51100000000E-03 0. -1.
</event>
<event>
 8    1  0.1078657E+005  0.1043930E+01  0.7957747E-01            NaN
         13   -1    0    0    0    0  0.00000000000E+00  0.00000000000E+00  0.74505805969E-08  0.10566000000E+00  0.10566000000E+00 0. -1.
     999900   -1    0    0    0    0 -0.00000000000E+00 -0.00000000000E+00 -0.74505805969E-08  0.93827000000E+00  0.93827000000E+00 0. -1.
     999902    2    1    2    0    0  0.10079573936E-01  0.19429543340E-01  0.66124613540E-02  0.10210645324E+01  0.10208084784E+01 0.  0.
     999903    2    3    3    0    0  0.43026546732E-01 -0.75721339520E-01  0.95627369489E-01  0.13086070885E+00  0.19872753783E-01 0.  0.
         14    1    1    2    0    0 -0.10079573936E-01 -0.19429543340E-01 -0.66124613540E-02  0.22865467638E-01  0.00000000000E+00 0.  1.
     999901    1    3    3    0    0 -0.32946972796E-01  0.95150882860E-01 -0.89014908135E-01  0.89020382351E+00  0.88000000000E+00 0. -1.
        -11    1    4    4    0    0  0.10365686283E-01 -0.35321239739E-01  0.46987535906E-01  0.59691934801E-01  0.51100000000E-03 0. -1.
         11    1    4    4    0    0  0.32660860449E-01 -0.40400099780E-01  0.48639833583E-01  0.71168774048E-01  0.51100000000E-03 0.  1.
</event>
<event>
 8    1  0.1071333E+005  0.1043930E+01  0.7957747E-01            NaN
         13   -1    0    0    0    0  0.00000000000E+00  0.00000000000E+00  0.74505805969E-08  0.10566000000E+00  0.10566000000E+00 0. -1.
     999900   -1    0    0    0    0 -0.00000000000E+00 -0.00000000000E+00 -0.74505805969E-08  0.93827000000E+00  0.93827000000E+00 0. -1.
     999902    2    1    2    0    0 -0.27215060826E-02  0.18297655502E-01 -0.13829652875E-01  0.10208330285E+01  0.10205717035E+01 0.  0.
     999903    2    3    3    0    0 -0.77906951399E-01  0.35108873514E-01 -0.10117346468E+00  0.13315943441E+00  0.13901041096E-01 0.  0.
         14    1    1    2    0    0  0.27215060826E-02 -0.18297655502E-01  0.13829652875E-01  0.23096971465E-01  0.00000000000E+00 0. -1.
     999901    1    3    3    0    0  0.75185445316E-01 -0.16811218012E-01  0.87343811800E-01  0.88767359412E+00  0.88000000000E+00 0.  1.
        -11    1    4    4    0    0 -0.47752054749E-01  0.28670904076E-01 -0.66961852862E-01  0.87100116721E-01  0.51100000000E-03 0. -1.
         11    1    4    4    0    0 -0.30154896650E-01  0.64379694381E-02 -0.34211611814E-01  0.46059317693E-01  0.51100000000E-03 0.  1.
</event>
<event>
 8    1  0.1071333E+005  0.1043930E+01  0.7957747E-01            NaN
         13   -1    0    0    0    0  0.00000000000E+00  0.00000000000E+00  0.74505805969E-08  0.10566000000E+00  0.10566000000E+00 0.  1.
     999900   -1    0    0    0    0 -0.00000000000E+00 -0.00000000000E+00 -0.74505805969E-08  0.93827000000E+00  0.93827000000E+00 0. -1.
     999902    2    1    2    0    0  0.77217732275E-02 -0.18406105011E-01  0.12175724578E-01  0.10205492654E+01  0.10202814045E+01 0.  0.
     999903    2    3    3    0    0 -0.10526932461E+00  0.21990393436E-01 -0.68095737280E-01  0.12878563475E+00  0.19583211561E-01 0.  0.
         14    1    1    2    0    0 -0.77217732275E-02  0.18406105011E-01 -0.12175724578E-01  0.23380734643E-01  0.00000000000E+00 0.  1.
     999901    1    3    3    0    0  0.11299109784E+00 -0.40396498447E-01  0.80271461858E-01  0.89176363060E+00  0.88000000000E+00 0.  1.
        -11    1    4    4    0    0 -0.39386402178E-01 -0.13479057716E-02 -0.24824615133E-01  0.46579267534E-01  0.51100000000E-03 0. -1.
         11    1    4    4    0    0 -0.65882922436E-01  0.23338299208E-01 -0.43271122147E-01  0.82206367220E-01  0.51100000000E-03 0.  1.
</event>
<event>
 8    1  0.1071333E+005  0.1043930E+01  0.7957747E-01            NaN
         13   -1    0    0    0    0  0.00000000000E+00  0.00000000000E+00  0.74505805969E-08  0.10566000000E+00  0.10566000000E+00 0.  1.
     999900   -1    0    0    0    0 -0.00000000000E+00 -0.00000000000E+00 -0.74505805969E-08  0.93827000000E+00  0.93827000000E+00 0. -1.
     999902    2    1    2    0    0 -0.12528424800E-02  0.24498987047E-01 -0.12088148391E-02  0.10193692343E+01  0.10190733068E+01 0.  0.
     999903    2    3    3    0    0 -0.39532147607E-01  0.17233442518E-01 -0.12123199176E+00  0.13036774025E+00  0.20946828833E-01 0.  0.
         14    1    1    2    0    0  0.12528424800E-02 -0.24498987047E-01  0.12088148391E-02  0.24560765744E-01  0.00000000000E+00 0.  1.
     999901    1    3    3    0    0  0.38279305127E-01  0.72655445293E-02  0.12002317692E+00  0.88900149400E+00  0.88000000000E+00 0.  1.
        -11    1    4    4    0    0 -0.14223039279E-01  0.40411023171E-02 -0.18201473192E-01  0.23455918265E-01  0.51100000000E-03 0. -1.
         11    1    4    4    0    0 -0.25309108328E-01  0.13192340201E-01 -0.10303051857E+00  0.10691182199E+00  0.51100000000E-03 0.  1.
</event>
<event>
 8    1  0.1071333E+005  0.1043930E+01  0.7957747E-01            NaN
         13   -1    0    0    0    0  0.00000000000E+00  0.00000000000E+00  0.74505805969E-08  0.10566000000E+00  0.10566000000E+00 0.  1.
     999900   -1    0    0    0    0 -0.00000000000E+00 -0.00000000000E+00 -0.74505805969E-08  0.93827000000E+00  0.93827000000E+00 0.  1.
     999902    2    1    2    0    0 -0.76643869529E-02  0.68974854775E-02  0.22357913908E-01  0.10193089836E+01  0.10190115846E+01 0.  0.
     999903    2    3    3    0    0  0.44894289739E-01  0.11326621318E+00  0.42171775905E-01  0.13112583254E+00  0.23891274122E-01 0.  0.
         14    1    1    2    0    0  0.76643869529E-02 -0.68974854775E-02 -0.22357913908E-01  0.24621016380E-01  0.00000000000E+00 0. -1.
     999901    1    3    3    0    0 -0.52558676692E-01 -0.10636872770E+00 -0.19813861997E-01  0.88818315108E+00  0.88000000000E+00 0. -1.
        -11    1    4    4    0    0  0.13837163475E-01  0.56790065081E-01  0.10803618661E-01  0.59443737114E-01  0.51100000000E-03 0.  1.
         11    1    4    4    0    0  0.31057126264E-01  0.56476148095E-01  0.31368157244E-01  0.71682095430E-01  0.51100000000E-03 0. -1.
</event>
<event>
 8    1  0.1071333E+005  0.1043930E+01  0.7957747E-01            NaN
         13   -1    0    0    0    0  0.00000000000E+00  0.00000000000E+00  0.74505805969E-08  0.10566000000E+00  0.10566000000E+00 0. -1.
     999900   -1    0    0    0    0 -0.00000000000E+00 -0.00000000000E+00 -0.74505805969E-08  0.93827000000E+00  0.93827000000E+00 0.  1.
     999902    2    1    2    0    0 -0.21791503020E-01 -0.85211339967E-02 -0.39967934989E-02  0.10201928206E+01  0.10199166326E+01 0.  0.
     999903    2    3    3    0    0 -0.69899319408E-01  0.30483209975E-01  0.10503965501E+00  0.13130326167E+00  0.19800920562E-01 0.  0.
         14    1    1    2    0    0  0.21791503020E-01  0.85211339967E-02  0.39967934989E-02  0.23737179419E-01  0.00000000000E+00 0. -1.
     999901    1    3    3    0    0  0.48107816388E-01 -0.39004343972E-01 -0.10903644851E+00  0.88888955892E+00  0.88000000000E+00 0.  1.
        -11    1    4    4    0    0 -0.31926126527E-01  0.17538529156E-01  0.34622973366E-01  0.50258222867E-01  0.51100000000E-03 0. -1.
         11    1    4    4    0    0 -0.37973192881E-01  0.12944680819E-01  0.70416681644E-01  0.81045038799E-01  0.51100000000E-03 0.  1.
</event>
<event>
 8    1  0.1071333E+005  0.1043930E+01  0.7957747E-01            NaN
         13   -1    0    0    0    0  0.00000000000E+00  0.00000000000E+00  0.74505805969E-08  0.10566000000E+00  0.10566000000E+00 0.  1.
     999900   -1    0    0    0    0 -0.00000000000E+00 -0.00000000000E+00 -0.74505805969E-08  0.93827000000E+00  0.93827000000E+00 0.  1.
     999902    2    1    2    0    0 -0.59280385906E-02 -0.14511010100E-01 -0.17337798849E-01  0.10205567177E+01  0.10202890295E+01 0.  0.
     999903    2    3    3    0    0  0.77652972850E-01 -0.92846970744E-01  0.46136226439E-01  0.13086505198E+00  0.18616290459E-01 0.  0.
         14    1    1    2    0    0  0.59280385906E-02  0.14511010100E-01  0.17337798849E-01  0.23373282281E-01  0.00000000000E+00 0.  1.
     999901    1    3    3    0    0 -0.83581011441E-01  0.78335960644E-01 -0.63474025287E-01  0.88969166574E+00  0.88000000000E+00 0.  1.
        -11    1    4    4    0    0  0.48023840027E-01 -0.42988329080E-01  0.24965044890E-01  0.69121633628E-01  0.51100000000E-03 0. -1.
         11    1    4    4    0    0  0.29629132823E-01 -0.49858641663E-01  0.21171181549E-01  0.61743418350E-01  0.51100000000E-03 0.  1.
</event>
<event>
 8    1  0.1071333E+005  0.1043930E+01  0.7957747E-01            NaN
         13   -1    0    0    0    0  0.00000000000E+00  0.00000000000E+00  0.74505805969E-08  0.10566000000E+00  0.10566000000E+00 0.  1.
     999900   -1    0    0    0    0 -0.00000000000E+00 -0.00000000000E+00 -0.74505805969E-08  0.93827000000E+00  0.93827000000E+00 0.  1.
     999902    2    1    2    0    0 -0.24121647108E-02  0.14310111449E-01  0.13375981551E-01  0.10241938730E+01  0.10240036986E+01 0.  0.
     999903    2    3    3    0    0  0.30166440622E-01 -0.10978234645E+00 -0.63295901473E-01  0.13159156438E+00  0.18649153845E-01 0.  0.
         14    1    1    2    0    0  0.24121647108E-02 -0.14310111449E-01 -0.13375981551E-01  0.19736127045E-01  0.00000000000E+00 0. -1.
     999901    1    3    3    0    0 -0.32578605332E-01  0.12409245790E+00  0.76671883024E-01  0.89260230858E+00  0.88000000000E+00 0. -1.
        -11    1    4    4    0    0  0.12989048187E-01 -0.35804262749E-01 -0.30792976219E-01  0.48980905557E-01  0.51100000000E-03 0. -1.
         11    1    4    4    0    0  0.17177392434E-01 -0.73978083705E-01 -0.32502925254E-01  0.82610658819E-01  0.51100000000E-03 0.  1.
</event>
<event>
 7    1  0.1071333E+005  0.1043930E+01  0.7957747E-01            NaN
         13   -1    0    0    0    0  0.00000000000E+00  0.00000000000E+00  0.74505805969E-08  0.10566000000E+00  0.10566000000E+00 0.  1.
     999900   -1    0    0    0    0 -0.00000000000E+00 -0.00000000000E+00 -0.74505805969E-08  0.93827000000E+00  0.93827000000E+00 0.  1.
     999902    2    1    2    0    0  0.15636426012E-02 -0.12183447365E-01 -0.20737314028E-01  0.10198277685E+01  0.10195429172E+01 0.  0.
         14    1    1    2    0    0 -0.15636426012E-02  0.12183447365E-01  0.20737314028E-01  0.24102231453E-01  0.00000000000E+00 0.  1.
     999901    1    3    3    0    0  0.69924612137E-01 -0.11376421880E+00 -0.15581640737E-01  0.89021038883E+00  0.88000000000E+00 0.  1.
        -11    1    3    3    0    0 -0.26588931151E-01  0.63128324840E-01  0.13567350223E-01  0.69831875028E-01  0.51100000000E-03 0. -1.
         11    1    3    3    0    0 -0.41772038384E-01  0.38452446594E-01 -0.18723023515E-01  0.59785504684E-01  0.51100000000E-03 0.  1.
</event>
<event>
 8    1  0.1071333E+005  0.1043930E+01  0.7957747E-01            NaN
         13   -1    0    0    0    0  0.00000000000E+00  0.00000000000E+00  0.74505805969E-08  0.10566000000E+00  0.10566000000E+00 0. -1.
     999900   -1    0    0    0    0 -0.00000000000E+00 -0.00000000000E+00 -0.74505805969E-08  0.93827000000E+00  0.93827000000E+00 0.  1.
     999902    2    1    2    0    0  0.83364393303E-02 -0.16388696169E-01 -0.14746440097E-01  0.10203600386E+01  0.10200877734E+01 0.  0.
     999903    2    3    3    0    0  0.12617970322E+00  0.14848923055E-01 -0.29130047351E-01  0.13183895738E+00  0.19777335603E-01 0.  0.
         14    1    1    2    0    0 -0.83364393303E-02  0.16388696169E-01  0.14746440097E-01  0.23569961357E-01  0.00000000000E+00 0. -1.
     999901    1    3    3    0    0 -0.11784326389E+00 -0.31237619223E-01  0.14383607254E-01  0.88852108127E+00  0.88000000000E+00 0. -1.
        -11    1    4    4    0    0  0.79795891080E-01  0.11523086508E-01 -0.88697502786E-02  0.81111647418E-01  0.51100000000E-03 0.  1.
         11    1    4    4    0    0  0.46383812137E-01  0.33258365463E-02 -0.20260297073E-01  0.50727309958E-01  0.51100000000E-03 0. -1.
</event>
<event>
 8    1  0.1071333E+005  0.1043930E+01  0.7957747E-01            NaN
         13   -1    0    0    0    0  0.00000000000E+00  0.00000000000E+00  0.74505805969E-08  0.10566000000E+00  0.10566000000E+00 0.  1.
     999900   -1    0    0    0    0 -0.00000000000E+00 -0.00000000000E+00 -0.74505805969E-08  0.93827000000E+00  0.93827000000E+00 0. -1.
     999902    2    1    2    0    0  0.19361828833E-02  0.23423404631E-01  0.10298591411E-01  0.10182694140E+01  0.10179460368E+01 0.  0.
     999903    2    3    3    0    0 -0.20542329806E-01 -0.96073245817E-01  0.77870131062E-01  0.12734256741E+00  0.22367751078E-01 0.  0.
         14    1    1    2    0    0 -0.19361828833E-02 -0.23423404631E-01 -0.10298591411E-01  0.25660585997E-01  0.00000000000E+00 0. -1.
     999901    1    3    3    0    0  0.22478512689E-01  0.11949665045E+00 -0.67571539651E-01  0.89092684659E+00  0.88000000000E+00 0. -1.
        -11    1    4    4    0    0 -0.47635932018E-02 -0.67797797910E-01  0.47273866680E-01  0.82790777346E-01  0.51100000000E-03 0. -1.
         11    1    4    4    0    0 -0.15778736604E-01 -0.28275447907E-01  0.30596264382E-01  0.44551790068E-01  0.51100000000E-03 0.  1.
</event>
<event>
 8    1  0.1071333E+005  0.1043930E+01  0.7957747E-01            NaN
         13   -1    0    0    0    0  0.00000000000E+00  0.00000000000E+00  0.74505805969E-08  0.10566000000E+00  0.10566000000E+00 0.  1.
     999900   -1    0    0    0    0 -0.00000000000E+00 -0.00000000000E+00 -0.74505805969E-08  0.93827000000E+00  0.93827000000E+00 0. -1.
     999902    2    1    2    0    0  0.20597631143E-02  0.13837951311E-01 -0.19195895855E-01  0.10201768120E+01  0.10199002470E+01 0.  0.
     999903    2    3    3    0    0 -0.59235525086E-01 -0.94711420544E-01 -0.64384740359E-01  0.13024304476E+00  0.18405306369E-01 0.  0.
         14    1    1    2    0    0 -0.20597631143E-02 -0.13837951311E-01  0.19195895855E-01  0.23753187960E-01  0.00000000000E+00 0.  1.
     999901    1    3    3    0    0  0.61295288201E-01  0.10854937185E+00  0.45188844504E-01  0.88993376728E+00  0.88000000000E+00 0.  1.
        -11    1    4    4    0    0 -0.18640823982E-01 -0.23428755261E-01 -0.26073585975E-01  0.39704910255E-01  0.51100000000E-03 0. -1.
         11    1    4    4    0    0 -0.40594701104E-01 -0.71282665283E-01 -0.38311154384E-01  0.90538134501E-01  0.51100000000E-03 0.  1.
</event>
<event>
 8    1  0.1071333E+005  0.1043930E+01  0.7957747E-01            NaN
         13   -1    0    0    0    0  0.00000000000E+00  0.00000000000E+00  0.74505805969E-08  0.10566000000E+00  0.10566000000E+00 0. -1.
     999900   -1    0    0    0    0 -0.00000000000E+00 -0.00000000000E+00 -0.74505805969E-08  0.93827000000E+00  0.93827000000E+00 0.  1.
     999902    2    1    2    0    0 -0.90613955007E-02  0.20816235825E-01 -0.48657263755E-02  0.10207114760E+01  0.10204473614E+01 0.  0.
     999903    2    3    3    0    0  0.71820753423E-01 -0.84890320483E-01  0.61032309505E-01  0.12826632410E+00  0.19045208353E-01 0.  0.
         14    1    1    2    0    0  0.90613955007E-02 -0.20816235825E-01  0.48657263755E-02  0.23218523973E-01  0.00000000000E+00 0.  1.
     999901    1    3    3    0    0 -0.80882148923E-01  0.10570655631E+00 -0.65898035881E-01  0.89244515192E+00  0.88000000000E+00 0. -1.
        -11    1    4    4    0    0  0.40774214791E-01 -0.35407894922E-01  0.23984784075E-01  0.59091341182E-01  0.51100000000E-03 0.  1.
         11    1    4    4    0    0  0.31046538632E-01 -0.49482425561E-01  0.37047525430E-01  0.69174982920E-01  0.51100000000E-03 0. -1.
</event>
<event>
 8    1  0.1071333E+005  0.1043930E+01  0.7957747E-01            NaN
         13   -1    0    0    0    0  0.00000000000E+00  0.00000000000E+00  0.74505805969E-08  0.10566000000E+00  0.10566000000E+00 0.  1.
     999900   -1    0    0    0    0 -0.00000000000E+00 -0.00000000000E+00 -0.74505805969E-08  0.93827000000E+00  0.93827000000E+00 0.  1.
     999902    2    1    2    0    0 -0.50900467431E-02 -0.90796530497E-03 -0.23416433162E-01  0.10199495430E+01  0.10196675968E+01 0.  0.
     999903    2    3    3    0    0 -0.12812970235E+00 -0.17025698891E-01  0.13640191508E-02  0.13089802085E+00  0.20623682165E-01 0.  0.
         14    1    1    2    0    0  0.50900467431E-02  0.90796530497E-03  0.23416433162E-01  0.23980457019E-01  0.00000000000E+00 0.  1.
     999901    1    3    3    0    0  0.12303965561E+00  0.16117733586E-01 -0.24780452312E-01  0.88905152213E+00  0.88000000000E+00 0. -1.
        -11    1    4    4    0    0 -0.74328832172E-01 -0.27545558912E-02  0.81295978687E-02  0.74824557150E-01  0.51100000000E-03 0.  1.
         11    1    4    4    0    0 -0.53800870181E-01 -0.14271143000E-01 -0.67655787179E-02  0.56073463699E-01  0.51100000000E-03 0. -1.
</event>
<event>
 8    1  0.1110344E+005  0.1043930E+01  0.7957747E-01            NaN
         13   -1    0    0    0    0  0.00000000000E+00  0.00000000000E+00  0.74505805969E-08  0.10566000000E+00  0.10566000000E+00 0.  1.
     999900   -1    0    0    0    0 -0.00000000000E+00 -0.00000000000E+00 -0.74505805969E-08  0.93827000000E+00  0.93827000000E+00 0. -1.
     999902    2    1    2    0    0  0.21832837058E-01 -0.12416171123E-02 -0.95243426688E-02  0.10200777990E+01  0.10197988962E+01 0.  0.
     999903    2    3    3    0    0  0.11141999587E-01 -0.12435441638E+00 -0.35257368866E-01  0.13107091269E+00  0.18663790236E-01 0.  0.
         14    1    1    2    0    0 -0.21832837058E-01  0.12416171123E-02  0.95243426688E-02  0.23852200954E-01  0.00000000000E+00 0.  1.
     999901    1    3    3    0    0  0.10690837471E-01  0.12311279927E+00  0.25733026198E-01  0.88900688636E+00  0.88000000000E+00 0.  1.
        -11    1    4    4    0    0  0.15034286972E-01 -0.74793356076E-01 -0.17446902157E-01  0.78260663259E-01  0.51100000000E-03 0.  1.
         11    1    4    4    0    0 -0.38922873847E-02 -0.49561060305E-01 -0.17810466710E-01  0.52810249432E-01  0.51100000000E-03 0. -1.
</event>
<event>
 7    1  0.1071333E+005  0.1043930E+01  0.7957747E-01            NaN
         13   -1    0    0    0    0  0.00000000000E+00  0.00000000000E+00  0.74505805969E-08  0.10566000000E+00  0.10566000000E+00 0.  1.
     999900   -1    0    0    0    0 -0.00000000000E+00 -0.00000000000E+00 -0.74505805969E-08  0.93827000000E+00  0.93827000000E+00 0. -1.
     999903    2    1    2    0    0 -0.74686842227E-01 -0.29408138543E-01 -0.11435908734E-01  0.83609360574E-01  0.20415243142E-01 0.  0.
         14    1    1    2    0    0  0.73176472339E-01 -0.14133881622E-01 -0.24662755261E-01  0.78503593617E-01  0.00000000000E+00 0. -1.
     999901    1    1    2    0    0  0.15103698874E-02  0.43542020165E-01  0.36098663995E-01  0.88181704581E+00  0.88000000000E+00 0.  1.
        -11    1    3    3    0    0 -0.92213411912E-02 -0.10679169784E-01 -0.58636091566E-02  0.15287930991E-01  0.51100000000E-03 0.  1.
         11    1    3    3    0    0 -0.65465501036E-01 -0.18728968759E-01 -0.55722995774E-02  0.68321429583E-01  0.51100000000E-03 0. -1.
</event>
<event>
 8    1  0.1071333E+005  0.1043930E+01  0.7957747E-01            NaN
         13   -1    0    0    0    0  0.00000000000E+00  0.00000000000E+00  0.74505805969E-08  0.10566000000E+00  0.10566000000E+00 0. -1.
     999900   -1    0    0    0    0 -0.00000000000E+00 -0.00000000000E+00 -0.74505805969E-08  0.93827000000E+00  0.93827000000E+00 0.  1.
     999902    2    1    2    0    0 -0.14120409962E-01 -0.59230511961E-02  0.18154781661E-01  0.10201799556E+01  0.10199034646E+01 0.  0.
     999903    2    3    3    0    0  0.59077788747E-02  0.10802141152E+00 -0.66480500076E-01  0.12858161560E+00  0.20249636576E-01 0.  0.
         14    1    1    2    0    0  0.14120409962E-01  0.59230511961E-02 -0.18154781661E-01  0.23750044424E-01  0.00000000000E+00 0.  1.
     999901    1    3    3    0    0 -0.20028188837E-01 -0.11394446272E+00  0.84635281737E-01  0.89159833998E+00  0.88000000000E+00 0.  1.
        -11    1    4    4    0    0 -0.49923850557E-02  0.70922022564E-01 -0.47476035696E-01  0.85493229437E-01  0.51100000000E-03 0.  1.
         11    1    4    4    0    0  0.10900163930E-01  0.37099388959E-01 -0.19004464380E-01  0.43088386164E-01  0.51100000000E-03 0. -1.
</event>
<event>
 8    1  0.1071333E+005  0.1043930E+01  0.7957747E-01            NaN
         13   -1    0    0    0    0  0.00000000000E+00  0.00000000000E+00  0.74505805969E-08  0.10566000000E+00  0.10566000000E+00 0.  1.
     999900   -1    0    0    0    0 -0.00000000000E+00 -0.00000000000E+00 -0.74505805969E-08  0.93827000000E+00  0.93827000000E+00 0. -1.
     999902    2    1    2    0    0 -0.19724581404E-01 -0.46881380846E-02 -0.13179901606E-01  0.10197484459E+01  0.10194616940E+01 0.  0.
     999903    2    3    3    0    0 -0.10724381949E+00  0.44010399063E-01 -0.60792805403E-01  0.13278838305E+00  0.22334669031E-01 0.  0.
         14    1    1    2    0    0  0.19724581404E-01  0.46881380846E-02  0.13179901606E-01  0.24181554057E-01  0.00000000000E+00 0.  1.
     999901    1    3    3    0    0  0.87519238084E-01 -0.48698537148E-01  0.47612903797E-01  0.88696006289E+00  0.88000000000E+00 0.  1.
        -11    1    4    4    0    0 -0.10279796233E+00  0.36076509723E-01 -0.56169234708E-01  0.12257316045E+00  0.51100000000E-03 0. -1.
         11    1    4    4    0    0 -0.44458571592E-02  0.79338893403E-02 -0.46235706944E-02  0.10215222607E-01  0.51100000000E-03 0.  1.
</event>
<event>
 8    1  0.1071333E+005  0.1043930E+01  0.7957747E-01            NaN
         13   -1    0    0    0    0  0.00000000000E+00  0.00000000000E+00  0.74505805969E-08  0.10566000000E+00  0.10566000000E+00 0. -1.
     999900   -1    0    0    0    0 -0.00000000000E+00 -0.00000000000E+00 -0.74505805969E-08  0.93827000000E+00  0.93827000000E+00 0. -1.
     999902    2    1    2    0    0  0.13000880000E-01 -0.13204387946E-01  0.15104927528E-01  0.10200231479E+01  0.10197429503E+01 0.  0.
     999903    2    3    3    0    0 -0.50048722642E-01 -0.11598328657E+00  0.30843867221E-01  0.13166147120E+00  0.20649490383E-01 0.  0.
         14    1    1    2    0    0 -0.13000880000E-01  0.13204387946E-01 -0.15104927528E-01  0.23906852102E-01  0.00000000000E+00 0.  1.
     999901    1    3    3    0    0  0.63049602641E-01  0.10277889862E+00 -0.15738939693E-01  0.88836167669E+00  0.88000000000E+00 0. -1.
        -11    1    4    4    0    0 -0.23625083057E-01 -0.34896470204E-01  0.16079447280E-01  0.45107847743E-01  0.51100000000E-03 0. -1.
         11    1    4    4    0    0 -0.26423639584E-01 -0.81086816365E-01  0.14764419941E-01  0.86553623461E-01  0.51100000000E-03 0.  1.
</event>
<event>
 8    1  0.1071333E+005  0.1043930E+01  0.7957747E-01            NaN
         13   -1    0    0    0    0  0.00000000000E+00  0.00000000000E+00  0.74505805969E-08  0.10566000000E+00  0.10566000000E+00 0. -1.
     999900   -1    0    0    0    0 -0.00000000000E+00 -0.00000000000E+00 -0.74505805969E-08  0.93827000000E+00  0.93827000000E+00 0.  1.
     999902    2    1    2    0    0 -0.22964645138E-01  0.43468534834E-03 -0.33595137025E-02  0.10207168526E+01  0.10204528618E+01 0.  0.
     999903    2    3    3    0    0  0.71222799137E-01 -0.10597205886E+00  0.36637744203E-02  0.12928934777E+00  0.19988692516E-01 0.  0.
         14    1    1    2    0    0  0.22964645138E-01 -0.43468534834E-03  0.33595137025E-02  0.23213147352E-01  0.00000000000E+00 0. -1.
     999901    1    3    3    0    0 -0.94187444274E-01  0.10640674421E+00 -0.70232881228E-02  0.89142750488E+00  0.88000000000E+00 0.  1.
        -11    1    4    4    0    0  0.33767501863E-01 -0.67374980042E-01  0.44721057178E-02  0.75497635514E-01  0.51100000000E-03 0.  1.
         11    1    4    4    0    0  0.37455297274E-01 -0.38597078819E-01 -0.80833129746E-03  0.53791712259E-01  0.51100000000E-03 0. -1.
</event>
<event>
 8    1  0.1071333E+005  0.1043930E+01  0.7957747E-01            NaN
         13   -1    0    0    0    0  0.00000000000E+00  0.00000000000E+00  0.74505805969E-08  0.10566000000E+00  0.10566000000E+00 0. -1.
     999900   -1    0    0    0    0 -0.00000000000E+00 -0.00000000000E+00 -0.74505805969E-08  0.93827000000E+00  0.93827000000E+00 0.  1.
     999902    2    1    2    0    0 -0.19581346947E-01 -0.12072168148E-01  0.26090088353E-02  0.10207789024E+01  0.10205163371E+01 0.  0.
     999903    2    3    3    0    0  0.61767528901E-01 -0.11139301648E-01  0.11234466938E+00  0.13023950125E+00  0.20042237384E-01 0.  0.
         14    1    1    2    0    0  0.19581346947E-01  0.12072168148E-01 -0.26090088353E-02  0.23151097580E-01  0.00000000000E+00 0. -1.
     999901    1    3    3    0    0 -0.81348875848E-01 -0.93286650049E-03 -0.10973566055E+00  0.89053940117E+00  0.88000000000E+00 0.  1.
        -11    1    4    4    0    0  0.10010145554E-01  0.52275497977E-02  0.15020293154E-01  0.18798952586E-01  0.51100000000E-03 0. -1.
         11    1    4    4    0    0  0.51757383346E-01 -0.16366851446E-01  0.97324376229E-01  0.11144054866E+00  0.51100000000E-03 0.  1.
</event>
<event>
 8    1  0.1071333E+005  0.1043930E+01  0.7957747E-01            NaN
         13   -1    0    0    0    0  0.00000000000E+00  0.00000000000E+00  0.74505805969E-08  0.10566000000E+00  0.10566000000E+00 0. -1.
     999900   -1    0    0    0    0 -0.00000000000E+00 -0.00000000000E+00 -0.74505805969E-08  0.93827000000E+00  0.93827000000E+00 0. -1.
     999902    2    1    2    0    0  0.19447081362E-01  0.26960037203E-02  0.13220584699E-01  0.10202605837E+01  0.10199859888E+01 0.  0.
     999903    2    3    3    0    0 -0.60405170091E-01 -0.10497496783E+00 -0.40383179167E-01  0.12849672273E+00  0.14562903155E-01 0.  0.
         14    1    1    2    0    0 -0.19447081362E-01 -0.26960037203E-02 -0.13220584699E-01  0.23669416329E-01  0.00000000000E+00 0.  1.
     999901    1    3    3    0    0  0.79852251453E-01  0.10767097155E+00  0.53603763865E-01  0.89176386094E+00  0.88000000000E+00 0.  1.
        -11    1    4    4    0    0 -0.82714098479E-02 -0.20474625593E-01 -0.25163846922E-02  0.22231055462E-01  0.51100000000E-03 0.  1.
         11    1    4    4    0    0 -0.52133760243E-01 -0.84500342239E-01 -0.37866794475E-01  0.10626566727E+00  0.51100000000E-03 0. -1.
</event>
<event>
 8    1  0.1071333E+005  0.1043930E+01  0.7957747E-01            NaN
         13   -1    0    0    0    0  0.00000000000E+00  0.00000000000E+00  0.74505805969E-08  0.10566000000E+00  0.10566000000E+00 0.  1.
     999900   -1    0    0    0    0 -0.00000000000E+00 -0.00000000000E+00 -0.74505805969E-08  0.93827000000E+00  0.93827000000E+00 0.  1.
     999902    2    1    2    0    0 -0.17228127452E-01  0.14696764336E-01  0.95446633730E-02  0.10193555446E+01  0.10190592831E+01 0.  0.
     999903    2    3    3    0    0 -0.96592915583E-01  0.72595406543E-01  0.51797933040E-01  0.13288142704E+00  0.19343303605E-01 0.  0.
         14    1    1    2    0    0  0.17228127452E-01 -0.14696764336E-01 -0.95446633730E-02  0.24574455362E-01  0.00000000000E+00 0. -1.
     999901    1    3    3    0    0  0.79364788130E-01 -0.57898642207E-01 -0.42253269667E-01  0.88647411759E+00  0.88000000000E+00 0.  1.
        -11    1    4    4    0    0 -0.14637197425E-01  0.10611012207E-01  0.64851589463E-03  0.18097591618E-01  0.51100000000E-03 0.  1.
         11    1    4    4    0    0 -0.81955718158E-01  0.61984394336E-01  0.51149417145E-01  0.11478383543E+00  0.51100000000E-03 0. -1.
</event>
<event>
 8    1  0.1071333E+005  0.1043930E+01  0.7957747E-01            NaN
         13   -1    0    0    0    0  0.00000000000E+00  0.00000000000E+00  0.74505805969E-08  0.10566000000E+00  0.10566000000E+00 0. -1.
     999900   -1    0    0    0    0 -0.00000000000E+00 -0.00000000000E+00 -0.74505805969E-08  0.93827000000E+00  0.93827000000E+00 0.  1.
     999902    2    1    2    0    0  0.23439417175E-01 -0.22858920518E-02 -0.20758725026E-02  0.10202880706E+01  0.10200141206E+01 0.  0.
     999903    2    3    3    0    0 -0.12256834301E+00 -0.30263980657E-01  0.16845778984E-02  0.12781107902E+00  0.19847591434E-01 0.  0.
         14    1    1    2    0    0 -0.23439417175E-01  0.22858920518E-02  0.20758725026E-02  0.23641929418E-01  0.00000000000E+00 0. -1.
     999901    1    3    3    0    0  0.14600776018E+00  0.27978088605E-01 -0.37604504010E-02  0.89247699156E+00  0.88000000000E+00 0.  1.
        -11    1    4    4    0    0 -0.34662714810E-01 -0.11204174432E-01  0.91150522913E-02  0.37555061203E-01  0.51100000000E-03 0. -1.
         11    1    4    4    0    0 -0.87905628196E-01 -0.19059806224E-01 -0.74304743929E-02  0.90256017819E-01  0.51100000000E-03 0.  1.
</event>
<event>
 8    1  0.1071333E+005  0.1043930E+01  0.7957747E-01            NaN
         13   -1    0    0    0    0  0.00000000000E+00  0.00000000000E+00  0.74505805969E-08  0.10566000000E+00  0.10566000000E+00 0. -1.
     999900   -1    0    0    0    0 -0.00000000000E+00 -0.00000000000E+00 -0.74505805969E-08  0.93827000000E+00  0.93827000000E+00 0. -1.
     999902    2    1    2    0    0  0.92978081081E-02  0.17313654297E-01 -0.12683464390E-01  0.10205402131E+01  0.10202721424E+01 0.  0.
     999903    2    3    3    0    0  0.23207443657E-01  0.35330059134E-01 -0.12293056195E+00  0.13336915222E+00  0.29809548500E-01 0.  0.
         14    1    1    2    0    0 -0.92978081081E-02 -0.17313654297E-01  0.12683464390E-01  0.23389786867E-01  0.00000000000E+00 0. -1.
     999901    1    3    3    0    0 -0.13909635549E-01 -0.18016404837E-01  0.11024709756E+00  0.88717106092E+00  0.88000000000E+00 0.  1.
        -11    1    4    4    0    0  0.28454180447E-01  0.27694987924E-01 -0.78411589917E-01  0.87893636261E-01  0.51100000000E-03 0. -1.
         11    1    4    4    0    0 -0.52467367905E-02  0.76350712105E-02 -0.44518972036E-01  0.45475515957E-01  0.51100000000E-03 0.  1.
</event>
<event>
 8    1  0.1071333E+005  0.1043930E+01  0.7957747E-01            NaN
         13   -1    0    0    0    0  0.00000000000E+00  0.00000000000E+00  0.74505805969E-08  0.10566000000E+00  0.10566000000E+00 0.  1.
     999900   -1    0    0    0    0 -0.00000000000E+00 -0.00000000000E+00 -0.74505805969E-08  0.93827000000E+00  0.93827000000E+00 0. -1.
     999902    2    1    2    0    0 -0.66583776076E-02 -0.22349381765E-01  0.22933930634E-02  0.10204973623E+01  0.10202282970E+01 0.  0.
     999903    2    3    3    0    0 -0.12376290721E+00 -0.42785011740E-01 -0.54316860250E-02  0.13247103236E+00  0.19268024555E-01 0.  0.
         14    1    1    2    0    0  0.66583776076E-02  0.22349381765E-01 -0.22933930634E-02  0.23432637696E-01  0.00000000000E+00 0. -1.
     999901    1    3    3    0    0  0.11710452961E+00  0.20435629975E-01  0.77250790884E-02  0.88802632994E+00  0.88000000000E+00 0.  1.
        -11    1    4    4    0    0 -0.37536550163E-01 -0.82910926296E-02 -0.91748357785E-02  0.39524341205E-01  0.51100000000E-03 0. -1.
         11    1    4    4    0    0 -0.86226357050E-01 -0.34493919110E-01  0.37431497535E-02  0.92946691156E-01  0.51100000000E-03 0.  1.
</event>
<event>
 8    1  0.1071333E+005  0.1043930E+01  0.7957747E-01            NaN
         13   -1    0    0    0    0  0.00000000000E+00  0.00000000000E+00  0.74505805969E-08  0.10566000000E+00  0.10566000000E+00 0.  1.
     999900   -1    0    0    0    0 -0.00000000000E+00 -0.00000000000E+00 -0.74505805969E-08  0.93827000000E+00  0.93827000000E+00 0.  1.
     999902    2    1    2    0    0 -0.53789983094E-02  0.17509336089E-01 -0.14040838306E-01  0.10208506670E+01  0.10205897455E+01 0.  0.
     999903    2    3    3    0    0  0.24581999034E-01 -0.74287556004E-01  0.99623436653E-01  0.12830156570E+00  0.20335854481E-01 0.  0.
         14    1    1    2    0    0  0.53789983094E-02 -0.17509336089E-01  0.14040838306E-01  0.23079333037E-01  0.00000000000E+00 0.  1.
     999901    1    3    3    0    0 -0.29960997343E-01  0.91796892093E-01 -0.11366427496E+00  0.89254910126E+00  0.88000000000E+00 0.  1.
        -11    1    4    4    0    0  0.18216636849E-01 -0.70251128209E-01  0.94584738232E-01  0.11922080649E+00  0.51100000000E-03 0.  1.
         11    1    4    4    0    0  0.63653621850E-02 -0.40364277952E-02  0.50386984216E-02  0.90807592125E-02  0.51100000000E-03 0. -1.
</event>
<event>
 8    1  0.1071333E+005  0.1043930E+01  0.7957747E-01            NaN
         13   -1    0    0    0    0  0.00000000000E+00  0.00000000000E+00  0.74505805969E-08  0.10566000000E+00  0.10566000000E+00 0.  1.
     999900   -1    0    0    0    0 -0.00000000000E+00 -0.00000000000E+00 -0.74505805969E-08  0.93827000000E+00  0.93827000000E+00 0.  1.
     999902    2    1    2    0    0  0.22675123450E-01  0.13941203661E-01  0.16563244599E-01  0.10125794106E+01  0.10120939696E+01 0.  0.
     999903    2    3    3    0    0  0.12225994204E+00 -0.94187667962E-02 -0.19746429263E-01  0.12591080469E+00  0.20673719417E-01 0.  0.
         14    1    1    2    0    0 -0.22675123450E-01 -0.13941203661E-01 -0.16563244599E-01  0.31350589383E-01  0.00000000000E+00 0. -1.
     999901    1    3    3    0    0 -0.99584818590E-01  0.23359970457E-01  0.36309673862E-01  0.88666860592E+00  0.88000000000E+00 0. -1.
        -11    1    4    4    0    0  0.49011677387E-01 -0.51527255349E-02 -0.18146918431E-01  0.52519204776E-01  0.51100000000E-03 0. -1.
         11    1    4    4    0    0  0.73248264653E-01 -0.42660412614E-02 -0.15995108318E-02  0.73391599919E-01  0.51100000000E-03 0.  1.
</event>
<event>
 8    1  0.1071333E+005  0.1043930E+01  0.7957747E-01            NaN
         13   -1    0    0    0    0  0.00000000000E+00  0.00000000000E+00  0.74505805969E-08  0.10566000000E+00  0.10566000000E+00 0.  1.
     999900   -1    0    0    0    0 -0.00000000000E+00 -0.00000000000E+00 -0.74505805969E-08  0.93827000000E+00  0.93827000000E+00 0. -1.
     999902    2    1    2    0    0 -0.19631842209E-01  0.17012118616E-02 -0.13054122435E-01  0.10202928796E+01  0.10200190423E+01 0.  0.
     999903    2    3    3    0    0 -0.72532432886E-01 -0.50649620938E-01  0.94091132057E-01  0.13067544057E+00  0.19914610592E-01 0.  0.
         14    1    1    2    0    0  0.19631842209E-01 -0.17012118616E-02  0.13054122435E-01  0.23637120443E-01  0.00000000000E+00 0.  1.
     999901    1    3    3    0    0  0.52900590677E-01  0.52350832799E-01 -0.10714525449E+00  0.88961743899E+00  0.88000000000E+00 0. -1.
        -11    1    4    4    0    0 -0.53219421986E-01 -0.43172166076E-01  0.61626366445E-01  0.92164054612E-01  0.51100000000E-03 0.  1.
         11    1    4    4    0    0 -0.19313010900E-01 -0.74774548614E-02  0.32464765612E-01  0.38511385958E-01  0.51100000000E-03 0. -1.
</event>
<event>
 8    1  0.1071333E+005  0.1043930E+01  0.7957747E-01            NaN
         13   -1    0    0    0    0  0.00000000000E+00  0.00000000000E+00  0.74505805969E-08  0.10566000000E+00  0.10566000000E+00 0. -1.
     999900   -1    0    0    0    0 -0.00000000000E+00 -0.00000000000E+00 -0.74505805969E-08  0.93827000000E+00  0.93827000000E+00 0.  1.
     999902    2    1    2    0    0  0.35690247364E-02 -0.59868104172E-02  0.22184152158E-01  0.10206766896E+01  0.10204117739E+01 0.  0.
     999903    2    3    3    0    0  0.51613682296E-01 -0.11956548656E+00  0.84765507901E-02  0.13197184372E+00  0.19617284331E-01 0.  0.
         14    1    1    2    0    0 -0.35690247364E-02  0.59868104172E-02 -0.22184152158E-01  0.23253310378E-01  0.00000000000E+00 0.  1.
     999901    1    3    3    0    0 -0.48044657559E-01  0.11357867615E+00  0.13707601368E-01  0.88870484590E+00  0.88000000000E+00 0.  1.
        -11    1    4    4    0    0  0.22830117586E-01 -0.70755249384E-01 -0.18458973757E-02  0.74371957366E-01  0.51100000000E-03 0. -1.
         11    1    4    4    0    0  0.28783564710E-01 -0.48810237178E-01  0.10322448166E-01  0.57599886354E-01  0.51100000000E-03 0.  1.
</event>
<event>
 8    1  0.1071333E+005  0.1043930E+01  0.7957747E-01            NaN
         13   -1    0    0    0    0  0.00000000000E+00  0.00000000000E+00  0.74505805969E-08  0.10566000000E+00  0.10566000000E+00 0.  1.
     999900   -1    0    0    0    0 -0.00000000000E+00 -0.00000000000E+00 -0.74505805969E-08  0.93827000000E+00  0.93827000000E+00 0.  1.
     999902    2    1    2    0    0  0.61542758398E-02 -0.52713606708E-02  0.22453674147E-01  0.10200588912E+01  0.10197795407E+01 0.  0.
     999903    2    3    3    0    0  0.32050167293E-01 -0.12382419754E+00  0.23987173708E-01  0.13173027857E+00  0.20441053560E-01 0.  0.
         14    1    1    2    0    0 -0.61542758398E-02  0.52713606708E-02 -0.22453674147E-01  0.23871108837E-01  0.00000000000E+00 0. -1.
     999901    1    3    3    0    0 -0.25895891453E-01  0.11855283687E+00 -0.15334995607E-02  0.88832861259E+00  0.88000000000E+00 0. -1.
        -11    1    4    4    0    0 -0.17747017292E-04 -0.36216998450E-01  0.58388488893E-02  0.36688207493E-01  0.51100000000E-03 0. -1.
         11    1    4    4    0    0  0.32067914310E-01 -0.87607199090E-01  0.18148324818E-01  0.95042071081E-01  0.51100000000E-03 0.  1.
</event>
<event>
 8    1  0.1071333E+005  0.1043930E+01  0.7957747E-01            NaN
         13   -1    0    0    0    0  0.00000000000E+00  0.00000000000E+00  0.74505805969E-08  0.10566000000E+00  0.10566000000E+00 0.  1.
     999900   -1    0    0    0    0 -0.00000000000E+00 -0.00000000000E+00 -0.74505805969E-08  0.93827000000E+00  0.93827000000E+00 0. -1.
     999902    2    1    2    0    0  0.52047063286E-02  0.33723683720E-02  0.22458369362E-01  0.10206310689E+01  0.10203651006E+01 0.  0.
     999903    2    3    3    0    0 -0.83020386533E-01 -0.77075238664E-01 -0.58151574451E-01  0.12891729894E+00  0.20126782120E-01 0.  0.
         14    1    1    2    0    0 -0.52047063286E-02 -0.33723683720E-02 -0.22458369362E-01  0.23298931108E-01  0.00000000000E+00 0. -1.
     999901    1    3    3    0    0  0.88225092861E-01  0.80447607036E-01  0.80609943813E-01  0.89171376996E+00  0.88000000000E+00 0.  1.
        -11    1    4    4    0    0 -0.19445450189E-01 -0.24568884320E-01 -0.24835517909E-01  0.39985243285E-01  0.51100000000E-03 0. -1.
         11    1    4    4    0    0 -0.63574936344E-01 -0.52506354343E-01 -0.33316056542E-01  0.88932055650E-01  0.51100000000E-03 0.  1.
</event>
<event>
 8    1  0.1071333E+005  0.1043930E+01  0.7957747E-01            NaN
         13   -1    0    0    0    0  0.00000000000E+00  0.00000000000E+00  0.74505805969E-08  0.10566000000E+00  0.10566000000E+00 0. -1.
     999900   -1    0    0    0    0 -0.00000000000E+00 -0.00000000000E+00 -0.74505805969E-08  0.93827000000E+00  0.93827000000E+00 0. -1.
     999902    2    1    2    0    0  0.20684187618E-02 -0.23883642550E-01 -0.45708230191E-02  0.10195250997E+01  0.10192329614E+01 0.  0.
     999903    2    3    3    0    0 -0.12810323753E+00 -0.23894560818E-02  0.16733880670E-02  0.12966800421E+00  0.19870634636E-01 0.  0.
         14    1    1    2    0    0 -0.20684187618E-02  0.23883642550E-01  0.45708230191E-02  0.24404900342E-01  0.00000000000E+00 0.  1.
     999901    1    3    3    0    0  0.13017165629E+00 -0.21494186468E-01 -0.62442110861E-02  0.88985709545E+00  0.88000000000E+00 0. -1.
        -11    1    4    4    0    0 -0.10388892936E+00  0.37295981399E-02  0.67524219313E-02  0.10417617707E+00  0.51100000000E-03 0. -1.
         11    1    4    4    0    0 -0.24214308171E-01 -0.61190542216E-02 -0.50790338643E-02  0.25491827136E-01  0.51100000000E-03 0.  1.
</event>
<event>
 8    1  0.1071333E+005  0.1043930E+01  0.7957747E-01            NaN
         13   -1    0    0    0    0  0.00000000000E+00  0.00000000000E+00  0.74505805969E-08  0.10566000000E+00  0.10566000000E+00 0. -1.
     999900   -1    0    0    0    0 -0.00000000000E+00 -0.00000000000E+00 -0.74505805969E-08  0.93827000000E+00  0.93827000000E+00 0.  1.
     999902    2    1    2    0    0  0.15253919707E-01 -0.17823696229E-01  0.19751344084E-02  0.10203871164E+01  0.10201154836E+01 0.  0.
     999903    2    3    3    0    0 -0.13867240364E-01  0.52784017480E-01  0.11657691004E+00  0.12967557037E+00  0.15720201665E-01 0.  0.
         14    1    1    2    0    0 -0.15253919707E-01  0.17823696229E-01 -0.19751344084E-02  0.23542883630E-01  0.00000000000E+00 0. -1.
     999901    1    3    3    0    0  0.29121160071E-01 -0.70607713708E-01 -0.11460177563E+00  0.89071154600E+00  0.88000000000E+00 0.  1.
        -11    1    4    4    0    0 -0.13210508472E-01  0.37239435300E-01  0.67806578483E-01  0.78481120545E-01  0.51100000000E-03 0. -1.
         11    1    4    4    0    0 -0.65673189259E-03  0.15544582180E-01  0.48770331556E-01  0.51194449826E-01  0.51100000000E-03 0.  1.
</event>
<event>
 8    1  0.1071333E+005  0.1043930E+01  0.7957747E-01            NaN
         13   -1    0    0    0    0  0.00000000000E+00  0.00000000000E+00  0.74505805969E-08  0.10566000000E+00  0.10566000000E+00 0. -1.
     999900   -1    0    0    0    0 -0.00000000000E+00 -0.00000000000E+00 -0.74505805969E-08  0.93827000000E+00  0.93827000000E+00 0.  1.
     999902    2    1    2    0    0 -0.19960529641E-01 -0.10998262148E-01  0.52170800876E-02  0.10205504697E+01  0.10202826367E+01 0.  0.
     999903    2    3    3    0    0 -0.95370169142E-01  0.86847353212E-01 -0.17322383494E-01  0.13163629744E+00  0.19751402767E-01 0.  0.
         14    1    1    2    0    0  0.19960529641E-01  0.10998262148E-01 -0.52170800876E-02  0.23379530330E-01  0.00000000000E+00 0. -1.
     999901    1    3    3    0    0  0.75409639502E-01 -0.97845615360E-01  0.22539463582E-01  0.88891417223E+00  0.88000000000E+00 0. -1.
        -11    1    4    4    0    0 -0.77289262345E-01  0.59994083819E-01 -0.93243682462E-02  0.98285935572E-01  0.51100000000E-03 0. -1.
         11    1    4    4    0    0 -0.18080906797E-01  0.26853269393E-01 -0.79980152483E-02  0.33350361866E-01  0.51100000000E-03 0.  1.
</event>
<event>
 7    1  0.1071333E+005  0.1043930E+01  0.7957747E-01            NaN
         13   -1    0    0    0    0  0.00000000000E+00  0.00000000000E+00  0.74505805969E-08  0.10566000000E+00  0.10566000000E+00 0. -1.
     999900   -1    0    0    0    0 -0.00000000000E+00 -0.00000000000E+00 -0.74505805969E-08  0.93827000000E+00  0.93827000000E+00 0. -1.
     999903    2    1    2    0    0 -0.55450205301E-01 -0.37710772535E-01  0.83769586545E-01  0.10878737225E+00  0.17903103036E-01 0.  0.
         14    1    1    2    0    0 -0.19209574547E-01 -0.70103160488E-02  0.37361918623E-01  0.42591844860E-01  0.00000000000E+00 0. -1.
     999901    1    1    2    0    0  0.74659779847E-01  0.44721088584E-01 -0.12113150517E+00  0.89255078289E+00  0.88000000000E+00 0. -1.
        -11    1    3    3    0    0 -0.24732328307E-01 -0.90654769574E-02  0.41787606680E-01  0.49399758390E-01  0.51100000000E-03 0. -1.
         11    1    3    3    0    0 -0.30717876994E-01 -0.28645295578E-01  0.41981979865E-01  0.59387613862E-01  0.51100000000E-03 0.  1.
</event>
<event>
 8    1  0.1071333E+005  0.1043930E+01  0.7957747E-01            NaN
         13   -1    0    0    0    0  0.00000000000E+00  0.00000000000E+00  0.74505805969E-08  0.10566000000E+00  0.10566000000E+00 0.  1.
     999900   -1    0    0    0    0 -0.00000000000E+00 -0.00000000000E+00 -0.74505805969E-08  0.93827000000E+00  0.93827000000E+00 0.  1.
     999902    2    1    2    0    0  0.93517848076E-02 -0.14732976012E-01 -0.15758767475E-01  0.10204171266E+01  0.10201461940E+01 0.  0.
     999903    2    3    3    0    0 -0.48679361334E-01 -0.89513204319E-01  0.78539972452E-01  0.13033176623E+00  0.20869787932E-01 0.  0.
         14    1    1    2    0    0 -0.93517848076E-02  0.14732976012E-01  0.15758767475E-01  0.23512873359E-01  0.00000000000E+00 0.  1.
     999901    1    3    3    0    0  0.58031146142E-01  0.74780228306E-01 -0.94298739927E-01  0.89008536041E+00  0.88000000000E+00 0.  1.
        -11    1    4    4    0    0 -0.38760507597E-01 -0.79576259926E-01  0.59441472622E-01  0.10662226729E+00  0.51100000000E-03 0.  1.
         11    1    4    4    0    0 -0.99188537375E-02 -0.99369443927E-02  0.19098499829E-01  0.23709498942E-01  0.51100000000E-03 0. -1.
</event>
<event>
 8    1  0.1071333E+005  0.1043930E+01  0.7957747E-01            NaN
         13   -1    0    0    0    0  0.00000000000E+00  0.00000000000E+00  0.74505805969E-08  0.10566000000E+00  0.10566000000E+00 0.  1.
     999900   -1    0    0    0    0 -0.00000000000E+00 -0.00000000000E+00 -0.74505805969E-08  0.93827000000E+00  0.93827000000E+00 0. -1.
     999902    2    1    2    0    0  0.47309372140E-02  0.16333129758E-02 -0.22451267461E-01  0.10209276330E+01  0.10206684686E+01 0.  0.
     999903    2    3    3    0    0  0.79623893749E-01 -0.84523859107E-01  0.55668308418E-01  0.13012199684E+00  0.18668858679E-01 0.  0.
         14    1    1    2    0    0 -0.47309372140E-02 -0.16333129758E-02  0.22451267461E-01  0.23002367026E-01  0.00000000000E+00 0.  1.
     999901    1    3    3    0    0 -0.74892956535E-01  0.86157172083E-01 -0.78119575878E-01  0.89080563614E+00  0.88000000000E+00 0. -1.
        -11    1    4    4    0    0  0.17418331014E-01 -0.28824312711E-01  0.11049107599E-01  0.35448316720E-01  0.51100000000E-03 0.  1.
         11    1    4    4    0    0  0.62205562735E-01 -0.55699546396E-01  0.44619200819E-01  0.94673680116E-01  0.51100000000E-03 0. -1.
</event>
<event>
 8    1  0.1071333E+005  0.1043930E+01  0.7957747E-01            NaN
         13   -1    0    0    0    0  0.00000000000E+00  0.00000000000E+00  0.74505805969E-08  0.10566000000E+00  0.10566000000E+00 0.  1.
     999900   -1    0    0    0    0 -0.00000000000E+00 -0.00000000000E+00 -0.74505805969E-08  0.93827000000E+00  0.93827000000E+00 0. -1.
     999902    2    1    2    0    0 -0.84312414166E-02 -0.16854939923E-01 -0.15923813857E-01  0.10192572888E+01  0.10189586243E+01 0.  0.
     999903    2    3    3    0    0  0.55241350152E-01  0.11293839266E+00  0.63322225808E-03  0.12730737788E+00  0.20002004625E-01 0.  0.
         14    1    1    2    0    0  0.84312414166E-02  0.16854939923E-01  0.15923813857E-01  0.24672711229E-01  0.00000000000E+00 0.  1.
     999901    1    3    3    0    0 -0.63672591569E-01 -0.12979333258E+00 -0.16557036115E-01  0.89194991089E+00  0.88000000000E+00 0.  1.
        -11    1    4    4    0    0  0.21000144370E-01  0.42837380009E-01 -0.94578398305E-02  0.48639069120E-01  0.51100000000E-03 0.  1.
         11    1    4    4    0    0  0.34241205782E-01  0.70101012647E-01  0.10091062089E-01  0.78668308757E-01  0.51100000000E-03 0. -1.
</event>
<event>
 8    1  0.1071333E+005  0.1043930E+01  0.7957747E-01            NaN
         13   -1    0    0    0    0  0.00000000000E+00  0.00000000000E+00  0.74505805969E-08  0.10566000000E+00  0.10566000000E+00 0. -1.
     999900   -1    0    0    0    0 -0.00000000000E+00 -0.00000000000E+00 -0.74505805969E-08  0.93827000000E+00  0.93827000000E+00 0. -1.
     999902    2    1    2    0    0 -0.15345757985E-02  0.71928270967E-02 -0.22504650948E-01  0.10202540418E+01  0.10199792933E+01 0.  0.
     999903    2    3    3    0    0  0.13247776253E-01  0.11251855135E+00 -0.66219725079E-01  0.13277275529E+00  0.20189714790E-01 0.  0.
         14    1    1    2    0    0  0.15345757985E-02 -0.71928270967E-02  0.22504650948E-01  0.23675958245E-01  0.00000000000E+00 0. -1.
     999901    1    3    3    0    0 -0.14782352052E-01 -0.10532572426E+00  0.43715074131E-01  0.88748128647E+00  0.88000000000E+00 0.  1.
        -11    1    4    4    0    0  0.13387879870E-01  0.52012838896E-01 -0.23072919192E-01  0.58456748614E-01  0.51100000000E-03 0. -1.
         11    1    4    4    0    0 -0.14010361676E-03  0.60505712456E-01 -0.43146805887E-01  0.74316006674E-01  0.51100000000E-03 0.  1.
</event>
<event>
 8    1  0.1071333E+005  0.1043930E+01  0.7957747E-01            NaN
         13   -1    0    0    0    0  0.00000000000E+00  0.00000000000E+00  0.74505805969E-08  0.10566000000E+00  0.10566000000E+00 0. -1.
     999900   -1    0    0    0    0 -0.00000000000E+00 -0.00000000000E+00 -0.74505805969E-08  0.93827000000E+00  0.93827000000E+00 0. -1.
     999902    2    1    2    0    0 -0.25782533205E-02 -0.96167431006E-02 -0.20540300174E-01  0.10211038512E+01  0.10208486871E+01 0.  0.
     999903    2    3    3    0    0  0.47195201356E-01 -0.46333851738E-01  0.10945274481E+00  0.12940674197E+00  0.19798703819E-01 0.  0.
         14    1    1    2    0    0  0.25782533205E-02  0.96167431006E-02  0.20540300174E-01  0.22826148806E-01  0.00000000000E+00 0. -1.
     999901    1    3    3    0    0 -0.49773454676E-01  0.36717108638E-01 -0.12999304498E+00  0.89169710923E+00  0.88000000000E+00 0. -1.
        -11    1    4    4    0    0  0.10809882298E-01 -0.95455383244E-03  0.17875334846E-01  0.20917778209E-01  0.51100000000E-03 0.  1.
         11    1    4    4    0    0  0.36385319058E-01 -0.45379297906E-01  0.91577409962E-01  0.10848896376E+00  0.51100000000E-03 0. -1.
</event>
<event>
 8    1  0.1071333E+005  0.1043930E+01  0.7957747E-01            NaN
         13   -1    0    0    0    0  0.00000000000E+00  0.00000000000E+00  0.74505805969E-08  0.10566000000E+00  0.10566000000E+00 0.  1.
     999900   -1    0    0    0    0 -0.00000000000E+00 -0.00000000000E+00 -0.74505805969E-08  0.93827000000E+00  0.93827000000E+00 0.  1.
     999902    2    1    2    0    0  0.32249937103E-02 -0.21182728133E-01  0.78446237990E-02  0.10211123165E+01  0.10208573438E+01 0.  0.
     999903    2    3    3    0    0 -0.30972578943E-01  0.10381663588E+00 -0.64933856975E-01  0.12864885946E+00  0.24432124854E-01 0.  0.
         14    1    1    2    0    0 -0.32249937103E-02  0.21182728133E-01 -0.78446237990E-02  0.22817683452E-01  0.00000000000E+00 0. -1.
     999901    1    3    3    0    0  0.34197572653E-01 -0.12499936402E+00  0.72778480774E-01  0.89246345709E+00  0.88000000000E+00 0.  1.
        -11    1    4    4    0    0 -0.16215231507E-01  0.51367824241E-01 -0.46394068211E-01  0.71093303385E-01  0.51100000000E-03 0.  1.
         11    1    4    4    0    0 -0.14757347436E-01  0.52448811644E-01 -0.18539788764E-01  0.57555556071E-01  0.51100000000E-03 0. -1.
</event>
<event>
 8    1  0.1071333E+005  0.1043930E+01  0.7957747E-01            NaN
         13   -1    0    0    0    0  0.00000000000E+00  0.00000000000E+00  0.74505805969E-08  0.10566000000E+00  0.10566000000E+00 0.  1.
     999900   -1    0    0    0    0 -0.00000000000E+00 -0.00000000000E+00 -0.74505805969E-08  0.93827000000E+00  0.93827000000E+00 0.  1.
     999902    2    1    2    0    0 -0.11625056793E-01  0.78116757447E-02  0.18739395526E-01  0.10205349328E+01  0.10202667396E+01 0.  0.
     999903    2    3    3    0    0  0.36185807874E-01 -0.28567038650E-01  0.12244618385E+00  0.13241084939E+00  0.20348874844E-01 0.  0.
         14    1    1    2    0    0  0.11625056793E-01 -0.78116757447E-02 -0.18739395526E-01  0.23395067174E-01  0.00000000000E+00 0. -1.
     999901    1    3    3    0    0 -0.47810864667E-01  0.36378714394E-01 -0.10370678832E+00  0.88812408344E+00  0.88000000000E+00 0.  1.
        -11    1    4    4    0    0  0.14717542079E-01 -0.10717737360E-01  0.24291348954E-01  0.30361269637E-01  0.51100000000E-03 0. -1.
         11    1    4    4    0    0  0.21468265795E-01 -0.17849301289E-01  0.98154834895E-01  0.10204957975E+00  0.51100000000E-03 0.  1.
</event>
<event>
 7    1  0.1071333E+005  0.1043930E+01  0.7957747E-01            NaN
         13   -1    0    0    0    0  0.00000000000E+00  0.00000000000E+00  0.74505805969E-08  0.10566000000E+00  0.10566000000E+00 0. -1.
     999900   -1    0    0    0    0 -0.00000000000E+00 -0.00000000000E+00 -0.74505805969E-08  0.93827000000E+00  0.93827000000E+00 0.  1.
     999903    2    1    2    0    0  0.92421394405E-01 -0.52938031950E-01 -0.44269367373E-01  0.11714011198E+00  0.20442103049E-01 0.  0.
         14    1    1    2    0    0 -0.24032615039E-01 -0.30686174490E-01  0.52138124134E-02  0.39324187599E-01  0.00000000000E+00 0.  1.
     999901    1    1    2    0    0 -0.68388779367E-01  0.83624206441E-01  0.39055554959E-01  0.88746570042E+00  0.88000000000E+00 0.  1.
        -11    1    3    3    0    0  0.19879354714E-01 -0.10128316612E-01 -0.75142724171E-03  0.22329292536E-01  0.51100000000E-03 0.  1.
         11    1    3    3    0    0  0.72542039692E-01 -0.42809715338E-01 -0.43517940131E-01  0.94810819447E-01  0.51100000000E-03 0. -1.
</event>
<event>
 8    1  0.1071333E+005  0.1043930E+01  0.7957747E-01            NaN
         13   -1    0    0    0    0  0.00000000000E+00  0.00000000000E+00  0.74505805969E-08  0.10566000000E+00  0.10566000000E+00 0. -1.
     999900   -1    0    0    0    0 -0.00000000000E+00 -0.00000000000E+00 -0.74505805969E-08  0.93827000000E+00  0.93827000000E+00 0. -1.
     999902    2    1    2    0    0 -0.15508476666E-01 -0.53368364475E-03  0.17785650839E-01  0.10203264612E+01  0.10200534106E+01 0.  0.
     999903    2    3    3    0    0  0.40268627381E-01  0.11884524981E+00  0.29533922934E-01  0.13043858234E+00  0.19905160270E-01 0.  0.
         14    1    1    2    0    0  0.15508476666E-01  0.53368364475E-03 -0.17785650839E-01  0.23603538771E-01  0.00000000000E+00 0.  1.
     999901    1    3    3    0    0 -0.55777104048E-01 -0.11937893346E+00 -0.11748272096E-01  0.88988787889E+00  0.88000000000E+00 0. -1.
        -11    1    4    4    0    0  0.28131561536E-01  0.86113120053E-01  0.12047444218E-01  0.91390679136E-01  0.51100000000E-03 0.  1.
         11    1    4    4    0    0  0.12137065846E-01  0.32732129762E-01  0.17486478717E-01  0.39047903209E-01  0.51100000000E-03 0. -1.
</event>
<event>
 8    1  0.1071333E+005  0.1043930E+01  0.7957747E-01            NaN
         13   -1    0    0    0    0  0.00000000000E+00  0.00000000000E+00  0.74505805969E-08  0.10566000000E+00  0.10566000000E+00 0.  1.
     999900   -1    0    0    0    0 -0.00000000000E+00 -0.00000000000E+00 -0.74505805969E-08  0.93827000000E+00  0.93827000000E+00 0. -1.
     999902    2    1    2    0    0  0.13844409692E-01  0.13352659681E-01 -0.12665057095E-01  0.10209003480E+01  0.10206405614E+01 0.  0.
     999903    2    3    3    0    0 -0.49079631333E-01 -0.70484859583E-01 -0.96594186488E-01  0.13071370277E+00  0.19460462130E-01 0.  0.
         14    1    1    2    0    0 -0.13844409692E-01 -0.13352659681E-01  0.12665057095E-01  0.23029652005E-01  0.00000000000E+00 0. -1.
     999901    1    3    3    0    0  0.62924041025E-01  0.83837519265E-01  0.83929129393E-01  0.89018664522E+00  0.88000000000E+00 0.  1.
        -11    1    4    4    0    0 -0.18217608306E-01 -0.43073361792E-01 -0.52506518316E-01  0.70316366054E-01  0.51100000000E-03 0. -1.
         11    1    4    4    0    0 -0.30862023027E-01 -0.27411497792E-01 -0.44087668172E-01  0.60397336716E-01  0.51100000000E-03 0.  1.
</event>
<event>
 8    1  0.1071333E+005  0.1043930E+01  0.7957747E-01            NaN
         13   -1    0    0    0    0  0.00000000000E+00  0.00000000000E+00  0.74505805969E-08  0.10566000000E+00  0.10566000000E+00 0.  1.
     999900   -1    0    0    0    0 -0.00000000000E+00 -0.00000000000E+00 -0.74505805969E-08  0.93827000000E+00  0.93827000000E+00 0. -1.
     999902    2    1    2    0    0  0.13847905513E-01 -0.16800254165E-01 -0.52912740526E-02  0.10215244068E+01  0.10212786608E+01 0.  0.
     999903    2    3    3    0    0 -0.60488791294E-01  0.10943510264E+00 -0.25516334615E-01  0.12918458199E+00  0.20065824921E-01 0.  0.
         14    1    1    2    0    0 -0.13847905513E-01  0.16800254165E-01  0.52912740526E-02  0.22405593235E-01  0.00000000000E+00 0.  1.
     999901    1    3    3    0    0  0.74336696807E-01 -0.12623535681E+00  0.20225060562E-01  0.89233982477E+00  0.88000000000E+00 0.  1.
        -11    1    4    4    0    0 -0.94411880015E-02  0.35752841652E-01 -0.64535832613E-02  0.37540798806E-01  0.51100000000E-03 0. -1.
         11    1    4    4    0    0 -0.51047603292E-01  0.73682260991E-01 -0.19062751353E-01  0.91643783187E-01  0.51100000000E-03 0.  1.
</event>
<event>
 8    1  0.1071333E+005  0.1043930E+01  0.7957747E-01            NaN
         13   -1    0    0    0    0  0.00000000000E+00  0.00000000000E+00  0.74505805969E-08  0.10566000000E+00  0.10566000000E+00 0.  1.
     999900   -1    0    0    0    0 -0.00000000000E+00 -0.00000000000E+00 -0.74505805969E-08  0.93827000000E+00  0.93827000000E+00 0.  1.
     999902    2    1    2    0    0 -0.19697421309E-01 -0.27713852884E-02  0.14027958044E-01  0.10195896510E+01  0.10192990748E+01 0.  0.
     999903    2    3    3    0    0  0.20362046009E-01  0.86858314453E-01 -0.89974755816E-01  0.12804334907E+00  0.18457054173E-01 0.  0.
         14    1    1    2    0    0  0.19697421309E-01  0.27713852884E-02 -0.14027958044E-01  0.24340349001E-01  0.00000000000E+00 0.  1.
     999901    1    3    3    0    0 -0.40059467318E-01 -0.89629699742E-01  0.10400271386E+00  0.89154630193E+00  0.88000000000E+00 0. -1.
        -11    1    4    4    0    0  0.98078729390E-02  0.13952556093E-01 -0.21680266640E-01  0.27589187660E-01  0.51100000000E-03 0.  1.
         11    1    4    4    0    0  0.10554173070E-01  0.72905758360E-01 -0.68294489176E-01  0.10045416141E+00  0.51100000000E-03 0. -1.
</event>
<event>
 8    1  0.1071333E+005  0.1043930E+01  0.7957747E-01            NaN
         13   -1    0    0    0    0  0.00000000000E+00  0.00000000000E+00  0.74505805969E-08  0.10566000000E+00  0.10566000000E+00 0.  1.
     999900   -1    0    0    0    0 -0.00000000000E+00 -0.00000000000E+00 -0.74505805969E-08  0.93827000000E+00  0.93827000000E+00 0. -1.
     999902    2    1    2    0    0  0.41821437808E-02 -0.23625754469E-01 -0.19980476387E-02  0.10198538958E+01  0.10195696690E+01 0.  0.
     999903    2    3    3    0    0  0.89052327449E-01  0.61988317957E-01  0.66678324045E-01  0.12898400543E+00  0.20445199251E-01 0.  0.
         14    1    1    2    0    0 -0.41821437808E-02  0.23625754469E-01  0.19980476387E-02  0.24076104236E-01  0.00000000000E+00 0. -1.
     999901    1    3    3    0    0 -0.84870183668E-01 -0.85614072426E-01 -0.68676371684E-01  0.89086989033E+00  0.88000000000E+00 0.  1.
        -11    1    4    4    0    0  0.22611062948E-01  0.78794564666E-02  0.21147652488E-01  0.31950435499E-01  0.51100000000E-03 0.  1.
         11    1    4    4    0    0  0.66441264501E-01  0.54108861491E-01  0.45530671558E-01  0.97033569932E-01  0.51100000000E-03 0. -1.
</event>
<event>
 8    1  0.1071333E+005  0.1043930E+01  0.7957747E-01            NaN
         13   -1    0    0    0    0  0.00000000000E+00  0.00000000000E+00  0.74505805969E-08  0.10566000000E+00  0.10566000000E+00 0. -1.
     999900   -1    0    0    0    0 -0.00000000000E+00 -0.00000000000E+00 -0.74505805969E-08  0.93827000000E+00  0.93827000000E+00 0. -1.
     999902    2    1    2    0    0  0.12856486590E-01  0.12211664379E-01 -0.15417434361E-01  0.10204329517E+01  0.10201623879E+01 0.  0.
     999903    2    3    3    0    0 -0.49686736171E-02  0.48153984095E-02 -0.13094835161E+00  0.13267181612E+00  0.20160957913E-01 0.  0.
         14    1    1    2    0    0 -0.12856486590E-01 -0.12211664379E-01  0.15417434361E-01  0.23497048254E-01  0.00000000000E+00 0. -1.
     999901    1    3    3    0    0  0.17825160207E-01  0.73962659695E-02  0.11553091725E+00  0.88776113563E+00  0.88000000000E+00 0. -1.
        -11    1    4    4    0    0 -0.11917030356E-01 -0.12995110667E-02 -0.78189400518E-01  0.79104663680E-01  0.51100000000E-03 0.  1.
         11    1    4    4    0    0  0.69483567393E-02  0.61149094762E-02 -0.52758951092E-01  0.53567152441E-01  0.51100000000E-03 0. -1.
</event>
<event>
 8    1  0.1071333E+005  0.1043930E+01  0.7957747E-01            NaN
         13   -1    0    0    0    0  0.00000000000E+00  0.00000000000E+00  0.74505805969E-08  0.10566000000E+00  0.10566000000E+00 0.  1.
     999900   -1    0    0    0    0 -0.00000000000E+00 -0.00000000000E+00 -0.74505805969E-08  0.93827000000E+00  0.93827000000E+00 0. -1.
     999902    2    1    2    0    0 -0.14064436899E-01  0.17110480928E-01  0.15335158115E-02  0.10217280043E+01  0.10214867528E+01 0.  0.
     999903    2    3    3    0    0  0.98557985250E-01  0.48392128457E-01  0.69090290076E-01  0.13143239653E+00  0.21107631834E-01 0.  0.
         14    1    1    2    0    0  0.14064436899E-01 -0.17110480928E-01 -0.15335158115E-02  0.22201995713E-01  0.00000000000E+00 0.  1.
     999901    1    3    3    0    0 -0.11262242215E+00 -0.31281647529E-01 -0.67556774265E-01  0.89029560776E+00  0.88000000000E+00 0. -1.
        -11    1    4    4    0    0  0.84499143002E-01  0.48646769153E-01  0.63099742165E-01  0.11613979464E+00  0.51100000000E-03 0. -1.
         11    1    4    4    0    0  0.14058842248E-01 -0.25464069615E-03  0.59905479113E-02  0.15292601888E-01  0.51100000000E-03 0.  1.
</event>
<event>
 8    1  0.1071333E+005  0.1043930E+01  0.7957747E-01            NaN
         13   -1    0    0    0    0  0.00000000000E+00  0.00000000000E+00  0.74505805969E-08  0.10566000000E+00  0.10566000000E+00 0.  1.
     999900   -1    0    0    0    0 -0.00000000000E+00 -0.00000000000E+00 -0.74505805969E-08  0.93827000000E+00  0.93827000000E+00 0.  1.
     999902    2    1    2    0    0 -0.19526563757E-01  0.96345431389E-02 -0.77442242157E-02  0.10208197399E+01  0.10205581107E+01 0.  0.
     999903    2    3    3    0    0  0.58117198795E-01 -0.75064068572E-01  0.85777075804E-01  0.12843605433E+00  0.11220077227E-01 0.  0.
         14    1    1    2    0    0  0.19526563757E-01 -0.96345431389E-02  0.77442242157E-02  0.23110260110E-01  0.00000000000E+00 0.  1.
     999901    1    3    3    0    0 -0.77643762552E-01  0.84698611711E-01 -0.93521300020E-01  0.89238368556E+00  0.88000000000E+00 0.  1.
        -11    1    4    4    0    0  0.10901047130E-01 -0.88380416614E-02  0.15820338026E-01  0.21153912763E-01  0.51100000000E-03 0. -1.
         11    1    4    4    0    0  0.47216151665E-01 -0.66226026911E-01  0.69956737778E-01  0.10728214157E+00  0.51100000000E-03 0.  1.
</event>
<event>
 8    1  0.1071333E+005  0.1043930E+01  0.7957747E-01            NaN
         13   -1    0    0    0    0  0.00000000000E+00  0.00000000000E+00  0.74505805969E-08  0.10566000000E+00  0.10566000000E+00 0. -1.
     999900   -1    0    0    0    0 -0.00000000000E+00 -0.00000000000E+00 -0.74505805969E-08  0.93827000000E+00  0.93827000000E+00 0. -1.
     999902    2    1    2    0    0 -0.20485628306E-01  0.10512747189E-01 -0.77231408712E-02  0.10196436720E+01  0.10193543997E+01 0.  0.
     999903    2    3    3    0    0  0.44717910046E-01  0.15168397000E-01  0.11756790143E+00  0.12836873031E+00  0.20653031905E-01 0.  0.
         14    1    1    2    0    0  0.20485628306E-01 -0.10512747189E-01  0.77231408712E-02  0.24286327953E-01  0.00000000000E+00 0. -1.
     999901    1    3    3    0    0 -0.65203538352E-01 -0.46556498113E-02 -0.12529104231E+00  0.89127494174E+00  0.88000000000E+00 0. -1.
        -11    1    4    4    0    0  0.96360437879E-03 -0.20088806804E-02  0.19312115546E-01  0.19446929394E-01  0.51100000000E-03 0.  1.
         11    1    4    4    0    0  0.43754305667E-01  0.17177277680E-01  0.98255785888E-01  0.10892180091E+00  0.51100000000E-03 0. -1.
</event>
<event>
 8    1  0.1071333E+005  0.1043930E+01  0.7957747E-01            NaN
         13   -1    0    0    0    0  0.00000000000E+00  0.00000000000E+00  0.74505805969E-08  0.10566000000E+00  0.10566000000E+00 0. -1.
     999900   -1    0    0    0    0 -0.00000000000E+00 -0.00000000000E+00 -0.74505805969E-08  0.93827000000E+00  0.93827000000E+00 0.  1.
     999902    2    1    2    0    0 -0.41905783072E-02  0.20474771442E-01 -0.11228291594E-01  0.10202055033E+01  0.10199296138E+01 0.  0.
     999903    2    3    3    0    0  0.70848988635E-01 -0.97819986914E-01 -0.37750298069E-01  0.12873031951E+00  0.23623740743E-01 0.  0.
         14    1    1    2    0    0  0.41905783072E-02 -0.20474771442E-01  0.11228291594E-01  0.23724496712E-01  0.00000000000E+00 0. -1.
     999901    1    3    3    0    0 -0.75039566942E-01  0.11829475836E+00  0.26522006475E-01  0.89147518378E+00  0.88000000000E+00 0. -1.
        -11    1    4    4    0    0  0.49390987573E-01 -0.48546256423E-01 -0.23381765991E-01  0.73097036656E-01  0.51100000000E-03 0.  1.
         11    1    4    4    0    0  0.21458001062E-01 -0.49273730492E-01 -0.14368532078E-01  0.55633282855E-01  0.51100000000E-03 0. -1.
</event>
<event>
 8    1  0.1071333E+005  0.1043930E+01  0.7957747E-01            NaN
         13   -1    0    0    0    0  0.00000000000E+00  0.00000000000E+00  0.74505805969E-08  0.10566000000E+00  0.10566000000E+00 0. -1.
     999900   -1    0    0    0    0 -0.00000000000E+00 -0.00000000000E+00 -0.74505805969E-08  0.93827000000E+00  0.93827000000E+00 0.  1.
     999902    2    1    2    0    0 -0.15198550729E-01  0.14659608360E-01 -0.95805928955E-02  0.10207419034E+01  0.10204784886E+01 0.  0.
     999903    2    3    3    0    0  0.70411356413E-01  0.21616770122E-01  0.10214010427E+00  0.12952982292E+00  0.30336945524E-01 0.  0.
         14    1    1    2    0    0  0.15198550729E-01 -0.14659608360E-01  0.95805928955E-02  0.23188096553E-01  0.00000000000E+00 0. -1.
     999901    1    3    3    0    0 -0.85609907142E-01 -0.69571617623E-02 -0.11172069716E+00  0.89121208053E+00  0.88000000000E+00 0.  1.
        -11    1    4    4    0    0  0.25319253379E-01  0.21636780492E-01  0.32311889309E-01  0.46406186801E-01  0.51100000000E-03 0. -1.
         11    1    4    4    0    0  0.45092103034E-01 -0.20010369898E-04  0.69828214959E-01  0.83123636119E-01  0.51100000000E-03 0.  1.
</event>
<event>
 8    1  0.1071333E+005  0.1043930E+01  0.7957747E-01            NaN
         13   -1    0    0    0    0  0.00000000000E+00  0.00000000000E+00  0.74505805969E-08  0.10566000000E+00  0.10566000000E+00 0.  1.
     999900   -1    0    0    0    0 -0.00000000000E+00 -0.00000000000E+00 -0.74505805969E-08  0.93827000000E+00  0.93827000000E+00 0. -1.
     999902    2    1    2    0    0 -0.80338682791E-02 -0.18213631110E-02 -0.22468032811E-01  0.10199994149E+01  0.10197186541E+01 0.  0.
     999903    2    3    3    0    0  0.19329115625E-01  0.11270059689E+00  0.55960154408E-01  0.12869980607E+00  0.18896082991E-01 0.  0.
         14    1    1    2    0    0  0.80338682791E-02  0.18213631110E-02  0.22468032811E-01  0.23930585064E-01  0.00000000000E+00 0.  1.
     999901    1    3    3    0    0 -0.27362983904E-01 -0.11452196000E+00 -0.78428187218E-01  0.89129960886E+00  0.88000000000E+00 0. -1.
        -11    1    4    4    0    0  0.74540150098E-02  0.25868154196E-01  0.21767525680E-01  0.34623836248E-01  0.51100000000E-03 0. -1.
         11    1    4    4    0    0  0.11875100615E-01  0.86832442690E-01  0.34192628728E-01  0.94075969825E-01  0.51100000000E-03 0.  1.
</event>
<event>
 8    1  0.1071333E+005  0.1043930E+01  0.7957747E-01            NaN
         13   -1    0    0    0    0  0.00000000000E+00  0.00000000000E+00  0.74505805969E-08  0.10566000000E+00  0.10566000000E+00 0. -1.
     999900   -1    0    0    0    0 -0.00000000000E+00 -0.00000000000E+00 -0.74505805969E-08  0.93827000000E+00  0.93827000000E+00 0. -1.
     999902    2    1    2    0    0 -0.96929924396E-02  0.21332929260E-01  0.52976704415E-02  0.10199068178E+01  0.10196238540E+01 0.  0.
     999903    2    3    3    0    0 -0.10572766542E+00 -0.19984808780E-01  0.72314786462E-01  0.13118801648E+00  0.20078234743E-01 0.  0.
         14    1    1    2    0    0  0.96929924396E-02 -0.21332929260E-01 -0.52976704415E-02  0.24023182249E-01  0.00000000000E+00 0.  1.
     999901    1    3    3    0    0  0.96034672979E-01  0.41317738040E-01 -0.67017116021E-01  0.88871880127E+00  0.88000000000E+00 0. -1.
        -11    1    4    4    0    0 -0.47626104568E-01 -0.27417151124E-02  0.41321091539E-01  0.63114630356E-01  0.51100000000E-03 0.  1.
         11    1    4    4    0    0 -0.58101560851E-01 -0.17243093668E-01  0.30993694924E-01  0.68073386125E-01  0.51100000000E-03 0. -1.
</event>
<event>
 8    1  0.1071333E+005  0.1043930E+01  0.7957747E-01            NaN
         13   -1    0    0    0    0  0.00000000000E+00  0.00000000000E+00  0.74505805969E-08  0.10566000000E+00  0.10566000000E+00 0.  1.
     999900   -1    0    0    0    0 -0.00000000000E+00 -0.00000000000E+00 -0.74505805969E-08  0.93827000000E+00  0.93827000000E+00 0.  1.
     999902    2    1    2    0    0 -0.13507990958E-02 -0.13525841009E-01 -0.18706368422E-01  0.10208063919E+01  0.10205444569E+01 0.  0.
     999903    2    3    3    0    0 -0.20421383202E-01 -0.13394254222E-01 -0.12991966304E+00  0.13360173601E+00  0.19335616932E-01 0.  0.
         14    1    1    2    0    0  0.13507990958E-02  0.13525841009E-01  0.18706368422E-01  0.23123608125E-01  0.00000000000E+00 0. -1.
     999901    1    3    3    0    0  0.19070584106E-01 -0.13158678698E-03  0.11121329462E+00  0.88720465587E+00  0.88000000000E+00 0. -1.
        -11    1    4    4    0    0 -0.28966355763E-02 -0.13279207159E-01 -0.54636222151E-01  0.56303691996E-01  0.51100000000E-03 0. -1.
         11    1    4    4    0    0 -0.17524747625E-01 -0.11504706282E-03 -0.75283440888E-01  0.77298044012E-01  0.51100000000E-03 0.  1.
</event>
<event>
 7    1  0.1071333E+005  0.1043930E+01  0.7957747E-01            NaN
         13   -1    0    0    0    0  0.00000000000E+00  0.00000000000E+00  0.74505805969E-08  0.10566000000E+00  0.10566000000E+00 0.  1.
     999900   -1    0    0    0    0 -0.00000000000E+00 -0.00000000000E+00 -0.74505805969E-08  0.93827000000E+00  0.93827000000E+00 0.  1.
     999902    2    1    2    0    0  0.16158241865E-01 -0.12313190686E-01  0.70934100050E-02  0.10224121026E+01  0.10221856424E+01 0.  0.
         14    1    1    2    0    0 -0.16158241865E-01  0.12313190686E-01 -0.70934100050E-02  0.21517897447E-01  0.00000000000E+00 0. -1.
     999901    1    3    3    0    0  0.77865217718E-01  0.89443184339E-01 -0.16189978152E-01  0.88810201596E+00  0.88000000000E+00 0. -1.
        -11    1    3    3    0    0 -0.70871384967E-01 -0.79540999365E-01  0.27208326805E-01  0.10995489055E+00  0.51100000000E-03 0.  1.
         11    1    3    3    0    0  0.91644091140E-02 -0.22215375659E-01 -0.39249386481E-02  0.24355196047E-01  0.51100000000E-03 0. -1.
</event>
<event>
 8    1  0.1071333E+005  0.1043930E+01  0.7957747E-01            NaN
         13   -1    0    0    0    0  0.00000000000E+00  0.00000000000E+00  0.74505805969E-08  0.10566000000E+00  0.10566000000E+00 0.  1.
     999900   -1    0    0    0    0 -0.00000000000E+00 -0.00000000000E+00 -0.74505805969E-08  0.93827000000E+00  0.93827000000E+00 0. -1.
     999902    2    1    2    0    0 -0.12831222518E-01  0.77775164713E-02 -0.19118777035E-01  0.10196265503E+01  0.10193368650E+01 0.  0.
     999903    2    3    3    0    0  0.27727318191E-01 -0.65558131057E-01 -0.10833288884E+00  0.13115467667E+00  0.19971521852E-01 0.  0.
         14    1    1    2    0    0  0.12831222518E-01 -0.77775164713E-02  0.19118777035E-01  0.24303449737E-01  0.00000000000E+00 0.  1.
     999901    1    3    3    0    0 -0.40558540710E-01  0.73335647529E-01  0.89214111808E-01  0.88847187359E+00  0.88000000000E+00 0.  1.
        -11    1    4    4    0    0  0.14721826996E-01 -0.52656764300E-01 -0.71464885456E-01  0.89983098362E-01  0.51100000000E-03 0.  1.
         11    1    4    4    0    0  0.13005491196E-01 -0.12901366757E-01 -0.36868003388E-01  0.41171578306E-01  0.51100000000E-03 0. -1.
</event>
<event>
 8    1  0.1071333E+005  0.1043930E+01  0.7957747E-01            NaN
         13   -1    0    0    0    0  0.00000000000E+00  0.00000000000E+00  0.74505805969E-08  0.10566000000E+00  0.10566000000E+00 0. -1.
     999900   -1    0    0    0    0 -0.00000000000E+00 -0.00000000000E+00 -0.74505805969E-08  0.93827000000E+00  0.93827000000E+00 0.  1.
     999902    2    1    2    0    0  0.74951594454E-02 -0.22010621358E-01  0.48745457016E-03  0.10206731197E+01  0.10204081217E+01 0.  0.
     999903    2    3    3    0    0  0.58425436257E-01 -0.20634656200E-01 -0.11438649341E+00  0.13174578283E+00  0.20817319262E-01 0.  0.
         14    1    1    2    0    0 -0.74951594454E-02  0.22010621358E-01 -0.48745457016E-03  0.23256880265E-01  0.00000000000E+00 0. -1.
     999901    1    3    3    0    0 -0.50930276811E-01 -0.13759651585E-02  0.11487394798E+00  0.88892733691E+00  0.88000000000E+00 0. -1.
        -11    1    4    4    0    0  0.44358852382E-01 -0.12750432081E-01 -0.99961945770E-01  0.11010419168E+00  0.51100000000E-03 0. -1.
         11    1    4    4    0    0  0.14066583875E-01 -0.78842241183E-02 -0.14424547636E-01  0.21641591147E-01  0.51100000000E-03 0.  1.
</event>
<event>
 8    1  0.1071333E+005  0.1043930E+01  0.7957747E-01            NaN
         13   -1    0    0    0    0  0.00000000000E+00  0.00000000000E+00  0.74505805969E-08  0.10566000000E+00  0.10566000000E+00 0.  1.
     999900   -1    0    0    0    0 -0.00000000000E+00 -0.00000000000E+00 -0.74505805969E-08  0.93827000000E+00  0.93827000000E+00 0. -1.
     999902    2    1    2    0    0 -0.22507811968E-01 -0.39938245601E-02  0.15956347327E-03  0.10210700417E+01  0.10208141125E+01 0.  0.
     999903    2    3    3    0    0  0.95864968777E-01  0.83401113927E-01 -0.79674929477E-02  0.12881669226E+00  0.19606662587E-01 0.  0.
         14    1    1    2    0    0  0.22507811968E-01  0.39938245601E-02 -0.15956347327E-03  0.22859958327E-01  0.00000000000E+00 0.  1.
     999901    1    3    3    0    0 -0.11837278075E+00 -0.87394938487E-01  0.81270564210E-02  0.89225334941E+00  0.88000000000E+00 0.  1.
        -11    1    4    4    0    0  0.73605926472E-01  0.61370941415E-01  0.22750390088E-02  0.95862723649E-01  0.51100000000E-03 0.  1.
         11    1    4    4    0    0  0.22259042305E-01  0.22030172512E-01 -0.10242531957E-01  0.32953968609E-01  0.51100000000E-03 0. -1.
</event>
<event>
 8    1  0.1071333E+005  0.1043930E+01  0.7957747E-01            NaN
         13   -1    0    0    0    0  0.00000000000E+00  0.00000000000E+00  0.74505805969E-08  0.10566000000E+00  0.10566000000E+00 0.  1.
     999900   -1    0    0    0    0 -0.00000000000E+00 -0.00000000000E+00 -0.74505805969E-08  0.93827000000E+00  0.93827000000E+00 0.  1.
     999902    2    1    2    0    0 -0.88434613972E-03  0.15547867599E-01  0.16312348659E-01  0.10213775949E+01  0.10211285818E+01 0.  0.
     999903    2    3    3    0    0 -0.17655114260E-01 -0.10341218971E-01 -0.12622237161E+00  0.12937554901E+00  0.19679982684E-01 0.  0.
         14    1    1    2    0    0  0.88434613972E-03 -0.15547867599E-01 -0.16312348659E-01  0.22552405055E-01  0.00000000000E+00 0. -1.
     999901    1    3    3    0    0  0.16770768121E-01  0.25889086570E-01  0.14253472027E+00  0.89200204593E+00  0.88000000000E+00 0. -1.
        -11    1    4    4    0    0  0.36849421585E-02 -0.92046484225E-03 -0.35286954059E-01  0.35494454525E-01  0.51100000000E-03 0. -1.
         11    1    4    4    0    0 -0.21340056419E-01 -0.94207541287E-02 -0.90935417549E-01  0.93881094487E-01  0.51100000000E-03 0.  1.
</event>
<event>
 8    1  0.1071333E+005  0.1043930E+01  0.7957747E-01            NaN
         13   -1    0    0    0    0  0.00000000000E+00  0.00000000000E+00  0.74505805969E-08  0.10566000000E+00  0.10566000000E+00 0.  1.
     999900   -1    0    0    0    0 -0.00000000000E+00 -0.00000000000E+00 -0.74505805969E-08  0.93827000000E+00  0.93827000000E+00 0.  1.
     999902    2    1    2    0    0 -0.72450399085E-02  0.17511823920E-01  0.13639487602E-01  0.10205806916E+01  0.10203135586E+01 0.  0.
     999903    2    3    3    0    0  0.12635285756E+00  0.62302257436E-02  0.24657538992E-01  0.13035764646E+00  0.19525916953E-01 0.  0.
         14    1    1    2    0    0  0.72450399085E-02 -0.17511823920E-01 -0.13639487602E-01  0.23349308391E-01  0.00000000000E+00 0. -1.
     999901    1    3    3    0    0 -0.13359789747E+00  0.11281598176E-01 -0.11018051390E-01  0.89022304515E+00  0.88000000000E+00 0.  1.
        -11    1    4    4    0    0  0.10253216740E+00  0.37014958022E-02  0.27520961872E-01  0.10622716642E+00  0.51100000000E-03 0.  1.
         11    1    4    4    0    0  0.23820690167E-01  0.25287299414E-02 -0.28634228798E-02  0.24130480035E-01  0.51100000000E-03 0. -1.
</event>
<event>
 8    1  0.1071333E+005  0.1043930E+01  0.7957747E-01            NaN
         13   -1    0    0    0    0  0.00000000000E+00  0.00000000000E+00  0.74505805969E-08  0.10566000000E+00  0.10566000000E+00 0. -1.
     999900   -1    0    0    0    0 -0.00000000000E+00 -0.00000000000E+00 -0.74505805969E-08  0.93827000000E+00  0.93827000000E+00 0.  1.
     999902    2    1    2    0    0  0.68963105452E-02  0.19880924306E-01 -0.11271108650E-01  0.10200585078E+01  0.10197791482E+01 0.  0.
     999903    2    3    3    0    0 -0.74364779105E-01  0.99656121437E-01 -0.40957524407E-01  0.13222477895E+00  0.18558298756E-01 0.  0.
         14    1    1    2    0    0 -0.68963105452E-02 -0.19880924306E-01  0.11271108650E-01  0.23871492215E-01  0.00000000000E+00 0. -1.
     999901    1    3    3    0    0  0.81261089650E-01 -0.79775197131E-01  0.29686415757E-01  0.88783372883E+00  0.88000000000E+00 0.  1.
        -11    1    4    4    0    0 -0.26534631418E-01  0.21841829631E-01 -0.10477990878E-01  0.35933293753E-01  0.51100000000E-03 0.  1.
         11    1    4    4    0    0 -0.47830147686E-01  0.77814291806E-01 -0.30479533528E-01  0.96291485201E-01  0.51100000000E-03 0. -1.
</event>
<event>
 8    1  0.1071333E+005  0.1043930E+01  0.7957747E-01            NaN
         13   -1    0    0    0    0  0.00000000000E+00  0.00000000000E+00  0.74505805969E-08  0.10566000000E+00  0.10566000000E+00 0. -1.
     999900   -1    0    0    0    0 -0.00000000000E+00 -0.00000000000E+00 -0.74505805969E-08  0.93827000000E+00  0.93827000000E+00 0. -1.
     999902    2    1    2    0    0 -0.14862440112E-01 -0.12476746849E-01 -0.14673561762E-01  0.10196015238E+01  0.10193112344E+01 0.  0.
     999903    2    3    3    0    0 -0.97128723624E-01  0.44042221890E-01  0.72138621749E-01  0.12971473865E+00  0.15755202737E-01 0.  0.
         14    1    1    2    0    0  0.14862440112E-01  0.12476746849E-01  0.14673561762E-01  0.24328476171E-01  0.00000000000E+00 0. -1.
     999901    1    3    3    0    0  0.82266283512E-01 -0.56518968739E-01 -0.86812183511E-01  0.88988678518E+00  0.88000000000E+00 0.  1.
        -11    1    4    4    0    0 -0.66542143355E-01  0.37908770590E-01  0.50094122821E-01  0.91512917078E-01  0.51100000000E-03 0. -1.
         11    1    4    4    0    0 -0.30586580269E-01  0.61334512999E-02  0.22044498927E-01  0.38201821571E-01  0.51100000000E-03 0.  1.
</event>
<event>
 8    1  0.1071333E+005  0.1043930E+01  0.7957747E-01            NaN
         13   -1    0    0    0    0  0.00000000000E+00  0.00000000000E+00  0.74505805969E-08  0.10566000000E+00  0.10566000000E+00 0. -1.
     999900   -1    0    0    0    0 -0.00000000000E+00 -0.00000000000E+00 -0.74505805969E-08  0.93827000000E+00  0.93827000000E+00 0.  1.
     999902    2    1    2    0    0 -0.73085321986E-02  0.12194480137E-01 -0.23373344777E-01  0.10165724922E+01  0.10162043095E+01 0.  0.
     999903    2    3    3    0    0 -0.72250368429E-01  0.43334693117E-01 -0.97505898699E-01  0.13052351468E+00  0.20759967189E-01 0.  0.
         14    1    1    2    0    0  0.73085321986E-02 -0.12194480137E-01  0.23373344777E-01  0.27357507832E-01  0.00000000000E+00 0. -1.
     999901    1    3    3    0    0  0.64941836230E-01 -0.31140212980E-01  0.74132553922E-01  0.88604897749E+00  0.88000000000E+00 0. -1.
        -11    1    4    4    0    0 -0.28371406694E-01  0.59817367120E-02 -0.29157628250E-01  0.41123549191E-01  0.51100000000E-03 0.  1.
         11    1    4    4    0    0 -0.43878961735E-01  0.37352956405E-01 -0.68348270449E-01  0.89399965489E-01  0.51100000000E-03 0. -1.
</event>
<event>
 8    1  0.1071333E+005  0.1043930E+01  0.7957747E-01            NaN
         13   -1    0    0    0    0  0.00000000000E+00  0.00000000000E+00  0.74505805969E-08  0.10566000000E+00  0.10566000000E+00 0.  1.
     999900   -1    0    0    0    0 -0.00000000000E+00 -0.00000000000E+00 -0.74505805969E-08  0.93827000000E+00  0.93827000000E+00 0.  1.
     999902    2    1    2    0    0 -0.55736016264E-02 -0.18790497835E-01 -0.14430691844E-01  0.10195908811E+01  0.10193003346E+01 0.  0.
     999903    2    3    3    0    0 -0.14836292115E-01 -0.12783904397E+00  0.21966952808E-01  0.13206501023E+00  0.19891786868E-01 0.  0.
         14    1    1    2    0    0  0.55736016264E-02  0.18790497835E-01  0.14430691844E-01  0.24339118947E-01  0.00000000000E+00 0.  1.
     999901    1    3    3    0    0  0.92626904885E-02  0.10904854613E+00 -0.36397644653E-01  0.88752587083E+00  0.88000000000E+00 0. -1.
        -11    1    4    4    0    0  0.22580840697E-02 -0.64157125490E-01  0.84094760020E-02  0.64747325060E-01  0.51100000000E-03 0. -1.
         11    1    4    4    0    0 -0.17094376185E-01 -0.63681918476E-01  0.13557476806E-01  0.67317685167E-01  0.51100000000E-03 0.  1.
</event>
<event>
 8    1  0.1071333E+005  0.1043930E+01  0.7957747E-01            NaN
         13   -1    0    0    0    0  0.00000000000E+00  0.00000000000E+00  0.74505805969E-08  0.10566000000E+00  0.10566000000E+00 0. -1.
     999900   -1    0    0    0    0 -0.00000000000E+00 -0.00000000000E+00 -0.74505805969E-08  0.93827000000E+00  0.93827000000E+00 0.  1.
     999902    2    1    2    0    0  0.85821306878E-02  0.17195156862E-01 -0.18552266707E-01  0.10172183361E+01  0.10168675579E+01 0.  0.
     999903    2    3    3    0    0 -0.24179068330E-01 -0.18870461751E-01 -0.12430845768E+00  0.12954812883E+00  0.19733305859E-01 0.  0.
         14    1    1    2    0    0 -0.85821306878E-02 -0.17195156862E-01  0.18552266707E-01  0.26711663868E-01  0.00000000000E+00 0. -1.
     999901    1    3    3    0    0  0.32761199018E-01  0.36065618613E-01  0.10575619097E+00  0.88767020730E+00  0.88000000000E+00 0. -1.
        -11    1    4    4    0    0 -0.26187383510E-01 -0.18764391213E-01 -0.12286736578E+00  0.12702177816E+00  0.51100000000E-03 0.  1.
         11    1    4    4    0    0  0.20083151800E-02 -0.10607053778E-03 -0.14410918983E-02  0.25263506646E-02  0.51100000000E-03 0. -1.
</event>
<event>
 8    1  0.1071333E+005  0.1043930E+01  0.7957747E-01            NaN
         13   -1    0    0    0    0  0.00000000000E+00  0.00000000000E+00  0.74505805969E-08  0.10566000000E+00  0.10566000000E+00 0.  1.
     999900   -1    0    0    0    0 -0.00000000000E+00 -0.00000000000E+00 -0.74505805969E-08  0.93827000000E+00  0.93827000000E+00 0. -1.
     999902    2    1    2    0    0  0.45859692703E-02  0.20915324410E-01  0.95697116554E-02  0.10204766145E+01  0.10202070670E+01 0.  0.
     999903    2    3    3    0    0  0.54943623969E-01 -0.51919438388E-01 -0.10247534625E+00  0.12896391631E+00  0.20397676925E-01 0.  0.
         14    1    1    2    0    0 -0.45859692703E-02 -0.20915324410E-01 -0.95697116554E-02  0.23453385481E-01  0.00000000000E+00 0. -1.
     999901    1    3    3    0    0 -0.50357654699E-01  0.72834762799E-01  0.11204505791E+00  0.89151269820E+00  0.88000000000E+00 0.  1.
        -11    1    4    4    0    0  0.19024334699E-01 -0.30096904999E-01 -0.38765518943E-01  0.52638157084E-01  0.51100000000E-03 0. -1.
         11    1    4    4    0    0  0.35919289269E-01 -0.21822533389E-01 -0.63709827311E-01  0.76325759230E-01  0.51100000000E-03 0.  1.
</event>
<event>
 8    1  0.1071333E+005  0.1043930E+01  0.7957747E-01            NaN
         13   -1    0    0    0    0  0.00000000000E+00  0.00000000000E+00  0.74505805969E-08  0.10566000000E+00  0.10566000000E+00 0. -1.
     999900   -1    0    0    0    0 -0.00000000000E+00 -0.00000000000E+00 -0.74505805969E-08  0.93827000000E+00  0.93827000000E+00 0. -1.
     999902    2    1    2    0    0  0.20461273446E-01 -0.99936162957E-02  0.67093924527E-02  0.10201907493E+01  0.10199145125E+01 0.  0.
     999903    2    3    3    0    0 -0.61967402199E-01  0.85873760671E-01  0.70755591588E-01  0.12885077140E+00  0.19542411401E-01 0.  0.
         14    1    1    2    0    0 -0.20461273446E-01  0.99936162957E-02 -0.67093924527E-02  0.23739250721E-01  0.00000000000E+00 0.  1.
     999901    1    3    3    0    0  0.82428675645E-01 -0.95867376967E-01 -0.64046199135E-01  0.89133997788E+00  0.88000000000E+00 0. -1.
        -11    1    4    4    0    0 -0.57027723354E-01  0.81234819600E-01  0.71025477058E-01  0.12204973027E+00  0.51100000000E-03 0. -1.
         11    1    4    4    0    0 -0.49396788455E-02  0.46389410711E-02 -0.26988547022E-03  0.68010411354E-02  0.51100000000E-03 0.  1.
</event>
<event>
 8    1  0.1071333E+005  0.1043930E+01  0.7957747E-01            NaN
         13   -1    0    0    0    0  0.00000000000E+00  0.00000000000E+00  0.74505805969E-08  0.10566000000E+00  0.10566000000E+00 0. -1.
     999900   -1    0    0    0    0 -0.00000000000E+00 -0.00000000000E+00 -0.74505805969E-08  0.93827000000E+00  0.93827000000E+00 0.  1.
     999902    2    1    2    0    0 -0.22667037055E-01 -0.78737430318E-03  0.46026926545E-02  0.10207869815E+01  0.10205246015E+01 0.  0.
     999903    2    3    3    0    0 -0.57974695001E-01 -0.11589378428E+00 -0.17018396026E-01  0.13232562170E+00  0.20688399143E-01 0.  0.
         14    1    1    2    0    0  0.22667037055E-01  0.78737430318E-03 -0.46026926545E-02  0.23143018533E-01  0.00000000000E+00 0.  1.
     999901    1    3    3    0    0  0.35307657945E-01  0.11510640998E+00  0.21621088680E-01  0.88846135977E+00  0.88000000000E+00 0.  1.
        -11    1    4    4    0    0 -0.17559313490E-01 -0.37759838613E-01 -0.15213665033E-01  0.44337925380E-01  0.51100000000E-03 0.  1.
         11    1    4    4    0    0 -0.40415381510E-01 -0.78133945668E-01 -0.18047309931E-02  0.87987696317E-01  0.51100000000E-03 0. -1.
</event>
<event>
 8    1  0.1071333E+005  0.1043930E+01  0.7957747E-01            NaN
         13   -1    0    0    0    0  0.00000000000E+00  0.00000000000E+00  0.74505805969E-08  0.10566000000E+00  0.10566000000E+00 0. -1.
     999900   -1    0    0    0    0 -0.00000000000E+00 -0.00000000000E+00 -0.74505805969E-08  0.93827000000E+00  0.93827000000E+00 0. -1.
     999902    2    1    2    0    0 -0.21380020825E-01 -0.50809702723E-02 -0.89448745957E-02  0.10202038050E+01  0.10199278756E+01 0.  0.
     999903    2    3    3    0    0 -0.93101397267E-01 -0.79084526248E-01 -0.48389978283E-01  0.13331238075E+00  0.22547026376E-01 0.  0.
         14    1    1    2    0    0  0.21380020825E-01  0.50809702723E-02  0.89448745957E-02  0.23726195037E-01  0.00000000000E+00 0. -1.
     999901    1    3    3    0    0  0.71721376441E-01  0.74003555976E-01  0.39445103687E-01  0.88689142421E+00  0.88000000000E+00 0. -1.
        -11    1    4    4    0    0 -0.79203450436E-01 -0.75246245330E-01 -0.46605823101E-01  0.11877519886E+00  0.51100000000E-03 0. -1.
         11    1    4    4    0    0 -0.13897946830E-01 -0.38382809181E-02 -0.17841551826E-02  0.14537181887E-01  0.51100000000E-03 0.  1.
</event>
<event>
 7    1  0.1295803E+005  0.1043930E+01  0.7957747E-01            NaN
         13   -1    0    0    0    0  0.00000000000E+00  0.00000000000E+00  0.74505805969E-08  0.10566000000E+00  0.10566000000E+00 0.  1.
     999900   -1    0    0    0    0 -0.00000000000E+00 -0.00000000000E+00 -0.74505805969E-08  0.93827000000E+00  0.93827000000E+00 0.  1.
     999903    2    1    2    0    0 -0.15728297020E-01  0.41097264754E-01 -0.83862807571E-01  0.96782573403E-01  0.19938192582E-01 0.  0.
         14    1    1    2    0    0  0.57644673375E-01 -0.12018211599E-01  0.24168100785E-01  0.63650945587E-01  0.00000000000E+00 0.  1.
     999901    1    1    2    0    0 -0.41916376355E-01 -0.29079053155E-01  0.59694706786E-01  0.88349648101E+00  0.88000000000E+00 0. -1.
        -11    1    3    3    0    0  0.42266825878E-02  0.73883055458E-02 -0.21576210947E-01  0.23200127249E-01  0.51100000000E-03 0. -1.
         11    1    3    3    0    0 -0.19954979608E-01  0.33708959208E-01 -0.62286596624E-01  0.73582446154E-01  0.51100000000E-03 0.  1.
</event>
<event>
 8    1  0.1071333E+005  0.1043930E+01  0.7957747E-01            NaN
         13   -1    0    0    0    0  0.00000000000E+00  0.00000000000E+00  0.74505805969E-08  0.10566000000E+00  0.10566000000E+00 0. -1.
     999900   -1    0    0    0    0 -0.00000000000E+00 -0.00000000000E+00 -0.74505805969E-08  0.93827000000E+00  0.93827000000E+00 0.  1.
     999902    2    1    2    0    0 -0.75724983104E-02 -0.16942413368E-01  0.14146580712E-01  0.10205951795E+01  0.10203283817E+01 0.  0.
     999903    2    3    3    0    0  0.55130299103E-01 -0.11752672837E+00  0.17601609205E-01  0.13264203748E+00  0.20789701729E-01 0.  0.
         14    1    1    2    0    0  0.75724983104E-02  0.16942413368E-01 -0.14146580712E-01  0.23334820489E-01  0.00000000000E+00 0. -1.
     999901    1    3    3    0    0 -0.62702797414E-01  0.10058431500E+00 -0.34550284926E-02  0.88795314204E+00  0.88000000000E+00 0.  1.
        -11    1    4    4    0    0  0.20548351859E-01 -0.23451077981E-01  0.25760309147E-02  0.31290332035E-01  0.51100000000E-03 0. -1.
         11    1    4    4    0    0  0.34581947244E-01 -0.94075650392E-01  0.15025578290E-01  0.10135170544E+00  0.51100000000E-03 0.  1.
</event>
<event>
 8    1  0.1071333E+005  0.1043930E+01  0.7957747E-01            NaN
         13   -1    0    0    0    0  0.00000000000E+00  0.00000000000E+00  0.74505805969E-08  0.10566000000E+00  0.10566000000E+00 0. -1.
     999900   -1    0    0    0    0 -0.00000000000E+00 -0.00000000000E+00 -0.74505805969E-08  0.93827000000E+00  0.93827000000E+00 0. -1.
     999902    2    1    2    0    0  0.19537262670E-01 -0.84771257162E-03 -0.10200813864E-01  0.10218737117E+01  0.10216356507E+01 0.  0.
     999903    2    3    3    0    0  0.10396097858E-01 -0.60531469347E-01  0.11406291610E+00  0.13109473447E+00  0.20083399747E-01 0.  0.
         14    1    1    2    0    0 -0.19537262670E-01  0.84771257162E-03  0.10200813864E-01  0.22056288281E-01  0.00000000000E+00 0. -1.
     999901    1    3    3    0    0  0.91411648121E-02  0.59683756776E-01 -0.12426372996E+00  0.89077897724E+00  0.88000000000E+00 0. -1.
        -11    1    4    4    0    0  0.18480418720E-02 -0.51164069921E-01  0.98506406400E-01  0.11101779377E+00  0.51100000000E-03 0. -1.
         11    1    4    4    0    0  0.85480559862E-02 -0.93673994263E-02  0.15556509700E-01  0.20076940709E-01  0.51100000000E-03 0.  1.
</event>
<event>
 8    1  0.1071333E+005  0.1043930E+01  0.7957747E-01            NaN
         13   -1    0    0    0    0  0.00000000000E+00  0.00000000000E+00  0.74505805969E-08  0.10566000000E+00  0.10566000000E+00 0.  1.
     999900   -1    0    0    0    0 -0.00000000000E+00 -0.00000000000E+00 -0.74505805969E-08  0.93827000000E+00  0.93827000000E+00 0.  1.
     999902    2    1    2    0    0  0.12469249384E-01  0.89722522461E-02 -0.20705771733E-01  0.10181479816E+01  0.10178214971E+01 0.  0.
     999903    2    3    3    0    0  0.98264992960E-01 -0.80632326136E-01  0.59974095304E-02  0.12904565341E+00  0.21429672941E-01 0.  0.
         14    1    1    2    0    0 -0.12469249384E-01 -0.89722522461E-02  0.20705771733E-01  0.25782018416E-01  0.00000000000E+00 0. -1.
     999901    1    3    3    0    0 -0.85795743576E-01  0.89604578382E-01 -0.26703181263E-01  0.88910232818E+00  0.88000000000E+00 0. -1.
        -11    1    4    4    0    0  0.92411801382E-01 -0.70081500986E-01  0.97745924111E-02  0.11639227463E+00  0.51100000000E-03 0. -1.
         11    1    4    4    0    0  0.58531915774E-02 -0.10550825150E-01 -0.37771828807E-02  0.12653378778E-01  0.51100000000E-03 0.  1.
</event>
<event>
 8    1  0.1071333E+005  0.1043930E+01  0.7957747E-01            NaN
         13   -1    0    0    0    0  0.00000000000E+00  0.00000000000E+00  0.74505805969E-08  0.10566000000E+00  0.10566000000E+00 0.  1.
     999900   -1    0    0    0    0 -0.00000000000E+00 -0.00000000000E+00 -0.74505805969E-08  0.93827000000E+00  0.93827000000E+00 0.  1.
     999902    2    1    2    0    0  0.21436377031E-02  0.69574884842E-02  0.21560219018E-01  0.10211737949E+01  0.10209202096E+01 0.  0.
     999903    2    3    3    0    0 -0.27489821929E-01  0.57255402062E-01 -0.11072306812E+00  0.12937399103E+00  0.21075112500E-01 0.  0.
         14    1    1    2    0    0 -0.21436377031E-02 -0.69574884842E-02 -0.21560219018E-01  0.22756205147E-01  0.00000000000E+00 0. -1.
     999901    1    3    3    0    0  0.29633459632E-01 -0.50297913578E-01  0.13228328714E+00  0.89179980382E+00  0.88000000000E+00 0. -1.
        -11    1    4    4    0    0 -0.23471590674E-01  0.31081589551E-01 -0.52150207274E-01  0.65091366690E-01  0.51100000000E-03 0.  1.
         11    1    4    4    0    0 -0.40182312546E-02  0.26173812512E-01 -0.58572860844E-01  0.64282624342E-01  0.51100000000E-03 0. -1.
</event>
<event>
 8    1  0.1071333E+005  0.1043930E+01  0.7957747E-01            NaN
         13   -1    0    0    0    0  0.00000000000E+00  0.00000000000E+00  0.74505805969E-08  0.10566000000E+00  0.10566000000E+00 0. -1.
     999900   -1    0    0    0    0 -0.00000000000E+00 -0.00000000000E+00 -0.74505805969E-08  0.93827000000E+00  0.93827000000E+00 0.  1.
     999902    2    1    2    0    0  0.97502492178E-03 -0.22172975387E-01  0.71501218639E-02  0.10206122867E+01  0.10203458845E+01 0.  0.
     999903    2    3    3    0    0  0.61540475721E-01 -0.59782367706E-01  0.99580420250E-01  0.13290400112E+00  0.19648200319E-01 0.  0.
         14    1    1    2    0    0 -0.97502492178E-03  0.22172975387E-01 -0.71501218639E-02  0.23317713305E-01  0.00000000000E+00 0. -1.
     999901    1    3    3    0    0 -0.60565450799E-01  0.37609392318E-01 -0.92430298386E-01  0.88770828558E+00  0.88000000000E+00 0.  1.
        -11    1    4    4    0    0  0.29966650563E-01 -0.21592678072E-01  0.30589216632E-01  0.47960454412E-01  0.51100000000E-03 0.  1.
         11    1    4    4    0    0  0.31573825158E-01 -0.38189689633E-01  0.68991203618E-01  0.84943546706E-01  0.51100000000E-03 0. -1.
</event>
<event>
 8    1  0.1071333E+005  0.1043930E+01  0.7957747E-01            NaN
         13   -1    0    0    0    0  0.00000000000E+00  0.00000000000E+00  0.74505805969E-08  0.10566000000E+00  0.10566000000E+00 0.  1.
     999900   -1    0    0    0    0 -0.00000000000E+00 -0.00000000000E+00 -0.74505805969E-08  0.93827000000E+00  0.93827000000E+00 0.  1.
     999902    2    1    2    0    0 -0.12211000381E-02 -0.23489935800E-01  0.88973692817E-03  0.10203915251E+01  0.10201199952E+01 0.  0.
     999903    2    3    3    0    0 -0.32551910046E-01  0.51604107806E-01 -0.11231734215E+00  0.12941645373E+00  0.20268753241E-01 0.  0.
         14    1    1    2    0    0  0.12211000381E-02  0.23489935800E-01 -0.88973692817E-03  0.23538474908E-01  0.00000000000E+00 0.  1.
     999901    1    3    3    0    0  0.31330810008E-01 -0.75094043606E-01  0.11320707908E+00  0.89097507136E+00  0.88000000000E+00 0. -1.
        -11    1    4    4    0    0 -0.20599089549E-01  0.33269244197E-01 -0.90067885687E-01  0.98202088841E-01  0.51100000000E-03 0. -1.
         11    1    4    4    0    0 -0.11952820497E-01  0.18334863609E-01 -0.22249456461E-01  0.31214364886E-01  0.51100000000E-03 0.  1.
</event>
<event>
 8    1  0.1071333E+005  0.1043930E+01  0.7957747E-01            NaN
         13   -1    0    0    0    0  0.00000000000E+00  0.00000000000E+00  0.74505805969E-08  0.10566000000E+00  0.10566000000E+00 0. -1.
     999900   -1    0    0    0    0 -0.00000000000E+00 -0.00000000000E+00 -0.74505805969E-08  0.93827000000E+00  0.93827000000E+00 0.  1.
     999902    2    1    2    0    0  0.73488474663E-02  0.12125047303E-01 -0.18846937212E-01  0.10203454845E+01  0.10200728789E+01 0.  0.
     999903    2    3    3    0    0  0.46514227736E-01  0.55832477102E-01 -0.11025532546E+00  0.13366642196E+00  0.20727679215E-01 0.  0.
         14    1    1    2    0    0 -0.73488474663E-02 -0.12125047303E-01  0.18846937212E-01  0.23584515544E-01  0.00000000000E+00 0. -1.
     999901    1    3    3    0    0 -0.39165380269E-01 -0.43707429799E-01  0.91408388247E-01  0.88667906250E+00  0.88000000000E+00 0. -1.
        -11    1    4    4    0    0  0.37586675931E-01  0.33589402194E-01 -0.63075156886E-01  0.80744923583E-01  0.51100000000E-03 0.  1.
         11    1    4    4    0    0  0.89275518047E-02  0.22243074908E-01 -0.47180168572E-01  0.52921498374E-01  0.51100000000E-03 0. -1.
</event>
<event>
 8    1  0.1071333E+005  0.1043930E+01  0.7957747E-01            NaN
         13   -1    0    0    0    0  0.00000000000E+00  0.00000000000E+00  0.74505805969E-08  0.10566000000E+00  0.10566000000E+00 0. -1.
     999900   -1    0    0    0    0 -0.00000000000E+00 -0.00000000000E+00 -0.74505805969E-08  0.93827000000E+00  0.93827000000E+00 0. -1.
     999902    2    1    2    0    0 -0.33728430150E-02  0.21165856072E-01  0.10299912644E-01  0.10201506448E+01  0.10198734629E+01 0.  0.
     999903    2    3    3    0    0  0.23663343978E-01 -0.35524812485E-01  0.12201807114E+00  0.13086681258E+00  0.20389870003E-01 0.  0.
         14    1    1    2    0    0  0.33728430150E-02 -0.21165856072E-01 -0.10299912644E-01  0.23779355200E-01  0.00000000000E+00 0. -1.
     999901    1    3    3    0    0 -0.27036186993E-01  0.56690668557E-01 -0.11171815850E+00  0.88928383222E+00  0.88000000000E+00 0. -1.
        -11    1    4    4    0    0  0.20922594753E-01 -0.23091214216E-01  0.60633105970E-01  0.68173263130E-01  0.51100000000E-03 0. -1.
         11    1    4    4    0    0  0.27407492253E-02 -0.12433598269E-01  0.61384965174E-01  0.62693549450E-01  0.51100000000E-03 0.  1.
</event>
<event>
 8    1  0.1071333E+005  0.1043930E+01  0.7957747E-01            NaN
         13   -1    0    0    0    0  0.00000000000E+00  0.00000000000E+00  0.74505805969E-08  0.10566000000E+00  0.10566000000E+00 0. -1.
     999900   -1    0    0    0    0 -0.00000000000E+00 -0.00000000000E+00 -0.74505805969E-08  0.93827000000E+00  0.93827000000E+00 0.  1.
     999902    2    1    2    0    0  0.26978676875E-01 -0.41723951306E-02  0.93421483394E-02  0.10150763413E+01  0.10146661742E+01 0.  0.
     999903    2    3    3    0    0 -0.70829746168E-01  0.26298437581E-01  0.97234189156E-01  0.12478427115E+00  0.20203119166E-01 0.  0.
         14    1    1    2    0    0 -0.26978676875E-01  0.41723951306E-02 -0.93421483394E-02  0.28853658739E-01  0.00000000000E+00 0. -1.
     999901    1    3    3    0    0  0.97808423043E-01 -0.30470832712E-01 -0.87892040816E-01  0.89029207011E+00  0.88000000000E+00 0.  1.
        -11    1    4    4    0    0 -0.48516603825E-02  0.25154420891E-02  0.18711038323E-01  0.19499490596E-01  0.51100000000E-03 0.  1.
         11    1    4    4    0    0 -0.65978085785E-01  0.23782995492E-01  0.78523150833E-01  0.10528478055E+00  0.51100000000E-03 0. -1.
</event>
<event>
 8    1  0.1071333E+005  0.1043930E+01  0.7957747E-01            NaN
         13   -1    0    0    0    0  0.00000000000E+00  0.00000000000E+00  0.74505805969E-08  0.10566000000E+00  0.10566000000E+00 0.  1.
     999900   -1    0    0    0    0 -0.00000000000E+00 -0.00000000000E+00 -0.74505805969E-08  0.93827000000E+00  0.93827000000E+00 0.  1.
     999902    2    1    2    0    0  0.12480719018E-01  0.49195532729E-02  0.19976391202E-01  0.10198670293E+01  0.10195831163E+01 0.  0.
     999903    2    3    3    0    0  0.36702198309E-01  0.12440871301E+00  0.49933772475E-02  0.13133518969E+00  0.19985469789E-01 0.  0.
         14    1    1    2    0    0 -0.12480719018E-01 -0.49195532729E-02 -0.19976391202E-01  0.24062970662E-01  0.00000000000E+00 0. -1.
     999901    1    3    3    0    0 -0.24221479291E-01 -0.11948915974E+00  0.14983013955E-01  0.88853183964E+00  0.88000000000E+00 0. -1.
        -11    1    4    4    0    0  0.25015381436E-01  0.10475351658E+00 -0.94366975946E-03  0.10770431829E+00  0.51100000000E-03 0.  1.
         11    1    4    4    0    0  0.11686816874E-01  0.19655196427E-01  0.59370470069E-02  0.23630871405E-01  0.51100000000E-03 0. -1.
</event>
<event>
 8    1  0.1071333E+005  0.1043930E+01  0.7957747E-01            NaN
         13   -1    0    0    0    0  0.00000000000E+00  0.00000000000E+00  0.74505805969E-08  0.10566000000E+00  0.10566000000E+00 0. -1.
     999900   -1    0    0    0    0 -0.00000000000E+00 -0.00000000000E+00 -0.74505805969E-08  0.93827000000E+00  0.93827000000E+00 0. -1.
     999902    2    1    2    0    0  0.16410563206E-01 -0.16226683035E-01  0.37101568002E-02  0.10205552895E+01  0.10202875682E+01 0.  0.
     999903    2    3    3    0    0  0.88385050163E-01  0.60858659466E-01  0.73267971584E-01  0.13153292399E+00  0.20421089789E-01 0.  0.
         14    1    1    2    0    0 -0.16410563206E-01  0.16226683035E-01 -0.37101568002E-02  0.23374710491E-01  0.00000000000E+00 0.  1.
     999901    1    3    3    0    0 -0.71974486957E-01 -0.77085342501E-01 -0.69557814784E-01  0.88902236552E+00  0.88000000000E+00 0. -1.
        -11    1    4    4    0    0  0.60756164710E-01  0.32399729533E-01  0.39134971856E-01  0.79201396246E-01  0.51100000000E-03 0.  1.
         11    1    4    4    0    0  0.27628885453E-01  0.28458929932E-01  0.34132999728E-01  0.52331527741E-01  0.51100000000E-03 0. -1.
</event>
<event>
 8    1  0.1071333E+005  0.1043930E+01  0.7957747E-01            NaN
         13   -1    0    0    0    0  0.00000000000E+00  0.00000000000E+00  0.74505805969E-08  0.10566000000E+00  0.10566000000E+00 0.  1.
     999900   -1    0    0    0    0 -0.00000000000E+00 -0.00000000000E+00 -0.74505805969E-08  0.93827000000E+00  0.93827000000E+00 0. -1.
     999902    2    1    2    0    0 -0.40380937512E-04  0.18678922176E-01  0.13657191727E-01  0.10207907984E+01  0.10205285060E+01 0.  0.
     999903    2    3    3    0    0 -0.69314933546E-01  0.94885314906E-01 -0.56674809141E-01  0.13199781448E+00  0.20089948732E-01 0.  0.
         14    1    1    2    0    0  0.40380937512E-04 -0.18678922176E-01 -0.13657191727E-01  0.23139201589E-01  0.00000000000E+00 0. -1.
     999901    1    3    3    0    0  0.69274552609E-01 -0.76206392730E-01  0.70332000868E-01  0.88879298393E+00  0.88000000000E+00 0.  1.
        -11    1    4    4    0    0 -0.46042630032E-01  0.47028384206E-01 -0.27754904163E-01  0.71429605399E-01  0.51100000000E-03 0.  1.
         11    1    4    4    0    0 -0.23272303514E-01  0.47856930700E-01 -0.28919904978E-01  0.60568209085E-01  0.51100000000E-03 0. -1.
</event>
<event>
 8    1  0.1071333E+005  0.1043930E+01  0.7957747E-01            NaN
         13   -1    0    0    0    0  0.00000000000E+00  0.00000000000E+00  0.74505805969E-08  0.10566000000E+00  0.10566000000E+00 0.  1.
     999900   -1    0    0    0    0 -0.00000000000E+00 -0.00000000000E+00 -0.74505805969E-08  0.93827000000E+00  0.93827000000E+00 0. -1.
     999902    2    1    2    0    0 -0.15633774913E-01 -0.31873815091E-02  0.12459135200E-01  0.10236863746E+01  0.10234861939E+01 0.  0.
     999903    2    3    3    0    0  0.29272272519E-01 -0.12626231670E+00 -0.23859824302E-01  0.13324656217E+00  0.19654937224E-01 0.  0.
         14    1    1    2    0    0  0.15633774913E-01  0.31873815091E-02 -0.12459135200E-01  0.20243625388E-01  0.00000000000E+00 0.  1.
     999901    1    3    3    0    0 -0.44906047432E-01  0.12307493519E+00  0.36318959502E-01  0.89043981244E+00  0.88000000000E+00 0.  1.
        -11    1    4    4    0    0  0.17339801237E-01 -0.10438010210E+00 -0.15432691182E-01  0.10693130271E+00  0.51100000000E-03 0. -1.
         11    1    4    4    0    0  0.11932471282E-01 -0.21882214595E-01 -0.84271331200E-02  0.26315259454E-01  0.51100000000E-03 0.  1.
</event>
<event>
 8    1  0.1071333E+005  0.1043930E+01  0.7957747E-01            NaN
         13   -1    0    0    0    0  0.00000000000E+00  0.00000000000E+00  0.74505805969E-08  0.10566000000E+00  0.10566000000E+00 0.  1.
     999900   -1    0    0    0    0 -0.00000000000E+00 -0.00000000000E+00 -0.74505805969E-08  0.93827000000E+00  0.93827000000E+00 0.  1.
     999902    2    1    2    0    0  0.21761051573E-01 -0.25746126625E-02  0.89588717895E-02  0.10202565258E+01  0.10199818357E+01 0.  0.
     999903    2    3    3    0    0 -0.57865946142E-01  0.78811708125E-02 -0.11198217605E+00  0.12836162213E+00  0.22937255863E-01 0.  0.
         14    1    1    2    0    0 -0.21761051573E-01  0.25746126625E-02 -0.89588717895E-02  0.23673474178E-01  0.00000000000E+00 0. -1.
     999901    1    3    3    0    0  0.79626997715E-01 -0.10455783475E-01  0.12094104784E+00  0.89189490369E+00  0.88000000000E+00 0. -1.
        -11    1    4    4    0    0 -0.85356639145E-02  0.50529979078E-02 -0.38855720852E-01  0.40105093320E-01  0.51100000000E-03 0.  1.
         11    1    4    4    0    0 -0.49330282227E-01  0.28281729047E-02 -0.73126455202E-01  0.88256528813E-01  0.51100000000E-03 0. -1.
</event>
<event>
 8    1  0.1071333E+005  0.1043930E+01  0.7957747E-01            NaN
         13   -1    0    0    0    0  0.00000000000E+00  0.00000000000E+00  0.74505805969E-08  0.10566000000E+00  0.10566000000E+00 0. -1.
     999900   -1    0    0    0    0 -0.00000000000E+00 -0.00000000000E+00 -0.74505805969E-08  0.93827000000E+00  0.93827000000E+00 0. -1.
     999902    2    1    2    0    0  0.22288064406E-01 -0.29997219473E-03  0.67825014920E-02  0.10206308557E+01  0.10203648825E+01 0.  0.
     999903    2    3    3    0    0  0.12168767144E+00  0.50701147594E-01  0.57656808335E-02  0.13356691775E+00  0.20697407932E-01 0.  0.
         14    1    1    2    0    0 -0.22288064406E-01  0.29997219473E-03 -0.67825014920E-02  0.23299144293E-01  0.00000000000E+00 0.  1.
     999901    1    3    3    0    0 -0.99399607031E-01 -0.51001119789E-01  0.10168206585E-02  0.88706393796E+00  0.88000000000E+00 0.  1.
        -11    1    4    4    0    0  0.62429834746E-01  0.26157269091E-01 -0.73826038943E-02  0.68091489585E-01  0.51100000000E-03 0.  1.
         11    1    4    4    0    0  0.59257836691E-01  0.24543878504E-01  0.13148284728E-01  0.65475428166E-01  0.51100000000E-03 0. -1.
</event>
<event>
 8    1  0.1071333E+005  0.1043930E+01  0.7957747E-01            NaN
         13   -1    0    0    0    0  0.00000000000E+00  0.00000000000E+00  0.74505805969E-08  0.10566000000E+00  0.10566000000E+00 0.  1.
     999900   -1    0    0    0    0 -0.00000000000E+00 -0.00000000000E+00 -0.74505805969E-08  0.93827000000E+00  0.93827000000E+00 0. -1.
     999902    2    1    2    0    0  0.96332329581E-02  0.65979051962E-02  0.20138348851E-01  0.10206515846E+01  0.10203860899E+01 0.  0.
     999903    2    3    3    0    0 -0.67612977439E-01  0.10268654052E+00  0.42712769133E-01  0.13177048605E+00  0.20567936831E-01 0.  0.
         14    1    1    2    0    0 -0.96332329581E-02 -0.65979051962E-02 -0.20138348851E-01  0.23278415424E-01  0.00000000000E+00 0. -1.
     999901    1    3    3    0    0  0.77246210397E-01 -0.96088635325E-01 -0.22574420283E-01  0.88888109852E+00  0.88000000000E+00 0. -1.
        -11    1    4    4    0    0 -0.37969175691E-01  0.50202256107E-01  0.31758273646E-01  0.70503715412E-01  0.51100000000E-03 0.  1.
         11    1    4    4    0    0 -0.29643801748E-01  0.52484284414E-01  0.10954495487E-01  0.61266770642E-01  0.51100000000E-03 0. -1.
</event>
<event>
 8    1  0.1071333E+005  0.1043930E+01  0.7957747E-01            NaN
         13   -1    0    0    0    0  0.00000000000E+00  0.00000000000E+00  0.74505805969E-08  0.10566000000E+00  0.10566000000E+00 0.  1.
     999900   -1    0    0    0    0 -0.00000000000E+00 -0.00000000000E+00 -0.74505805969E-08  0.93827000000E+00  0.93827000000E+00 0. -1.
     999902    2    1    2    0    0  0.89008580693E-02  0.20688544714E-01  0.55661544156E-02  0.10207303614E+01  0.10204666812E+01 0.  0.
     999903    2    3    3    0    0  0.11773125792E+00  0.55713464200E-01  0.20682807755E-01  0.13320610024E+00  0.18746930974E-01 0.  0.
         14    1    1    2    0    0 -0.89008580693E-02 -0.20688544714E-01 -0.55661544156E-02  0.23199638612E-01  0.00000000000E+00 0. -1.
     999901    1    3    3    0    0 -0.10883039985E+00 -0.35024919485E-01 -0.15116653340E-01  0.88752426115E+00  0.88000000000E+00 0. -1.
        -11    1    4    4    0    0  0.71365879552E-01  0.23913556834E-01  0.14380878547E-01  0.76629092083E-01  0.51100000000E-03 0.  1.
         11    1    4    4    0    0  0.46365378365E-01  0.31799907365E-01  0.63019292089E-02  0.56577008158E-01  0.51100000000E-03 0. -1.
</event>
<event>
 8    1  0.1071333E+005  0.1043930E+01  0.7957747E-01            NaN
         13   -1    0    0    0    0  0.00000000000E+00  0.00000000000E+00  0.74505805969E-08  0.10566000000E+00  0.10566000000E+00 0. -1.
     999900   -1    0    0    0    0 -0.00000000000E+00 -0.00000000000E+00 -0.74505805969E-08  0.93827000000E+00  0.93827000000E+00 0. -1.
     999902    2    1    2    0    0 -0.44745557463E-02 -0.88599316401E-02 -0.21677206999E-01  0.10200884115E+01  0.10198097597E+01 0.  0.
     999903    2    3    3    0    0 -0.12386789567E+00  0.33735145955E-01 -0.15785557441E-01  0.13098559307E+00  0.20657350214E-01 0.  0.
         14    1    1    2    0    0  0.44745557463E-02  0.88599316401E-02  0.21677206999E-01  0.23841588477E-01  0.00000000000E+00 0. -1.
     999901    1    3    3    0    0  0.11939333992E+00 -0.42595077595E-01 -0.58916495582E-02  0.88910281846E+00  0.88000000000E+00 0. -1.
        -11    1    4    4    0    0 -0.88884203310E-01  0.28199281715E-01 -0.29149423494E-02  0.93297154818E-01  0.51100000000E-03 0.  1.
         11    1    4    4    0    0 -0.34983692356E-01  0.55358642409E-02 -0.12870615092E-01  0.37688438249E-01  0.51100000000E-03 0. -1.
</event>
<event>
 8    1  0.1071333E+005  0.1043930E+01  0.7957747E-01            NaN
         13   -1    0    0    0    0  0.00000000000E+00  0.00000000000E+00  0.74505805969E-08  0.10566000000E+00  0.10566000000E+00 0.  1.
     999900   -1    0    0    0    0 -0.00000000000E+00 -0.00000000000E+00 -0.74505805969E-08  0.93827000000E+00  0.93827000000E+00 0.  1.
     999902    2    1    2    0    0  0.63847497915E-02  0.19348675387E-01  0.10343846091E-01  0.10210798048E+01  0.10208240967E+01 0.  0.
     999903    2    3    3    0    0 -0.10362390711E+00 -0.73554388309E-01  0.13926878689E-01  0.12937036671E+00  0.19863828148E-01 0.  0.
         14    1    1    2    0    0 -0.63847497915E-02 -0.19348675387E-01 -0.10343846091E-01  0.22850195209E-01  0.00000000000E+00 0. -1.
     999901    1    3    3    0    0  0.11000865690E+00  0.92903063696E-01 -0.35830325976E-02  0.89170943808E+00  0.88000000000E+00 0. -1.
        -11    1    4    4    0    0 -0.66780643136E-01 -0.42839814869E-01  0.17564971094E-01  0.81263111965E-01  0.51100000000E-03 0.  1.
         11    1    4    4    0    0 -0.36843263974E-01 -0.30714573440E-01 -0.36380924058E-02  0.48107254746E-01  0.51100000000E-03 0. -1.
</event>
<event>
 8    1  0.1071333E+005  0.1043930E+01  0.7957747E-01            NaN
         13   -1    0    0    0    0  0.00000000000E+00  0.00000000000E+00  0.74505805969E-08  0.10566000000E+00  0.10566000000E+00 0.  1.
     999900   -1    0    0    0    0 -0.00000000000E+00 -0.00000000000E+00 -0.74505805969E-08  0.93827000000E+00  0.93827000000E+00 0.  1.
     999902    2    1    2    0    0  0.61860376161E-02  0.20365134027E-01 -0.10082458943E-01  0.10203787426E+01  0.10201069143E+01 0.  0.
     999903    2    3    3    0    0 -0.86199361189E-01 -0.18971607757E-01  0.91681154572E-01  0.12884171356E+00  0.20112217169E-01 0.  0.
         14    1    1    2    0    0 -0.61860376161E-02 -0.20365134027E-01  0.10082458943E-01  0.23551257369E-01  0.00000000000E+00 0.  1.
     999901    1    3    3    0    0  0.92385398805E-01  0.39336741784E-01 -0.10176361352E+00  0.89153702907E+00  0.88000000000E+00 0.  1.
        -11    1    4    4    0    0 -0.30773239140E-01  0.15544364209E-02  0.38650751001E-01  0.49432278864E-01  0.51100000000E-03 0.  1.
         11    1    4    4    0    0 -0.55426122049E-01 -0.20526044178E-01  0.53030403571E-01  0.79409434697E-01  0.51100000000E-03 0. -1.
</event>
<event>
 8    1  0.1071333E+005  0.1043930E+01  0.7957747E-01            NaN
         13   -1    0    0    0    0  0.00000000000E+00  0.00000000000E+00  0.74505805969E-08  0.10566000000E+00  0.10566000000E+00 0. -1.
     999900   -1    0    0    0    0 -0.00000000000E+00 -0.00000000000E+00 -0.74505805969E-08  0.93827000000E+00  0.93827000000E+00 0. -1.
     999902    2    1    2    0    0 -0.19144322572E-01  0.52726466188E-02 -0.12596674561E-01  0.10204144286E+01  0.10201434330E+01 0.  0.
     999903    2    3    3    0    0  0.37478471491E-01 -0.82075394421E-01 -0.92588753190E-01  0.13067595368E+00  0.19039996265E-01 0.  0.
         14    1    1    2    0    0  0.19144322572E-01 -0.52726466188E-02  0.12596674561E-01  0.23515571418E-01  0.00000000000E+00 0. -1.
     999901    1    3    3    0    0 -0.56622794063E-01  0.87348041040E-01  0.79992078629E-01  0.88973847490E+00  0.88000000000E+00 0.  1.
        -11    1    4    4    0    0  0.24020271020E-03 -0.15762709421E-01 -0.11632889619E-01  0.19598621062E-01  0.51100000000E-03 0. -1.
         11    1    4    4    0    0  0.37238268781E-01 -0.66312685001E-01 -0.80955863570E-01  0.11107733262E+00  0.51100000000E-03 0.  1.
</event>
<event>
 8    1  0.1071333E+005  0.1043930E+01  0.7957747E-01            NaN
         13   -1    0    0    0    0  0.00000000000E+00  0.00000000000E+00  0.74505805969E-08  0.10566000000E+00  0.10566000000E+00 0.  1.
     999900   -1    0    0    0    0 -0.00000000000E+00 -0.00000000000E+00 -0.74505805969E-08  0.93827000000E+00  0.93827000000E+00 0. -1.
     999902    2    1    2    0    0  0.57008831712E-02  0.20817997052E-01 -0.77719125435E-02  0.10209889518E+01  0.10207311830E+01 0.  0.
     999903    2    3    3    0    0  0.91743989060E-01 -0.71819433548E-01 -0.56746807829E-01  0.13060496156E+00  0.16200778428E-01 0.  0.
         14    1    1    2    0    0 -0.57008831712E-02 -0.20817997052E-01  0.77719125435E-02  0.22941048249E-01  0.00000000000E+00 0.  1.
     999901    1    3    3    0    0 -0.86043105889E-01  0.92637430600E-01  0.48974895286E-01  0.89038399019E+00  0.88000000000E+00 0.  1.
        -11    1    4    4    0    0  0.25779257119E-02 -0.39428806303E-02 -0.58421702717E-02  0.75222392361E-02  0.51100000000E-03 0. -1.
         11    1    4    4    0    0  0.89166063348E-01 -0.67876552918E-01 -0.50904637557E-01  0.12308272232E+00  0.51100000000E-03 0.  1.
</event>
<event>
 8    1  0.1071333E+005  0.1043930E+01  0.7957747E-01            NaN
         13   -1    0    0    0    0  0.00000000000E+00  0.00000000000E+00  0.74505805969E-08  0.10566000000E+00  0.10566000000E+00 0.  1.
     999900   -1    0    0    0    0 -0.00000000000E+00 -0.00000000000E+00 -0.74505805969E-08  0.93827000000E+00  0.93827000000E+00 0. -1.
     999902    2    1    2    0    0  0.16520790133E-01  0.54381247812E-02  0.13112804513E-01  0.10221480040E+01  0.10219158902E+01 0.  0.
     999903    2    3    3    0    0 -0.10349748948E+00  0.70344774989E-01 -0.31173830254E-01  0.13053229827E+00  0.20168180427E-01 0.  0.
         14    1    1    2    0    0 -0.16520790133E-01 -0.54381247812E-02 -0.13112804513E-01  0.21781996005E-01  0.00000000000E+00 0. -1.
     999901    1    3    3    0    0  0.12001827961E+00 -0.64906650207E-01  0.44286634767E-01  0.89161570573E+00  0.88000000000E+00 0.  1.
        -11    1    4    4    0    0 -0.60143196816E-01  0.29323890767E-01 -0.19694393333E-01  0.69751164454E-01  0.51100000000E-03 0.  1.
         11    1    4    4    0    0 -0.43354292662E-01  0.41020884222E-01 -0.11479436921E-01  0.60781133813E-01  0.51100000000E-03 0. -1.
</event>
<event>
 8    1  0.1071333E+005  0.1043930E+01  0.7957747E-01            NaN
         13   -1    0    0    0    0  0.00000000000E+00  0.00000000000E+00  0.74505805969E-08  0.10566000000E+00  0.10566000000E+00 0.  1.
     999900   -1    0    0    0    0 -0.00000000000E+00 -0.00000000000E+00 -0.74505805969E-08  0.93827000000E+00  0.93827000000E+00 0.  1.
     999902    2    1    2    0    0  0.31925997475E-02 -0.57305680356E-02  0.22711777886E-01  0.10202898444E+01  0.10200159359E+01 0.  0.
     999903    2    3    3    0    0  0.12146623514E-01 -0.72878508185E-01  0.10939844560E+00  0.13343946310E+00  0.19474419013E-01 0.  0.
         14    1    1    2    0    0 -0.31925997475E-02  0.57305680356E-02 -0.22711777886E-01  0.23640155623E-01  0.00000000000E+00 0. -1.
     999901    1    3    3    0    0 -0.89540237665E-02  0.67147940150E-01 -0.86686667712E-01  0.88685038127E+00  0.88000000000E+00 0.  1.
        -11    1    4    4    0    0  0.32457447035E-02 -0.24424507534E-01  0.53657277731E-01  0.59046219197E-01  0.51100000000E-03 0. -1.
         11    1    4    4    0    0  0.89008788104E-02 -0.48454000651E-01  0.55741167867E-01  0.74393243906E-01  0.51100000000E-03 0.  1.
</event>
<event>
 8    1  0.1071333E+005  0.1043930E+01  0.7957747E-01            NaN
         13   -1    0    0    0    0  0.00000000000E+00  0.00000000000E+00  0.74505805969E-08  0.10566000000E+00  0.10566000000E+00 0. -1.
     999900   -1    0    0    0    0 -0.00000000000E+00 -0.00000000000E+00 -0.74505805969E-08  0.93827000000E+00  0.93827000000E+00 0. -1.
     999902    2    1    2    0    0  0.10876380953E-01 -0.20057195851E-01  0.50356088797E-02  0.10205645528E+01  0.10202970461E+01 0.  0.
     999903    2    3    3    0    0 -0.10150198448E-01 -0.10200611256E+00  0.82654549431E-01  0.13310613575E+00  0.19421516513E-01 0.  0.
         14    1    1    2    0    0 -0.10876380953E-01  0.20057195851E-01 -0.50356088797E-02  0.23365447242E-01  0.00000000000E+00 0. -1.
     999901    1    3    3    0    0  0.21026579401E-01  0.81948916710E-01 -0.77618940551E-01  0.88745841701E+00  0.88000000000E+00 0.  1.
        -11    1    4    4    0    0 -0.11588807002E-01 -0.34674087019E-01  0.34889320004E-01  0.50538287759E-01  0.51100000000E-03 0.  1.
         11    1    4    4    0    0  0.14386085532E-02 -0.67332025542E-01  0.47765229427E-01  0.82567847988E-01  0.51100000000E-03 0. -1.
</event>
<event>
 8    1  0.1071333E+005  0.1043930E+01  0.7957747E-01            NaN
         13   -1    0    0    0    0  0.00000000000E+00  0.00000000000E+00  0.74505805969E-08  0.10566000000E+00  0.10566000000E+00 0.  1.
     999900   -1    0    0    0    0 -0.00000000000E+00 -0.00000000000E+00 -0.74505805969E-08  0.93827000000E+00  0.93827000000E+00 0. -1.
     999902    2    1    2    0    0  0.13986505988E-01 -0.94348016503E-02 -0.33687629430E-02  0.10267257448E+01  0.10265815938E+01 0.  0.
     999903    2    3    3    0    0 -0.29384895840E-01 -0.88518547197E-01  0.97536141120E-01  0.13637911741E+00  0.19671287192E-01 0.  0.
         14    1    1    2    0    0 -0.13986505988E-01  0.94348016503E-02  0.33687629430E-02  0.17204255163E-01  0.00000000000E+00 0. -1.
     999901    1    3    3    0    0  0.43371401828E-01  0.79083745547E-01 -0.10090490406E+00  0.89034662743E+00  0.88000000000E+00 0. -1.
        -11    1    4    4    0    0 -0.28323593057E-01 -0.74717481485E-01  0.90872712471E-01  0.12100842514E+00  0.51100000000E-03 0. -1.
         11    1    4    4    0    0 -0.10613027827E-02 -0.13801065712E-01  0.66634286489E-02  0.15370692266E-01  0.51100000000E-03 0.  1.
</event>
<event>
 8    1  0.1071333E+005  0.1043930E+01  0.7957747E-01            NaN
         13   -1    0    0    0    0  0.00000000000E+00  0.00000000000E+00  0.74505805969E-08  0.10566000000E+00  0.10566000000E+00 0. -1.
     999900   -1    0    0    0    0 -0.00000000000E+00 -0.00000000000E+00 -0.74505805969E-08  0.93827000000E+00  0.93827000000E+00 0. -1.
     999902    2    1    2    0    0  0.15652318177E-01 -0.13668740993E-01  0.13499324715E-01  0.10191497395E+01  0.10188484333E+01 0.  0.
     999903    2    3    3    0    0  0.42964289930E-01  0.12008493326E+00  0.50476932423E-02  0.12858395343E+00  0.15557392714E-01 0.  0.
         14    1    1    2    0    0 -0.15652318177E-01  0.13668740993E-01 -0.13499324715E-01  0.24780260540E-01  0.00000000000E+00 0.  1.
     999901    1    3    3    0    0 -0.27311971753E-01 -0.13375367425E+00  0.84516314730E-02  0.89056578603E+00  0.88000000000E+00 0. -1.
        -11    1    4    4    0    0  0.15919694576E-01  0.25829278755E-01 -0.72306270101E-03  0.30354114335E-01  0.51100000000E-03 0. -1.
         11    1    4    4    0    0  0.27044595354E-01  0.94255654500E-01  0.57707559433E-02  0.98229839093E-01  0.51100000000E-03 0.  1.
</event>
<event>
 7    1  0.1071333E+005  0.1043930E+01  0.7957747E-01            NaN
         13   -1    0    0    0    0  0.00000000000E+00  0.00000000000E+00  0.74505805969E-08  0.10566000000E+00  0.10566000000E+00 0.  1.
     999900   -1    0    0    0    0 -0.00000000000E+00 -0.00000000000E+00 -0.74505805969E-08  0.93827000000E+00  0.93827000000E+00 0. -1.
     999903    2    1    2    0    0  0.45718126504E-01 -0.76045750901E-01  0.64869373984E-01  0.11161768283E+00  0.19425965045E-01 0.  0.
         14    1    1    2    0    0  0.33892281500E-01  0.25037469528E-01 -0.18540038707E-01  0.46035797602E-01  0.00000000000E+00 0. -1.
     999901    1    1    2    0    0 -0.79610408004E-01  0.51008281373E-01 -0.46329335276E-01  0.88627651957E+00  0.88000000000E+00 0.  1.
        -11    1    3    3    0    0  0.11758942458E-01 -0.35829730926E-01  0.21480597217E-01  0.43401837793E-01  0.51100000000E-03 0.  1.
         11    1    3    3    0    0  0.33959184046E-01 -0.40216019975E-01  0.43388776767E-01  0.68215845036E-01  0.51100000000E-03 0. -1.
</event>
<event>
 8    1  0.1071333E+005  0.1043930E+01  0.7957747E-01            NaN
         13   -1    0    0    0    0  0.00000000000E+00  0.00000000000E+00  0.74505805969E-08  0.10566000000E+00  0.10566000000E+00 0.  1.
     999900   -1    0    0    0    0 -0.00000000000E+00 -0.00000000000E+00 -0.74505805969E-08  0.93827000000E+00  0.93827000000E+00 0. -1.
     999902    2    1    2    0    0 -0.21441999996E-01  0.67213223382E-02  0.12999535860E-01  0.10179699640E+01  0.10176388967E+01 0.  0.
     999903    2    3    3    0    0 -0.10721788870E+00  0.72906670888E-01 -0.96856221301E-04  0.13122901030E+00  0.20248097288E-01 0.  0.
         14    1    1    2    0    0  0.21441999996E-01 -0.67213223382E-02 -0.12999535860E-01  0.25960036025E-01  0.00000000000E+00 0. -1.
     999901    1    3    3    0    0  0.85775888709E-01 -0.66185348550E-01  0.13096392082E-01  0.88674095368E+00  0.88000000000E+00 0. -1.
        -11    1    4    4    0    0 -0.80760805732E-01  0.57449538247E-01 -0.84343191766E-02  0.99469372413E-01  0.51100000000E-03 0. -1.
         11    1    4    4    0    0 -0.26457082973E-01  0.15457132641E-01  0.83374629553E-02  0.31759637883E-01  0.51100000000E-03 0.  1.
</event>
<event>
 8    1  0.1071333E+005  0.1043930E+01  0.7957747E-01            NaN
         13   -1    0    0    0    0  0.00000000000E+00  0.00000000000E+00  0.74505805969E-08  0.10566000000E+00  0.10566000000E+00 0. -1.
     999900   -1    0    0    0    0 -0.00000000000E+00 -0.00000000000E+00 -0.74505805969E-08  0.93827000000E+00  0.93827000000E+00 0.  1.
     999902    2    1    2    0    0 -0.21449872224E-01 -0.82902872822E-02 -0.62621076936E-02  0.10200964129E+01  0.10198179503E+01 0.  0.
     999903    2    3    3    0    0  0.71122401625E-01  0.95938900912E-01 -0.41239847247E-01  0.12843684118E+00  0.23078744571E-01 0.  0.
         14    1    1    2    0    0  0.21449872224E-01  0.82902872822E-02  0.62621076936E-02  0.23833587108E-01  0.00000000000E+00 0.  1.
     999901    1    3    3    0    0 -0.92572273849E-01 -0.10422918819E+00  0.34977739553E-01  0.89165957171E+00  0.88000000000E+00 0. -1.
        -11    1    4    4    0    0  0.56061360284E-01  0.70477902483E-01 -0.40746957781E-01  0.98846277344E-01  0.51100000000E-03 0. -1.
         11    1    4    4    0    0  0.15061041340E-01  0.25460998429E-01 -0.49288946512E-03  0.29590563838E-01  0.51100000000E-03 0.  1.
</event>
<event>
 8    1  0.1071333E+005  0.1043930E+01  0.7957747E-01            NaN
         13   -1    0    0    0    0  0.00000000000E+00  0.00000000000E+00  0.74505805969E-08  0.10566000000E+00  0.10566000000E+00 0. -1.
     999900   -1    0    0    0    0 -0.00000000000E+00 -0.00000000000E+00 -0.74505805969E-08  0.93827000000E+00  0.93827000000E+00 0.  1.
     999902    2    1    2    0    0 -0.49882262572E-02  0.20148129533E-01  0.12094295119E-01  0.10199070631E+01  0.10196241051E+01 0.  0.
     999903    2    3    3    0    0  0.36431355270E-01 -0.94640597977E-01 -0.74079798279E-01  0.12731644689E+00  0.20918286346E-01 0.  0.
         14    1    1    2    0    0  0.49882262572E-02 -0.20148129533E-01 -0.12094295119E-01  0.24022936941E-01  0.00000000000E+00 0.  1.
     999901    1    3    3    0    0 -0.41419581527E-01  0.11478872751E+00  0.86174093398E-01  0.89259061617E+00  0.88000000000E+00 0. -1.
        -11    1    4    4    0    0  0.12769931622E-01 -0.48462460151E-01 -0.25491989638E-01  0.56229741723E-01  0.51100000000E-03 0. -1.
         11    1    4    4    0    0  0.23661423648E-01 -0.46178137826E-01 -0.48587808641E-01  0.71086705168E-01  0.51100000000E-03 0.  1.
</event>
<event>
 8    1  0.1071333E+005  0.1043930E+01  0.7957747E-01            NaN
         13   -1    0    0    0    0  0.00000000000E+00  0.00000000000E+00  0.74505805969E-08  0.10566000000E+00  0.10566000000E+00 0.  1.
     999900   -1    0    0    0    0 -0.00000000000E+00 -0.00000000000E+00 -0.74505805969E-08  0.93827000000E+00  0.93827000000E+00 0. -1.
     999902    2    1    2    0    0  0.24408941582E-01 -0.62811833440E-02  0.75013692293E-02  0.10176332277E+01  0.10172934021E+01 0.  0.
     999903    2    3    3    0    0 -0.11053773656E+00 -0.49141639631E-01  0.29051155546E-01  0.12605484194E+00  0.20306688260E-01 0.  0.
         14    1    1    2    0    0 -0.24408941582E-01  0.62811833440E-02 -0.75013692293E-02  0.26296772305E-01  0.00000000000E+00 0. -1.
     999901    1    3    3    0    0  0.13494667814E+00  0.42860456287E-01 -0.21549786317E-01  0.89157838575E+00  0.88000000000E+00 0. -1.
        -11    1    4    4    0    0 -0.49433118352E-01 -0.31996838786E-01  0.18445677051E-01  0.61708467856E-01  0.51100000000E-03 0. -1.
         11    1    4    4    0    0 -0.61104618211E-01 -0.17144800844E-01  0.10605478496E-01  0.64346374084E-01  0.51100000000E-03 0.  1.
</event>
<event>
 8    1  0.1071333E+005  0.1043930E+01  0.7957747E-01            NaN
         13   -1    0    0    0    0  0.00000000000E+00  0.00000000000E+00  0.74505805969E-08  0.10566000000E+00  0.10566000000E+00 0.  1.
     999900   -1    0    0    0    0 -0.00000000000E+00 -0.00000000000E+00 -0.74505805969E-08  0.93827000000E+00  0.93827000000E+00 0. -1.
     999902    2    1    2    0    0  0.21394780769E-02 -0.18436236685E-02  0.23768579901E-01  0.10199942171E+01  0.10197133328E+01 0.  0.
     999903    2    3    3    0    0 -0.37470849987E-01 -0.78326918845E-02 -0.11995643823E+00  0.12743512777E+00  0.19615021202E-01 0.  0.
         14    1    1    2    0    0 -0.21394780769E-02  0.18436236685E-02 -0.23768579901E-01  0.23935782945E-01  0.00000000000E+00 0. -1.
     999901    1    3    3    0    0  0.39610328064E-01  0.59890682160E-02  0.14372501813E+00  0.89255908928E+00  0.88000000000E+00 0.  1.
        -11    1    4    4    0    0 -0.24373597764E-01 -0.56639620763E-02 -0.46702441376E-01  0.52986148056E-01  0.51100000000E-03 0. -1.
         11    1    4    4    0    0 -0.13097252223E-01 -0.21687298082E-02 -0.73253996853E-01  0.74448979716E-01  0.51100000000E-03 0.  1.
</event>
<event>
 8    1  0.1071333E+005  0.1043930E+01  0.7957747E-01            NaN
         13   -1    0    0    0    0  0.00000000000E+00  0.00000000000E+00  0.74505805969E-08  0.10566000000E+00  0.10566000000E+00 0.  1.
     999900   -1    0    0    0    0 -0.00000000000E+00 -0.00000000000E+00 -0.74505805969E-08  0.93827000000E+00  0.93827000000E+00 0.  1.
     999902    2    1    2    0    0 -0.60109975608E-02 -0.15143256440E-01  0.18912277277E-01  0.10189675374E+01  0.10186617288E+01 0.  0.
     999903    2    3    3    0    0  0.94280721063E-01 -0.31915538314E-01 -0.77629664725E-01  0.12786704653E+00  0.20400019431E-01 0.  0.
         14    1    1    2    0    0  0.60109975608E-02  0.15143256440E-01 -0.18912277277E-01  0.24962462601E-01  0.00000000000E+00 0. -1.
     999901    1    3    3    0    0 -0.10029171862E+00  0.16772281874E-01  0.96541942002E-01  0.89110049087E+00  0.88000000000E+00 0. -1.
        -11    1    4    4    0    0  0.34148082708E-02 -0.28847163395E-02 -0.99038252877E-02  0.10877930879E-01  0.51100000000E-03 0. -1.
         11    1    4    4    0    0  0.90865912792E-01 -0.29030821974E-01 -0.67725839437E-01  0.11698911565E+00  0.51100000000E-03 0.  1.
</event>
<event>
 8    1  0.1071333E+005  0.1043930E+01  0.7957747E-01            NaN
         13   -1    0    0    0    0  0.00000000000E+00  0.00000000000E+00  0.74505805969E-08  0.10566000000E+00  0.10566000000E+00 0. -1.
     999900   -1    0    0    0    0 -0.00000000000E+00 -0.00000000000E+00 -0.74505805969E-08  0.93827000000E+00  0.93827000000E+00 0.  1.
     999902    2    1    2    0    0  0.30960408096E-02 -0.98908556487E-02  0.24717732793E-01  0.10171273731E+01  0.10167741698E+01 0.  0.
     999903    2    3    3    0    0  0.30101226564E-01  0.55912628336E-01 -0.10561957420E+00  0.12468847203E+00  0.18958237122E-01 0.  0.
         14    1    1    2    0    0 -0.30960408096E-02  0.98908556487E-02 -0.24717732793E-01  0.26802626897E-01  0.00000000000E+00 0.  1.
     999901    1    3    3    0    0 -0.27005185755E-01 -0.65803483985E-01  0.13033730699E+00  0.89243890108E+00  0.88000000000E+00 0. -1.
        -11    1    4    4    0    0  0.29014232320E-01  0.39457677172E-01 -0.86759359049E-01  0.99630223670E-01  0.51100000000E-03 0. -1.
         11    1    4    4    0    0  0.10869942447E-02  0.16454951165E-01 -0.18860215147E-01  0.25058248357E-01  0.51100000000E-03 0.  1.
</event>
<event>
 8    1  0.1071333E+005  0.1043930E+01  0.7957747E-01            NaN
         13   -1    0    0    0    0  0.00000000000E+00  0.00000000000E+00  0.74505805969E-08  0.10566000000E+00  0.10566000000E+00 0.  1.
     999900   -1    0    0    0    0 -0.00000000000E+00 -0.00000000000E+00 -0.74505805969E-08  0.93827000000E+00  0.93827000000E+00 0.  1.
     999902    2    1    2    0    0 -0.73418966256E-02 -0.17565518053E-01  0.15131887186E-01  0.10196107714E+01  0.10193207053E+01 0.  0.
     999903    2    3    3    0    0 -0.11587265027E+00  0.54572834499E-01 -0.61925456675E-02  0.12975820055E+00  0.19853907439E-01 0.  0.
         14    1    1    2    0    0  0.73418966256E-02  0.17565518053E-01 -0.15131887186E-01  0.24319228614E-01  0.00000000000E+00 0. -1.
     999901    1    3    3    0    0  0.10853075365E+00 -0.72138352552E-01  0.21324432854E-01  0.88985257084E+00  0.88000000000E+00 0. -1.
        -11    1    4    4    0    0 -0.34007746319E-01  0.20344143156E-01 -0.10235540343E-01  0.40932119143E-01  0.51100000000E-03 0. -1.
         11    1    4    4    0    0 -0.81864903953E-01  0.34228691343E-01  0.40429946755E-02  0.88826081402E-01  0.51100000000E-03 0.  1.
</event>
<event>
 8    1  0.1071333E+005  0.1043930E+01  0.7957747E-01            NaN
         13   -1    0    0    0    0  0.00000000000E+00  0.00000000000E+00  0.74505805969E-08  0.10566000000E+00  0.10566000000E+00 0.  1.
     999900   -1    0    0    0    0 -0.00000000000E+00 -0.00000000000E+00 -0.74505805969E-08  0.93827000000E+00  0.93827000000E+00 0. -1.
     999902    2    1    2    0    0  0.15481081902E-01 -0.11246137063E-01  0.13191323223E-01  0.10206888618E+01  0.10204242266E+01 0.  0.
     999903    2    3    3    0    0  0.18459079363E-01 -0.12998409137E+00  0.50977488261E-02  0.13267249023E+00  0.18422839053E-01 0.  0.
         14    1    1    2    0    0 -0.15481081902E-01  0.11246137063E-01 -0.13191323223E-01  0.23241138183E-01  0.00000000000E+00 0.  1.
     999901    1    3    3    0    0 -0.29779974619E-02  0.11873795431E+00  0.80935743973E-02  0.88801637159E+00  0.88000000000E+00 0. -1.
        -11    1    4    4    0    0  0.15161540153E-01 -0.50680243026E-01 -0.23183959000E-02  0.52952765872E-01  0.51100000000E-03 0. -1.
         11    1    4    4    0    0  0.32975392108E-02 -0.79303848349E-01  0.74161447262E-02  0.79719724356E-01  0.51100000000E-03 0.  1.
</event>
<event>
 7    1  0.1170656E+005  0.1043930E+01  0.7957747E-01            NaN
         13   -1    0    0    0    0  0.00000000000E+00  0.00000000000E+00  0.74505805969E-08  0.10566000000E+00  0.10566000000E+00 0.  1.
     999900   -1    0    0    0    0 -0.00000000000E+00 -0.00000000000E+00 -0.74505805969E-08  0.93827000000E+00  0.93827000000E+00 0. -1.
     999903    2    1    2    0    0 -0.53039724973E-01  0.64578816179E-01 -0.35069043969E-01  0.93031015444E-01  0.21007047992E-01 0.  0.
         14    1    1    2    0    0 -0.60628214165E-01 -0.84253178102E-03  0.69003384484E-03  0.60637994355E-01  0.00000000000E+00 0. -1.
     999901    1    1    2    0    0  0.11366793914E+00 -0.63736284398E-01  0.34379010124E-01  0.89026099020E+00  0.88000000000E+00 0. -1.
        -11    1    3    3    0    0 -0.90725088029E-02  0.24396571131E-01 -0.15672963386E-01  0.30387596174E-01  0.51100000000E-03 0.  1.
         11    1    3    3    0    0 -0.43967216171E-01  0.40182245048E-01 -0.19396080582E-01  0.62643419270E-01  0.51100000000E-03 0. -1.
</event>
<event>
 8    1  0.1071333E+005  0.1043930E+01  0.7957747E-01            NaN
         13   -1    0    0    0    0  0.00000000000E+00  0.00000000000E+00  0.74505805969E-08  0.10566000000E+00  0.10566000000E+00 0. -1.
     999900   -1    0    0    0    0 -0.00000000000E+00 -0.00000000000E+00 -0.74505805969E-08  0.93827000000E+00  0.93827000000E+00 0.  1.
     999902    2    1    2    0    0  0.13593064784E-01  0.53609460289E-02  0.18776105522E-01  0.10201381255E+01  0.10198606483E+01 0.  0.
     999903    2    3    3    0    0  0.36336151319E-01 -0.12020952950E+00  0.31034619348E-01  0.13084882306E+00  0.19688068050E-01 0.  0.
         14    1    1    2    0    0 -0.13593064784E-01 -0.53609460289E-02 -0.18776105522E-01  0.23791874477E-01  0.00000000000E+00 0.  1.
     999901    1    3    3    0    0 -0.22743086535E-01  0.12557047553E+00 -0.12258513826E-01  0.88928930246E+00  0.88000000000E+00 0.  1.
        -11    1    4    4    0    0  0.35631882920E-01 -0.11106930861E+00  0.23541672127E-01  0.11899787327E+00  0.51100000000E-03 0.  1.
         11    1    4    4    0    0  0.70426839896E-03 -0.91402208889E-02  0.74929472217E-02  0.11850949791E-01  0.51100000000E-03 0. -1.
</event>
<event>
 8    1  0.1071333E+005  0.1043930E+01  0.7957747E-01            NaN
         13   -1    0    0    0    0  0.00000000000E+00  0.00000000000E+00  0.74505805969E-08  0.10566000000E+00  0.10566000000E+00 0.  1.
     999900   -1    0    0    0    0 -0.00000000000E+00 -0.00000000000E+00 -0.74505805969E-08  0.93827000000E+00  0.93827000000E+00 0.  1.
     999902    2    1    2    0    0 -0.19614897804E-01 -0.13221657703E-01  0.28822165303E-03  0.10202732986E+01  0.10199990021E+01 0.  0.
     999903    2    3    3    0    0  0.75013762353E-01 -0.34150343255E-01  0.97921640745E-01  0.12958543089E+00  0.20258965577E-01 0.  0.
         14    1    1    2    0    0  0.19614897804E-01  0.13221657703E-01 -0.28822165303E-03  0.23656701376E-01  0.00000000000E+00 0. -1.
     999901    1    3    3    0    0 -0.94628660157E-01  0.20928685552E-01 -0.97633419092E-01  0.89068786773E+00  0.88000000000E+00 0.  1.
        -11    1    4    4    0    0  0.10635153976E-01 -0.12982909865E-01  0.24106247600E-01  0.29377452970E-01  0.51100000000E-03 0. -1.
         11    1    4    4    0    0  0.64378608377E-01 -0.21167433391E-01  0.73815393145E-01  0.10020797792E+00  0.51100000000E-03 0.  1.
</event>
<event>
 7    1  0.1071333E+005  0.1043930E+01  0.7957747E-01            NaN
         13   -1    0    0    0    0  0.00000000000E+00  0.00000000000E+00  0.74505805969E-08  0.10566000000E+00  0.10566000000E+00 0.  1.
     999900   -1    0    0    0    0 -0.00000000000E+00 -0.00000000000E+00 -0.74505805969E-08  0.93827000000E+00  0.93827000000E+00 0.  1.
     999903    2    1    2    0    0 -0.28231999067E-01 -0.61611661434E-01  0.64926913939E-01  0.95843310953E-01  0.19426618457E-01 0.  0.
         14    1    1    2    0    0 -0.28355929779E-01 -0.40728943566E-01 -0.33343417964E-01  0.59788703943E-01  0.00000000000E+00 0. -1.
     999901    1    1    2    0    0  0.56587928846E-01  0.10234060500E+00 -0.31583495975E-01  0.88829798510E+00  0.88000000000E+00 0. -1.
        -11    1    3    3    0    0 -0.71899203485E-03 -0.23046944210E-01  0.19396529607E-01  0.30135777222E-01  0.51100000000E-03 0. -1.
         11    1    3    3    0    0 -0.27513007032E-01 -0.38564717224E-01  0.45530384332E-01  0.65707533731E-01  0.51100000000E-03 0.  1.
</event>
<event>
 8    1  0.1071333E+005  0.1043930E+01  0.7957747E-01            NaN
         13   -1    0    0    0    0  0.00000000000E+00  0.00000000000E+00  0.74505805969E-08  0.10566000000E+00  0.10566000000E+00 0. -1.
     999900   -1    0    0    0    0 -0.00000000000E+00 -0.00000000000E+00 -0.74505805969E-08  0.93827000000E+00  0.93827000000E+00 0. -1.
     999902    2    1    2    0    0  0.12025424478E-01  0.10943548076E-01  0.78492665880E-03  0.10276515422E+01  0.10275226051E+01 0.  0.
     999903    2    3    3    0    0 -0.55323158658E-02 -0.13122145210E+00 -0.29084134549E-01  0.13556896624E+00  0.16833945323E-01 0.  0.
         14    1    1    2    0    0 -0.12025424478E-01 -0.10943548076E-01 -0.78492665880E-03  0.16278457797E-01  0.00000000000E+00 0. -1.
     999901    1    3    3    0    0  0.17557740344E-01  0.14216500017E+00  0.29869061208E-01  0.89208257596E+00  0.88000000000E+00 0.  1.
        -11    1    4    4    0    0 -0.44055632016E-03 -0.99116951802E-01 -0.28177362067E-01  0.10304653841E+00  0.51100000000E-03 0.  1.
         11    1    4    4    0    0 -0.50917595456E-02 -0.32104500297E-01 -0.90677248253E-03  0.32522427829E-01  0.51100000000E-03 0. -1.
</event>
<event>
 8    1  0.1071333E+005  0.1043930E+01  0.7957747E-01            NaN
         13   -1    0    0    0    0  0.00000000000E+00  0.00000000000E+00  0.74505805969E-08  0.10566000000E+00  0.10566000000E+00 0. -1.
     999900   -1    0    0    0    0 -0.00000000000E+00 -0.00000000000E+00 -0.74505805969E-08  0.93827000000E+00  0.93827000000E+00 0.  1.
     999902    2    1    2    0    0 -0.16989959051E-01  0.13673371405E-01 -0.10206968968E-01  0.10198509217E+01  0.10195666239E+01 0.  0.
     999903    2    3    3    0    0 -0.66528484136E-01 -0.10915766251E+00 -0.12152535037E-01  0.12993782847E+00  0.19867578450E-01 0.  0.
         14    1    1    2    0    0  0.16989959051E-01 -0.13673371405E-01  0.10206968968E-01  0.24079078256E-01  0.00000000000E+00 0.  1.
     999901    1    3    3    0    0  0.49538525085E-01  0.12283103391E+00  0.19455660682E-02  0.88991309328E+00  0.88000000000E+00 0. -1.
        -11    1    4    4    0    0 -0.14258982308E-01 -0.16825061508E-01 -0.88934227404E-02  0.23785612463E-01  0.51100000000E-03 0.  1.
         11    1    4    4    0    0 -0.52269501829E-01 -0.92332600998E-01 -0.32591122963E-02  0.10615221600E+00  0.51100000000E-03 0. -1.
</event>
<event>
 8    1  0.1071333E+005  0.1043930E+01  0.7957747E-01            NaN
         13   -1    0    0    0    0  0.00000000000E+00  0.00000000000E+00  0.74505805969E-08  0.10566000000E+00  0.10566000000E+00 0.  1.
     999900   -1    0    0    0    0 -0.00000000000E+00 -0.00000000000E+00 -0.74505805969E-08  0.93827000000E+00  0.93827000000E+00 0.  1.
     999902    2    1    2    0    0 -0.19670189604E-01 -0.43098745648E-02 -0.12990814342E-01  0.10199664311E+01  0.10196848866E+01 0.  0.
     999903    2    3    3    0    0  0.35090910195E-01  0.20732023625E-01 -0.12297243500E+00  0.13107845637E+00  0.19953775853E-01 0.  0.
         14    1    1    2    0    0  0.19670189604E-01  0.43098745648E-02  0.12990814342E-01  0.23963568914E-01  0.00000000000E+00 0. -1.
     999901    1    3    3    0    0 -0.54761099799E-01 -0.25041898189E-01  0.10998162066E+00  0.88888797472E+00  0.88000000000E+00 0. -1.
        -11    1    4    4    0    0  0.10707659720E-01  0.17805905101E-01 -0.58846986205E-01  0.62409399449E-01  0.51100000000E-03 0.  1.
         11    1    4    4    0    0  0.24383250475E-01  0.29261185238E-02 -0.64125448800E-01  0.68669056919E-01  0.51100000000E-03 0. -1.
</event>
<event>
 8    1  0.1071333E+005  0.1043930E+01  0.7957747E-01            NaN
         13   -1    0    0    0    0  0.00000000000E+00  0.00000000000E+00  0.74505805969E-08  0.10566000000E+00  0.10566000000E+00 0. -1.
     999900   -1    0    0    0    0 -0.00000000000E+00 -0.00000000000E+00 -0.74505805969E-08  0.93827000000E+00  0.93827000000E+00 0.  1.
     999902    2    1    2    0    0  0.42937472558E-02  0.23695104294E-01 -0.27119620166E-02  0.10196967796E+01  0.10194087862E+01 0.  0.
     999903    2    3    3    0    0  0.29381346495E-01 -0.52164702312E-01  0.11188927677E+00  0.12867627376E+00  0.21306184138E-01 0.  0.
         14    1    1    2    0    0 -0.42937472558E-02 -0.23695104294E-01  0.27119620166E-02  0.24233220400E-01  0.00000000000E+00 0.  1.
     999901    1    3    3    0    0 -0.25087599240E-01  0.75859806606E-01 -0.11460123879E+00  0.89102050584E+00  0.88000000000E+00 0.  1.
        -11    1    4    4    0    0  0.93292197179E-02 -0.30450173456E-01  0.74421153091E-01  0.80950704460E-01  0.51100000000E-03 0.  1.
         11    1    4    4    0    0  0.20052126777E-01 -0.21714528856E-01  0.37468123683E-01  0.47725569301E-01  0.51100000000E-03 0. -1.
</event>
<event>
 8    1  0.1071333E+005  0.1043930E+01  0.7957747E-01            NaN
         13   -1    0    0    0    0  0.00000000000E+00  0.00000000000E+00  0.74505805969E-08  0.10566000000E+00  0.10566000000E+00 0. -1.
     999900   -1    0    0    0    0 -0.00000000000E+00 -0.00000000000E+00 -0.74505805969E-08  0.93827000000E+00  0.93827000000E+00 0. -1.
     999902    2    1    2    0    0  0.21680603432E-01  0.49521626728E-04 -0.10107667143E-01  0.10200089642E+01  0.10197284301E+01 0.  0.
     999903    2    3    3    0    0  0.11521841372E+00 -0.14574698724E-03 -0.64211480799E-01  0.13339936427E+00  0.19924156658E-01 0.  0.
         14    1    1    2    0    0 -0.21680603432E-01 -0.49521626728E-04  0.10107667143E-01  0.23921035777E-01  0.00000000000E+00 0. -1.
     999901    1    3    3    0    0 -0.93537810286E-01  0.19526861396E-03  0.54103813656E-01  0.88660959996E+00  0.88000000000E+00 0.  1.
        -11    1    4    4    0    0  0.70021610329E-01 -0.83988902813E-02 -0.33073780046E-01  0.77895464044E-01  0.51100000000E-03 0.  1.
         11    1    4    4    0    0  0.45196803389E-01  0.82531432940E-02 -0.31137700753E-01  0.55503900223E-01  0.51100000000E-03 0. -1.
</event>
<event>
 8    1  0.1071333E+005  0.1043930E+01  0.7957747E-01            NaN
         13   -1    0    0    0    0  0.00000000000E+00  0.00000000000E+00  0.74505805969E-08  0.10566000000E+00  0.10566000000E+00 0. -1.
     999900   -1    0    0    0    0 -0.00000000000E+00 -0.00000000000E+00 -0.74505805969E-08  0.93827000000E+00  0.93827000000E+00 0. -1.
     999902    2    1    2    0    0  0.13612056843E-02  0.45765973332E-02  0.22018041023E-01  0.10214001919E+01  0.10211516830E+01 0.  0.
     999903    2    3    3    0    0  0.66327341390E-01 -0.61019460306E-01  0.96328447680E-01  0.13345566764E+00  0.20212734621E-01 0.  0.
         14    1    1    2    0    0 -0.13612056843E-02 -0.45765973332E-02 -0.22018041023E-01  0.22529808134E-01  0.00000000000E+00 0.  1.
     999901    1    3    3    0    0 -0.64966135706E-01  0.65596057639E-01 -0.74310406656E-01  0.88794452423E+00  0.88000000000E+00 0. -1.
        -11    1    4    4    0    0  0.11854930257E-01 -0.22969170629E-01  0.29235791385E-01  0.39027103271E-01  0.51100000000E-03 0. -1.
         11    1    4    4    0    0  0.54472411132E-01 -0.38050289676E-01  0.67092656295E-01  0.94428564369E-01  0.51100000000E-03 0.  1.
</event>
<event>
 8    1  0.1071333E+005  0.1043930E+01  0.7957747E-01            NaN
         13   -1    0    0    0    0  0.00000000000E+00  0.00000000000E+00  0.74505805969E-08  0.10566000000E+00  0.10566000000E+00 0. -1.
     999900   -1    0    0    0    0 -0.00000000000E+00 -0.00000000000E+00 -0.74505805969E-08  0.93827000000E+00  0.93827000000E+00 0. -1.
     999902    2    1    2    0    0 -0.21542309717E-01  0.28534115397E-02 -0.96185672873E-02  0.10201659536E+01  0.10198891327E+01 0.  0.
     999903    2    3    3    0    0 -0.13092708896E+00 -0.12573442288E-01 -0.69847291010E-02  0.13325561153E+00  0.20205877546E-01 0.  0.
         14    1    1    2    0    0  0.21542309717E-01 -0.28534115397E-02  0.96185672873E-02  0.23764046415E-01  0.00000000000E+00 0.  1.
     999901    1    3    3    0    0  0.10938477924E+00  0.15426853828E-01 -0.26338381863E-02  0.88691034206E+00  0.88000000000E+00 0.  1.
        -11    1    4    4    0    0 -0.40856708989E-01 -0.73934362019E-02 -0.10966397183E-01  0.42947136767E-01  0.51100000000E-03 0. -1.
         11    1    4    4    0    0 -0.90070379973E-01 -0.51800060862E-02  0.39816680825E-02  0.90308474758E-01  0.51100000000E-03 0.  1.
</event>
<event>
 8    1  0.1071333E+005  0.1043930E+01  0.7957747E-01            NaN
         13   -1    0    0    0    0  0.00000000000E+00  0.00000000000E+00  0.74505805969E-08  0.10566000000E+00  0.10566000000E+00 0.  1.
     999900   -1    0    0    0    0 -0.00000000000E+00 -0.00000000000E+00 -0.74505805969E-08  0.93827000000E+00  0.93827000000E+00 0.  1.
     999902    2    1    2    0    0  0.56461151299E-02 -0.29451365576E-01 -0.33700673344E-02  0.10137535372E+01  0.10133043054E+01 0.  0.
     999903    2    3    3    0    0  0.11484991528E+00  0.18398765575E-01 -0.40607340858E-01  0.12493312819E+00  0.20743981628E-01 0.  0.
         14    1    1    2    0    0 -0.56461151299E-02  0.29451365576E-01  0.33700673344E-02  0.30176462751E-01  0.00000000000E+00 0. -1.
     999901    1    3    3    0    0 -0.10920380015E+00 -0.47850131151E-01  0.37237273524E-01  0.88882040906E+00  0.88000000000E+00 0. -1.
        -11    1    4    4    0    0  0.20016379748E-01 -0.24874756060E-02 -0.12906974593E-01  0.23951912392E-01  0.51100000000E-03 0. -1.
         11    1    4    4    0    0  0.94833535531E-01  0.20886241181E-01 -0.27700366265E-01  0.10098121580E+00  0.51100000000E-03 0.  1.
</event>
<event>
 8    1  0.1071333E+005  0.1043930E+01  0.7957747E-01            NaN
         13   -1    0    0    0    0  0.00000000000E+00  0.00000000000E+00  0.74505805969E-08  0.10566000000E+00  0.10566000000E+00 0. -1.
     999900   -1    0    0    0    0 -0.00000000000E+00 -0.00000000000E+00 -0.74505805969E-08  0.93827000000E+00  0.93827000000E+00 0.  1.
     999902    2    1    2    0    0  0.10313625112E-01  0.11563032285E-01  0.18395550475E-01  0.10198785789E+01  0.10195949416E+01 0.  0.
     999903    2    3    3    0    0  0.40227532872E-01  0.12407653121E+00  0.12681082699E-01  0.13219238186E+00  0.17342893815E-01 0.  0.
         14    1    1    2    0    0 -0.10313625112E-01 -0.11563032285E-01 -0.18395550475E-01  0.24051421078E-01  0.00000000000E+00 0.  1.
     999901    1    3    3    0    0 -0.29913907760E-01 -0.11251349892E+00  0.57144677764E-02  0.88768619706E+00  0.88000000000E+00 0. -1.
        -11    1    4    4    0    0  0.12447974898E-01  0.64835718895E-01  0.34521133046E-02  0.66112031666E-01  0.51100000000E-03 0. -1.
         11    1    4    4    0    0  0.27779557974E-01  0.59240812310E-01  0.92289693943E-02  0.66080350192E-01  0.51100000000E-03 0.  1.
</event>
<event>
 8    1  0.1071333E+005  0.1043930E+01  0.7957747E-01            NaN
         13   -1    0    0    0    0  0.00000000000E+00  0.00000000000E+00  0.74505805969E-08  0.10566000000E+00  0.10566000000E+00 0.  1.
     999900   -1    0    0    0    0 -0.00000000000E+00 -0.00000000000E+00 -0.74505805969E-08  0.93827000000E+00  0.93827000000E+00 0.  1.
     999902    2    1    2    0    0  0.17270791095E-01 -0.12003882480E-02 -0.13594799196E-01  0.10219177370E+01  0.10216806358E+01 0.  0.
     999903    2    3    3    0    0  0.13256453682E+00 -0.81950141080E-02 -0.77155351314E-02  0.13435019685E+00  0.18706448931E-01 0.  0.
         14    1    1    2    0    0 -0.17270791095E-01  0.12003882480E-02  0.13594799196E-01  0.22012262995E-01  0.00000000000E+00 0.  1.
     999901    1    3    3    0    0 -0.11529374573E+00  0.69946258599E-02 -0.58792640648E-02  0.88756754016E+00  0.88000000000E+00 0. -1.
        -11    1    4    4    0    0  0.66696876758E-01  0.33287491906E-02 -0.95128003788E-02  0.67455974031E-01  0.51100000000E-03 0. -1.
         11    1    4    4    0    0  0.65867660064E-01 -0.11523763299E-01  0.17972652475E-02  0.66894222816E-01  0.51100000000E-03 0.  1.
</event>
<event>
 8    1  0.1071333E+005  0.1043930E+01  0.7957747E-01            NaN
         13   -1    0    0    0    0  0.00000000000E+00  0.00000000000E+00  0.74505805969E-08  0.10566000000E+00  0.10566000000E+00 0. -1.
     999900   -1    0    0    0    0 -0.00000000000E+00 -0.00000000000E+00 -0.74505805969E-08  0.93827000000E+00  0.93827000000E+00 0. -1.
     999902    2    1    2    0    0  0.22904744353E-01  0.13075350374E-01 -0.37181055881E-02  0.10172951279E+01  0.10169463904E+01 0.  0.
     999903    2    3    3    0    0  0.26052751860E-01 -0.72434848359E-01 -0.10072147707E+00  0.12783936280E+00  0.16508591728E-01 0.  0.
         14    1    1    2    0    0 -0.22904744353E-01 -0.13075350374E-01  0.37181055881E-02  0.26634872075E-01  0.00000000000E+00 0.  1.
     999901    1    3    3    0    0 -0.31480075074E-02  0.85510198733E-01  0.97003371483E-01  0.88945576513E+00  0.88000000000E+00 0.  1.
        -11    1    4    4    0    0  0.25684904133E-01 -0.49506727407E-01 -0.70199001879E-01  0.89659307072E-01  0.51100000000E-03 0.  1.
         11    1    4    4    0    0  0.36784772736E-03 -0.22928120952E-01 -0.30522475193E-01  0.38180055726E-01  0.51100000000E-03 0. -1.
</event>
<event>
 8    1  0.1071333E+005  0.1043930E+01  0.7957747E-01            NaN
         13   -1    0    0    0    0  0.00000000000E+00  0.00000000000E+00  0.74505805969E-08  0.10566000000E+00  0.10566000000E+00 0.  1.
     999900   -1    0    0    0    0 -0.00000000000E+00 -0.00000000000E+00 -0.74505805969E-08  0.93827000000E+00  0.93827000000E+00 0.  1.
     999902    2    1    2    0    0 -0.17120904885E-01 -0.10713789982E-01 -0.85235216919E-02  0.10220082961E+01  0.10217731628E+01 0.  0.
     999903    2    3    3    0    0  0.11441953981E+00  0.10642439616E-01 -0.58739791859E-01  0.13055967115E+00  0.19757833169E-01 0.  0.
         14    1    1    2    0    0  0.17120904885E-01  0.10713789982E-01  0.85235216919E-02  0.21921703901E-01  0.00000000000E+00 0. -1.
     999901    1    3    3    0    0 -0.13154044470E+00 -0.21356229597E-01  0.50216270167E-01  0.89144862495E+00  0.88000000000E+00 0. -1.
        -11    1    4    4    0    0  0.48842170535E-01  0.13457626157E-01 -0.21005291871E-01  0.54846592710E-01  0.51100000000E-03 0. -1.
         11    1    4    4    0    0  0.65577369277E-01 -0.28151865410E-02 -0.37734499988E-01  0.75713078440E-01  0.51100000000E-03 0.  1.
</event>
<event>
 8    1  0.1071333E+005  0.1043930E+01  0.7957747E-01            NaN
         13   -1    0    0    0    0  0.00000000000E+00  0.00000000000E+00  0.74505805969E-08  0.10566000000E+00  0.10566000000E+00 0. -1.
     999900   -1    0    0    0    0 -0.00000000000E+00 -0.00000000000E+00 -0.74505805969E-08  0.93827000000E+00  0.93827000000E+00 0. -1.
     999902    2    1    2    0    0  0.23370677745E-01 -0.29517606236E-02 -0.25440429371E-02  0.10202366755E+01  0.10199615191E+01 0.  0.
     999903    2    3    3    0    0 -0.11344187306E+00 -0.54358574748E-02  0.56592582314E-01  0.12770041005E+00  0.14355042463E-01 0.  0.
         14    1    1    2    0    0 -0.23370677745E-01  0.29517606236E-02  0.25440429371E-02  0.23693324450E-01  0.00000000000E+00 0. -1.
     999901    1    3    3    0    0  0.13681255080E+00  0.24840968511E-02 -0.59136625251E-01  0.89253626550E+00  0.88000000000E+00 0. -1.
        -11    1    4    4    0    0 -0.23705507055E-01  0.38890253494E-02  0.15244605689E-01  0.28455837828E-01  0.51100000000E-03 0. -1.
         11    1    4    4    0    0 -0.89736366001E-01 -0.93248828242E-02  0.41347976625E-01  0.99244572218E-01  0.51100000000E-03 0.  1.
</event>
<event>
 8    1  0.1071333E+005  0.1043930E+01  0.7957747E-01            NaN
         13   -1    0    0    0    0  0.00000000000E+00  0.00000000000E+00  0.74505805969E-08  0.10566000000E+00  0.10566000000E+00 0. -1.
     999900   -1    0    0    0    0 -0.00000000000E+00 -0.00000000000E+00 -0.74505805969E-08  0.93827000000E+00  0.93827000000E+00 0. -1.
     999902    2    1    2    0    0 -0.40388385823E-04 -0.14314144688E-01 -0.14663714511E-01  0.10234380286E+01  0.10232328559E+01 0.  0.
     999903    2    3    3    0    0 -0.51982704025E-01 -0.96929115704E-01 -0.76657831681E-01  0.13587591348E+00  0.22099450637E-01 0.  0.
         14    1    1    2    0    0  0.40388385823E-04  0.14314144688E-01  0.14663714511E-01  0.20491971419E-01  0.00000000000E+00 0. -1.
     999901    1    3    3    0    0  0.51942315639E-01  0.82614971016E-01  0.61994117170E-01  0.88756211510E+00  0.88000000000E+00 0.  1.
        -11    1    4    4    0    0 -0.15114126136E-01 -0.34804982124E-01 -0.38967847793E-01  0.54392810849E-01  0.51100000000E-03 0. -1.
         11    1    4    4    0    0 -0.36868577889E-01 -0.62124133580E-01 -0.37689983888E-01  0.81483102636E-01  0.51100000000E-03 0.  1.
</event>
<event>
 8    1  0.1071333E+005  0.1043930E+01  0.7957747E-01            NaN
         13   -1    0    0    0    0  0.00000000000E+00  0.00000000000E+00  0.74505805969E-08  0.10566000000E+00  0.10566000000E+00 0. -1.
     999900   -1    0    0    0    0 -0.00000000000E+00 -0.00000000000E+00 -0.74505805969E-08  0.93827000000E+00  0.93827000000E+00 0.  1.
     999902    2    1    2    0    0 -0.13159501364E-01  0.17092083112E-01  0.93202537693E-02  0.10204315126E+01  0.10201609152E+01 0.  0.
     999903    2    3    3    0    0 -0.72569120122E-01  0.10115725077E+00 -0.42044923145E-01  0.13294357653E+00  0.20178017726E-01 0.  0.
         14    1    1    2    0    0  0.13159501364E-01 -0.17092083112E-01 -0.93202537693E-02  0.23498487432E-01  0.00000000000E+00 0.  1.
     999901    1    3    3    0    0  0.59409618758E-01 -0.84065167659E-01  0.51365176915E-01  0.88748793604E+00  0.88000000000E+00 0. -1.
        -11    1    4    4    0    0 -0.40632076543E-01  0.59947548878E-01 -0.14078130754E-01  0.73777565338E-01  0.51100000000E-03 0. -1.
         11    1    4    4    0    0 -0.31937043580E-01  0.41209701893E-01 -0.27966792391E-01  0.59166011192E-01  0.51100000000E-03 0.  1.
</event>
<event>
 8    1  0.1071333E+005  0.1043930E+01  0.7957747E-01            NaN
         13   -1    0    0    0    0  0.00000000000E+00  0.00000000000E+00  0.74505805969E-08  0.10566000000E+00  0.10566000000E+00 0.  1.
     999900   -1    0    0    0    0 -0.00000000000E+00 -0.00000000000E+00 -0.74505805969E-08  0.93827000000E+00  0.93827000000E+00 0. -1.
     999902    2    1    2    0    0 -0.22574116371E-01 -0.88965503172E-03 -0.63151415105E-02  0.10204723098E+01  0.10202026622E+01 0.  0.
     999903    2    3    3    0    0 -0.19094234017E-01 -0.12216270822E+00 -0.40296238389E-01  0.13149875681E+00  0.19488949795E-01 0.  0.
         14    1    1    2    0    0  0.22574116371E-01  0.88965503172E-03  0.63151415105E-02  0.23457690174E-01  0.00000000000E+00 0.  1.
     999901    1    3    3    0    0 -0.34798823541E-02  0.12127305318E+00  0.33981096879E-01  0.88897355301E+00  0.88000000000E+00 0. -1.
        -11    1    4    4    0    0 -0.13090186302E-01 -0.93753923057E-01 -0.22040916460E-01  0.97196780736E-01  0.51100000000E-03 0.  1.
         11    1    4    4    0    0 -0.60040477146E-02 -0.28408785159E-01 -0.18255321929E-01  0.34301976078E-01  0.51100000000E-03 0. -1.
</event>
<event>
 8    1  0.1188258E+005  0.1043930E+01  0.7957747E-01            NaN
         13   -1    0    0    0    0  0.00000000000E+00  0.00000000000E+00  0.74505805969E-08  0.10566000000E+00  0.10566000000E+00 0.  1.
     999900   -1    0    0    0    0 -0.00000000000E+00 -0.00000000000E+00 -0.74505805969E-08  0.93827000000E+00  0.93827000000E+00 0. -1.
     999902    2    1    2    0    0 -0.24158324571E-01 -0.30042790889E-02  0.11456733109E-03  0.10195853196E+01  0.10192946387E+01 0.  0.
     999903    2    3    3    0    0  0.11297931009E+00  0.54137111043E-01 -0.73154071148E-02  0.12710166493E+00  0.20153579007E-01 0.  0.
         14    1    1    2    0    0  0.24158324571E-01  0.30042790889E-02 -0.11456733109E-03  0.24344680417E-01  0.00000000000E+00 0.  1.
     999901    1    3    3    0    0 -0.13713763466E+00 -0.57141390132E-01  0.74299744459E-02  0.89248365465E+00  0.88000000000E+00 0.  1.
        -11    1    4    4    0    0  0.78615289866E-01  0.29635804302E-01  0.12843683627E-02  0.84027111223E-01  0.51100000000E-03 0.  1.
         11    1    4    4    0    0  0.34364020220E-01  0.24501306741E-01 -0.85997754775E-02  0.43074553706E-01  0.51100000000E-03 0. -1.
</event>
<event>
 7    1  0.1071333E+005  0.1043930E+01  0.7957747E-01            NaN
         13   -1    0    0    0    0  0.00000000000E+00  0.00000000000E+00  0.74505805969E-08  0.10566000000E+00  0.10566000000E+00 0.  1.
     999900   -1    0    0    0    0 -0.00000000000E+00 -0.00000000000E+00 -0.74505805969E-08  0.93827000000E+00  0.93827000000E+00 0. -1.
     999903    2    1    2    0    0  0.22216458792E-01 -0.97296248353E-02  0.10640720791E+00  0.11198808728E+00  0.25111773299E-01 0.  0.
         14    1    1    2    0    0  0.14898861177E-02 -0.43844159778E-01 -0.34532605280E-02  0.44005171464E-01  0.00000000000E+00 0. -1.
     999901    1    1    2    0    0 -0.23706344910E-01  0.53573784613E-01 -0.10295394738E+00  0.88793674125E+00  0.88000000000E+00 0. -1.
        -11    1    3    3    0    0  0.27609207546E-01 -0.80549836352E-02  0.94837088939E-01  0.99103408933E-01  0.51100000000E-03 0. -1.
         11    1    3    3    0    0 -0.53927487540E-02 -0.16746412001E-02  0.11570118967E-01  0.12884678350E-01  0.51100000000E-03 0.  1.
</event>
<event>
 8    1  0.1071333E+005  0.1043930E+01  0.7957747E-01            NaN
         13   -1    0    0    0    0  0.00000000000E+00  0.00000000000E+00  0.74505805969E-08  0.10566000000E+00  0.10566000000E+00 0.  1.
     999900   -1    0    0    0    0 -0.00000000000E+00 -0.00000000000E+00 -0.74505805969E-08  0.93827000000E+00  0.93827000000E+00 0. -1.
     999902    2    1    2    0    0  0.16505130006E-01  0.72372704047E-02 -0.14870976843E-01  0.10205645693E+01  0.10202970630E+01 0.  0.
     999903    2    3    3    0    0 -0.11379408315E+00 -0.55956325764E-01 -0.10327137558E-01  0.12871706999E+00  0.19525126986E-01 0.  0.
         14    1    1    2    0    0 -0.16505130006E-01 -0.72372704047E-02  0.14870976843E-01  0.23365430697E-01  0.00000000000E+00 0. -1.
     999901    1    3    3    0    0  0.13029921316E+00  0.63193596169E-01 -0.45438392852E-02  0.89184749931E+00  0.88000000000E+00 0.  1.
        -11    1    4    4    0    0 -0.24038740764E-01 -0.21042462523E-01 -0.40043761189E-02  0.32201590576E-01  0.51100000000E-03 0. -1.
         11    1    4    4    0    0 -0.89755342391E-01 -0.34913863241E-01 -0.63227614390E-02  0.96515479418E-01  0.51100000000E-03 0.  1.
</event>
<event>
 8    1  0.1071333E+005  0.1043930E+01  0.7957747E-01            NaN
         13   -1    0    0    0    0  0.00000000000E+00  0.00000000000E+00  0.74505805969E-08  0.10566000000E+00  0.10566000000E+00 0. -1.
     999900   -1    0    0    0    0 -0.00000000000E+00 -0.00000000000E+00 -0.74505805969E-08  0.93827000000E+00  0.93827000000E+00 0. -1.
     999902    2    1    2    0    0  0.24973790772E-02 -0.45165605092E-02  0.23130488445E-01  0.10202307233E+01  0.10199554270E+01 0.  0.
     999903    2    3    3    0    0  0.80711728616E-01  0.99744106068E-01 -0.77123538006E-02  0.13009643455E+00  0.20058216501E-01 0.  0.
         14    1    1    2    0    0 -0.24973790772E-02  0.45165605092E-02 -0.23130488445E-01  0.23699276715E-01  0.00000000000E+00 0.  1.
     999901    1    3    3    0    0 -0.78214349539E-01 -0.10426066658E+00  0.30842842246E-01  0.89013428874E+00  0.88000000000E+00 0.  1.
        -11    1    4    4    0    0  0.58811428063E-01  0.82543867535E-01 -0.11435974880E-01  0.10199665083E+00  0.51100000000E-03 0.  1.
         11    1    4    4    0    0  0.21900300553E-01  0.17200238533E-01  0.37236210795E-02  0.28099783716E-01  0.51100000000E-03 0. -1.
</event>
<event>
 8    1  0.1071333E+005  0.1043930E+01  0.7957747E-01            NaN
         13   -1    0    0    0    0  0.00000000000E+00  0.00000000000E+00  0.74505805969E-08  0.10566000000E+00  0.10566000000E+00 0.  1.
     999900   -1    0    0    0    0 -0.00000000000E+00 -0.00000000000E+00 -0.74505805969E-08  0.93827000000E+00  0.93827000000E+00 0. -1.
     999902    2    1    2    0    0  0.18565888456E-01  0.16513031341E-01  0.28035509774E-02  0.10189253541E+01  0.10186184982E+01 0.  0.
     999903    2    3    3    0    0 -0.11933268429E+00 -0.21428120195E-01  0.31311566874E-01  0.12692296940E+00  0.20726120418E-01 0.  0.
         14    1    1    2    0    0 -0.18565888456E-01 -0.16513031341E-01 -0.28035509774E-02  0.25004645894E-01  0.00000000000E+00 0.  1.
     999901    1    3    3    0    0  0.13789857274E+00  0.37941151536E-01 -0.28508015897E-01  0.89200238470E+00  0.88000000000E+00 0. -1.
        -11    1    4    4    0    0 -0.89668229069E-01 -0.16135575221E-01  0.14033904268E-01  0.92184378731E-01  0.51100000000E-03 0. -1.
         11    1    4    4    0    0 -0.29664455219E-01 -0.52925449746E-02  0.17277662606E-01  0.34738590672E-01  0.51100000000E-03 0.  1.
</event>
<event>
 8    1  0.1071333E+005  0.1043930E+01  0.7957747E-01            NaN
         13   -1    0    0    0    0  0.00000000000E+00  0.00000000000E+00  0.74505805969E-08  0.10566000000E+00  0.10566000000E+00 0. -1.
     999900   -1    0    0    0    0 -0.00000000000E+00 -0.00000000000E+00 -0.74505805969E-08  0.93827000000E+00  0.93827000000E+00 0. -1.
     999902    2    1    2    0    0 -0.22224576336E-01 -0.34590387530E-03 -0.65340963267E-02  0.10207622237E+01  0.10204992756E+01 0.  0.
     999903    2    3    3    0    0 -0.32444752559E-01  0.12413126189E+00  0.20385462101E-01  0.13153577370E+00  0.20612145713E-01 0.  0.
         14    1    1    2    0    0  0.22224576336E-01  0.34590387530E-03  0.65340963267E-02  0.23167776276E-01  0.00000000000E+00 0. -1.
     999901    1    3    3    0    0  0.10220176224E-01 -0.12447716576E+00 -0.26919558427E-01  0.88922645003E+00  0.88000000000E+00 0. -1.
        -11    1    4    4    0    0 -0.19641773368E-01  0.43931844370E-01  0.13736356520E-01  0.50047525635E-01  0.51100000000E-03 0. -1.
         11    1    4    4    0    0 -0.12802979191E-01  0.80199417518E-01  0.66491055810E-02  0.81488248063E-01  0.51100000000E-03 0.  1.
</event>
<event>
 8    1  0.1071333E+005  0.1043930E+01  0.7957747E-01            NaN
         13   -1    0    0    0    0  0.00000000000E+00  0.00000000000E+00  0.74505805969E-08  0.10566000000E+00  0.10566000000E+00 0.  1.
     999900   -1    0    0    0    0 -0.00000000000E+00 -0.00000000000E+00 -0.74505805969E-08  0.93827000000E+00  0.93827000000E+00 0. -1.
     999902    2    1    2    0    0 -0.16278187996E-01 -0.15750377888E-01  0.71572127855E-02  0.10201754320E+01  0.10198988344E+01 0.  0.
     999903    2    3    3    0    0 -0.50611297784E-01 -0.62983628166E-01  0.10334369890E+00  0.13301051918E+00  0.21987205999E-01 0.  0.
         14    1    1    2    0    0  0.16278187996E-01  0.15750377888E-01 -0.71572127855E-02  0.23754568043E-01  0.00000000000E+00 0. -1.
     999901    1    3    3    0    0  0.34333109788E-01  0.47233250278E-01 -0.96186486119E-01  0.88716491278E+00  0.88000000000E+00 0. -1.
        -11    1    4    4    0    0 -0.28517344190E-01 -0.43925757879E-01  0.80100443097E-01  0.95702942642E-01  0.51100000000E-03 0.  1.
         11    1    4    4    0    0 -0.22093953594E-01 -0.19057870287E-01  0.23243255808E-01  0.37307576534E-01  0.51100000000E-03 0. -1.
</event>
<event>
 8    1  0.1071333E+005  0.1043930E+01  0.7957747E-01            NaN
         13   -1    0    0    0    0  0.00000000000E+00  0.00000000000E+00  0.74505805969E-08  0.10566000000E+00  0.10566000000E+00 0. -1.
     999900   -1    0    0    0    0 -0.00000000000E+00 -0.00000000000E+00 -0.74505805969E-08  0.93827000000E+00  0.93827000000E+00 0.  1.
     999902    2    1    2    0    0  0.20686524030E-01  0.16350139820E-01  0.56986909321E-02  0.10169534467E+01  0.10165955825E+01 0.  0.
     999903    2    3    3    0    0  0.10345938376E+00 -0.72458247266E-01  0.14603397173E-01  0.12857426545E+00  0.19079854351E-01 0.  0.
         14    1    1    2    0    0 -0.20686524030E-01 -0.16350139820E-01 -0.56986909321E-02  0.26976553280E-01  0.00000000000E+00 0. -1.
     999901    1    3    3    0    0 -0.82772859728E-01  0.88808387085E-01 -0.89047062413E-02  0.88837918127E+00  0.88000000000E+00 0.  1.
        -11    1    4    4    0    0  0.26035466821E-01 -0.28845219885E-01  0.54232043337E-02  0.39237284680E-01  0.51100000000E-03 0.  1.
         11    1    4    4    0    0  0.77423916937E-01 -0.43613027381E-01  0.91801928397E-02  0.89336980768E-01  0.51100000000E-03 0. -1.
</event>
<event>
 8    1  0.1071333E+005  0.1043930E+01  0.7957747E-01            NaN
         13   -1    0    0    0    0  0.00000000000E+00  0.00000000000E+00  0.74505805969E-08  0.10566000000E+00  0.10566000000E+00 0.  1.
     999900   -1    0    0    0    0 -0.00000000000E+00 -0.00000000000E+00 -0.74505805969E-08  0.93827000000E+00  0.93827000000E+00 0.  1.
     999902    2    1    2    0    0  0.21662886546E-01 -0.23742452152E-02  0.97178967004E-02  0.10200688347E+01  0.10197897196E+01 0.  0.
     999903    2    3    3    0    0  0.43656777150E-01 -0.84151377528E-01 -0.87680993471E-01  0.13065454742E+00  0.19881791000E-01 0.  0.
         14    1    1    2    0    0 -0.21662886546E-01  0.23742452152E-02 -0.97178967004E-02  0.23861165314E-01  0.00000000000E+00 0. -1.
     999901    1    3    3    0    0 -0.21993890603E-01  0.81777132313E-01  0.97398890172E-01  0.88941428727E+00  0.88000000000E+00 0. -1.
        -11    1    4    4    0    0  0.24795630065E-01 -0.27770109234E-01 -0.29959833945E-01  0.47789695628E-01  0.51100000000E-03 0. -1.
         11    1    4    4    0    0  0.18861147085E-01 -0.56381268295E-01 -0.57721159526E-01  0.82864851788E-01  0.51100000000E-03 0.  1.
</event>
<event>
 8    1  0.1071333E+005  0.1043930E+01  0.7957747E-01            NaN
         13   -1    0    0    0    0  0.00000000000E+00  0.00000000000E+00  0.74505805969E-08  0.10566000000E+00  0.10566000000E+00 0.  1.
     999900   -1    0    0    0    0 -0.00000000000E+00 -0.00000000000E+00 -0.74505805969E-08  0.93827000000E+00  0.93827000000E+00 0.  1.
     999902    2    1    2    0    0  0.64158629011E-02 -0.22793438894E-01 -0.39103248699E-02  0.10199301085E+01  0.10196476996E+01 0.  0.
     999903    2    3    3    0    0  0.44944984645E-01  0.10883855314E+00 -0.45904897135E-01  0.12831639241E+00  0.22180051511E-01 0.  0.
         14    1    1    2    0    0 -0.64158629011E-02  0.22793438894E-01  0.39103248699E-02  0.23999891541E-01  0.00000000000E+00 0.  1.
     999901    1    3    3    0    0 -0.38529121744E-01 -0.13163199204E+00  0.41994572265E-01  0.89161371605E+00  0.88000000000E+00 0. -1.
        -11    1    4    4    0    0  0.39264273983E-02  0.35866816067E-01 -0.12565121958E-01  0.38209798975E-01  0.51100000000E-03 0. -1.
         11    1    4    4    0    0  0.41018557247E-01  0.72971737075E-01 -0.33339775178E-01  0.90106593434E-01  0.51100000000E-03 0.  1.
</event>
<event>
 8    1  0.1071333E+005  0.1043930E+01  0.7957747E-01            NaN
         13   -1    0    0    0    0  0.00000000000E+00  0.00000000000E+00  0.74505805969E-08  0.10566000000E+00  0.10566000000E+00 0.  1.
     999900   -1    0    0    0    0 -0.00000000000E+00 -0.00000000000E+00 -0.74505805969E-08  0.93827000000E+00  0.93827000000E+00 0. -1.
     999902    2    1    2    0    0 -0.21471057407E-02 -0.15728332864E-01  0.17293983624E-01  0.10204550690E+01  0.10201850202E+01 0.  0.
     999903    2    3    3    0    0 -0.30842440334E-01 -0.54022634973E-01 -0.11212333837E+00  0.12970329712E+00  0.19534611925E-01 0.  0.
         14    1    1    2    0    0  0.21471057407E-02  0.15728332864E-01 -0.17293983624E-01  0.23474931040E-01  0.00000000000E+00 0. -1.
     999901    1    3    3    0    0  0.28695334593E-01  0.38294302109E-01  0.12941732199E+00  0.89075177184E+00  0.88000000000E+00 0.  1.
        -11    1    4    4    0    0 -0.15482790929E-01 -0.23851204699E-01 -0.70674241703E-01  0.76182060498E-01  0.51100000000E-03 0. -1.
         11    1    4    4    0    0 -0.15359649406E-01 -0.30171430273E-01 -0.41449096663E-01  0.53521236624E-01  0.51100000000E-03 0.  1.
</event>
<event>
 8    1  0.1071333E+005  0.1043930E+01  0.7957747E-01            NaN
         13   -1    0    0    0    0  0.00000000000E+00  0.00000000000E+00  0.74505805969E-08  0.10566000000E+00  0.10566000000E+00 0. -1.
     999900   -1    0    0    0    0 -0.00000000000E+00 -0.00000000000E+00 -0.74505805969E-08  0.93827000000E+00  0.93827000000E+00 0.  1.
     999902    2    1    2    0    0  0.53733807046E-03  0.23587365136E-01  0.31451192906E-02  0.10201278089E+01  0.10198500881E+01 0.  0.
     999903    2    3    3    0    0  0.98760667969E-01 -0.79046852923E-01 -0.11897418442E-01  0.12860782415E+00  0.19908525110E-01 0.  0.
         14    1    1    2    0    0 -0.53733807046E-03 -0.23587365136E-01 -0.31451192906E-02  0.23802191110E-01  0.00000000000E+00 0. -1.
     999901    1    3    3    0    0 -0.98223329898E-01  0.10263421806E+00  0.15042537732E-01  0.89151998474E+00  0.88000000000E+00 0. -1.
        -11    1    4    4    0    0  0.69572703579E-01 -0.43501830168E-01 -0.70721581773E-02  0.82359254814E-01  0.51100000000E-03 0. -1.
         11    1    4    4    0    0  0.29187964389E-01 -0.35545022755E-01 -0.48252602645E-02  0.46248569334E-01  0.51100000000E-03 0.  1.
</event>
<event>
 8    1  0.1071333E+005  0.1043930E+01  0.7957747E-01            NaN
         13   -1    0    0    0    0  0.00000000000E+00  0.00000000000E+00  0.74505805969E-08  0.10566000000E+00  0.10566000000E+00 0. -1.
     999900   -1    0    0    0    0 -0.00000000000E+00 -0.00000000000E+00 -0.74505805969E-08  0.93827000000E+00  0.93827000000E+00 0.  1.
     999902    2    1    2    0    0  0.20424381990E-01  0.71837577384E-02  0.52708846910E-02  0.10216467332E+01  0.10214036927E+01 0.  0.
     999903    2    3    3    0    0  0.81108611895E-01 -0.28585855611E-01  0.10042831711E+00  0.13371825748E+00  0.19974169360E-01 0.  0.
         14    1    1    2    0    0 -0.20424381990E-01 -0.71837577384E-02 -0.52708846910E-02  0.22283266824E-01  0.00000000000E+00 0.  1.
     999901    1    3    3    0    0 -0.60684229905E-01  0.35769613349E-01 -0.95157432424E-01  0.88792847569E+00  0.88000000000E+00 0.  1.
        -11    1    4    4    0    0  0.58533340720E-01 -0.10754845816E-01  0.67679040252E-01  0.90125092481E-01  0.51100000000E-03 0.  1.
         11    1    4    4    0    0  0.22575271175E-01 -0.17831009795E-01  0.32749276863E-01  0.43593165003E-01  0.51100000000E-03 0. -1.
</event>
<event>
 8    1  0.1071333E+005  0.1043930E+01  0.7957747E-01            NaN
         13   -1    0    0    0    0  0.00000000000E+00  0.00000000000E+00  0.74505805969E-08  0.10566000000E+00  0.10566000000E+00 0. -1.
     999900   -1    0    0    0    0 -0.00000000000E+00 -0.00000000000E+00 -0.74505805969E-08  0.93827000000E+00  0.93827000000E+00 0. -1.
     999902    2    1    2    0    0 -0.11744981686E-01  0.56339313047E-02 -0.19851355986E-01  0.10201863248E+01  0.10199099839E+01 0.  0.
     999903    2    3    3    0    0  0.33068497991E-01  0.12380109088E+00  0.88649337632E-02  0.13069413775E+00  0.24127472490E-01 0.  0.
         14    1    1    2    0    0  0.11744981686E-01 -0.56339313047E-02  0.19851355986E-01  0.23743675184E-01  0.00000000000E+00 0. -1.
     999901    1    3    3    0    0 -0.44813479677E-01 -0.11816715957E+00 -0.28716289749E-01  0.88949218707E+00  0.88000000000E+00 0.  1.
        -11    1    4    4    0    0  0.15492192143E-01  0.22253323774E-01  0.49011367270E-02  0.27559040234E-01  0.51100000000E-03 0. -1.
         11    1    4    4    0    0  0.17576305848E-01  0.10154776710E+00  0.39637970362E-02  0.10313509751E+00  0.51100000000E-03 0.  1.
</event>
<event>
 8    1  0.1071333E+005  0.1043930E+01  0.7957747E-01            NaN
         13   -1    0    0    0    0  0.00000000000E+00  0.00000000000E+00  0.74505805969E-08  0.10566000000E+00  0.10566000000E+00 0. -1.
     999900   -1    0    0    0    0 -0.00000000000E+00 -0.00000000000E+00 -0.74505805969E-08  0.93827000000E+00  0.93827000000E+00 0.  1.
     999902    2    1    2    0    0 -0.51110020975E-02 -0.23095854320E-01  0.51751881225E-03  0.10202697241E+01  0.10199953438E+01 0.  0.
     999903    2    3    3    0    0 -0.41930105769E-01 -0.12507940915E+00 -0.72922327100E-02  0.13358077974E+00  0.19688973959E-01 0.  0.
         14    1    1    2    0    0  0.51110020975E-02  0.23095854320E-01 -0.51751881225E-03  0.23660275885E-01  0.00000000000E+00 0. -1.
     999901    1    3    3    0    0  0.36819103671E-01  0.10198355483E+00  0.78097515222E-02  0.88668894437E+00  0.88000000000E+00 0.  1.
        -11    1    4    4    0    0 -0.27371708378E-01 -0.56571886346E-01 -0.91882112104E-02  0.63515927849E-01  0.51100000000E-03 0. -1.
         11    1    4    4    0    0 -0.14558397391E-01 -0.68507522806E-01  0.18959785005E-02  0.70064851895E-01  0.51100000000E-03 0.  1.
</event>
<event>
 8    1  0.1071333E+005  0.1043930E+01  0.7957747E-01            NaN
         13   -1    0    0    0    0  0.00000000000E+00  0.00000000000E+00  0.74505805969E-08  0.10566000000E+00  0.10566000000E+00 0. -1.
     999900   -1    0    0    0    0 -0.00000000000E+00 -0.00000000000E+00 -0.74505805969E-08  0.93827000000E+00  0.93827000000E+00 0. -1.
     999902    2    1    2    0    0  0.15678840566E-01  0.23948284457E-02  0.18641634940E-01  0.10194540567E+01  0.10191601945E+01 0.  0.
     999903    2    3    3    0    0  0.10389277016E+00 -0.75872073022E-01  0.18340783632E-01  0.13158723354E+00  0.20701123902E-01 0.  0.
         14    1    1    2    0    0 -0.15678840566E-01 -0.23948284457E-02 -0.18641634940E-01  0.24475943251E-01  0.00000000000E+00 0.  1.
     999901    1    3    3    0    0 -0.88213929595E-01  0.78266901468E-01  0.30085130820E-03  0.88786682321E+00  0.88000000000E+00 0.  1.
        -11    1    4    4    0    0  0.62681713268E-01 -0.41181507434E-01  0.20236362949E-01  0.77683236539E-01  0.51100000000E-03 0. -1.
         11    1    4    4    0    0  0.41211056892E-01 -0.34690565588E-01 -0.18955793168E-02  0.53903997003E-01  0.51100000000E-03 0.  1.
</event>
<event>
 8    1  0.1071333E+005  0.1043930E+01  0.7957747E-01            NaN
         13   -1    0    0    0    0  0.00000000000E+00  0.00000000000E+00  0.74505805969E-08  0.10566000000E+00  0.10566000000E+00 0.  1.
     999900   -1    0    0    0    0 -0.00000000000E+00 -0.00000000000E+00 -0.74505805969E-08  0.93827000000E+00  0.93827000000E+00 0.  1.
     999902    2    1    2    0    0 -0.14964126337E-01 -0.38864736471E-02  0.17578819850E-01  0.10205196463E+01  0.10202510984E+01 0.  0.
     999903    2    3    3    0    0  0.59482175902E-01 -0.11390459872E+00 -0.60027294572E-02  0.13023748357E+00  0.20331810208E-01 0.  0.
         14    1    1    2    0    0  0.14964126337E-01  0.38864736471E-02 -0.17578819850E-01  0.23410353730E-01  0.00000000000E+00 0. -1.
     999901    1    3    3    0    0 -0.74446302239E-01  0.11001812507E+00  0.23581549307E-01  0.89028216270E+00  0.88000000000E+00 0. -1.
        -11    1    4    4    0    0  0.36960665420E-01 -0.49127147481E-01 -0.43667621012E-02  0.61635194006E-01  0.51100000000E-03 0. -1.
         11    1    4    4    0    0  0.22521510482E-01 -0.64777451234E-01 -0.16359673560E-02  0.68602289561E-01  0.51100000000E-03 0.  1.
</event>
<event>
 8    1  0.1071333E+005  0.1043930E+01  0.7957747E-01            NaN
         13   -1    0    0    0    0  0.00000000000E+00  0.00000000000E+00  0.74505805969E-08  0.10566000000E+00  0.10566000000E+00 0.  1.
     999900   -1    0    0    0    0 -0.00000000000E+00 -0.00000000000E+00 -0.74505805969E-08  0.93827000000E+00  0.93827000000E+00 0. -1.
     999902    2    1    2    0    0 -0.99330292726E-02  0.15816519597E-01  0.14499899990E-01  0.10202852445E+01  0.10200112282E+01 0.  0.
     999903    2    3    3    0    0 -0.10235591606E+00 -0.76100974357E-01 -0.18028187811E-01  0.13008925923E+00  0.18168873432E-01 0.  0.
         14    1    1    2    0    0  0.99330292726E-02 -0.15816519597E-01 -0.14499899990E-01  0.23644755495E-01  0.00000000000E+00 0. -1.
     999901    1    3    3    0    0  0.92422886787E-01  0.91917493954E-01  0.32528087802E-01  0.89019598527E+00  0.88000000000E+00 0. -1.
        -11    1    4    4    0    0 -0.42070532334E-02 -0.87057938158E-02 -0.26530032278E-02  0.10039406855E-01  0.51100000000E-03 0. -1.
         11    1    4    4    0    0 -0.98148862826E-01 -0.67395180541E-01 -0.15375184583E-01  0.12004985238E+00  0.51100000000E-03 0.  1.
</event>
<event>
 8    1  0.1071333E+005  0.1043930E+01  0.7957747E-01            NaN
         13   -1    0    0    0    0  0.00000000000E+00  0.00000000000E+00  0.74505805969E-08  0.10566000000E+00  0.10566000000E+00 0.  1.
     999900   -1    0    0    0    0 -0.00000000000E+00 -0.00000000000E+00 -0.74505805969E-08  0.93827000000E+00  0.93827000000E+00 0.  1.
     999902    2    1    2    0    0 -0.82260237146E-02 -0.21918543277E-01  0.20078344765E-02  0.10204327362E+01  0.10201621674E+01 0.  0.
     999903    2    3    3    0    0  0.73124529535E-01 -0.98168497595E-01 -0.45473022686E-01  0.13212738341E+00  0.20139486453E-01 0.  0.
         14    1    1    2    0    0  0.82260237146E-02  0.21918543277E-01 -0.20078344765E-02  0.23497263773E-01  0.00000000000E+00 0. -1.
     999901    1    3    3    0    0 -0.81350553250E-01  0.76249954319E-01  0.47480857163E-01  0.88830535282E+00  0.88000000000E+00 0. -1.
        -11    1    4    4    0    0  0.30094473869E-01 -0.54379001015E-01 -0.28844386921E-01  0.68520164088E-01  0.51100000000E-03 0. -1.
         11    1    4    4    0    0  0.43030055666E-01 -0.43789496580E-01 -0.16628635766E-01  0.63607219321E-01  0.51100000000E-03 0.  1.
</event>
<event>
 8    1  0.1071333E+005  0.1043930E+01  0.7957747E-01            NaN
         13   -1    0    0    0    0  0.00000000000E+00  0.00000000000E+00  0.74505805969E-08  0.10566000000E+00  0.10566000000E+00 0.  1.
     999900   -1    0    0    0    0 -0.00000000000E+00 -0.00000000000E+00 -0.74505805969E-08  0.93827000000E+00  0.93827000000E+00 0. -1.
     999902    2    1    2    0    0 -0.17258110344E-01 -0.43305407919E-02 -0.18216221006E-01  0.10184657768E+01  0.10181473920E+01 0.  0.
     999903    2    3    3    0    0  0.63997033947E-01  0.75770418497E-01  0.74924316108E-01  0.12622493385E+00  0.21961423159E-01 0.  0.
         14    1    1    2    0    0  0.17258110344E-01  0.43305407919E-02  0.18216221006E-01  0.25464223215E-01  0.00000000000E+00 0.  1.
     999901    1    3    3    0    0 -0.81255144291E-01 -0.80100959289E-01 -0.93140537114E-01  0.89224084294E+00  0.88000000000E+00 0. -1.
        -11    1    4    4    0    0  0.40984280674E-01  0.36001195981E-01  0.49743334839E-01  0.73827216231E-01  0.51100000000E-03 0.  1.
         11    1    4    4    0    0  0.23012753273E-01  0.39769222516E-01  0.25180981269E-01  0.52397717616E-01  0.51100000000E-03 0. -1.
</event>
<event>
 8    1  0.1071333E+005  0.1043930E+01  0.7957747E-01            NaN
         13   -1    0    0    0    0  0.00000000000E+00  0.00000000000E+00  0.74505805969E-08  0.10566000000E+00  0.10566000000E+00 0.  1.
     999900   -1    0    0    0    0 -0.00000000000E+00 -0.00000000000E+00 -0.74505805969E-08  0.93827000000E+00  0.93827000000E+00 0. -1.
     999902    2    1    2    0    0  0.21723132238E-01  0.19187691457E-02 -0.10068807084E-01  0.10199100702E+01  0.10196271840E+01 0.  0.
     999903    2    3    3    0    0 -0.88748339704E-01  0.89994945999E-01 -0.13972075796E-01  0.12863200222E+00  0.19380789118E-01 0.  0.
         14    1    1    2    0    0 -0.21723132238E-01 -0.19187691457E-02  0.10068807084E-01  0.24019929753E-01  0.00000000000E+00 0.  1.
     999901    1    3    3    0    0  0.11047147194E+00 -0.88076176854E-01  0.39032687119E-02  0.89127806803E+00  0.88000000000E+00 0.  1.
        -11    1    4    4    0    0 -0.34310893742E-01  0.40605471035E-01 -0.14573549566E-01  0.55124324715E-01  0.51100000000E-03 0.  1.
         11    1    4    4    0    0 -0.54437445962E-01  0.49389474964E-01  0.60147376983E-03  0.73507677503E-01  0.51100000000E-03 0. -1.
</event>
<event>
 8    1  0.1071333E+005  0.1043930E+01  0.7957747E-01            NaN
         13   -1    0    0    0    0  0.00000000000E+00  0.00000000000E+00  0.74505805969E-08  0.10566000000E+00  0.10566000000E+00 0.  1.
     999900   -1    0    0    0    0 -0.00000000000E+00 -0.00000000000E+00 -0.74505805969E-08  0.93827000000E+00  0.93827000000E+00 0. -1.
     999902    2    1    2    0    0  0.11740589675E-01 -0.27362592471E-02  0.20482041814E-01  0.10201635826E+01  0.10198867058E+01 0.  0.
     999903    2    3    3    0    0  0.71120395526E-01 -0.77521293496E-01 -0.73729973274E-01  0.12999805500E+00  0.19892806219E-01 0.  0.
         14    1    1    2    0    0 -0.11740589675E-01  0.27362592471E-02 -0.20482041814E-01  0.23766417430E-01  0.00000000000E+00 0. -1.
     999901    1    3    3    0    0 -0.59379805851E-01  0.74785034249E-01  0.94212015088E-01  0.89016552757E+00  0.88000000000E+00 0.  1.
        -11    1    4    4    0    0  0.26609880802E-01 -0.21175993662E-01 -0.14741431539E-01  0.37068576837E-01  0.51100000000E-03 0. -1.
         11    1    4    4    0    0  0.44510514724E-01 -0.56345299834E-01 -0.58988541735E-01  0.92929478161E-01  0.51100000000E-03 0.  1.
</event>
<event>
 8    1  0.1071333E+005  0.1043930E+01  0.7957747E-01            NaN
         13   -1    0    0    0    0  0.00000000000E+00  0.00000000000E+00  0.74505805969E-08  0.10566000000E+00  0.10566000000E+00 0. -1.
     999900   -1    0    0    0    0 -0.00000000000E+00 -0.00000000000E+00 -0.74505805969E-08  0.93827000000E+00  0.93827000000E+00 0.  1.
     999902    2    1    2    0    0 -0.67434592591E-02 -0.15073530689E-01 -0.16875280041E-01  0.10203193955E+01  0.10200461794E+01 0.  0.
     999903    2    3    3    0    0  0.10852651459E+00  0.51132899284E-01  0.41467225154E-01  0.12842573243E+00  0.19520764086E-01 0.  0.
         14    1    1    2    0    0  0.67434592591E-02  0.15073530689E-01  0.16875280041E-01  0.23610604539E-01  0.00000000000E+00 0. -1.
     999901    1    3    3    0    0 -0.11526997385E+00 -0.66206429973E-01 -0.58342505195E-01  0.89189366303E+00  0.88000000000E+00 0.  1.
        -11    1    4    4    0    0  0.54806117146E-01  0.16145944267E-01  0.15056430814E-01  0.59087724806E-01  0.51100000000E-03 0.  1.
         11    1    4    4    0    0  0.53720397443E-01  0.34986955016E-01  0.26410794340E-01  0.69338007625E-01  0.51100000000E-03 0. -1.
</event>
<event>
 8    1  0.1071333E+005  0.1043930E+01  0.7957747E-01            NaN
         13   -1    0    0    0    0  0.00000000000E+00  0.00000000000E+00  0.74505805969E-08  0.10566000000E+00  0.10566000000E+00 0. -1.
     999900   -1    0    0    0    0 -0.00000000000E+00 -0.00000000000E+00 -0.74505805969E-08  0.93827000000E+00  0.93827000000E+00 0. -1.
     999902    2    1    2    0    0 -0.17626883199E-01 -0.12339344743E-01 -0.90297950112E-02  0.10205953983E+01  0.10203286056E+01 0.  0.
     999903    2    3    3    0    0 -0.12051120804E+00 -0.11370996713E-01 -0.52942699599E-01  0.13351340365E+00  0.19252238378E-01 0.  0.
         14    1    1    2    0    0  0.17626883199E-01  0.12339344743E-01  0.90297950112E-02  0.23334601731E-01  0.00000000000E+00 0.  1.
     999901    1    3    3    0    0  0.10288432484E+00 -0.96834802916E-03  0.43912904588E-01  0.88708199462E+00  0.88000000000E+00 0. -1.
        -11    1    4    4    0    0 -0.10381741259E+00 -0.15801760180E-01 -0.42260610138E-01  0.11319881215E+00  0.51100000000E-03 0. -1.
         11    1    4    4    0    0 -0.16693795453E-01  0.44307634662E-02 -0.10682089462E-01  0.20314591499E-01  0.51100000000E-03 0.  1.
</event>
<event>
 8    1  0.1071333E+005  0.1043930E+01  0.7957747E-01            NaN
         13   -1    0    0    0    0  0.00000000000E+00  0.00000000000E+00  0.74505805969E-08  0.10566000000E+00  0.10566000000E+00 0. -1.
     999900   -1    0    0    0    0 -0.00000000000E+00 -0.00000000000E+00 -0.74505805969E-08  0.93827000000E+00  0.93827000000E+00 0. -1.
     999902    2    1    2    0    0 -0.19781231639E-01  0.17485321688E-02 -0.12628725503E-01  0.10203962116E+01  0.10201247911E+01 0.  0.
     999903    2    3    3    0    0  0.21506351377E-01 -0.10938656736E+00  0.62269391267E-01  0.12929273680E+00  0.20277831050E-01 0.  0.
         14    1    1    2    0    0  0.19781231639E-01 -0.17485321688E-02  0.12628725503E-01  0.23533788427E-01  0.00000000000E+00 0. -1.
     999901    1    3    3    0    0 -0.41287583016E-01  0.11113509953E+00 -0.74898116770E-01  0.89110347477E+00  0.88000000000E+00 0.  1.
        -11    1    4    4    0    0  0.97731018910E-02 -0.22113207389E-01  0.21061352862E-01  0.32067883731E-01  0.51100000000E-03 0.  1.
         11    1    4    4    0    0  0.11733249486E-01 -0.87273359970E-01  0.41208038405E-01  0.97224853068E-01  0.51100000000E-03 0. -1.
</event>
<event>
 8    1  0.1071333E+005  0.1043930E+01  0.7957747E-01            NaN
         13   -1    0    0    0    0  0.00000000000E+00  0.00000000000E+00  0.74505805969E-08  0.10566000000E+00  0.10566000000E+00 0. -1.
     999900   -1    0    0    0    0 -0.00000000000E+00 -0.00000000000E+00 -0.74505805969E-08  0.93827000000E+00  0.93827000000E+00 0. -1.
     999902    2    1    2    0    0 -0.32436845341E-02 -0.12305119397E-01 -0.19880010452E-01  0.10203259269E+01  0.10200528637E+01 0.  0.
     999903    2    3    3    0    0  0.48590289677E-01 -0.84584612711E-01 -0.88687942549E-01  0.13317001185E+00  0.18791698815E-01 0.  0.
         14    1    1    2    0    0  0.32436845341E-02  0.12305119397E-01  0.19880010452E-01  0.23604073129E-01  0.00000000000E+00 0. -1.
     999901    1    3    3    0    0 -0.51833974211E-01  0.72279493314E-01  0.68807932097E-01  0.88715591502E+00  0.88000000000E+00 0.  1.
        -11    1    4    4    0    0  0.11105635435E-01 -0.35179583805E-01 -0.27197217561E-01  0.45835445009E-01  0.51100000000E-03 0.  1.
         11    1    4    4    0    0  0.37484654242E-01 -0.49405028905E-01 -0.61490724988E-01  0.87334566841E-01  0.51100000000E-03 0. -1.
</event>
<event>
 8    1  0.1071333E+005  0.1043930E+01  0.7957747E-01            NaN
         13   -1    0    0    0    0  0.00000000000E+00  0.00000000000E+00  0.74505805969E-08  0.10566000000E+00  0.10566000000E+00 0. -1.
     999900   -1    0    0    0    0 -0.00000000000E+00 -0.00000000000E+00 -0.74505805969E-08  0.93827000000E+00  0.93827000000E+00 0.  1.
     999902    2    1    2    0    0 -0.21223308654E-01  0.65247742809E-02  0.98506264247E-02  0.10196393361E+01  0.10193499593E+01 0.  0.
     999903    2    3    3    0    0 -0.53423625278E-01 -0.39079847104E-01  0.11238399882E+00  0.13192894737E+00  0.19843532367E-01 0.  0.
         14    1    1    2    0    0  0.21223308654E-01 -0.65247742809E-02 -0.98506264247E-02  0.24290663857E-01  0.00000000000E+00 0. -1.
     999901    1    3    3    0    0  0.32200316624E-01  0.45604621385E-01 -0.10253337239E+00  0.88771038877E+00  0.88000000000E+00 0.  1.
        -11    1    4    4    0    0 -0.37099467146E-01 -0.31330924760E-01  0.64434040173E-01  0.80684595574E-01  0.51100000000E-03 0.  1.
         11    1    4    4    0    0 -0.16324158132E-01 -0.77489223444E-02  0.47949958642E-01  0.51244351796E-01  0.51100000000E-03 0. -1.
</event>
<event>
 8    1  0.1071333E+005  0.1043930E+01  0.7957747E-01            NaN
         13   -1    0    0    0    0  0.00000000000E+00  0.00000000000E+00  0.74505805969E-08  0.10566000000E+00  0.10566000000E+00 0. -1.
     999900   -1    0    0    0    0 -0.00000000000E+00 -0.00000000000E+00 -0.74505805969E-08  0.93827000000E+00  0.93827000000E+00 0. -1.
     999902    2    1    2    0    0  0.64127300966E-02 -0.20094945005E-01 -0.90643061215E-02  0.10209715251E+01  0.10207133602E+01 0.  0.
     999903    2    3    3    0    0  0.12081150838E+00 -0.25046058180E-01  0.42464065076E-01  0.13205827458E+00  0.20333850499E-01 0.  0.
         14    1    1    2    0    0 -0.64127300966E-02  0.20094945005E-01  0.90643061215E-02  0.22958474852E-01  0.00000000000E+00 0. -1.
     999901    1    3    3    0    0 -0.11439877828E+00  0.49511131750E-02 -0.51528371198E-01  0.88891325057E+00  0.88000000000E+00 0. -1.
        -11    1    4    4    0    0  0.59051579601E-01 -0.37828281244E-02  0.26372714839E-01  0.64785646952E-01  0.51100000000E-03 0.  1.
         11    1    4    4    0    0  0.61759928776E-01 -0.21263230056E-01  0.16091350237E-01  0.67272627631E-01  0.51100000000E-03 0. -1.
</event>
<event>
 8    1  0.1458042E+005  0.1043930E+01  0.7957747E-01            NaN
         13   -1    0    0    0    0  0.00000000000E+00  0.00000000000E+00  0.74505805969E-08  0.10566000000E+00  0.10566000000E+00 0. -1.
     999900   -1    0    0    0    0 -0.00000000000E+00 -0.00000000000E+00 -0.74505805969E-08  0.93827000000E+00  0.93827000000E+00 0. -1.
     999902    2    1    2    0    0 -0.11677305952E-01 -0.89695142703E-02 -0.18044058742E-01  0.10206405235E+01  0.10203747735E+01 0.  0.
     999903    2    3    3    0    0  0.12771382490E+00 -0.39935661947E-02 -0.63043156161E-02  0.12957797293E+00  0.20589731226E-01 0.  0.
         14    1    1    2    0    0  0.11677305952E-01  0.89695142703E-02  0.18044058742E-01  0.23289476517E-01  0.00000000000E+00 0. -1.
     999901    1    3    3    0    0 -0.13939113086E+00 -0.49759480756E-02 -0.11739743126E-01  0.89106255055E+00  0.88000000000E+00 0. -1.
        -11    1    4    4    0    0  0.61871962039E-01 -0.19929050924E-02  0.72326078912E-02  0.62327225954E-01  0.51100000000E-03 0.  1.
         11    1    4    4    0    0  0.65841862865E-01 -0.20006611023E-02 -0.13536923507E-01  0.67250746981E-01  0.51100000000E-03 0. -1.
</event>
<event>
 8    1  0.1071333E+005  0.1043930E+01  0.7957747E-01            NaN
         13   -1    0    0    0    0  0.00000000000E+00  0.00000000000E+00  0.74505805969E-08  0.10566000000E+00  0.10566000000E+00 0.  1.
     999900   -1    0    0    0    0 -0.00000000000E+00 -0.00000000000E+00 -0.74505805969E-08  0.93827000000E+00  0.93827000000E+00 0. -1.
     999902    2    1    2    0    0  0.64077900756E-02 -0.10454659113E-01 -0.84625004772E-03  0.10316387100E+01  0.10315654861E+01 0.  0.
     999903    2    3    3    0    0 -0.64738284241E-01  0.96602512487E-01 -0.73968871931E-01  0.13929913354E+00  0.20242621481E-01 0.  0.
         14    1    1    2    0    0 -0.64077900756E-02  0.10454659113E-01  0.84625004772E-03  0.12291290004E-01  0.00000000000E+00 0. -1.
     999901    1    3    3    0    0  0.71146074316E-01 -0.10705717160E+00  0.73122621884E-01  0.89233957646E+00  0.88000000000E+00 0.  1.
        -11    1    4    4    0    0 -0.40552119538E-01  0.55420955270E-01 -0.32195304734E-01  0.75846921164E-01  0.51100000000E-03 0. -1.
         11    1    4    4    0    0 -0.24186164702E-01  0.41181557217E-01 -0.41773567197E-01  0.63452212374E-01  0.51100000000E-03 0.  1.
</event>
<event>
 8    1  0.1071333E+005  0.1043930E+01  0.7957747E-01            NaN
         13   -1    0    0    0    0  0.00000000000E+00  0.00000000000E+00  0.74505805969E-08  0.10566000000E+00  0.10566000000E+00 0.  1.
     999900   -1    0    0    0    0 -0.00000000000E+00 -0.00000000000E+00 -0.74505805969E-08  0.93827000000E+00  0.93827000000E+00 0.  1.
     999902    2    1    2    0    0 -0.17927327904E-01 -0.13328884998E-01 -0.65516154116E-02  0.10206497095E+01  0.10203841716E+01 0.  0.
     999903    2    3    3    0    0  0.45349810489E-01  0.99334047151E-03 -0.12093640773E+00  0.13087838883E+00  0.21117431471E-01 0.  0.
         14    1    1    2    0    0  0.17927327904E-01  0.13328884998E-01  0.65516154116E-02  0.23280290496E-01  0.00000000000E+00 0.  1.
     999901    1    3    3    0    0 -0.63277138393E-01 -0.14322225469E-01  0.11438479231E+00  0.88977132068E+00  0.88000000000E+00 0. -1.
        -11    1    4    4    0    0  0.49458960831E-02 -0.72022196737E-02 -0.23564027961E-01  0.25136793571E-01  0.51100000000E-03 0.  1.
         11    1    4    4    0    0  0.40403914406E-01  0.81955601452E-02 -0.97372379765E-01  0.10574159526E+00  0.51100000000E-03 0. -1.
</event>
<event>
 8    1  0.1071333E+005  0.1043930E+01  0.7957747E-01            NaN
         13   -1    0    0    0    0  0.00000000000E+00  0.00000000000E+00  0.74505805969E-08  0.10566000000E+00  0.10566000000E+00 0. -1.
     999900   -1    0    0    0    0 -0.00000000000E+00 -0.00000000000E+00 -0.74505805969E-08  0.93827000000E+00  0.93827000000E+00 0. -1.
     999902    2    1    2    0    0  0.29216705730E-01  0.42558974380E-02 -0.98399915369E-02  0.10128083999E+01  0.10123301344E+01 0.  0.
     999903    2    3    3    0    0  0.92085449167E-01 -0.29342006437E-02  0.83135616057E-01  0.12565078147E+00  0.19704028627E-01 0.  0.
         14    1    1    2    0    0 -0.29216705730E-01 -0.42558974380E-02  0.98399915369E-02  0.31121600058E-01  0.00000000000E+00 0. -1.
     999901    1    3    3    0    0 -0.62868743437E-01  0.71900980817E-02 -0.92975607594E-01  0.88715761848E+00  0.88000000000E+00 0.  1.
        -11    1    4    4    0    0  0.30499568868E-01  0.82681248517E-02  0.28865317910E-01  0.42802491618E-01  0.51100000000E-03 0.  1.
         11    1    4    4    0    0  0.61585880300E-01 -0.11202325495E-01  0.54270298147E-01  0.82848289848E-01  0.51100000000E-03 0. -1.
</event>
<event>
 8    1  0.1071333E+005  0.1043930E+01  0.7957747E-01            NaN
         13   -1    0    0    0    0  0.00000000000E+00  0.00000000000E+00  0.74505805969E-08  0.10566000000E+00  0.10566000000E+00 0.  1.
     999900   -1    0    0    0    0 -0.00000000000E+00 -0.00000000000E+00 -0.74505805969E-08  0.93827000000E+00  0.93827000000E+00 0.  1.
     999902    2    1    2    0    0 -0.21105011085E-01  0.84182531096E-02  0.33583456082E-02  0.10209611741E+01  0.10207027736E+01 0.  0.
     999903    2    3    3    0    0  0.51331251718E-01  0.47897974185E-01 -0.10776389395E+00  0.13014479982E+00  0.19887150299E-01 0.  0.
         14    1    1    2    0    0  0.21105011085E-01 -0.84182531096E-02 -0.33583456082E-02  0.22968825907E-01  0.00000000000E+00 0. -1.
     999901    1    3    3    0    0 -0.72436262804E-01 -0.39479721075E-01  0.11112223956E+00  0.89081637427E+00  0.88000000000E+00 0. -1.
        -11    1    4    4    0    0  0.44340031589E-01  0.44815660419E-01 -0.83033410365E-01  0.10425588798E+00  0.51100000000E-03 0.  1.
         11    1    4    4    0    0  0.69912201291E-02  0.30823137653E-02 -0.24730483586E-01  0.25888911844E-01  0.51100000000E-03 0. -1.
</event>
<event>
 8    1  0.1071333E+005  0.1043930E+01  0.7957747E-01            NaN
         13   -1    0    0    0    0  0.00000000000E+00  0.00000000000E+00  0.74505805969E-08  0.10566000000E+00  0.10566000000E+00 0. -1.
     999900   -1    0    0    0    0 -0.00000000000E+00 -0.00000000000E+00 -0.74505805969E-08  0.93827000000E+00  0.93827000000E+00 0. -1.
     999902    2    1    2    0    0 -0.21743639365E-01 -0.13804382570E-02 -0.29940439752E-02  0.10219378250E+01  0.10217011610E+01 0.  0.
     999903    2    3    3    0    0  0.95555448025E-01 -0.76103662691E-01 -0.40525100010E-01  0.13022530610E+00  0.19842769334E-01 0.  0.
         14    1    1    2    0    0  0.21743639365E-01  0.13804382570E-02  0.29940439752E-02  0.21992175016E-01  0.00000000000E+00 0. -1.
     999901    1    3    3    0    0 -0.11729908739E+00  0.74723224434E-01  0.37531056035E-01  0.89171251889E+00  0.88000000000E+00 0. -1.
        -11    1    4    4    0    0  0.23929140547E-02 -0.74087450051E-02 -0.78588915883E-03  0.78418290592E-02  0.51100000000E-03 0.  1.
         11    1    4    4    0    0  0.93162533971E-01 -0.68694917686E-01 -0.39739210851E-01  0.12238347704E+00  0.51100000000E-03 0. -1.
</event>
<event>
 8    1  0.1071333E+005  0.1043930E+01  0.7957747E-01            NaN
         13   -1    0    0    0    0  0.00000000000E+00  0.00000000000E+00  0.74505805969E-08  0.10566000000E+00  0.10566000000E+00 0.  1.
     999900   -1    0    0    0    0 -0.00000000000E+00 -0.00000000000E+00 -0.74505805969E-08  0.93827000000E+00  0.93827000000E+00 0. -1.
     999902    2    1    2    0    0 -0.23011152098E-01 -0.54197967836E-02 -0.54618728508E-03  0.10202828937E+01  0.10200088222E+01 0.  0.
     999903    2    3    3    0    0  0.78176686143E-02 -0.23755488611E-01 -0.12651815803E+00  0.13058881635E+00  0.20522072524E-01 0.  0.
         14    1    1    2    0    0  0.23011152098E-01  0.54197967836E-02  0.54618728508E-03  0.23647106348E-01  0.00000000000E+00 0.  1.
     999901    1    3    3    0    0 -0.30828820713E-01  0.18335691827E-01  0.12597197075E+00  0.88969407731E+00  0.88000000000E+00 0.  1.
        -11    1    4    4    0    0 -0.10779998526E-02 -0.51559253590E-02 -0.73658136917E-01  0.73848005424E-01  0.51100000000E-03 0. -1.
         11    1    4    4    0    0  0.88956684668E-02 -0.18599563252E-01 -0.52860021116E-01  0.56740810921E-01  0.51100000000E-03 0.  1.
</event>
<event>
 7    1  0.1071333E+005  0.1043930E+01  0.7957747E-01            NaN
         13   -1    0    0    0    0  0.00000000000E+00  0.00000000000E+00  0.74505805969E-08  0.10566000000E+00  0.10566000000E+00 0. -1.
     999900   -1    0    0    0    0 -0.00000000000E+00 -0.00000000000E+00 -0.74505805969E-08  0.93827000000E+00  0.93827000000E+00 0. -1.
     999903    2    1    2    0    0 -0.41340992453E-01 -0.19438752649E-01  0.89685215484E-01  0.10261508392E+00  0.19986865953E-01 0.  0.
         14    1    1    2    0    0  0.30809551802E-02 -0.36142611447E-01 -0.44727251864E-01  0.57587391904E-01  0.00000000000E+00 0.  1.
     999901    1    1    2    0    0  0.38260037273E-01  0.55581364096E-01 -0.44957963620E-01  0.88372752417E+00  0.88000000000E+00 0. -1.
        -11    1    3    3    0    0 -0.18641947991E-01 -0.13669400169E-01  0.26191219127E-01  0.34937312522E-01  0.51100000000E-03 0. -1.
         11    1    3    3    0    0 -0.22699044462E-01 -0.57693524806E-02  0.63493996357E-01  0.67677771402E-01  0.51100000000E-03 0.  1.
</event>
<event>
 7    1  0.1071333E+005  0.1043930E+01  0.7957747E-01            NaN
         13   -1    0    0    0    0  0.00000000000E+00  0.00000000000E+00  0.74505805969E-08  0.10566000000E+00  0.10566000000E+00 0. -1.
     999900   -1    0    0    0    0 -0.00000000000E+00 -0.00000000000E+00 -0.74505805969E-08  0.93827000000E+00  0.93827000000E+00 0. -1.
     999902    2    1    2    0    0 -0.22843741897E-01  0.54898730051E-02  0.13194347556E-01  0.10169843871E+01  0.10166273543E+01 0.  0.
         14    1    1    2    0    0  0.22843741897E-01 -0.54898730051E-02 -0.13194347556E-01  0.26945612943E-01  0.00000000000E+00 0.  1.
     999901    1    3    3    0    0 -0.38664225518E-01  0.51574106871E-02 -0.10949749720E+00  0.88764363520E+00  0.88000000000E+00 0. -1.
        -11    1    3    3    0    0 -0.58356131096E-02  0.20850244542E-02  0.89194200687E-01  0.89410671983E-01  0.51100000000E-03 0.  1.
         11    1    3    3    0    0  0.21656096731E-01 -0.17525621362E-02  0.33497644067E-01  0.39930079873E-01  0.51100000000E-03 0. -1.
</event>
<event>
 8    1  0.1071333E+005  0.1043930E+01  0.7957747E-01            NaN
         13   -1    0    0    0    0  0.00000000000E+00  0.00000000000E+00  0.74505805969E-08  0.10566000000E+00  0.10566000000E+00 0. -1.
     999900   -1    0    0    0    0 -0.00000000000E+00 -0.00000000000E+00 -0.74505805969E-08  0.93827000000E+00  0.93827000000E+00 0.  1.
     999902    2    1    2    0    0 -0.14115609154E-01 -0.14790572264E-01 -0.65268259933E-02  0.10224681523E+01  0.10222428828E+01 0.  0.
     999903    2    3    3    0    0 -0.55251299069E-01 -0.26378448583E-01 -0.11792397734E+00  0.13441649321E+00  0.20327336708E-01 0.  0.
         14    1    1    2    0    0  0.14115609154E-01  0.14790572264E-01  0.65268259933E-02  0.21461847713E-01  0.00000000000E+00 0.  1.
     999901    1    3    3    0    0  0.41135689915E-01  0.11587876318E-01  0.11139715134E+00  0.88805165908E+00  0.88000000000E+00 0. -1.
        -11    1    4    4    0    0 -0.50400824413E-01 -0.28938995134E-01 -0.99978574770E-01  0.11564465001E+00  0.51100000000E-03 0.  1.
         11    1    4    4    0    0 -0.48504746569E-02  0.25605465517E-02 -0.17945402566E-01  0.18771843204E-01  0.51100000000E-03 0. -1.
</event>
<event>
 8    1  0.1071333E+005  0.1043930E+01  0.7957747E-01            NaN
         13   -1    0    0    0    0  0.00000000000E+00  0.00000000000E+00  0.74505805969E-08  0.10566000000E+00  0.10566000000E+00 0. -1.
     999900   -1    0    0    0    0 -0.00000000000E+00 -0.00000000000E+00 -0.74505805969E-08  0.93827000000E+00  0.93827000000E+00 0. -1.
     999902    2    1    2    0    0 -0.21660208765E-01 -0.27590377591E-02  0.78445629305E-02  0.10207284031E+01  0.10204646778E+01 0.  0.
     999903    2    3    3    0    0  0.10120173471E+00  0.48139765640E-01 -0.59183450296E-01  0.12821593822E+00  0.19427245807E-01 0.  0.
         14    1    1    2    0    0  0.21660208765E-01  0.27590377591E-02 -0.78445629305E-02  0.23201596942E-01  0.00000000000E+00 0. -1.
     999901    1    3    3    0    0 -0.12286194347E+00 -0.50898803399E-01  0.67028013227E-01  0.89251246484E+00  0.88000000000E+00 0. -1.
        -11    1    4    4    0    0  0.34786833880E-01  0.13570925459E-01 -0.29821855156E-01  0.47790145377E-01  0.51100000000E-03 0. -1.
         11    1    4    4    0    0  0.66414900828E-01  0.34568840182E-01 -0.29361595140E-01  0.80425792839E-01  0.51100000000E-03 0.  1.
</event>
<event>
 8    1  0.1071333E+005  0.1043930E+01  0.7957747E-01            NaN
         13   -1    0    0    0    0  0.00000000000E+00  0.00000000000E+00  0.74505805969E-08  0.10566000000E+00  0.10566000000E+00 0.  1.
     999900   -1    0    0    0    0 -0.00000000000E+00 -0.00000000000E+00 -0.74505805969E-08  0.93827000000E+00  0.93827000000E+00 0.  1.
     999902    2    1    2    0    0  0.11811661517E-01 -0.19529240235E-01 -0.74009940129E-02  0.10199366408E+01  0.10196543875E+01 0.  0.
     999903    2    3    3    0    0  0.68402240732E-01  0.10337649950E+00  0.29045158513E-01  0.12884930698E+00  0.19823104938E-01 0.  0.
         14    1    1    2    0    0 -0.11811661517E-01  0.19529240235E-01  0.74009940129E-02  0.23993359172E-01  0.00000000000E+00 0.  1.
     999901    1    3    3    0    0 -0.56590579215E-01 -0.12290573974E+00 -0.36446152526E-01  0.89108733385E+00  0.88000000000E+00 0.  1.
        -11    1    4    4    0    0  0.52999767091E-01  0.81340309905E-01  0.14154462347E-01  0.98111320715E-01  0.51100000000E-03 0.  1.
         11    1    4    4    0    0  0.15402473641E-01  0.22036189595E-01  0.14890696166E-01  0.30737986262E-01  0.51100000000E-03 0. -1.
</event>
<event>
 8    1  0.1071333E+005  0.1043930E+01  0.7957747E-01            NaN
         13   -1    0    0    0    0  0.00000000000E+00  0.00000000000E+00  0.74505805969E-08  0.10566000000E+00  0.10566000000E+00 0.  1.
     999900   -1    0    0    0    0 -0.00000000000E+00 -0.00000000000E+00 -0.74505805969E-08  0.93827000000E+00  0.93827000000E+00 0. -1.
     999902    2    1    2    0    0 -0.13295898476E-01 -0.96385406812E-02  0.17526452032E-01  0.10199121128E+01  0.10196292753E+01 0.  0.
     999903    2    3    3    0    0  0.23684590213E-01  0.10655206202E+00  0.67812163409E-01  0.13008265420E+00  0.20216470569E-01 0.  0.
         14    1    1    2    0    0  0.13295898476E-01  0.96385406812E-02 -0.17526452032E-01  0.24017887159E-01  0.00000000000E+00 0. -1.
     999901    1    3    3    0    0 -0.36980488690E-01 -0.11619060270E+00 -0.50285711378E-01  0.88982945864E+00  0.88000000000E+00 0. -1.
        -11    1    4    4    0    0  0.15843922211E-01  0.37031807329E-01  0.32243734840E-01  0.51597521089E-01  0.51100000000E-03 0. -1.
         11    1    4    4    0    0  0.78406680022E-02  0.69520254693E-01  0.35568428570E-01  0.78485133109E-01  0.51100000000E-03 0.  1.
</event>
<event>
 8    1  0.1071333E+005  0.1043930E+01  0.7957747E-01            NaN
         13   -1    0    0    0    0  0.00000000000E+00  0.00000000000E+00  0.74505805969E-08  0.10566000000E+00  0.10566000000E+00 0. -1.
     999900   -1    0    0    0    0 -0.00000000000E+00 -0.00000000000E+00 -0.74505805969E-08  0.93827000000E+00  0.93827000000E+00 0.  1.
     999902    2    1    2    0    0 -0.92217525495E-02 -0.14587926351E-01  0.19857440729E-01  0.10176209470E+01  0.10172807998E+01 0.  0.
     999903    2    3    3    0    0  0.66513891285E-02  0.10422967239E+00  0.71435974499E-01  0.12799747414E+00  0.19292209528E-01 0.  0.
         14    1    1    2    0    0  0.92217525495E-02  0.14587926351E-01 -0.19857440729E-01  0.26309052960E-01  0.00000000000E+00 0.  1.
     999901    1    3    3    0    0 -0.15873141678E-01 -0.11881759874E+00 -0.51578533770E-01  0.88962347290E+00  0.88000000000E+00 0.  1.
        -11    1    4    4    0    0  0.10932737755E-01  0.72335262982E-01  0.56907509026E-01  0.92685709417E-01  0.51100000000E-03 0.  1.
         11    1    4    4    0    0 -0.42813486268E-02  0.31894409408E-01  0.14528465474E-01  0.35311764719E-01  0.51100000000E-03 0. -1.
</event>
<event>
 8    1  0.1071333E+005  0.1043930E+01  0.7957747E-01            NaN
         13   -1    0    0    0    0  0.00000000000E+00  0.00000000000E+00  0.74505805969E-08  0.10566000000E+00  0.10566000000E+00 0. -1.
     999900   -1    0    0    0    0 -0.00000000000E+00 -0.00000000000E+00 -0.74505805969E-08  0.93827000000E+00  0.93827000000E+00 0. -1.
     999902    2    1    2    0    0 -0.69198907599E-02 -0.20469200549E-01 -0.98866273001E-02  0.10201682985E+01  0.10198915329E+01 0.  0.
     999903    2    3    3    0    0  0.74241209721E-01 -0.14604001367E-01  0.10287733246E+00  0.12924897812E+00  0.19912778135E-01 0.  0.
         14    1    1    2    0    0  0.69198907599E-02  0.20469200549E-01  0.98866273001E-02  0.23761701509E-01  0.00000000000E+00 0. -1.
     999901    1    3    3    0    0 -0.81161100481E-01 -0.58651991822E-02 -0.11276395976E+00  0.89091932037E+00  0.88000000000E+00 0.  1.
        -11    1    4    4    0    0  0.32809918740E-01  0.12421960556E-02  0.54359346088E-01  0.63507743204E-01  0.51100000000E-03 0. -1.
         11    1    4    4    0    0  0.41431290981E-01 -0.15846197422E-01  0.48517986375E-01  0.65741234914E-01  0.51100000000E-03 0.  1.
</event>
<event>
 8    1  0.1071333E+005  0.1043930E+01  0.7957747E-01            NaN
         13   -1    0    0    0    0  0.00000000000E+00  0.00000000000E+00  0.74505805969E-08  0.10566000000E+00  0.10566000000E+00 0.  1.
     999900   -1    0    0    0    0 -0.00000000000E+00 -0.00000000000E+00 -0.74505805969E-08  0.93827000000E+00  0.93827000000E+00 0. -1.
     999902    2    1    2    0    0 -0.71591638309E-02  0.73160227966E-02 -0.22052748815E-01  0.10196174200E+01  0.10193275144E+01 0.  0.
     999903    2    3    3    0    0  0.10393310685E+00 -0.53810542190E-01  0.47177330350E-01  0.12783787694E+00  0.20473327306E-01 0.  0.
         14    1    1    2    0    0  0.71591638309E-02 -0.73160227966E-02  0.22052748815E-01  0.24312580007E-01  0.00000000000E+00 0.  1.
     999901    1    3    3    0    0 -0.11109227068E+00  0.61126564987E-01 -0.69230079165E-01  0.89177954306E+00  0.88000000000E+00 0.  1.
        -11    1    4    4    0    0  0.40320971143E-01 -0.12504127346E-01  0.23819329980E-01  0.48474276852E-01  0.51100000000E-03 0.  1.
         11    1    4    4    0    0  0.63612135705E-01 -0.41306414844E-01  0.23358000370E-01  0.79363600085E-01  0.51100000000E-03 0. -1.
</event>
<event>
 8    1  0.1071333E+005  0.1043930E+01  0.7957747E-01            NaN
         13   -1    0    0    0    0  0.00000000000E+00  0.00000000000E+00  0.74505805969E-08  0.10566000000E+00  0.10566000000E+00 0. -1.
     999900   -1    0    0    0    0 -0.00000000000E+00 -0.00000000000E+00 -0.74505805969E-08  0.93827000000E+00  0.93827000000E+00 0. -1.
     999902    2    1    2    0    0  0.78476280775E-03 -0.16844159397E-01  0.95882253472E-02  0.10245321748E+01  0.10243485254E+01 0.  0.
     999903    2    3    3    0    0  0.76651369230E-01  0.27235073774E-01  0.10582564413E+00  0.13494779904E+00  0.19866047940E-01 0.  0.
         14    1    1    2    0    0 -0.78476280775E-03  0.16844159397E-01 -0.95882253472E-02  0.19397825233E-01  0.00000000000E+00 0.  1.
     999901    1    3    3    0    0 -0.75866606422E-01 -0.44079233171E-01 -0.96237418785E-01  0.88958437573E+00  0.88000000000E+00 0.  1.
        -11    1    4    4    0    0  0.58840843722E-01  0.28058233271E-01  0.75352213944E-01  0.99637977757E-01  0.51100000000E-03 0. -1.
         11    1    4    4    0    0  0.17810525509E-01 -0.82315949758E-03  0.30473430188E-01  0.35309821281E-01  0.51100000000E-03 0.  1.
</event>
<event>
 8    1  0.1071333E+005  0.1043930E+01  0.7957747E-01            NaN
         13   -1    0    0    0    0  0.00000000000E+00  0.00000000000E+00  0.74505805969E-08  0.10566000000E+00  0.10566000000E+00 0. -1.
     999900   -1    0    0    0    0 -0.00000000000E+00 -0.00000000000E+00 -0.74505805969E-08  0.93827000000E+00  0.93827000000E+00 0.  1.
     999902    2    1    2    0    0  0.10775246003E-01 -0.20588359092E-01 -0.16311556687E-01  0.10155389215E+01  0.10151419840E+01 0.  0.
     999903    2    3    3    0    0  0.26787796412E-01  0.10244626445E+00  0.60426021361E-01  0.12352850887E+00  0.19878765308E-01 0.  0.
         14    1    1    2    0    0 -0.10775246003E-01  0.20588359092E-01  0.16311556687E-01  0.28391078494E-01  0.00000000000E+00 0. -1.
     999901    1    3    3    0    0 -0.16012550409E-01 -0.12303462354E+00 -0.76737578048E-01  0.89201041263E+00  0.88000000000E+00 0. -1.
        -11    1    4    4    0    0  0.23337645622E-01  0.63070537574E-01  0.29973226267E-01  0.73628756793E-01  0.51100000000E-03 0. -1.
         11    1    4    4    0    0  0.34501507904E-02  0.39375726878E-01  0.30452795094E-01  0.49899752080E-01  0.51100000000E-03 0.  1.
</event>
<event>
 8    1  0.1071333E+005  0.1043930E+01  0.7957747E-01            NaN
         13   -1    0    0    0    0  0.00000000000E+00  0.00000000000E+00  0.74505805969E-08  0.10566000000E+00  0.10566000000E+00 0.  1.
     999900   -1    0    0    0    0 -0.00000000000E+00 -0.00000000000E+00 -0.74505805969E-08  0.93827000000E+00  0.93827000000E+00 0. -1.
     999902    2    1    2    0    0 -0.59903352755E-02 -0.55356522425E-02 -0.63906391924E-02  0.10335681550E+01  0.10335162133E+01 0.  0.
     999903    2    3    3    0    0  0.10420168878E+00 -0.88559669361E-01  0.32708728979E-01  0.14196060110E+00  0.19548512275E-01 0.  0.
         14    1    1    2    0    0  0.59903352755E-02  0.55356522425E-02  0.63906391924E-02  0.10361844997E-01  0.00000000000E+00 0.  1.
     999901    1    3    3    0    0 -0.11019202405E+00  0.83024017118E-01 -0.39099368171E-01  0.89160755390E+00  0.88000000000E+00 0. -1.
        -11    1    4    4    0    0  0.74996172034E-01 -0.59802355317E-01  0.14132252406E-01  0.96957357638E-01  0.51100000000E-03 0.  1.
         11    1    4    4    0    0  0.29205516744E-01 -0.28757314044E-01  0.18576476573E-01  0.45003243463E-01  0.51100000000E-03 0. -1.
</event>
<event>
 8    1  0.1071333E+005  0.1043930E+01  0.7957747E-01            NaN
         13   -1    0    0    0    0  0.00000000000E+00  0.00000000000E+00  0.74505805969E-08  0.10566000000E+00  0.10566000000E+00 0.  1.
     999900   -1    0    0    0    0 -0.00000000000E+00 -0.00000000000E+00 -0.74505805969E-08  0.93827000000E+00  0.93827000000E+00 0. -1.
     999902    2    1    2    0    0 -0.62054797283E-02  0.27063275312E-02  0.22855974142E-01  0.10200924720E+01  0.10198139162E+01 0.  0.
     999903    2    3    3    0    0 -0.31630621838E-01 -0.33867845457E-01  0.12339569908E+00  0.13324843595E+00  0.19522293373E-01 0.  0.
         14    1    1    2    0    0  0.62054797283E-02 -0.27063275312E-02 -0.22855974142E-01  0.23837528004E-01  0.00000000000E+00 0. -1.
     999901    1    3    3    0    0  0.25425142109E-01  0.36574172988E-01 -0.10053972493E+00  0.88684403605E+00  0.88000000000E+00 0. -1.
        -11    1    4    4    0    0 -0.47149953493E-02 -0.93688016602E-02  0.52660985069E-01  0.53697728957E-01  0.51100000000E-03 0.  1.
         11    1    4    4    0    0 -0.26915626488E-01 -0.24499043797E-01  0.70734714008E-01  0.79550706993E-01  0.51100000000E-03 0. -1.
</event>
<event>
 8    1  0.1071333E+005  0.1043930E+01  0.7957747E-01            NaN
         13   -1    0    0    0    0  0.00000000000E+00  0.00000000000E+00  0.74505805969E-08  0.10566000000E+00  0.10566000000E+00 0.  1.
     999900   -1    0    0    0    0 -0.00000000000E+00 -0.00000000000E+00 -0.74505805969E-08  0.93827000000E+00  0.93827000000E+00 0.  1.
     999902    2    1    2    0    0 -0.21559687270E-01 -0.10665217636E-01  0.10275723588E-02  0.10198546415E+01  0.10195704325E+01 0.  0.
     999903    2    3    3    0    0 -0.73206087946E-01 -0.64235518776E-01 -0.87200388562E-01  0.13231799382E+00  0.20464861080E-01 0.  0.
         14    1    1    2    0    0  0.21559687270E-01  0.10665217636E-01 -0.10275723588E-02  0.24075358510E-01  0.00000000000E+00 0.  1.
     999901    1    3    3    0    0  0.51646400675E-01  0.53570301140E-01  0.88227960920E-01  0.88753664767E+00  0.88000000000E+00 0.  1.
        -11    1    4    4    0    0 -0.51405202596E-01 -0.41681536556E-01 -0.46294285529E-01  0.80766746481E-01  0.51100000000E-03 0.  1.
         11    1    4    4    0    0 -0.21800885350E-01 -0.22553982220E-01 -0.40906103033E-01  0.51551247340E-01  0.51100000000E-03 0. -1.
</event>
<event>
 8    1  0.1071333E+005  0.1043930E+01  0.7957747E-01            NaN
         13   -1    0    0    0    0  0.00000000000E+00  0.00000000000E+00  0.74505805969E-08  0.10566000000E+00  0.10566000000E+00 0. -1.
     999900   -1    0    0    0    0 -0.00000000000E+00 -0.00000000000E+00 -0.74505805969E-08  0.93827000000E+00  0.93827000000E+00 0. -1.
     999902    2    1    2    0    0  0.20291787933E-01  0.46791176633E-02 -0.10616492845E-01  0.10205556397E+01  0.10202879265E+01 0.  0.
     999903    2    3    3    0    0 -0.38956717234E-01 -0.11879903518E+00  0.26095188880E-01  0.12920554732E+00  0.19551930796E-01 0.  0.
         14    1    1    2    0    0 -0.20291787933E-01 -0.46791176633E-02  0.10616492845E-01  0.23374360311E-01  0.00000000000E+00 0.  1.
     999901    1    3    3    0    0  0.59248505167E-01  0.12347815284E+00 -0.36711681725E-01  0.89135009237E+00  0.88000000000E+00 0. -1.
        -11    1    4    4    0    0 -0.30342030860E-01 -0.96333160491E-01  0.13074410744E-01  0.10184261379E+00  0.51100000000E-03 0. -1.
         11    1    4    4    0    0 -0.86146863744E-02 -0.22465874689E-01  0.13020778135E-01  0.27362933526E-01  0.51100000000E-03 0.  1.
</event>
<event>
 8    1  0.1071333E+005  0.1043930E+01  0.7957747E-01            NaN
         13   -1    0    0    0    0  0.00000000000E+00  0.00000000000E+00  0.74505805969E-08  0.10566000000E+00  0.10566000000E+00 0. -1.
     999900   -1    0    0    0    0 -0.00000000000E+00 -0.00000000000E+00 -0.74505805969E-08  0.93827000000E+00  0.93827000000E+00 0. -1.
     999902    2    1    2    0    0  0.13972830992E-01 -0.68032564344E-02  0.20473707124E-01  0.10182259733E+01  0.10179014863E+01 0.  0.
     999903    2    3    3    0    0 -0.11936486367E+00  0.34424006485E-01 -0.10424944838E-01  0.12669170325E+00  0.22563805012E-01 0.  0.
         14    1    1    2    0    0 -0.13972830992E-01  0.68032564344E-02 -0.20473707124E-01  0.25704026677E-01  0.00000000000E+00 0.  1.
     999901    1    3    3    0    0  0.13333769466E+00 -0.41227262920E-01  0.30898651962E-01  0.89153427007E+00  0.88000000000E+00 0. -1.
        -11    1    4    4    0    0 -0.38064302323E-01  0.24219955316E-02  0.31294322264E-02  0.38272857755E-01  0.51100000000E-03 0. -1.
         11    1    4    4    0    0 -0.81300561342E-01  0.32002010954E-01 -0.13554377064E-01  0.88418845493E-01  0.51100000000E-03 0.  1.
</event>
<event>
 8    1  0.1071333E+005  0.1043930E+01  0.7957747E-01            NaN
         13   -1    0    0    0    0  0.00000000000E+00  0.00000000000E+00  0.74505805969E-08  0.10566000000E+00  0.10566000000E+00 0. -1.
     999900   -1    0    0    0    0 -0.00000000000E+00 -0.00000000000E+00 -0.74505805969E-08  0.93827000000E+00  0.93827000000E+00 0. -1.
     999902    2    1    2    0    0 -0.20665147340E-01 -0.68321460950E-04 -0.12240514283E-01  0.10199116076E+01  0.10196287580E+01 0.  0.
     999903    2    3    3    0    0  0.16703140010E-01  0.12380399070E+00  0.27343908618E-01  0.12957028815E+00  0.20840998884E-01 0.  0.
         14    1    1    2    0    0  0.20665147340E-01  0.68321460950E-04  0.12240514283E-01  0.24018392376E-01  0.00000000000E+00 0.  1.
     999901    1    3    3    0    0 -0.37368287350E-01 -0.12387231216E+00 -0.39584422900E-01  0.89034131947E+00  0.88000000000E+00 0. -1.
        -11    1    4    4    0    0  0.20806338514E-01  0.10153939690E+00  0.18658148113E-01  0.10531638267E+00  0.51100000000E-03 0. -1.
         11    1    4    4    0    0 -0.41031985039E-02  0.22264593797E-01  0.86857605045E-02  0.24253905488E-01  0.51100000000E-03 0.  1.
</event>
<event>
 8    1  0.1071333E+005  0.1043930E+01  0.7957747E-01            NaN
         13   -1    0    0    0    0  0.00000000000E+00  0.00000000000E+00  0.74505805969E-08  0.10566000000E+00  0.10566000000E+00 0. -1.
     999900   -1    0    0    0    0 -0.00000000000E+00 -0.00000000000E+00 -0.74505805969E-08  0.93827000000E+00  0.93827000000E+00 0. -1.
     999902    2    1    2    0    0 -0.10184928447E-01  0.38904493609E-02  0.11008222525E-01  0.10284364747E+01  0.10283197621E+01 0.  0.
     999903    2    3    3    0    0 -0.19389596493E-01  0.11513580541E+00  0.73077017844E-01  0.13921614736E+00  0.20215711955E-01 0.  0.
         14    1    1    2    0    0  0.10184928447E-01 -0.38904493609E-02 -0.11008222525E-01  0.15493525321E-01  0.00000000000E+00 0.  1.
     999901    1    3    3    0    0  0.92046680455E-02 -0.11124535605E+00 -0.62068795319E-01  0.88922032731E+00  0.88000000000E+00 0.  1.
        -11    1    4    4    0    0 -0.85634809512E-02  0.89618625471E-01  0.49012520449E-01  0.10250521703E+00  0.51100000000E-03 0.  1.
         11    1    4    4    0    0 -0.10826115541E-01  0.25517179942E-01  0.24064497395E-01  0.36710930331E-01  0.51100000000E-03 0. -1.
</event>
<event>
 8    1  0.1084078E+005  0.1043930E+01  0.7957747E-01            NaN
         13   -1    0    0    0    0  0.00000000000E+00  0.00000000000E+00  0.74505805969E-08  0.10566000000E+00  0.10566000000E+00 0. -1.
     999900   -1    0    0    0    0 -0.00000000000E+00 -0.00000000000E+00 -0.74505805969E-08  0.93827000000E+00  0.93827000000E+00 0.  1.
     999902    2    1    2    0    0 -0.17844079685E-01 -0.10501985089E-01  0.13169728597E-01  0.10193913647E+01  0.10190959767E+01 0.  0.
     999903    2    3    3    0    0  0.82016234683E-01  0.90093506670E-01  0.33372557870E-01  0.12781989272E+00  0.19511398242E-01 0.  0.
         14    1    1    2    0    0  0.17844079685E-01  0.10501985089E-01 -0.13169728597E-01  0.24538635291E-01  0.00000000000E+00 0.  1.
     999901    1    3    3    0    0 -0.99860314368E-01 -0.10059549176E+00 -0.20202829273E-01  0.89157147199E+00  0.88000000000E+00 0. -1.
        -11    1    4    4    0    0  0.42294295401E-01  0.60585818497E-01  0.19142244794E-01  0.76329126048E-01  0.51100000000E-03 0.  1.
         11    1    4    4    0    0  0.39721939282E-01  0.29507688173E-01  0.14230313075E-01  0.51490766676E-01  0.51100000000E-03 0. -1.
</event>
<event>
 8    1  0.1071333E+005  0.1043930E+01  0.7957747E-01            NaN
         13   -1    0    0    0    0  0.00000000000E+00  0.00000000000E+00  0.74505805969E-08  0.10566000000E+00  0.10566000000E+00 0.  1.
     999900   -1    0    0    0    0 -0.00000000000E+00 -0.00000000000E+00 -0.74505805969E-08  0.93827000000E+00  0.93827000000E+00 0. -1.
     999902    2    1    2    0    0  0.24709235476E-01 -0.35516738742E-02  0.36538942970E-03  0.10189641390E+01  0.10186582461E+01 0.  0.
     999903    2    3    3    0    0  0.27110023361E-01  0.12012123579E+00 -0.35125608809E-01  0.12960461480E+00  0.19987074021E-01 0.  0.
         14    1    1    2    0    0 -0.24709235476E-01  0.35516738742E-02 -0.36538942970E-03  0.24965860982E-01  0.00000000000E+00 0.  1.
     999901    1    3    3    0    0 -0.24007878846E-02 -0.12367290966E+00  0.35490998239E-01  0.88935952422E+00  0.88000000000E+00 0.  1.
        -11    1    4    4    0    0  0.17472477340E-01  0.40218906553E-01 -0.17487651897E-01  0.47211513412E-01  0.51100000000E-03 0. -1.
         11    1    4    4    0    0  0.96375460207E-02  0.79902329237E-01 -0.17637956913E-01  0.82393101385E-01  0.51100000000E-03 0.  1.
</event>
<event>
 8    1  0.1071333E+005  0.1043930E+01  0.7957747E-01            NaN
         13   -1    0    0    0    0  0.00000000000E+00  0.00000000000E+00  0.74505805969E-08  0.10566000000E+00  0.10566000000E+00 0.  1.
     999900   -1    0    0    0    0 -0.00000000000E+00 -0.00000000000E+00 -0.74505805969E-08  0.93827000000E+00  0.93827000000E+00 0. -1.
     999902    2    1    2    0    0  0.87159755141E-02 -0.20855762203E-01 -0.92668032205E-02  0.10195004137E+01  0.10192076770E+01 0.  0.
     999903    2    3    3    0    0  0.10740683887E-01 -0.79016383584E-01  0.10138247297E+00  0.13066408473E+00  0.20874531113E-01 0.  0.
         14    1    1    2    0    0 -0.87159755141E-02  0.20855762203E-01  0.92668032205E-02  0.24429586328E-01  0.00000000000E+00 0. -1.
     999901    1    3    3    0    0 -0.20247083731E-02  0.58160621381E-01 -0.11064927619E+00  0.88883632894E+00  0.88000000000E+00 0. -1.
        -11    1    4    4    0    0  0.13941589085E-01 -0.39802274794E-01  0.42759171862E-01  0.60059944092E-01  0.51100000000E-03 0. -1.
         11    1    4    4    0    0 -0.32009051974E-02 -0.39214108790E-01  0.58623301104E-01  0.70604140640E-01  0.51100000000E-03 0.  1.
</event>
<event>
 8    1  0.1071333E+005  0.1043930E+01  0.7957747E-01            NaN
         13   -1    0    0    0    0  0.00000000000E+00  0.00000000000E+00  0.74505805969E-08  0.10566000000E+00  0.10566000000E+00 0. -1.
     999900   -1    0    0    0    0 -0.00000000000E+00 -0.00000000000E+00 -0.74505805969E-08  0.93827000000E+00  0.93827000000E+00 0. -1.
     999902    2    1    2    0    0 -0.11922110429E-01  0.30906294173E-02  0.19591647433E-01  0.10207886656E+01  0.10205263243E+01 0.  0.
     999903    2    3    3    0    0  0.73134420194E-01  0.10630685245E+00  0.55319678165E-02  0.13057190737E+00  0.19199740395E-01 0.  0.
         14    1    1    2    0    0  0.11922110429E-01 -0.30906294173E-02 -0.19591647433E-01  0.23141334370E-01  0.00000000000E+00 0. -1.
     999901    1    3    3    0    0 -0.85056530622E-01 -0.10321622303E+00  0.14059679617E-01  0.89021675826E+00  0.88000000000E+00 0. -1.
        -11    1    4    4    0    0  0.28680451925E-01  0.35221477508E-01 -0.64413339459E-02  0.45878891709E-01  0.51100000000E-03 0. -1.
         11    1    4    4    0    0  0.44453968268E-01  0.71085374941E-01  0.11973301762E-01  0.84693015659E-01  0.51100000000E-03 0.  1.
</event>
<event>
 8    1  0.1071333E+005  0.1043930E+01  0.7957747E-01            NaN
         13   -1    0    0    0    0  0.00000000000E+00  0.00000000000E+00  0.74505805969E-08  0.10566000000E+00  0.10566000000E+00 0. -1.
     999900   -1    0    0    0    0 -0.00000000000E+00 -0.00000000000E+00 -0.74505805969E-08  0.93827000000E+00  0.93827000000E+00 0.  1.
     999902    2    1    2    0    0  0.23544226089E-02  0.16924836481E-01  0.18146531765E-01  0.10190043102E+01  0.10186994131E+01 0.  0.
     999903    2    3    3    0    0  0.91674414919E-01 -0.87369913110E-01  0.37830921990E-02  0.12823960268E+00  0.19833906327E-01 0.  0.
         14    1    1    2    0    0 -0.23544226089E-02 -0.16924836481E-01 -0.18146531765E-01  0.24925689776E-01  0.00000000000E+00 0.  1.
     999901    1    3    3    0    0 -0.89319992310E-01  0.10429474959E+00  0.14363439566E-01  0.89076470755E+00  0.88000000000E+00 0.  1.
        -11    1    4    4    0    0  0.58423841524E-01 -0.48484616699E-01  0.10458238600E-01  0.76640323528E-01  0.51100000000E-03 0. -1.
         11    1    4    4    0    0  0.33250573394E-01 -0.38885296410E-01 -0.66751464009E-02  0.51599279147E-01  0.51100000000E-03 0.  1.
</event>
<event>
 8    1  0.1071333E+005  0.1043930E+01  0.7957747E-01            NaN
         13   -1    0    0    0    0  0.00000000000E+00  0.00000000000E+00  0.74505805969E-08  0.10566000000E+00  0.10566000000E+00 0.  1.
     999900   -1    0    0    0    0 -0.00000000000E+00 -0.00000000000E+00 -0.74505805969E-08  0.93827000000E+00  0.93827000000E+00 0.  1.
     999902    2    1    2    0    0 -0.40938324865E-02 -0.22225546885E-01 -0.61449847152E-02  0.10205100249E+01  0.10202412536E+01 0.  0.
     999903    2    3    3    0    0  0.80326248195E-01  0.30379966371E-01  0.94437074589E-01  0.12921274521E+00  0.20058014893E-01 0.  0.
         14    1    1    2    0    0  0.40938324865E-02  0.22225546885E-01  0.61449847152E-02  0.23419975148E-01  0.00000000000E+00 0. -1.
     999901    1    3    3    0    0 -0.84420080681E-01 -0.52605513256E-01 -0.10058205930E+00  0.89129727964E+00  0.88000000000E+00 0.  1.
        -11    1    4    4    0    0  0.22116703762E-01  0.24529265095E-02  0.14972113708E-01  0.26825188604E-01  0.51100000000E-03 0. -1.
         11    1    4    4    0    0  0.58209544433E-01  0.27927039861E-01  0.79464960881E-01  0.10238755660E+00  0.51100000000E-03 0.  1.
</event>
<event>
 8    1  0.1071333E+005  0.1043930E+01  0.7957747E-01            NaN
         13   -1    0    0    0    0  0.00000000000E+00  0.00000000000E+00  0.74505805969E-08  0.10566000000E+00  0.10566000000E+00 0. -1.
     999900   -1    0    0    0    0 -0.00000000000E+00 -0.00000000000E+00 -0.74505805969E-08  0.93827000000E+00  0.93827000000E+00 0.  1.
     999902    2    1    2    0    0 -0.29977833005E-02 -0.21389913530E-01 -0.75310852815E-02  0.10210557273E+01  0.10207994739E+01 0.  0.
     999903    2    3    3    0    0  0.50389692868E-01  0.14404456233E-01 -0.11914091723E+00  0.13168054545E+00  0.19964928871E-01 0.  0.
         14    1    1    2    0    0  0.29977833005E-02  0.21389913530E-01  0.75310852815E-02  0.22874272689E-01  0.00000000000E+00 0. -1.
     999901    1    3    3    0    0 -0.53387476169E-01 -0.35794369763E-01  0.11160983195E+00  0.88937518186E+00  0.88000000000E+00 0. -1.
        -11    1    4    4    0    0  0.39024789931E-01  0.37178331536E-02 -0.71434126974E-01  0.81485287813E-01  0.51100000000E-03 0.  1.
         11    1    4    4    0    0  0.11364902937E-01  0.10686623079E-01 -0.47706790259E-01  0.50195257639E-01  0.51100000000E-03 0. -1.
</event>
<event>
 8    1  0.1071333E+005  0.1043930E+01  0.7957747E-01            NaN
         13   -1    0    0    0    0  0.00000000000E+00  0.00000000000E+00  0.74505805969E-08  0.10566000000E+00  0.10566000000E+00 0. -1.
     999900   -1    0    0    0    0 -0.00000000000E+00 -0.00000000000E+00 -0.74505805969E-08  0.93827000000E+00  0.93827000000E+00 0. -1.
     999902    2    1    2    0    0  0.31472028567E-02 -0.18943460040E-01 -0.13402156747E-01  0.10205125414E+01  0.10202438285E+01 0.  0.
     999903    2    3    3    0    0 -0.64036021176E-01  0.99085771855E-01  0.45641551315E-01  0.12813893986E+00  0.20441000717E-01 0.  0.
         14    1    1    2    0    0 -0.31472028567E-02  0.18943460040E-01  0.13402156747E-01  0.23417458649E-01  0.00000000000E+00 0. -1.
     999901    1    3    3    0    0  0.67183224033E-01 -0.11802923189E+00 -0.59043708062E-01  0.89237360149E+00  0.88000000000E+00 0. -1.
        -11    1    4    4    0    0 -0.36616219681E-01  0.57086252439E-01  0.36939256265E-01  0.77229253108E-01  0.51100000000E-03 0.  1.
         11    1    4    4    0    0 -0.27419801495E-01  0.41999519416E-01  0.87022950500E-02  0.50909686754E-01  0.51100000000E-03 0. -1.
</event>
<event>
 7    1  0.1071333E+005  0.1043930E+01  0.7957747E-01            NaN
         13   -1    0    0    0    0  0.00000000000E+00  0.00000000000E+00  0.74505805969E-08  0.10566000000E+00  0.10566000000E+00 0.  1.
     999900   -1    0    0    0    0 -0.00000000000E+00 -0.00000000000E+00 -0.74505805969E-08  0.93827000000E+00  0.93827000000E+00 0. -1.
     999902    2    1    2    0    0  0.94622962868E-02 -0.17380431005E-01  0.13807356827E-01  0.10197999868E+01  0.10195144705E+01 0.  0.
         14    1    1    2    0    0 -0.94622962868E-02  0.17380431005E-01 -0.13807356827E-01  0.24130013168E-01  0.00000000000E+00 0. -1.
     999901    1    3    3    0    0  0.12359280135E+00  0.29554739058E-01  0.36483823827E-02  0.88913552051E+00  0.88000000000E+00 0. -1.
        -11    1    3    3    0    0 -0.77656205188E-01 -0.47804168408E-01  0.18931753616E-01  0.93136443658E-01  0.51100000000E-03 0. -1.
         11    1    3    3    0    0 -0.36474299873E-01  0.86899834416E-03 -0.87727791723E-02  0.37528022660E-01  0.51100000000E-03 0.  1.
</event>
<event>
 8    1  0.1071333E+005  0.1043930E+01  0.7957747E-01            NaN
         13   -1    0    0    0    0  0.00000000000E+00  0.00000000000E+00  0.74505805969E-08  0.10566000000E+00  0.10566000000E+00 0.  1.
     999900   -1    0    0    0    0 -0.00000000000E+00 -0.00000000000E+00 -0.74505805969E-08  0.93827000000E+00  0.93827000000E+00 0. -1.
     999902    2    1    2    0    0  0.10377699140E-01  0.19725027052E-01  0.88252519457E-02  0.10199579662E+01  0.10196762204E+01 0.  0.
     999903    2    3    3    0    0 -0.89865373100E-01  0.12418657810E-01 -0.89187040528E-01  0.12883032888E+00  0.20320361608E-01 0.  0.
         14    1    1    2    0    0 -0.10377699140E-01 -0.19725027052E-01 -0.88252519457E-02  0.23972033780E-01  0.00000000000E+00 0. -1.
     999901    1    3    3    0    0  0.10024307224E+00  0.73063692419E-02  0.98012292474E-01  0.89112763734E+00  0.88000000000E+00 0.  1.
        -11    1    4    4    0    0 -0.32294590185E-01  0.48693792709E-02 -0.46215765445E-01  0.56593369809E-01  0.51100000000E-03 0. -1.
         11    1    4    4    0    0 -0.57570782915E-01  0.75492785389E-02 -0.42971275083E-01  0.72236959066E-01  0.51100000000E-03 0.  1.
</event>
<event>
 8    1  0.1071333E+005  0.1043930E+01  0.7957747E-01            NaN
         13   -1    0    0    0    0  0.00000000000E+00  0.00000000000E+00  0.74505805969E-08  0.10566000000E+00  0.10566000000E+00 0.  1.
     999900   -1    0    0    0    0 -0.00000000000E+00 -0.00000000000E+00 -0.74505805969E-08  0.93827000000E+00  0.93827000000E+00 0.  1.
     999902    2    1    2    0    0  0.58096717395E-02  0.22552492754E-01 -0.12392097068E-02  0.10206082750E+01  0.10203417801E+01 0.  0.
     999903    2    3    3    0    0  0.13944309861E-01 -0.10053157588E+00  0.76484630979E-01  0.12861227969E+00  0.19752928465E-01 0.  0.
         14    1    1    2    0    0 -0.58096717395E-02 -0.22552492754E-01  0.12392097068E-02  0.23321724975E-01  0.00000000000E+00 0.  1.
     999901    1    3    3    0    0 -0.81346381216E-02  0.12308406864E+00 -0.77723840686E-01  0.89199599534E+00  0.88000000000E+00 0. -1.
        -11    1    4    4    0    0  0.14923658268E-01 -0.43781211556E-01  0.28895235304E-01  0.54540863632E-01  0.51100000000E-03 0.  1.
         11    1    4    4    0    0 -0.97934840722E-03 -0.56750364328E-01  0.47589395674E-01  0.74071416054E-01  0.51100000000E-03 0. -1.
</event>
<event>
 8    1  0.1071333E+005  0.1043930E+01  0.7957747E-01            NaN
         13   -1    0    0    0    0  0.00000000000E+00  0.00000000000E+00  0.74505805969E-08  0.10566000000E+00  0.10566000000E+00 0. -1.
     999900   -1    0    0    0    0 -0.00000000000E+00 -0.00000000000E+00 -0.74505805969E-08  0.93827000000E+00  0.93827000000E+00 0.  1.
     999902    2    1    2    0    0  0.59980499031E-02 -0.22715936228E-01  0.51688575458E-02  0.10198736609E+01  0.10195899062E+01 0.  0.
     999903    2    3    3    0    0 -0.88618989369E-01 -0.40875486876E-01  0.83999564754E-01  0.13111248164E+00  0.24706785700E-01 0.  0.
         14    1    1    2    0    0 -0.59980499031E-02  0.22715936228E-01 -0.51688575458E-02  0.24056339075E-01  0.00000000000E+00 0. -1.
     999901    1    3    3    0    0  0.94617039272E-01  0.18159550648E-01 -0.78830707208E-01  0.88876117928E+00  0.88000000000E+00 0.  1.
        -11    1    4    4    0    0 -0.62458760819E-01 -0.21220064121E-01  0.43389366275E-01  0.78957495851E-01  0.51100000000E-03 0. -1.
         11    1    4    4    0    0 -0.26160228550E-01 -0.19655422755E-01  0.40610198479E-01  0.52154985792E-01  0.51100000000E-03 0.  1.
</event>
<event>
 8    1  0.1071333E+005  0.1043930E+01  0.7957747E-01            NaN
         13   -1    0    0    0    0  0.00000000000E+00  0.00000000000E+00  0.74505805969E-08  0.10566000000E+00  0.10566000000E+00 0. -1.
     999900   -1    0    0    0    0 -0.00000000000E+00 -0.00000000000E+00 -0.74505805969E-08  0.93827000000E+00  0.93827000000E+00 0.  1.
     999902    2    1    2    0    0  0.23366540254E-01 -0.15675940959E-02  0.39013973347E-02  0.10201881918E+01  0.10199118949E+01 0.  0.
     999903    2    3    3    0    0 -0.10723489116E+00 -0.19349752227E-01 -0.63917291526E-01  0.12779124337E+00  0.19272958590E-01 0.  0.
         14    1    1    2    0    0 -0.23366540254E-01  0.15675940959E-02 -0.39013973347E-02  0.23741808184E-01  0.00000000000E+00 0. -1.
     999901    1    3    3    0    0  0.13060143141E+00  0.17782158131E-01  0.67818688860E-01  0.89239694845E+00  0.88000000000E+00 0. -1.
        -11    1    4    4    0    0 -0.93120859654E-01 -0.14809326308E-01 -0.61959285263E-01  0.11282741156E+00  0.51100000000E-03 0. -1.
         11    1    4    4    0    0 -0.14114031507E-01 -0.45404259182E-02 -0.19580062629E-02  0.14963831809E-01  0.51100000000E-03 0.  1.
</event>
<event>
 8    1  0.1071333E+005  0.1043930E+01  0.7957747E-01            NaN
         13   -1    0    0    0    0  0.00000000000E+00  0.00000000000E+00  0.74505805969E-08  0.10566000000E+00  0.10566000000E+00 0. -1.
     999900   -1    0    0    0    0 -0.00000000000E+00 -0.00000000000E+00 -0.74505805969E-08  0.93827000000E+00  0.93827000000E+00 0.  1.
     999902    2    1    2    0    0  0.89707081326E-02  0.10047318962E-01  0.20000646244E-01  0.10198167656E+01  0.10195316510E+01 0.  0.
     999903    2    3    3    0    0  0.12144749316E+00  0.35988489962E-01 -0.26433515962E-01  0.13106477380E+00  0.20846562325E-01 0.  0.
         14    1    1    2    0    0 -0.89707081326E-02 -0.10047318962E-01 -0.20000646244E-01  0.24113234393E-01  0.00000000000E+00 0.  1.
     999901    1    3    3    0    0 -0.11247678503E+00 -0.25941171000E-01  0.46434162206E-01  0.88875199181E+00  0.88000000000E+00 0.  1.
        -11    1    4    4    0    0  0.84395459454E-01  0.34766310362E-01 -0.19804096298E-01  0.93401034597E-01  0.51100000000E-03 0.  1.
         11    1    4    4    0    0  0.37052033704E-01  0.12221795996E-02 -0.66294196648E-02  0.37663739202E-01  0.51100000000E-03 0. -1.
</event>
<event>
 8    1  0.1071333E+005  0.1043930E+01  0.7957747E-01            NaN
         13   -1    0    0    0    0  0.00000000000E+00  0.00000000000E+00  0.74505805969E-08  0.10566000000E+00  0.10566000000E+00 0.  1.
     999900   -1    0    0    0    0 -0.00000000000E+00 -0.00000000000E+00 -0.74505805969E-08  0.93827000000E+00  0.93827000000E+00 0.  1.
     999902    2    1    2    0    0 -0.22198308653E-01 -0.58837903811E-02 -0.16730543190E-02  0.10209042968E+01  0.10206446004E+01 0.  0.
     999903    2    3    3    0    0  0.64345559185E-01 -0.43141132810E-01  0.10219194393E+00  0.12980054950E+00  0.20086834477E-01 0.  0.
         14    1    1    2    0    0  0.22198308653E-01  0.58837903811E-02  0.16730543190E-02  0.23025703182E-01  0.00000000000E+00 0.  1.
     999901    1    3    3    0    0 -0.86543867838E-01  0.37257342429E-01 -0.10386499825E+00  0.89110374732E+00  0.88000000000E+00 0.  1.
        -11    1    4    4    0    0  0.21306889892E-01 -0.40241268495E-02  0.31739322003E-01  0.38442461367E-01  0.51100000000E-03 0.  1.
         11    1    4    4    0    0  0.43038669293E-01 -0.39117005960E-01  0.70452621925E-01  0.91358088131E-01  0.51100000000E-03 0. -1.
</event>
<event>
 8    1  0.1071333E+005  0.1043930E+01  0.7957747E-01            NaN
         13   -1    0    0    0    0  0.00000000000E+00  0.00000000000E+00  0.74505805969E-08  0.10566000000E+00  0.10566000000E+00 0.  1.
     999900   -1    0    0    0    0 -0.00000000000E+00 -0.00000000000E+00 -0.74505805969E-08  0.93827000000E+00  0.93827000000E+00 0.  1.
     999902    2    1    2    0    0 -0.23315528255E-02 -0.14257419117E-01  0.18867019536E-01  0.10201671179E+01  0.10198903245E+01 0.  0.
     999903    2    3    3    0    0 -0.84605771808E-01  0.64418160896E-01 -0.68993566845E-01  0.12849544256E+00  0.21050663100E-01 0.  0.
         14    1    1    2    0    0  0.23315528255E-02  0.14257419117E-01 -0.18867019536E-01  0.23762882077E-01  0.00000000000E+00 0. -1.
     999901    1    3    3    0    0  0.82274218983E-01 -0.78675580013E-01  0.87860586381E-01  0.89167167536E+00  0.88000000000E+00 0. -1.
        -11    1    4    4    0    0 -0.52881353783E-01  0.28026032845E-01 -0.33668471667E-01  0.68671123482E-01  0.51100000000E-03 0. -1.
         11    1    4    4    0    0 -0.31724418026E-01  0.36392128051E-01 -0.35325095178E-01  0.59824319081E-01  0.51100000000E-03 0.  1.
</event>
<event>
 8    1  0.1071333E+005  0.1043930E+01  0.7957747E-01            NaN
         13   -1    0    0    0    0  0.00000000000E+00  0.00000000000E+00  0.74505805969E-08  0.10566000000E+00  0.10566000000E+00 0.  1.
     999900   -1    0    0    0    0 -0.00000000000E+00 -0.00000000000E+00 -0.74505805969E-08  0.93827000000E+00  0.93827000000E+00 0. -1.
     999902    2    1    2    0    0 -0.40237007717E-02 -0.19017971015E-01  0.14660482962E-01  0.10195824508E+01  0.10192917006E+01 0.  0.
     999903    2    3    3    0    0  0.11945054558E+00 -0.25495037758E-01 -0.36623893500E-01  0.12946002714E+00  0.22364240726E-01 0.  0.
         14    1    1    2    0    0  0.40237007717E-02  0.19017971015E-01 -0.14660482962E-01  0.24347549160E-01  0.00000000000E+00 0. -1.
     999901    1    3    3    0    0 -0.12347424635E+00  0.64770667427E-02  0.51284376462E-01  0.89012242370E+00  0.88000000000E+00 0. -1.
        -11    1    4    4    0    0  0.20090441521E-01  0.36810587807E-02 -0.86874305253E-02  0.22201545090E-01  0.51100000000E-03 0.  1.
         11    1    4    4    0    0  0.99360104055E-01 -0.29176096539E-01 -0.27936462975E-01  0.10725848205E+00  0.51100000000E-03 0. -1.
</event>
<event>
 8    1  0.1071333E+005  0.1043930E+01  0.7957747E-01            NaN
         13   -1    0    0    0    0  0.00000000000E+00  0.00000000000E+00  0.74505805969E-08  0.10566000000E+00  0.10566000000E+00 0. -1.
     999900   -1    0    0    0    0 -0.00000000000E+00 -0.00000000000E+00 -0.74505805969E-08  0.93827000000E+00  0.93827000000E+00 0. -1.
     999902    2    1    2    0    0  0.13632146015E-04 -0.22759834383E-01 -0.16250417564E-02  0.10211122217E+01  0.10208572468E+01 0.  0.
     999903    2    3    3    0    0  0.11415189572E+00  0.10894733754E-01 -0.60410542699E-01  0.13115946546E+00  0.20100278416E-01 0.  0.
         14    1    1    2    0    0 -0.13632146015E-04  0.22759834383E-01  0.16250417564E-02  0.22817778325E-01  0.00000000000E+00 0. -1.
     999901    1    3    3    0    0 -0.11413826357E+00 -0.33654568137E-01  0.58785500943E-01  0.88995275621E+00  0.88000000000E+00 0.  1.
        -11    1    4    4    0    0  0.50045438131E-01 -0.15825503949E-02 -0.17638840040E-01  0.53088983249E-01  0.51100000000E-03 0. -1.
         11    1    4    4    0    0  0.64106457584E-01  0.12477284149E-01 -0.42771702659E-01  0.78070482214E-01  0.51100000000E-03 0.  1.
</event>
<event>
 8    1  0.1286710E+005  0.1043930E+01  0.7957747E-01            NaN
         13   -1    0    0    0    0  0.00000000000E+00  0.00000000000E+00  0.74505805969E-08  0.10566000000E+00  0.10566000000E+00 0.  1.
     999900   -1    0    0    0    0 -0.00000000000E+00 -0.00000000000E+00 -0.74505805969E-08  0.93827000000E+00  0.93827000000E+00 0.  1.
     999902    2    1    2    0    0 -0.10472550293E-01 -0.66004025343E-02 -0.19686087774E-01  0.10206752870E+01  0.10204103390E+01 0.  0.
     999903    2    3    3    0    0 -0.12450077748E+00  0.37882246531E-01 -0.13188233081E-01  0.13218028717E+00  0.19031306602E-01 0.  0.
         14    1    1    2    0    0  0.10472550293E-01  0.66004025343E-02  0.19686087774E-01  0.23254712965E-01  0.00000000000E+00 0.  1.
     999901    1    3    3    0    0  0.11402822718E+00 -0.44482649066E-01 -0.64978546927E-02  0.88849499986E+00  0.88000000000E+00 0. -1.
        -11    1    4    4    0    0 -0.74869334932E-01  0.22195662160E-01  0.14571200901E-02  0.78105371465E-01  0.51100000000E-03 0. -1.
         11    1    4    4    0    0 -0.49631442545E-01  0.15686584372E-01 -0.14645353171E-01  0.54074915708E-01  0.51100000000E-03 0.  1.
</event>
<event>
 8    1  0.1071333E+005  0.1043930E+01  0.7957747E-01            NaN
         13   -1    0    0    0    0  0.00000000000E+00  0.00000000000E+00  0.74505805969E-08  0.10566000000E+00  0.10566000000E+00 0.  1.
     999900   -1    0    0    0    0 -0.00000000000E+00 -0.00000000000E+00 -0.74505805969E-08  0.93827000000E+00  0.93827000000E+00 0.  1.
     999902    2    1    2    0    0  0.74735954970E-02  0.12333596384E-01  0.18076122048E-01  0.10208060207E+01  0.10205440772E+01 0.  0.
     999903    2    3    3    0    0 -0.12337948094E-01 -0.19656941768E-01 -0.12479086439E+00  0.12849056775E+00  0.19961108293E-01 0.  0.
         14    1    1    2    0    0 -0.74735954970E-02 -0.12333596384E-01 -0.18076122048E-01  0.23123979279E-01  0.00000000000E+00 0. -1.
     999901    1    3    3    0    0  0.19811543591E-01  0.31990538152E-01  0.14286698644E+00  0.89231545297E+00  0.88000000000E+00 0. -1.
        -11    1    4    4    0    0 -0.41023567169E-02 -0.20935255199E-01 -0.73903367427E-01  0.76922578473E-01  0.51100000000E-03 0. -1.
         11    1    4    4    0    0 -0.82355913770E-02  0.12783134315E-02 -0.50887496960E-01  0.51567989281E-01  0.51100000000E-03 0.  1.
</event>
<event>
 8    1  0.1071333E+005  0.1043930E+01  0.7957747E-01            NaN
         13   -1    0    0    0    0  0.00000000000E+00  0.00000000000E+00  0.74505805969E-08  0.10566000000E+00  0.10566000000E+00 0. -1.
     999900   -1    0    0    0    0 -0.00000000000E+00 -0.00000000000E+00 -0.74505805969E-08  0.93827000000E+00  0.93827000000E+00 0.  1.
     999902    2    1    2    0    0 -0.12610620695E-01  0.18866849837E-01  0.70106578048E-02  0.10201784716E+01  0.10199019457E+01 0.  0.
     999903    2    3    3    0    0  0.45866393201E-01 -0.79828829156E-01  0.87995102185E-01  0.12904499204E+00  0.20811150220E-01 0.  0.
         14    1    1    2    0    0  0.12610620695E-01 -0.18866849837E-01 -0.70106578048E-02  0.23751528371E-01  0.00000000000E+00 0.  1.
     999901    1    3    3    0    0 -0.58477013897E-01  0.98695678993E-01 -0.80984444380E-01  0.89113347959E+00  0.88000000000E+00 0.  1.
        -11    1    4    4    0    0  0.21043425041E-01 -0.35932860552E-01  0.54141342068E-01  0.68304774700E-01  0.51100000000E-03 0.  1.
         11    1    4    4    0    0  0.24822968161E-01 -0.43895968604E-01  0.33853760117E-01  0.60740217344E-01  0.51100000000E-03 0. -1.
</event>
<event>
 8    1  0.1071333E+005  0.1043930E+01  0.7957747E-01            NaN
         13   -1    0    0    0    0  0.00000000000E+00  0.00000000000E+00  0.74505805969E-08  0.10566000000E+00  0.10566000000E+00 0. -1.
     999900   -1    0    0    0    0 -0.00000000000E+00 -0.00000000000E+00 -0.74505805969E-08  0.93827000000E+00  0.93827000000E+00 0. -1.
     999902    2    1    2    0    0 -0.11990082014E-01 -0.99231022412E-02 -0.17923291882E-01  0.10201923839E+01  0.10199161857E+01 0.  0.
     999903    2    3    3    0    0 -0.52888054591E-01  0.11635991638E+00  0.65338485669E-02  0.12990130980E+00  0.22245958105E-01 0.  0.
         14    1    1    2    0    0  0.11990082014E-01  0.99231022412E-02  0.17923291882E-01  0.23737616070E-01  0.00000000000E+00 0. -1.
     999901    1    3    3    0    0  0.40897972577E-01 -0.12628301862E+00 -0.24457140449E-01  0.89029107413E+00  0.88000000000E+00 0. -1.
        -11    1    4    4    0    0 -0.29381626035E-01  0.39077635760E-01  0.49687378372E-03  0.48896314479E-01  0.51100000000E-03 0. -1.
         11    1    4    4    0    0 -0.23506428557E-01  0.77282280623E-01  0.60369747832E-02  0.81004995323E-01  0.51100000000E-03 0.  1.
</event>
<event>
 8    1  0.1071333E+005  0.1043930E+01  0.7957747E-01            NaN
         13   -1    0    0    0    0  0.00000000000E+00  0.00000000000E+00  0.74505805969E-08  0.10566000000E+00  0.10566000000E+00 0. -1.
     999900   -1    0    0    0    0 -0.00000000000E+00 -0.00000000000E+00 -0.74505805969E-08  0.93827000000E+00  0.93827000000E+00 0. -1.
     999902    2    1    2    0    0 -0.10966115460E-01 -0.21837816250E-01  0.95923603938E-02  0.10176781565E+01  0.10173395063E+01 0.  0.
     999903    2    3    3    0    0  0.88807578864E-01  0.41963491842E-01 -0.75727549648E-01  0.12565523977E+00  0.20170691503E-01 0.  0.
         14    1    1    2    0    0  0.10966115460E-01  0.21837816250E-01 -0.95923603938E-02  0.26251843455E-01  0.00000000000E+00 0.  1.
     999901    1    3    3    0    0 -0.99773694325E-01 -0.63801308092E-01  0.85319910042E-01  0.89202291677E+00  0.88000000000E+00 0.  1.
        -11    1    4    4    0    0  0.74311369069E-01  0.29142458136E-01 -0.53076519763E-01  0.95858439953E-01  0.51100000000E-03 0.  1.
         11    1    4    4    0    0  0.14496209796E-01  0.12821033706E-01 -0.22651029886E-01  0.29796799821E-01  0.51100000000E-03 0. -1.
</event>
<event>
 8    1  0.1071333E+005  0.1043930E+01  0.7957747E-01            NaN
         13   -1    0    0    0    0  0.00000000000E+00  0.00000000000E+00  0.74505805969E-08  0.10566000000E+00  0.10566000000E+00 0.  1.
     999900   -1    0    0    0    0 -0.00000000000E+00 -0.00000000000E+00 -0.74505805969E-08  0.93827000000E+00  0.93827000000E+00 0. -1.
     999902    2    1    2    0    0  0.23803983453E-03  0.12366238290E-01 -0.19949085563E-01  0.10204577498E+01  0.10201877635E+01 0.  0.
     999903    2    3    3    0    0  0.12480368052E-01  0.28577135281E-01 -0.12842864828E+00  0.13356402267E+00  0.19313679251E-01 0.  0.
         14    1    1    2    0    0 -0.23803983453E-03 -0.12366238290E-01  0.19949085563E-01  0.23472250152E-01  0.00000000000E+00 0.  1.
     999901    1    3    3    0    0 -0.12242328217E-01 -0.16210896991E-01  0.10847956271E+00  0.88689372718E+00  0.88000000000E+00 0.  1.
        -11    1    4    4    0    0  0.13011571166E-01  0.17596590340E-01 -0.53093571646E-01  0.57429343083E-01  0.51100000000E-03 0.  1.
         11    1    4    4    0    0 -0.53120311464E-03  0.10980544940E-01 -0.75335076630E-01  0.76134679587E-01  0.51100000000E-03 0. -1.
</event>
<event>
 8    1  0.1071333E+005  0.1043930E+01  0.7957747E-01            NaN
         13   -1    0    0    0    0  0.00000000000E+00  0.00000000000E+00  0.74505805969E-08  0.10566000000E+00  0.10566000000E+00 0.  1.
     999900   -1    0    0    0    0 -0.00000000000E+00 -0.00000000000E+00 -0.74505805969E-08  0.93827000000E+00  0.93827000000E+00 0. -1.
     999902    2    1    2    0    0  0.45734088474E-02 -0.21762769522E-01 -0.54945725796E-02  0.10210231335E+01  0.10207661410E+01 0.  0.
     999903    2    3    3    0    0 -0.99151607372E-01  0.22589840608E-01  0.78063981363E-01  0.12989572118E+00  0.20918199077E-01 0.  0.
         14    1    1    2    0    0 -0.45734088474E-02  0.21762769522E-01  0.54945725796E-02  0.22906866516E-01  0.00000000000E+00 0.  1.
     999901    1    3    3    0    0  0.10372501622E+00 -0.44352610130E-01 -0.83558553943E-01  0.89112741230E+00  0.88000000000E+00 0. -1.
        -11    1    4    4    0    0 -0.31875961963E-01  0.12585890918E-01  0.37038221737E-01  0.50463576882E-01  0.51100000000E-03 0. -1.
         11    1    4    4    0    0 -0.67275645409E-01  0.10003949690E-01  0.41025759626E-01  0.79432144303E-01  0.51100000000E-03 0.  1.
</event>
<event>
 8    1  0.1071333E+005  0.1043930E+01  0.7957747E-01            NaN
         13   -1    0    0    0    0  0.00000000000E+00  0.00000000000E+00  0.74505805969E-08  0.10566000000E+00  0.10566000000E+00 0.  1.
     999900   -1    0    0    0    0 -0.00000000000E+00 -0.00000000000E+00 -0.74505805969E-08  0.93827000000E+00  0.93827000000E+00 0.  1.
     999902    2    1    2    0    0 -0.12449337783E-01 -0.13749522841E-01  0.11939789085E-01  0.10218711253E+01  0.10216330079E+01 0.  0.
     999903    2    3    3    0    0  0.91982502858E-01 -0.26304522732E-01 -0.85888958077E-01  0.13022427753E+00  0.20706052051E-01 0.  0.
         14    1    1    2    0    0  0.12449337783E-01  0.13749522841E-01 -0.11939789085E-01  0.22058874699E-01  0.00000000000E+00 0.  1.
     999901    1    3    3    0    0 -0.10443184064E+00  0.12554999892E-01  0.97828747162E-01  0.89164684777E+00  0.88000000000E+00 0. -1.
        -11    1    4    4    0    0  0.57238436547E-01 -0.82838772202E-02 -0.59741725397E-01  0.83151645291E-01  0.51100000000E-03 0.  1.
         11    1    4    4    0    0  0.34744066311E-01 -0.18020645512E-01 -0.26147232680E-01  0.47072632243E-01  0.51100000000E-03 0. -1.
</event>
<event>
 8    1  0.1071333E+005  0.1043930E+01  0.7957747E-01            NaN
         13   -1    0    0    0    0  0.00000000000E+00  0.00000000000E+00  0.74505805969E-08  0.10566000000E+00  0.10566000000E+00 0. -1.
     999900   -1    0    0    0    0 -0.00000000000E+00 -0.00000000000E+00 -0.74505805969E-08  0.93827000000E+00  0.93827000000E+00 0.  1.
     999902    2    1    2    0    0  0.13320233339E-01  0.14883176678E-01 -0.12908193937E-01  0.10201485149E+01  0.10198712827E+01 0.  0.
     999903    2    3    3    0    0 -0.89209366140E-01 -0.47112920651E-01  0.75602476017E-01  0.12762962233E+00  0.19890897811E-01 0.  0.
         14    1    1    2    0    0 -0.13320233339E-01 -0.14883176678E-01  0.12908193937E-01  0.23781485130E-01  0.00000000000E+00 0. -1.
     999901    1    3    3    0    0  0.10252959948E+00  0.61996097329E-01 -0.88510669954E-01  0.89251889254E+00  0.88000000000E+00 0. -1.
        -11    1    4    4    0    0 -0.35539696868E-01 -0.21239763471E-01  0.43064635933E-01  0.59741288861E-01  0.51100000000E-03 0.  1.
         11    1    4    4    0    0 -0.53669669272E-01 -0.25873157180E-01  0.32537840084E-01  0.67888333465E-01  0.51100000000E-03 0. -1.
</event>
<event>
 8    1  0.1071333E+005  0.1043930E+01  0.7957747E-01            NaN
         13   -1    0    0    0    0  0.00000000000E+00  0.00000000000E+00  0.74505805969E-08  0.10566000000E+00  0.10566000000E+00 0.  1.
     999900   -1    0    0    0    0 -0.00000000000E+00 -0.00000000000E+00 -0.74505805969E-08  0.93827000000E+00  0.93827000000E+00 0.  1.
     999902    2    1    2    0    0  0.23390904299E-01 -0.76640107207E-02  0.25087334270E-02  0.10191880274E+01  0.10188876631E+01 0.  0.
     999903    2    3    3    0    0  0.13476644651E-02  0.79479835917E-01  0.99722049329E-01  0.12928332284E+00  0.21232755938E-01 0.  0.
         14    1    1    2    0    0 -0.23390904299E-01  0.76640107207E-02 -0.25087334270E-02  0.24741972591E-01  0.00000000000E+00 0. -1.
     999901    1    3    3    0    0  0.22043239834E-01 -0.87143846638E-01 -0.97213315902E-01  0.88990470457E+00  0.88000000000E+00 0.  1.
        -11    1    4    4    0    0 -0.84834080986E-02  0.58287827180E-01  0.70631168316E-01  0.91969897624E-01  0.51100000000E-03 0. -1.
         11    1    4    4    0    0  0.98310725637E-02  0.21192008738E-01  0.29090881013E-01  0.37313425214E-01  0.51100000000E-03 0.  1.
</event>
<event>
 8    1  0.1071333E+005  0.1043930E+01  0.7957747E-01            NaN
         13   -1    0    0    0    0  0.00000000000E+00  0.00000000000E+00  0.74505805969E-08  0.10566000000E+00  0.10566000000E+00 0. -1.
     999900   -1    0    0    0    0 -0.00000000000E+00 -0.00000000000E+00 -0.74505805969E-08  0.93827000000E+00  0.93827000000E+00 0.  1.
     999902    2    1    2    0    0 -0.31370852463E-02 -0.14353692426E-01  0.16966825245E-01  0.10214857814E+01  0.10212391780E+01 0.  0.
     999903    2    3    3    0    0 -0.23272088765E-01  0.43162612694E-02 -0.12428757025E+00  0.12979817366E+00  0.28981813959E-01 0.  0.
         14    1    1    2    0    0  0.31370852463E-02  0.14353692426E-01 -0.16966825245E-01  0.22444218610E-01  0.00000000000E+00 0.  1.
     999901    1    3    3    0    0  0.20135003518E-01 -0.18669953696E-01  0.14125439549E+00  0.89168760773E+00  0.88000000000E+00 0. -1.
        -11    1    4    4    0    0  0.26717430376E-02 -0.81640764765E-02 -0.26875882387E-01  0.28219931443E-01  0.51100000000E-03 0. -1.
         11    1    4    4    0    0 -0.25943831802E-01  0.12480337746E-01 -0.97411687859E-01  0.10157824221E+00  0.51100000000E-03 0.  1.
</event>
<event>
 8    1  0.1071333E+005  0.1043930E+01  0.7957747E-01            NaN
         13   -1    0    0    0    0  0.00000000000E+00  0.00000000000E+00  0.74505805969E-08  0.10566000000E+00  0.10566000000E+00 0.  1.
     999900   -1    0    0    0    0 -0.00000000000E+00 -0.00000000000E+00 -0.74505805969E-08  0.93827000000E+00  0.93827000000E+00 0. -1.
     999902    2    1    2    0    0  0.71146819479E-02  0.43674866042E-02 -0.20639036643E-01  0.10216664991E+01  0.10214238943E+01 0.  0.
     999903    2    3    3    0    0  0.27150216062E-01 -0.48174637646E-01  0.11529797079E+00  0.12945521951E+00  0.20176764991E-01 0.  0.
         14    1    1    2    0    0 -0.71146819479E-02 -0.43674866042E-02  0.20639036643E-01  0.22263500893E-01  0.00000000000E+00 0.  1.
     999901    1    3    3    0    0 -0.20035534114E-01  0.52542124250E-01 -0.13593700743E+00  0.89221127960E+00  0.88000000000E+00 0. -1.
        -11    1    4    4    0    0  0.17447949677E-01 -0.31432432736E-01  0.51671915644E-01  0.62949795575E-01  0.51100000000E-03 0.  1.
         11    1    4    4    0    0  0.97022663847E-02 -0.16742204910E-01  0.63626055148E-01  0.66505423936E-01  0.51100000000E-03 0. -1.
</event>
<event>
 8    1  0.1071333E+005  0.1043930E+01  0.7957747E-01            NaN
         13   -1    0    0    0    0  0.00000000000E+00  0.00000000000E+00  0.74505805969E-08  0.10566000000E+00  0.10566000000E+00 0.  1.
     999900   -1    0    0    0    0 -0.00000000000E+00 -0.00000000000E+00 -0.74505805969E-08  0.93827000000E+00  0.93827000000E+00 0.  1.
     999902    2    1    2    0    0  0.16912916702E-01 -0.16251865955E-01 -0.39199312115E-02  0.10201490042E+01  0.10198717837E+01 0.  0.
     999903    2    3    3    0    0 -0.17637832671E-01  0.50140123902E-01 -0.11702540926E+00  0.12975892132E+00  0.17813087432E-01 0.  0.
         14    1    1    2    0    0 -0.16912916702E-01  0.16251865955E-01  0.39199312115E-02  0.23780995755E-01  0.00000000000E+00 0.  1.
     999901    1    3    3    0    0  0.34550749373E-01 -0.66391989858E-01  0.11310547805E+00  0.89039008292E+00  0.88000000000E+00 0. -1.
        -11    1    4    4    0    0 -0.21272607976E-01  0.42370286950E-01 -0.10098933459E+00  0.11156554974E+00  0.51100000000E-03 0.  1.
         11    1    4    4    0    0  0.36347753050E-02  0.77698369524E-02 -0.16036074674E-01  0.18193371588E-01  0.51100000000E-03 0. -1.
</event>
<event>
 8    1  0.1071333E+005  0.1043930E+01  0.7957747E-01            NaN
         13   -1    0    0    0    0  0.00000000000E+00  0.00000000000E+00  0.74505805969E-08  0.10566000000E+00  0.10566000000E+00 0.  1.
     999900   -1    0    0    0    0 -0.00000000000E+00 -0.00000000000E+00 -0.74505805969E-08  0.93827000000E+00  0.93827000000E+00 0.  1.
     999902    2    1    2    0    0  0.89287365302E-02 -0.21414121032E-01  0.74818979332E-03  0.10207169282E+01  0.10204529390E+01 0.  0.
     999903    2    3    3    0    0 -0.22001131029E-01 -0.12984856357E+00  0.77395333497E-02  0.13349454122E+00  0.20400807089E-01 0.  0.
         14    1    1    2    0    0 -0.89287365302E-02  0.21414121032E-01 -0.74818979332E-03  0.23213071825E-01  0.00000000000E+00 0.  1.
     999901    1    3    3    0    0  0.30929867560E-01  0.10843444254E+00 -0.69913435564E-02  0.88722238696E+00  0.88000000000E+00 0. -1.
        -11    1    4    4    0    0 -0.67970801156E-02 -0.42182156950E-01  0.12105299591E-01  0.44410967815E-01  0.51100000000E-03 0.  1.
         11    1    4    4    0    0 -0.15204050914E-01 -0.87666406621E-01 -0.43657662411E-02  0.89083573401E-01  0.51100000000E-03 0. -1.
</event>
<event>
 8    1  0.1071333E+005  0.1043930E+01  0.7957747E-01            NaN
         13   -1    0    0    0    0  0.00000000000E+00  0.00000000000E+00  0.74505805969E-08  0.10566000000E+00  0.10566000000E+00 0.  1.
     999900   -1    0    0    0    0 -0.00000000000E+00 -0.00000000000E+00 -0.74505805969E-08  0.93827000000E+00  0.93827000000E+00 0.  1.
     999902    2    1    2    0    0 -0.13863759256E-01  0.18933418110E-01  0.53791263075E-02  0.10198548439E+01  0.10195706398E+01 0.  0.
     999903    2    3    3    0    0 -0.10812045972E+00  0.22430226917E-01 -0.69005154114E-01  0.13169406203E+00  0.19709535510E-01 0.  0.
         14    1    1    2    0    0  0.13863759256E-01 -0.18933418110E-01 -0.53791263075E-02  0.24075156113E-01  0.00000000000E+00 0. -1.
     999901    1    3    3    0    0  0.94256700465E-01 -0.34968088073E-02  0.74384280421E-01  0.88816078186E+00  0.88000000000E+00 0. -1.
        -11    1    4    4    0    0 -0.28191613380E-01  0.10499862008E-01 -0.27866540270E-01  0.41009990914E-01  0.51100000000E-03 0.  1.
         11    1    4    4    0    0 -0.79928846341E-01  0.11930364909E-01 -0.41138613844E-01  0.90684071117E-01  0.51100000000E-03 0. -1.
</event>
<event>
 7    1  0.1071333E+005  0.1043930E+01  0.7957747E-01            NaN
         13   -1    0    0    0    0  0.00000000000E+00  0.00000000000E+00  0.74505805969E-08  0.10566000000E+00  0.10566000000E+00 0.  1.
     999900   -1    0    0    0    0 -0.00000000000E+00 -0.00000000000E+00 -0.74505805969E-08  0.93827000000E+00  0.93827000000E+00 0.  1.
     999903    2    1    2    0    0 -0.62135165235E-02 -0.55467879115E-01  0.98610484137E-01  0.11498191933E+00  0.19532557190E-01 0.  0.
         14    1    1    2    0    0  0.16086943969E-01  0.34348313331E-01 -0.25298721263E-01  0.45591903804E-01  0.00000000000E+00 0. -1.
     999901    1    1    2    0    0 -0.98734274454E-02  0.21119565784E-01 -0.73311762874E-01  0.88335617686E+00  0.88000000000E+00 0.  1.
        -11    1    3    3    0    0  0.70418345364E-02 -0.15794238904E-01  0.28574177690E-01  0.33403445449E-01  0.51100000000E-03 0. -1.
         11    1    3    3    0    0 -0.13255351060E-01 -0.39673640212E-01  0.70036306447E-01  0.81578473883E-01  0.51100000000E-03 0.  1.
</event>
<event>
 8    1  0.1071333E+005  0.1043930E+01  0.7957747E-01            NaN
         13   -1    0    0    0    0  0.00000000000E+00  0.00000000000E+00  0.74505805969E-08  0.10566000000E+00  0.10566000000E+00 0.  1.
     999900   -1    0    0    0    0 -0.00000000000E+00 -0.00000000000E+00 -0.74505805969E-08  0.93827000000E+00  0.93827000000E+00 0.  1.
     999902    2    1    2    0    0 -0.11089760632E-01 -0.20903511762E-01  0.25907747778E-02  0.10201255528E+01  0.10198477787E+01 0.  0.
     999903    2    3    3    0    0 -0.38174069612E-01  0.10498461331E+00 -0.57902350337E-01  0.12869928097E+00  0.27051693582E-01 0.  0.
         14    1    1    2    0    0  0.11089760632E-01  0.20903511762E-01 -0.25907747778E-02  0.23804447248E-01  0.00000000000E+00 0.  1.
     999901    1    3    3    0    0  0.27084308981E-01 -0.12588812507E+00  0.60493125115E-01  0.89142627178E+00  0.88000000000E+00 0. -1.
        -11    1    4    4    0    0 -0.30377814220E-01  0.65874222830E-01 -0.49826751428E-01  0.88006767405E-01  0.51100000000E-03 0.  1.
         11    1    4    4    0    0 -0.77962553920E-02  0.39110390484E-01 -0.80755989091E-02  0.40692513570E-01  0.51100000000E-03 0. -1.
</event>
<event>
 8    1  0.1071333E+005  0.1043930E+01  0.7957747E-01            NaN
         13   -1    0    0    0    0  0.00000000000E+00  0.00000000000E+00  0.74505805969E-08  0.10566000000E+00  0.10566000000E+00 0.  1.
     999900   -1    0    0    0    0 -0.00000000000E+00 -0.00000000000E+00 -0.74505805969E-08  0.93827000000E+00  0.93827000000E+00 0. -1.
     999902    2    1    2    0    0 -0.90053281439E-02 -0.74123168814E-02 -0.21550291928E-01  0.10194258481E+01  0.10191312999E+01 0.  0.
     999903    2    3    3    0    0  0.10080795090E+00 -0.70135910774E-01 -0.38435970553E-01  0.13022489693E+00  0.19997774965E-01 0.  0.
         14    1    1    2    0    0  0.90053281439E-02  0.74123168814E-02  0.21550291928E-01  0.24504151866E-01  0.00000000000E+00 0.  1.
     999901    1    3    3    0    0 -0.10981327904E+00  0.62723593892E-01  0.16885678625E-01  0.88920095121E+00  0.88000000000E+00 0.  1.
        -11    1    4    4    0    0  0.81945177941E-01 -0.64285583040E-01 -0.27853988027E-01  0.10781351559E+00  0.51100000000E-03 0. -1.
         11    1    4    4    0    0  0.18862772954E-01 -0.58503277339E-02 -0.10581982526E-01  0.22411381333E-01  0.51100000000E-03 0.  1.
</event>
<event>
 8    1  0.1071333E+005  0.1043930E+01  0.7957747E-01            NaN
         13   -1    0    0    0    0  0.00000000000E+00  0.00000000000E+00  0.74505805969E-08  0.10566000000E+00  0.10566000000E+00 0.  1.
     999900   -1    0    0    0    0 -0.00000000000E+00 -0.00000000000E+00 -0.74505805969E-08  0.93827000000E+00  0.93827000000E+00 0.  1.
     999902    2    1    2    0    0 -0.92689101955E-02  0.13777702976E-01  0.16897675331E-01  0.10202388787E+01  0.10199637741E+01 0.  0.
     999903    2    3    3    0    0  0.56583696604E-01  0.75807209328E-01 -0.86411276269E-01  0.12958913559E+00  0.19441905456E-01 0.  0.
         14    1    1    2    0    0  0.92689101955E-02 -0.13777702976E-01 -0.16897675331E-01  0.23691121271E-01  0.00000000000E+00 0.  1.
     999901    1    3    3    0    0 -0.65852606800E-01 -0.62029506352E-01  0.10330895160E+00  0.89064974314E+00  0.88000000000E+00 0. -1.
        -11    1    4    4    0    0  0.18814722777E-01  0.41123730116E-01 -0.42899958707E-01  0.62336366191E-01  0.51100000000E-03 0. -1.
         11    1    4    4    0    0  0.37768973827E-01  0.34683479213E-01 -0.43511317563E-01  0.67252769395E-01  0.51100000000E-03 0.  1.
</event>
<event>
 8    1  0.1071333E+005  0.1043930E+01  0.7957747E-01            NaN
         13   -1    0    0    0    0  0.00000000000E+00  0.00000000000E+00  0.74505805969E-08  0.10566000000E+00  0.10566000000E+00 0. -1.
     999900   -1    0    0    0    0 -0.00000000000E+00 -0.00000000000E+00 -0.74505805969E-08  0.93827000000E+00  0.93827000000E+00 0. -1.
     999902    2    1    2    0    0  0.13092292795E-01 -0.16418457248E-01  0.13803788451E-01  0.10187999693E+01  0.10184899896E+01 0.  0.
     999903    2    3    3    0    0  0.80109884859E-01  0.36753943525E-02  0.10113227328E+00  0.13171407445E+00  0.26263254437E-01 0.  0.
         14    1    1    2    0    0 -0.13092292795E-01  0.16418457248E-01 -0.13803788451E-01  0.25130030733E-01  0.00000000000E+00 0.  1.
     999901    1    3    3    0    0 -0.67017592064E-01 -0.20093851600E-01 -0.87328484832E-01  0.88708589482E+00  0.88000000000E+00 0. -1.
        -11    1    4    4    0    0  0.63313760226E-01 -0.23489304394E-02  0.61741153263E-01  0.88466834663E-01  0.51100000000E-03 0.  1.
         11    1    4    4    0    0  0.16796124633E-01  0.60243247919E-02  0.39391120020E-01  0.43247239788E-01  0.51100000000E-03 0. -1.
</event>
<event>
 8    1  0.1071333E+005  0.1043930E+01  0.7957747E-01            NaN
         13   -1    0    0    0    0  0.00000000000E+00  0.00000000000E+00  0.74505805969E-08  0.10566000000E+00  0.10566000000E+00 0.  1.
     999900   -1    0    0    0    0 -0.00000000000E+00 -0.00000000000E+00 -0.74505805969E-08  0.93827000000E+00  0.93827000000E+00 0.  1.
     999902    2    1    2    0    0  0.19400815183E-01  0.13314795376E-01 -0.20700406407E-02  0.10203088130E+01  0.10200353491E+01 0.  0.
     999903    2    3    3    0    0  0.90789413077E-01 -0.92335479974E-01 -0.21801772299E-02  0.13111911183E+00  0.20467289140E-01 0.  0.
         14    1    1    2    0    0 -0.19400815183E-01 -0.13314795376E-01  0.20700406407E-02  0.23621186972E-01  0.00000000000E+00 0. -1.
     999901    1    3    3    0    0 -0.71388597894E-01  0.10565027535E+00  0.11013658921E-03  0.88918970120E+00  0.88000000000E+00 0.  1.
        -11    1    4    4    0    0  0.10427064471E-01 -0.20293659388E-01  0.32666828896E-02  0.23054037020E-01  0.51100000000E-03 0.  1.
         11    1    4    4    0    0  0.80362348607E-01 -0.72041820586E-01 -0.54468601195E-02  0.10806507481E+00  0.51100000000E-03 0. -1.
</event>
<event>
 8    1  0.1071333E+005  0.1043930E+01  0.7957747E-01            NaN
         13   -1    0    0    0    0  0.00000000000E+00  0.00000000000E+00  0.74505805969E-08  0.10566000000E+00  0.10566000000E+00 0. -1.
     999900   -1    0    0    0    0 -0.00000000000E+00 -0.00000000000E+00 -0.74505805969E-08  0.93827000000E+00  0.93827000000E+00 0.  1.
     999902    2    1    2    0    0 -0.89374081375E-02  0.37792752908E-02  0.21444516905E-01  0.10203922114E+01  0.10201206976E+01 0.  0.
     999903    2    3    3    0    0  0.11629107582E+00  0.52097625414E-01 -0.13473400119E-01  0.12952965351E+00  0.18937310746E-01 0.  0.
         14    1    1    2    0    0  0.89374081375E-02 -0.37792752908E-02 -0.21444516905E-01  0.23537788580E-01  0.00000000000E+00 0.  1.
     999901    1    3    3    0    0 -0.12522848396E+00 -0.48318350124E-01  0.34917917024E-01  0.89086255791E+00  0.88000000000E+00 0. -1.
        -11    1    4    4    0    0  0.10385534033E+00  0.42451043530E-01 -0.67287479713E-02  0.11239911024E+00  0.51100000000E-03 0. -1.
         11    1    4    4    0    0  0.12435735493E-01  0.96465818841E-02 -0.67446521474E-02  0.17130543275E-01  0.51100000000E-03 0.  1.
</event>
<event>
 8    1  0.1071333E+005  0.1043930E+01  0.7957747E-01            NaN
         13   -1    0    0    0    0  0.00000000000E+00  0.00000000000E+00  0.74505805969E-08  0.10566000000E+00  0.10566000000E+00 0.  1.
     999900   -1    0    0    0    0 -0.00000000000E+00 -0.00000000000E+00 -0.74505805969E-08  0.93827000000E+00  0.93827000000E+00 0.  1.
     999902    2    1    2    0    0  0.96638910503E-02 -0.89736910632E-03  0.21642056642E-01  0.10202113433E+01  0.10199355912E+01 0.  0.
     999903    2    3    3    0    0  0.12959127440E+00  0.85216698596E-02 -0.60292679067E-02  0.13159612970E+00  0.20363497322E-01 0.  0.
         14    1    1    2    0    0 -0.96638910503E-02  0.89736910632E-03 -0.21642056642E-01  0.23718656733E-01  0.00000000000E+00 0. -1.
     999901    1    3    3    0    0 -0.11992738335E+00 -0.94190389659E-02  0.27671324549E-01  0.88861521356E+00  0.88000000000E+00 0. -1.
        -11    1    4    4    0    0  0.11805724143E+00  0.11288142207E-01 -0.74015447862E-03  0.11859908667E+00  0.51100000000E-03 0.  1.
         11    1    4    4    0    0  0.11534032972E-01 -0.27664723478E-02 -0.52891134281E-02  0.12997043037E-01  0.51100000000E-03 0. -1.
</event>
<event>
 8    1  0.1071333E+005  0.1043930E+01  0.7957747E-01            NaN
         13   -1    0    0    0    0  0.00000000000E+00  0.00000000000E+00  0.74505805969E-08  0.10566000000E+00  0.10566000000E+00 0. -1.
     999900   -1    0    0    0    0 -0.00000000000E+00 -0.00000000000E+00 -0.74505805969E-08  0.93827000000E+00  0.93827000000E+00 0.  1.
     999902    2    1    2    0    0 -0.34861201267E-02  0.24689572239E-01 -0.37281220208E-02  0.10187183578E+01  0.10184063362E+01 0.  0.
     999903    2    3    3    0    0 -0.15081046266E-01  0.13001617479E+00  0.42532522319E-02  0.13232575972E+00  0.18983489362E-01 0.  0.
         14    1    1    2    0    0  0.34861201267E-02 -0.24689572239E-01  0.37281220208E-02  0.25211642245E-01  0.00000000000E+00 0. -1.
     999901    1    3    3    0    0  0.11594926139E-01 -0.10532660255E+00 -0.79813742527E-02  0.88639259804E+00  0.88000000000E+00 0.  1.
        -11    1    4    4    0    0  0.89384265517E-03  0.37085591909E-01  0.80147977230E-02  0.37955739823E-01  0.51100000000E-03 0.  1.
         11    1    4    4    0    0 -0.15974888921E-01  0.92930582877E-01 -0.37615454911E-02  0.94370019897E-01  0.51100000000E-03 0. -1.
</event>
<event>
 8    1  0.1071333E+005  0.1043930E+01  0.7957747E-01            NaN
         13   -1    0    0    0    0  0.00000000000E+00  0.00000000000E+00  0.74505805969E-08  0.10566000000E+00  0.10566000000E+00 0.  1.
     999900   -1    0    0    0    0 -0.00000000000E+00 -0.00000000000E+00 -0.74505805969E-08  0.93827000000E+00  0.93827000000E+00 0. -1.
     999902    2    1    2    0    0  0.17255273052E-01  0.27883684932E-02 -0.16104688141E-01  0.10201627867E+01  0.10198858912E+01 0.  0.
     999903    2    3    3    0    0  0.11014375929E+00 -0.52116388278E-01  0.43432033816E-01  0.13157546718E+00  0.24041554940E-01 0.  0.
         14    1    1    2    0    0 -0.17255273052E-01 -0.27883684932E-02  0.16104688141E-01  0.23767213280E-01  0.00000000000E+00 0.  1.
     999901    1    3    3    0    0 -0.92888486237E-01  0.54904756772E-01 -0.59536721958E-01  0.88858731954E+00  0.88000000000E+00 0. -1.
        -11    1    4    4    0    0  0.28843299836E-01 -0.27755586622E-02  0.12578733653E-01  0.31593121603E-01  0.51100000000E-03 0. -1.
         11    1    4    4    0    0  0.81300459453E-01 -0.49340829616E-01  0.30853300163E-01  0.99982345574E-01  0.51100000000E-03 0.  1.
</event>
<event>
 8    1  0.1071333E+005  0.1043930E+01  0.7957747E-01            NaN
         13   -1    0    0    0    0  0.00000000000E+00  0.00000000000E+00  0.74505805969E-08  0.10566000000E+00  0.10566000000E+00 0. -1.
     999900   -1    0    0    0    0 -0.00000000000E+00 -0.00000000000E+00 -0.74505805969E-08  0.93827000000E+00  0.93827000000E+00 0.  1.
     999902    2    1    2    0    0 -0.15112187299E-01  0.12694180383E-01  0.12972221074E-01  0.10203122325E+01  0.10200388487E+01 0.  0.
     999903    2    3    3    0    0 -0.10365519735E+00 -0.12082227148E-01 -0.76655060025E-01  0.13099407545E+00  0.19825978551E-01 0.  0.
         14    1    1    2    0    0  0.15112187299E-01 -0.12694180383E-01 -0.12972221074E-01  0.23617767468E-01  0.00000000000E+00 0.  1.
     999901    1    3    3    0    0  0.88543010049E-01  0.24776407531E-01  0.89627281099E-01  0.88931815708E+00  0.88000000000E+00 0. -1.
        -11    1    4    4    0    0 -0.62792891153E-01 -0.15883368624E-01 -0.52454549007E-01  0.83348481754E-01  0.51100000000E-03 0.  1.
         11    1    4    4    0    0 -0.40862306195E-01  0.38011414765E-02 -0.24200511018E-01  0.47645593696E-01  0.51100000000E-03 0. -1.
</event>
<event>
 8    1  0.1071333E+005  0.1043930E+01  0.7957747E-01            NaN
         13   -1    0    0    0    0  0.00000000000E+00  0.00000000000E+00  0.74505805969E-08  0.10566000000E+00  0.10566000000E+00 0. -1.
     999900   -1    0    0    0    0 -0.00000000000E+00 -0.00000000000E+00 -0.74505805969E-08  0.93827000000E+00  0.93827000000E+00 0.  1.
     999902    2    1    2    0    0 -0.17264271075E-01  0.59169283225E-02 -0.13024379778E-01  0.10215090374E+01  0.10212629504E+01 0.  0.
     999903    2    3    3    0    0 -0.18683822919E-02  0.96523297083E-01 -0.90249110946E-01  0.13335915894E+00  0.17875276650E-01 0.  0.
         14    1    1    2    0    0  0.17264271075E-01 -0.59169283225E-02  0.13024379778E-01  0.22420962627E-01  0.00000000000E+00 0. -1.
     999901    1    3    3    0    0 -0.15395888783E-01 -0.90606368761E-01  0.77224731168E-01  0.88814987843E+00  0.88000000000E+00 0. -1.
        -11    1    4    4    0    0  0.17491163169E-02  0.70923828757E-01 -0.75439367549E-01  0.10355968419E+00  0.51100000000E-03 0.  1.
         11    1    4    4    0    0 -0.36174986087E-02  0.25599468326E-01 -0.14809743397E-01  0.29799474748E-01  0.51100000000E-03 0. -1.
</event>
<event>
 8    1  0.1071333E+005  0.1043930E+01  0.7957747E-01            NaN
         13   -1    0    0    0    0  0.00000000000E+00  0.00000000000E+00  0.74505805969E-08  0.10566000000E+00  0.10566000000E+00 0.  1.
     999900   -1    0    0    0    0 -0.00000000000E+00 -0.00000000000E+00 -0.74505805969E-08  0.93827000000E+00  0.93827000000E+00 0. -1.
     999902    2    1    2    0    0  0.15245405910E-01 -0.30674335474E-02 -0.18093543929E-01  0.10200719221E+01  0.10197928801E+01 0.  0.
     999903    2    3    3    0    0 -0.81374839889E-02 -0.24496615305E-01  0.12375896392E+00  0.12814810059E+00  0.20960718662E-01 0.  0.
         14    1    1    2    0    0 -0.15245405910E-01  0.30674335474E-02  0.18093543929E-01  0.23858077916E-01  0.00000000000E+00 0.  1.
     999901    1    3    3    0    0  0.23382889899E-01  0.21429181758E-01 -0.14185250785E+00  0.89192382150E+00  0.88000000000E+00 0. -1.
        -11    1    4    4    0    0  0.34956657302E-02 -0.14833285923E-01  0.36030689915E-01  0.39124388646E-01  0.51100000000E-03 0. -1.
         11    1    4    4    0    0 -0.11633149719E-01 -0.96633293818E-02  0.87728274004E-01  0.89023711941E-01  0.51100000000E-03 0.  1.
</event>
<event>
 8    1  0.1071333E+005  0.1043930E+01  0.7957747E-01            NaN
         13   -1    0    0    0    0  0.00000000000E+00  0.00000000000E+00  0.74505805969E-08  0.10566000000E+00  0.10566000000E+00 0.  1.
     999900   -1    0    0    0    0 -0.00000000000E+00 -0.00000000000E+00 -0.74505805969E-08  0.93827000000E+00  0.93827000000E+00 0.  1.
     999902    2    1    2    0    0 -0.36871909537E-02  0.18586818638E-02  0.22365830328E-01  0.10211861999E+01  0.10209328942E+01 0.  0.
     999903    2    3    3    0    0  0.76933052170E-01 -0.27865856928E-01 -0.97707976117E-01  0.12888530292E+00  0.19219058601E-01 0.  0.
         14    1    1    2    0    0  0.36871909537E-02 -0.18586818638E-02 -0.22365830328E-01  0.22743800071E-01  0.00000000000E+00 0. -1.
     999901    1    3    3    0    0 -0.80620243124E-01  0.29724538792E-01  0.12007380644E+00  0.89230089701E+00  0.88000000000E+00 0. -1.
        -11    1    4    4    0    0  0.11433855774E-01 -0.22496040751E-02 -0.54461531112E-02  0.12873052515E-01  0.51100000000E-03 0. -1.
         11    1    4    4    0    0  0.65499196397E-01 -0.25616252853E-01 -0.92261823005E-01  0.11601225041E+00  0.51100000000E-03 0.  1.
</event>
<event>
 8    1  0.1071333E+005  0.1043930E+01  0.7957747E-01            NaN
         13   -1    0    0    0    0  0.00000000000E+00  0.00000000000E+00  0.74505805969E-08  0.10566000000E+00  0.10566000000E+00 0. -1.
     999900   -1    0    0    0    0 -0.00000000000E+00 -0.00000000000E+00 -0.74505805969E-08  0.93827000000E+00  0.93827000000E+00 0.  1.
     999902    2    1    2    0    0  0.22568814192E-01 -0.27382262274E-02 -0.63505133603E-02  0.10203253759E+01  0.10200522999E+01 0.  0.
     999903    2    3    3    0    0 -0.11095925886E+00 -0.61358508289E-01 -0.61785758308E-02  0.12832419135E+00  0.18764317681E-01 0.  0.
         14    1    1    2    0    0 -0.22568814192E-01  0.27382262274E-02  0.63505133603E-02  0.23604624056E-01  0.00000000000E+00 0. -1.
     999901    1    3    3    0    0  0.13352807306E+00  0.58620282062E-01 -0.17193752954E-03  0.89200118460E+00  0.88000000000E+00 0. -1.
        -11    1    4    4    0    0 -0.31986719915E-01 -0.16086157090E-01 -0.10115424548E-01  0.37208838139E-01  0.51100000000E-03 0. -1.
         11    1    4    4    0    0 -0.78972538949E-01 -0.45272351198E-01  0.39368487175E-02  0.91115353207E-01  0.51100000000E-03 0.  1.
</event>
<event>
 8    1  0.1071333E+005  0.1043930E+01  0.7957747E-01            NaN
         13   -1    0    0    0    0  0.00000000000E+00  0.00000000000E+00  0.74505805969E-08  0.10566000000E+00  0.10566000000E+00 0.  1.
     999900   -1    0    0    0    0 -0.00000000000E+00 -0.00000000000E+00 -0.74505805969E-08  0.93827000000E+00  0.93827000000E+00 0.  1.
     999902    2    1    2    0    0  0.23105600242E-01 -0.23782828770E-02  0.47738113818E-02  0.10202168335E+01  0.10199412106E+01 0.  0.
     999903    2    3    3    0    0  0.11015544996E+00  0.69370275024E-01  0.25522000981E-01  0.13277330328E+00  0.55605139977E-02 0.  0.
         14    1    1    2    0    0 -0.23105600242E-01  0.23782828770E-02 -0.47738113818E-02  0.23713166535E-01  0.00000000000E+00 0.  1.
     999901    1    3    3    0    0 -0.87049849721E-01 -0.71748557901E-01 -0.20748189600E-01  0.88744353019E+00  0.88000000000E+00 0.  1.
        -11    1    4    4    0    0  0.71105757986E-01  0.47373217223E-01  0.18141727306E-01  0.87347775698E-01  0.51100000000E-03 0.  1.
         11    1    4    4    0    0  0.39049691977E-01  0.21997057801E-01  0.73802736757E-02  0.45425527581E-01  0.51100000000E-03 0. -1.
</event>
<event>
 8    1  0.1071333E+005  0.1043930E+01  0.7957747E-01            NaN
         13   -1    0    0    0    0  0.00000000000E+00  0.00000000000E+00  0.74505805969E-08  0.10566000000E+00  0.10566000000E+00 0.  1.
     999900   -1    0    0    0    0 -0.00000000000E+00 -0.00000000000E+00 -0.74505805969E-08  0.93827000000E+00  0.93827000000E+00 0.  1.
     999902    2    1    2    0    0 -0.21160941474E-01  0.44279188224E-02 -0.12360308278E-01  0.10190268048E+01  0.10187224646E+01 0.  0.
     999903    2    3    3    0    0 -0.20194139648E-01 -0.35634006843E-01  0.11996954733E+00  0.12823104637E+00  0.19311220760E-01 0.  0.
         14    1    1    2    0    0  0.21160941474E-01 -0.44279188224E-02  0.12360308278E-01  0.24903195174E-01  0.00000000000E+00 0.  1.
     999901    1    3    3    0    0 -0.96680182532E-03  0.40061925665E-01 -0.13232985561E+00  0.89079575845E+00  0.88000000000E+00 0.  1.
        -11    1    4    4    0    0 -0.12417375333E-01 -0.13181952152E-01  0.28879843564E-01  0.34091957380E-01  0.51100000000E-03 0. -1.
         11    1    4    4    0    0 -0.77767643149E-02 -0.22452054691E-01  0.91089703767E-01  0.94139088993E-01  0.51100000000E-03 0.  1.
</event>
<event>
 8    1  0.1071333E+005  0.1043930E+01  0.7957747E-01            NaN
         13   -1    0    0    0    0  0.00000000000E+00  0.00000000000E+00  0.74505805969E-08  0.10566000000E+00  0.10566000000E+00 0. -1.
     999900   -1    0    0    0    0 -0.00000000000E+00 -0.00000000000E+00 -0.74505805969E-08  0.93827000000E+00  0.93827000000E+00 0. -1.
     999902    2    1    2    0    0 -0.40138953053E-02 -0.22206216994E-01  0.16121683468E-01  0.10161966968E+01  0.10158181877E+01 0.  0.
     999903    2    3    3    0    0 -0.63719002171E-01  0.45410976903E-01 -0.94464063038E-01  0.12470020660E+00  0.22459168736E-01 0.  0.
         14    1    1    2    0    0  0.40138953053E-02  0.22206216994E-01 -0.16121683468E-01  0.27733303203E-01  0.00000000000E+00 0.  1.
     999901    1    3    3    0    0  0.59705106866E-01 -0.67617193897E-01  0.11058574651E+00  0.89149649019E+00  0.88000000000E+00 0.  1.
        -11    1    4    4    0    0 -0.10330622858E-01  0.86742710502E-02 -0.31817875511E-01  0.34563030393E-01  0.51100000000E-03 0. -1.
         11    1    4    4    0    0 -0.53388379313E-01  0.36736705853E-01 -0.62646187527E-01  0.90137176211E-01  0.51100000000E-03 0.  1.
</event>
<event>
 8    1  0.1071333E+005  0.1043930E+01  0.7957747E-01            NaN
         13   -1    0    0    0    0  0.00000000000E+00  0.00000000000E+00  0.74505805969E-08  0.10566000000E+00  0.10566000000E+00 0.  1.
     999900   -1    0    0    0    0 -0.00000000000E+00 -0.00000000000E+00 -0.74505805969E-08  0.93827000000E+00  0.93827000000E+00 0.  1.
     999902    2    1    2    0    0 -0.24019950934E-01  0.25687093937E-02 -0.51846609173E-02  0.10192229763E+01  0.10189234703E+01 0.  0.
     999903    2    3    3    0    0  0.40833470412E-01  0.11023241675E+00  0.48591384203E-01  0.12866736144E+00  0.19380641690E-01 0.  0.
         14    1    1    2    0    0  0.24019950934E-01 -0.25687093937E-02  0.51846609173E-02  0.24707023691E-01  0.00000000000E+00 0. -1.
     999901    1    3    3    0    0 -0.64853421346E-01 -0.10766370736E+00 -0.53776045120E-01  0.89055561487E+00  0.88000000000E+00 0. -1.
        -11    1    4    4    0    0  0.26547085613E-01  0.91238563669E-01  0.34872752703E-01  0.10122051796E+00  0.51100000000E-03 0.  1.
         11    1    4    4    0    0  0.14286384799E-01  0.18993853085E-01  0.13718631500E-01  0.27446843477E-01  0.51100000000E-03 0. -1.
</event>
<event>
 8    1  0.1071333E+005  0.1043930E+01  0.7957747E-01            NaN
         13   -1    0    0    0    0  0.00000000000E+00  0.00000000000E+00  0.74505805969E-08  0.10566000000E+00  0.10566000000E+00 0.  1.
     999900   -1    0    0    0    0 -0.00000000000E+00 -0.00000000000E+00 -0.74505805969E-08  0.93827000000E+00  0.93827000000E+00 0. -1.
     999902    2    1    2    0    0  0.13911675831E-01  0.11713701951E-01 -0.14452838051E-01  0.10207000610E+01  0.10204356837E+01 0.  0.
     999903    2    3    3    0    0  0.29770825774E-01 -0.10654134382E+00 -0.66885321723E-01  0.13110187428E+00  0.21833349875E-01 0.  0.
         14    1    1    2    0    0 -0.13911675831E-01 -0.11713701951E-01  0.14452838051E-01  0.23229938992E-01  0.00000000000E+00 0. -1.
     999901    1    3    3    0    0 -0.15859149943E-01  0.11825504577E+00  0.52432483671E-01  0.88959818673E+00  0.88000000000E+00 0.  1.
        -11    1    4    4    0    0 -0.73207310106E-03 -0.32263245047E-01 -0.15853414011E-01  0.35958931697E-01  0.51100000000E-03 0. -1.
         11    1    4    4    0    0  0.30502898875E-01 -0.74278098775E-01 -0.51031907712E-01  0.95142942582E-01  0.51100000000E-03 0.  1.
</event>
<event>
 8    1  0.1071333E+005  0.1043930E+01  0.7957747E-01            NaN
         13   -1    0    0    0    0  0.00000000000E+00  0.00000000000E+00  0.74505805969E-08  0.10566000000E+00  0.10566000000E+00 0.  1.
     999900   -1    0    0    0    0 -0.00000000000E+00 -0.00000000000E+00 -0.74505805969E-08  0.93827000000E+00  0.93827000000E+00 0.  1.
     999902    2    1    2    0    0  0.14915675192E-01  0.88121683638E-02 -0.17782659212E-01  0.10191035092E+01  0.10188010639E+01 0.  0.
     999903    2    3    3    0    0  0.72242879153E-01 -0.98394293859E-01  0.37020269118E-01  0.12905688411E+00  0.19613983718E-01 0.  0.
         14    1    1    2    0    0 -0.14915675192E-01 -0.88121683638E-02  0.17782659212E-01  0.24826490818E-01  0.00000000000E+00 0.  1.
     999901    1    3    3    0    0 -0.57327203961E-01  0.10720646222E+00 -0.54802928330E-01  0.89004662508E+00  0.88000000000E+00 0. -1.
        -11    1    4    4    0    0  0.38700195289E-01 -0.67753133791E-01  0.20114093725E-01  0.80579340661E-01  0.51100000000E-03 0.  1.
         11    1    4    4    0    0  0.33542683863E-01 -0.30641160068E-01  0.16906175393E-01  0.48477543445E-01  0.51100000000E-03 0. -1.
</event>
<event>
 8    1  0.1071333E+005  0.1043930E+01  0.7957747E-01            NaN
         13   -1    0    0    0    0  0.00000000000E+00  0.00000000000E+00  0.74505805969E-08  0.10566000000E+00  0.10566000000E+00 0.  1.
     999900   -1    0    0    0    0 -0.00000000000E+00 -0.00000000000E+00 -0.74505805969E-08  0.93827000000E+00  0.93827000000E+00 0.  1.
     999902    2    1    2    0    0  0.89190673157E-02  0.26115177244E-03 -0.21886443300E-01  0.10202945528E+01  0.10200207548E+01 0.  0.
     999903    2    3    3    0    0 -0.20571046152E-01  0.11101049771E+00 -0.65212607241E-01  0.13180581296E+00  0.19328467233E-01 0.  0.
         14    1    1    2    0    0 -0.89190673157E-02 -0.26115177244E-03  0.21886443300E-01  0.23635447158E-01  0.00000000000E+00 0.  1.
     999901    1    3    3    0    0  0.29490113468E-01 -0.11074934593E+00  0.43326163940E-01  0.88848873988E+00  0.88000000000E+00 0. -1.
        -11    1    4    4    0    0 -0.44108993810E-02  0.66510316717E-01 -0.44367784818E-01  0.80073964019E-01  0.51100000000E-03 0.  1.
         11    1    4    4    0    0 -0.16160146771E-01  0.44500180990E-01 -0.20844822422E-01  0.51731848939E-01  0.51100000000E-03 0. -1.
</event>
<event>
 8    1  0.1071333E+005  0.1043930E+01  0.7957747E-01            NaN
         13   -1    0    0    0    0  0.00000000000E+00  0.00000000000E+00  0.74505805969E-08  0.10566000000E+00  0.10566000000E+00 0. -1.
     999900   -1    0    0    0    0 -0.00000000000E+00 -0.00000000000E+00 -0.74505805969E-08  0.93827000000E+00  0.93827000000E+00 0. -1.
     999902    2    1    2    0    0  0.11643493674E-01  0.15308229723E-01  0.13579903499E-01  0.10203858580E+01  0.10201141959E+01 0.  0.
     999903    2    3    3    0    0 -0.58091308862E-01 -0.21588614484E-01 -0.11053221793E+00  0.12818176788E+00  0.19300931961E-01 0.  0.
         14    1    1    2    0    0 -0.11643493674E-01 -0.15308229723E-01 -0.13579903499E-01  0.23544141973E-01  0.00000000000E+00 0.  1.
     999901    1    3    3    0    0  0.69734802536E-01  0.36896844206E-01  0.12411212143E+00  0.89220409015E+00  0.88000000000E+00 0.  1.
        -11    1    4    4    0    0 -0.23867026759E-01 -0.19410769725E-03 -0.50262883924E-01  0.55644328242E-01  0.51100000000E-03 0.  1.
         11    1    4    4    0    0 -0.34224282103E-01 -0.21394506787E-01 -0.60269334006E-01  0.72537439634E-01  0.51100000000E-03 0. -1.
</event>
<event>
 8    1  0.1071333E+005  0.1043930E+01  0.7957747E-01            NaN
         13   -1    0    0    0    0  0.00000000000E+00  0.00000000000E+00  0.74505805969E-08  0.10566000000E+00  0.10566000000E+00 0. -1.
     999900   -1    0    0    0    0 -0.00000000000E+00 -0.00000000000E+00 -0.74505805969E-08  0.93827000000E+00  0.93827000000E+00 0.  1.
     999902    2    1    2    0    0 -0.38490420347E-02  0.22915478309E-01  0.56842283831E-02  0.10200083629E+01  0.10197278145E+01 0.  0.
     999903    2    3    3    0    0 -0.67768649946E-01  0.24377504918E-01  0.10859546720E+00  0.13170741338E+00  0.19157624616E-01 0.  0.
         14    1    1    2    0    0  0.38490420347E-02 -0.22915478309E-01 -0.56842283831E-02  0.23921637131E-01  0.00000000000E+00 0.  1.
     999901    1    3    3    0    0  0.63919607912E-01 -0.14620266095E-02 -0.10291123881E+00  0.88830094949E+00  0.88000000000E+00 0.  1.
        -11    1    4    4    0    0 -0.25273037380E-01  0.79182658946E-02  0.57073151893E-01  0.62920832330E-01  0.51100000000E-03 0.  1.
         11    1    4    4    0    0 -0.42495612567E-01  0.16459239024E-01  0.51522315304E-01  0.68786581045E-01  0.51100000000E-03 0. -1.
</event>
<event>
 8    1  0.1071333E+005  0.1043930E+01  0.7957747E-01            NaN
         13   -1    0    0    0    0  0.00000000000E+00  0.00000000000E+00  0.74505805969E-08  0.10566000000E+00  0.10566000000E+00 0. -1.
     999900   -1    0    0    0    0 -0.00000000000E+00 -0.00000000000E+00 -0.74505805969E-08  0.93827000000E+00  0.93827000000E+00 0. -1.
     999902    2    1    2    0    0 -0.21460953987E-01  0.10757818565E-01 -0.29206575900E-02  0.10197466701E+01  0.10194598754E+01 0.  0.
     999903    2    3    3    0    0  0.95296689219E-01  0.17677071099E-01 -0.81839416783E-01  0.12850686290E+00  0.20552028013E-01 0.  0.
         14    1    1    2    0    0  0.21460953987E-01 -0.10757818565E-01  0.29206575900E-02  0.24183329942E-01  0.00000000000E+00 0. -1.
     999901    1    3    3    0    0 -0.11675764321E+00 -0.69192525343E-02  0.78918759193E-01  0.89123980715E+00  0.88000000000E+00 0.  1.
        -11    1    4    4    0    0  0.97097106234E-02 -0.43772727958E-02 -0.98109628785E-02  0.14489827850E-01  0.51100000000E-03 0. -1.
         11    1    4    4    0    0  0.85586978596E-01  0.22054343895E-01 -0.72028453904E-01  0.11401703505E+00  0.51100000000E-03 0.  1.
</event>
<event>
 8    1  0.1071333E+005  0.1043930E+01  0.7957747E-01            NaN
         13   -1    0    0    0    0  0.00000000000E+00  0.00000000000E+00  0.74505805969E-08  0.10566000000E+00  0.10566000000E+00 0. -1.
     999900   -1    0    0    0    0 -0.00000000000E+00 -0.00000000000E+00 -0.74505805969E-08  0.93827000000E+00  0.93827000000E+00 0.  1.
     999902    2    1    2    0    0 -0.25519285088E-01 -0.51116513549E-02  0.16387746972E-02  0.10178522610E+01  0.10175181456E+01 0.  0.
     999903    2    3    3    0    0 -0.23567445563E-01  0.92422767322E-01  0.84081043567E-01  0.12863153459E+00  0.19469396359E-01 0.  0.
         14    1    1    2    0    0  0.25519285088E-01  0.51116513549E-02 -0.16387746972E-02  0.26077739041E-01  0.00000000000E+00 0. -1.
     999901    1    3    3    0    0 -0.19518395245E-02 -0.97534418677E-01 -0.82442268870E-01  0.88922072637E+00  0.88000000000E+00 0. -1.
        -11    1    4    4    0    0 -0.49777212099E-02  0.54005122275E-01  0.52994469609E-01  0.75828793149E-01  0.51100000000E-03 0. -1.
         11    1    4    4    0    0 -0.18589724353E-01  0.38417645046E-01  0.31086573958E-01  0.52802741443E-01  0.51100000000E-03 0.  1.
</event>
<event>
 8    1  0.1071333E+005  0.1043930E+01  0.7957747E-01            NaN
         13   -1    0    0    0    0  0.00000000000E+00  0.00000000000E+00  0.74505805969E-08  0.10566000000E+00  0.10566000000E+00 0. -1.
     999900   -1    0    0    0    0 -0.00000000000E+00 -0.00000000000E+00 -0.74505805969E-08  0.93827000000E+00  0.93827000000E+00 0. -1.
     999902    2    1    2    0    0  0.90043806969E-02 -0.22326962353E-01  0.26398636456E-02  0.10197113915E+01  0.10194237494E+01 0.  0.
     999903    2    3    3    0    0 -0.85223946922E-01  0.55587989826E-01  0.75940476213E-01  0.12823918365E+00  0.18032929675E-01 0.  0.
         14    1    1    2    0    0 -0.90043806969E-02  0.22326962353E-01 -0.26398636456E-02  0.24218608542E-01  0.00000000000E+00 0.  1.
     999901    1    3    3    0    0  0.94228327619E-01 -0.77914952179E-01 -0.73300612568E-01  0.89147220781E+00  0.88000000000E+00 0. -1.
        -11    1    4    4    0    0 -0.38632731594E-01  0.14710151097E-01  0.31278725132E-01  0.51841067337E-01  0.51100000000E-03 0. -1.
         11    1    4    4    0    0 -0.46591215328E-01  0.40877838729E-01  0.44661751082E-01  0.76398116309E-01  0.51100000000E-03 0.  1.
</event>
<event>
 8    1  0.1071333E+005  0.1043930E+01  0.7957747E-01            NaN
         13   -1    0    0    0    0  0.00000000000E+00  0.00000000000E+00  0.74505805969E-08  0.10566000000E+00  0.10566000000E+00 0.  1.
     999900   -1    0    0    0    0 -0.00000000000E+00 -0.00000000000E+00 -0.74505805969E-08  0.93827000000E+00  0.93827000000E+00 0. -1.
     999902    2    1    2    0    0 -0.14008054169E-01 -0.18826675114E-01  0.33647607212E-03  0.10204612443E+01  0.10201913392E+01 0.  0.
     999903    2    3    3    0    0  0.98958296408E-01  0.63655650202E-01  0.47537067430E-01  0.12816497839E+00  0.17936071907E-01 0.  0.
         14    1    1    2    0    0  0.14008054169E-01  0.18826675114E-01 -0.33647607212E-03  0.23468755689E-01  0.00000000000E+00 0. -1.
     999901    1    3    3    0    0 -0.11296635058E+00 -0.82482325315E-01 -0.47200591358E-01  0.89229626592E+00  0.88000000000E+00 0. -1.
        -11    1    4    4    0    0  0.40247167520E-01  0.35517662962E-01  0.25496474090E-01  0.59427857001E-01  0.51100000000E-03 0.  1.
         11    1    4    4    0    0  0.58711128888E-01  0.28137987239E-01  0.22040593340E-01  0.68737121389E-01  0.51100000000E-03 0. -1.
</event>
<event>
 8    1  0.1071333E+005  0.1043930E+01  0.7957747E-01            NaN
         13   -1    0    0    0    0  0.00000000000E+00  0.00000000000E+00  0.74505805969E-08  0.10566000000E+00  0.10566000000E+00 0. -1.
     999900   -1    0    0    0    0 -0.00000000000E+00 -0.00000000000E+00 -0.74505805969E-08  0.93827000000E+00  0.93827000000E+00 0. -1.
     999902    2    1    2    0    0  0.37066879552E-02 -0.39845969940E-02  0.23145282435E-01  0.10201535274E+01  0.10198764135E+01 0.  0.
     999903    2    3    3    0    0 -0.12817667160E+00  0.79223556113E-02  0.16298114668E-03  0.12994951586E+00  0.19870260411E-01 0.  0.
         14    1    1    2    0    0 -0.37066879552E-02  0.39845969940E-02 -0.23145282435E-01  0.23776472569E-01  0.00000000000E+00 0.  1.
     999901    1    3    3    0    0  0.13188335955E+00 -0.11906952605E-01  0.22982301289E-01  0.89020401157E+00  0.88000000000E+00 0.  1.
        -11    1    4    4    0    0 -0.63408586141E-01 -0.41157553322E-02 -0.57594148609E-02  0.63804547008E-01  0.51100000000E-03 0. -1.
         11    1    4    4    0    0 -0.64768085456E-01  0.12038110944E-01  0.59223960076E-02  0.66144968850E-01  0.51100000000E-03 0.  1.
</event>
<event>
 8    1  0.1071333E+005  0.1043930E+01  0.7957747E-01            NaN
         13   -1    0    0    0    0  0.00000000000E+00  0.00000000000E+00  0.74505805969E-08  0.10566000000E+00  0.10566000000E+00 0.  1.
     999900   -1    0    0    0    0 -0.00000000000E+00 -0.00000000000E+00 -0.74505805969E-08  0.93827000000E+00  0.93827000000E+00 0.  1.
     999902    2    1    2    0    0 -0.93031602787E-02 -0.23204123381E-01  0.23952575013E-03  0.10189292499E+01  0.10186224908E+01 0.  0.
     999903    2    3    3    0    0  0.29884299685E-01  0.11992149097E+00  0.17080008646E-01  0.12634636839E+00  0.19935966124E-01 0.  0.
         14    1    1    2    0    0  0.93031602787E-02  0.23204123381E-01 -0.23952575013E-03  0.25000750102E-01  0.00000000000E+00 0. -1.
     999901    1    3    3    0    0 -0.39187459964E-01 -0.14312561435E+00 -0.16840482896E-01  0.89258288151E+00  0.88000000000E+00 0.  1.
        -11    1    4    4    0    0  0.11880481575E-01  0.78067171033E-01  0.45926793179E-02  0.79101092659E-01  0.51100000000E-03 0. -1.
         11    1    4    4    0    0  0.18003818110E-01  0.41854319937E-01  0.12487329328E-01  0.47245275728E-01  0.51100000000E-03 0.  1.
</event>
<event>
 8    1  0.1071333E+005  0.1043930E+01  0.7957747E-01            NaN
         13   -1    0    0    0    0  0.00000000000E+00  0.00000000000E+00  0.74505805969E-08  0.10566000000E+00  0.10566000000E+00 0. -1.
     999900   -1    0    0    0    0 -0.00000000000E+00 -0.00000000000E+00 -0.74505805969E-08  0.93827000000E+00  0.93827000000E+00 0.  1.
     999902    2    1    2    0    0 -0.15924620430E-01  0.10188951084E-01 -0.13291432301E-01  0.10208200361E+01  0.10205584136E+01 0.  0.
     999903    2    3    3    0    0  0.61285271595E-01 -0.96658891200E-01 -0.57733820155E-01  0.12989189382E+00  0.20973419540E-01 0.  0.
         14    1    1    2    0    0  0.15924620430E-01 -0.10188951084E-01  0.13291432301E-01  0.23109963926E-01  0.00000000000E+00 0. -1.
     999901    1    3    3    0    0 -0.77209892025E-01  0.10684784228E+00  0.44442387853E-01  0.89092814226E+00  0.88000000000E+00 0. -1.
        -11    1    4    4    0    0  0.31186411931E-02 -0.23649677738E-03  0.34419631952E-03  0.31877022639E-02  0.51100000000E-03 0.  1.
         11    1    4    4    0    0  0.58166630402E-01 -0.96422394423E-01 -0.58078016474E-01  0.12670419155E+00  0.51100000000E-03 0. -1.
</event>
<event>
 8    1  0.1071333E+005  0.1043930E+01  0.7957747E-01            NaN
         13   -1    0    0    0    0  0.00000000000E+00  0.00000000000E+00  0.74505805969E-08  0.10566000000E+00  0.10566000000E+00 0.  1.
     999900   -1    0    0    0    0 -0.00000000000E+00 -0.00000000000E+00 -0.74505805969E-08  0.93827000000E+00  0.93827000000E+00 0. -1.
     999902    2    1    2    0    0  0.11676733781E-01  0.16774811584E-01 -0.11276222070E-01  0.10205870439E+01  0.10203200579E+01 0.  0.
     999903    2    3    3    0    0  0.10943844335E+00  0.50892383916E-01  0.50639722896E-01  0.13235568618E+00  0.19668210528E-01 0.  0.
         14    1    1    2    0    0 -0.11676733781E-01 -0.16774811584E-01  0.11276222070E-01  0.23342956103E-01  0.00000000000E+00 0.  1.
     999901    1    3    3    0    0 -0.97761709565E-01 -0.34117572332E-01 -0.61915944966E-01  0.88823135772E+00  0.88000000000E+00 0. -1.
        -11    1    4    4    0    0  0.32433630638E-01  0.22928363804E-01  0.22950461588E-01  0.45876301847E-01  0.51100000000E-03 0. -1.
         11    1    4    4    0    0  0.77004812708E-01  0.27964020113E-01  0.27689261308E-01  0.86479384328E-01  0.51100000000E-03 0.  1.
</event>
<event>
 8    1  0.1071333E+005  0.1043930E+01  0.7957747E-01            NaN
         13   -1    0    0    0    0  0.00000000000E+00  0.00000000000E+00  0.74505805969E-08  0.10566000000E+00  0.10566000000E+00 0.  1.
     999900   -1    0    0    0    0 -0.00000000000E+00 -0.00000000000E+00 -0.74505805969E-08  0.93827000000E+00  0.93827000000E+00 0.  1.
     999902    2    1    2    0    0 -0.11765851294E-01 -0.97904398074E-02 -0.21690806734E-01  0.10173823247E+01  0.10170358969E+01 0.  0.
     999903    2    3    3    0    0 -0.12248642774E+00  0.24676491346E-01  0.22955470189E-01  0.12865272270E+00  0.20315394201E-01 0.  0.
         14    1    1    2    0    0  0.11765851294E-01  0.97904398074E-02  0.21690806734E-01  0.26547675323E-01  0.00000000000E+00 0.  1.
     999901    1    3    3    0    0  0.11072057644E+00 -0.34466931154E-01 -0.44646276923E-01  0.88872960198E+00  0.88000000000E+00 0.  1.
        -11    1    4    4    0    0 -0.65296459824E-01  0.23436368884E-01  0.13183993183E-01  0.70618480933E-01  0.51100000000E-03 0. -1.
         11    1    4    4    0    0 -0.57189967911E-01  0.12401224628E-02  0.97714770065E-02  0.58034241765E-01  0.51100000000E-03 0.  1.
</event>
<event>
 8    1  0.1071333E+005  0.1043930E+01  0.7957747E-01            NaN
         13   -1    0    0    0    0  0.00000000000E+00  0.00000000000E+00  0.74505805969E-08  0.10566000000E+00  0.10566000000E+00 0.  1.
     999900   -1    0    0    0    0 -0.00000000000E+00 -0.00000000000E+00 -0.74505805969E-08  0.93827000000E+00  0.93827000000E+00 0. -1.
     999902    2    1    2    0    0  0.10999909764E-01 -0.31987644179E-02 -0.19688194560E-01  0.10211516086E+01  0.10208975231E+01 0.  0.
     999903    2    3    3    0    0 -0.62521565686E-02 -0.12596309667E+00 -0.34796674026E-01  0.13233386509E+00  0.19891006557E-01 0.  0.
         14    1    1    2    0    0 -0.10999909764E-01  0.31987644179E-02  0.19688194560E-01  0.22778391376E-01  0.00000000000E+00 0.  1.
     999901    1    3    3    0    0  0.17252066333E-01  0.12276433225E+00  0.15108479466E-01  0.88881774353E+00  0.88000000000E+00 0. -1.
        -11    1    4    4    0    0 -0.11817278271E-01 -0.10428944794E+00 -0.24959750021E-01  0.10788506504E+00  0.51100000000E-03 0.  1.
         11    1    4    4    0    0  0.55651217026E-02 -0.21673648737E-01 -0.98369240044E-02  0.24448800052E-01  0.51100000000E-03 0. -1.
</event>
<event>
 8    1  0.1071333E+005  0.1043930E+01  0.7957747E-01            NaN
         13   -1    0    0    0    0  0.00000000000E+00  0.00000000000E+00  0.74505805969E-08  0.10566000000E+00  0.10566000000E+00 0.  1.
     999900   -1    0    0    0    0 -0.00000000000E+00 -0.00000000000E+00 -0.74505805969E-08  0.93827000000E+00  0.93827000000E+00 0. -1.
     999902    2    1    2    0    0  0.38300177810E-02 -0.20743395309E-01  0.11174489984E-01  0.10200589566E+01  0.10197796077E+01 0.  0.
     999903    2    3    3    0    0  0.84836821742E-01  0.60678881563E-01 -0.72685821798E-01  0.12864197152E+00  0.19654901522E-01 0.  0.
         14    1    1    2    0    0 -0.38300177810E-02  0.20743395309E-01 -0.11174489984E-01  0.23871043369E-01  0.00000000000E+00 0. -1.
     999901    1    3    3    0    0 -0.81006803961E-01 -0.81422276873E-01  0.83860311782E-01  0.89141698511E+00  0.88000000000E+00 0.  1.
        -11    1    4    4    0    0  0.40436808854E-01  0.34087439458E-01 -0.47474689656E-01  0.71071768784E-01  0.51100000000E-03 0. -1.
         11    1    4    4    0    0  0.44400012888E-01  0.26591442105E-01 -0.25211132142E-01  0.57570202731E-01  0.51100000000E-03 0.  1.
</event>
<event>
 8    1  0.1071333E+005  0.1043930E+01  0.7957747E-01            NaN
         13   -1    0    0    0    0  0.00000000000E+00  0.00000000000E+00  0.74505805969E-08  0.10566000000E+00  0.10566000000E+00 0.  1.
     999900   -1    0    0    0    0 -0.00000000000E+00 -0.00000000000E+00 -0.74505805969E-08  0.93827000000E+00  0.93827000000E+00 0. -1.
     999902    2    1    2    0    0  0.14705276477E-01 -0.11380454212E-01  0.14213602270E-01  0.10205251632E+01  0.10202567434E+01 0.  0.
     999903    2    3    3    0    0  0.95253879839E-01 -0.46463317014E-01 -0.75648033091E-01  0.13159659565E+00  0.19049872012E-01 0.  0.
         14    1    1    2    0    0 -0.14705276477E-01  0.11380454212E-01 -0.14213602270E-01  0.23404836761E-01  0.00000000000E+00 0. -1.
     999901    1    3    3    0    0 -0.80548603363E-01  0.35082862801E-01  0.89861635361E-01  0.88892856759E+00  0.88000000000E+00 0.  1.
        -11    1    4    4    0    0  0.66386935071E-01 -0.40580383757E-01 -0.49637933639E-01  0.92293977436E-01  0.51100000000E-03 0. -1.
         11    1    4    4    0    0  0.28866944768E-01 -0.58829332571E-02 -0.26010099452E-01  0.39302618214E-01  0.51100000000E-03 0.  1.
</event>
<event>
 8    1  0.1071333E+005  0.1043930E+01  0.7957747E-01            NaN
         13   -1    0    0    0    0  0.00000000000E+00  0.00000000000E+00  0.74505805969E-08  0.10566000000E+00  0.10566000000E+00 0. -1.
     999900   -1    0    0    0    0 -0.00000000000E+00 -0.00000000000E+00 -0.74505805969E-08  0.93827000000E+00  0.93827000000E+00 0.  1.
     999902    2    1    2    0    0 -0.14806349742E-02 -0.21476290031E-01  0.10111216998E-01  0.10201463917E+01  0.10198691095E+01 0.  0.
     999903    2    3    3    0    0  0.21415480210E-01 -0.12972794773E+00  0.61502559549E-02  0.13320877120E+00  0.20464306998E-01 0.  0.
         14    1    1    2    0    0  0.14806349742E-02  0.21476290031E-01 -0.10111216998E-01  0.23783608275E-01  0.00000000000E+00 0.  1.
     999901    1    3    3    0    0 -0.22896115184E-01  0.10825165770E+00  0.39609610431E-02  0.88693762052E+00  0.88000000000E+00 0. -1.
        -11    1    4    4    0    0  0.20849666552E-01 -0.10001442545E+00 -0.26818612418E-02  0.10220101464E+00  0.51100000000E-03 0.  1.
         11    1    4    4    0    0  0.56581365809E-03 -0.29713522285E-01  0.88321171968E-02  0.31007756560E-01  0.51100000000E-03 0. -1.
</event>
<event>
 8    1  0.1071333E+005  0.1043930E+01  0.7957747E-01            NaN
         13   -1    0    0    0    0  0.00000000000E+00  0.00000000000E+00  0.74505805969E-08  0.10566000000E+00  0.10566000000E+00 0.  1.
     999900   -1    0    0    0    0 -0.00000000000E+00 -0.00000000000E+00 -0.74505805969E-08  0.93827000000E+00  0.93827000000E+00 0.  1.
     999902    2    1    2    0    0  0.96529606481E-02 -0.21821110759E-01 -0.27546277563E-02  0.10199106641E+01  0.10196277920E+01 0.  0.
     999903    2    3    3    0    0  0.24486396971E-01  0.10015175701E-02 -0.12704584266E+00  0.13075982800E+00  0.18891792072E-01 0.  0.
         14    1    1    2    0    0 -0.96529606481E-02  0.21821110759E-01  0.27546277563E-02  0.24019335922E-01  0.00000000000E+00 0. -1.
     999901    1    3    3    0    0 -0.14833436323E-01 -0.22822628329E-01  0.12429121490E+00  0.88915083608E+00  0.88000000000E+00 0. -1.
        -11    1    4    4    0    0  0.16043132858E-01 -0.70899369101E-02 -0.95789931759E-01  0.97383887089E-01  0.51100000000E-03 0. -1.
         11    1    4    4    0    0  0.84432641131E-02  0.80914544802E-02 -0.31255910900E-01  0.33375940911E-01  0.51100000000E-03 0.  1.
</event>
<event>
 8    1  0.1071333E+005  0.1043930E+01  0.7957747E-01            NaN
         13   -1    0    0    0    0  0.00000000000E+00  0.00000000000E+00  0.74505805969E-08  0.10566000000E+00  0.10566000000E+00 0.  1.
     999900   -1    0    0    0    0 -0.00000000000E+00 -0.00000000000E+00 -0.74505805969E-08  0.93827000000E+00  0.93827000000E+00 0.  1.
     999902    2    1    2    0    0  0.16394614946E-01 -0.71524543325E-02 -0.13632828707E-01  0.10214401129E+01  0.10211924937E+01 0.  0.
     999903    2    3    3    0    0 -0.11242846799E+00  0.24951487899E-02 -0.63489402381E-01  0.13061232885E+00  0.19552238988E-01 0.  0.
         14    1    1    2    0    0 -0.16394614946E-01  0.71524543325E-02  0.13632828707E-01  0.22489887078E-01  0.00000000000E+00 0.  1.
     999901    1    3    3    0    0  0.12882308294E+00 -0.96476031224E-02  0.49856573675E-01  0.89082778408E+00  0.88000000000E+00 0.  1.
        -11    1    4    4    0    0 -0.34823716952E-01  0.96840345118E-02 -0.22027758190E-01  0.42331489917E-01  0.51100000000E-03 0.  1.
         11    1    4    4    0    0 -0.77604751040E-01 -0.71888857219E-02 -0.41461644192E-01  0.88280838928E-01  0.51100000000E-03 0. -1.
</event>
<event>
 8    1  0.1071333E+005  0.1043930E+01  0.7957747E-01            NaN
         13   -1    0    0    0    0  0.00000000000E+00  0.00000000000E+00  0.74505805969E-08  0.10566000000E+00  0.10566000000E+00 0. -1.
     999900   -1    0    0    0    0 -0.00000000000E+00 -0.00000000000E+00 -0.74505805969E-08  0.93827000000E+00  0.93827000000E+00 0. -1.
     999902    2    1    2    0    0  0.20567879613E-01  0.58643067318E-02 -0.90186843769E-02  0.10207187003E+01  0.10204547519E+01 0.  0.
     999903    2    3    3    0    0  0.11345617336E+00  0.64811236994E-01 -0.20535922494E-01  0.13379388812E+00  0.20156405228E-01 0.  0.
         14    1    1    2    0    0 -0.20567879613E-01 -0.58643067318E-02  0.90186843769E-02  0.23211299686E-01  0.00000000000E+00 0. -1.
     999901    1    3    3    0    0 -0.92888293752E-01 -0.58946930262E-01  0.11517238117E-01  0.88692481219E+00  0.88000000000E+00 0.  1.
        -11    1    4    4    0    0  0.76587417546E-01  0.32767657055E-01 -0.11100797912E-01  0.84040708651E-01  0.51100000000E-03 0.  1.
         11    1    4    4    0    0  0.36868755819E-01  0.32043579939E-01 -0.94351245819E-02  0.49753179474E-01  0.51100000000E-03 0. -1.
</event>
<event>
 8    1  0.1071333E+005  0.1043930E+01  0.7957747E-01            NaN
         13   -1    0    0    0    0  0.00000000000E+00  0.00000000000E+00  0.74505805969E-08  0.10566000000E+00  0.10566000000E+00 0.  1.
     999900   -1    0    0    0    0 -0.00000000000E+00 -0.00000000000E+00 -0.74505805969E-08  0.93827000000E+00  0.93827000000E+00 0.  1.
     999902    2    1    2    0    0 -0.12746381788E-01  0.13622332483E-02  0.15898495299E-01  0.10235072656E+01  0.10233034910E+01 0.  0.
     999903    2    3    3    0    0 -0.10572460768E+00 -0.78164588218E-01 -0.20273414203E-01  0.13430657235E+00  0.18434981199E-01 0.  0.
         14    1    1    2    0    0  0.12746381788E-01 -0.13622332483E-02 -0.15898495299E-01  0.20422734413E-01  0.00000000000E+00 0. -1.
     999901    1    3    3    0    0  0.92978225891E-01  0.79526821466E-01  0.36171909502E-01  0.88920069324E+00  0.88000000000E+00 0. -1.
        -11    1    4    4    0    0 -0.30422901211E-01 -0.22007444880E-01 -0.14289644593E-01  0.40178795550E-01  0.51100000000E-03 0. -1.
         11    1    4    4    0    0 -0.75301706468E-01 -0.56157143338E-01 -0.59837696093E-02  0.94127776797E-01  0.51100000000E-03 0.  1.
</event>
<event>
 8    1  0.1071333E+005  0.1043930E+01  0.7957747E-01            NaN
         13   -1    0    0    0    0  0.00000000000E+00  0.00000000000E+00  0.74505805969E-08  0.10566000000E+00  0.10566000000E+00 0. -1.
     999900   -1    0    0    0    0 -0.00000000000E+00 -0.00000000000E+00 -0.74505805969E-08  0.93827000000E+00  0.93827000000E+00 0.  1.
     999902    2    1    2    0    0  0.10098438240E-01 -0.72233589704E-02  0.19299290683E-01  0.10209818412E+01  0.10207239108E+01 0.  0.
     999903    2    3    3    0    0 -0.12651486220E+00 -0.10396510331E-01 -0.17676027772E-01  0.12966795886E+00  0.19678409789E-01 0.  0.
         14    1    1    2    0    0 -0.10098438240E-01  0.72233589704E-02 -0.19299290683E-01  0.22948158762E-01  0.00000000000E+00 0.  1.
     999901    1    3    3    0    0  0.13661330044E+00  0.31731513603E-02  0.36975318454E-01  0.89131388238E+00  0.88000000000E+00 0.  1.
        -11    1    4    4    0    0 -0.51567917198E-01  0.37390943507E-02 -0.16486355968E-02  0.51732098653E-01  0.51100000000E-03 0.  1.
         11    1    4    4    0    0 -0.74946945004E-01 -0.14135604681E-01 -0.16027392175E-01  0.77935860206E-01  0.51100000000E-03 0. -1.
</event>
<event>
 8    1  0.1071333E+005  0.1043930E+01  0.7957747E-01            NaN
         13   -1    0    0    0    0  0.00000000000E+00  0.00000000000E+00  0.74505805969E-08  0.10566000000E+00  0.10566000000E+00 0. -1.
     999900   -1    0    0    0    0 -0.00000000000E+00 -0.00000000000E+00 -0.74505805969E-08  0.93827000000E+00  0.93827000000E+00 0. -1.
     999902    2    1    2    0    0  0.55506970444E-02 -0.22805957083E-01 -0.24190693843E-02  0.10203339450E+01  0.10200610695E+01 0.  0.
     999903    2    3    3    0    0  0.12363084352E+00 -0.15692612427E-01 -0.37703250761E-01  0.13171788946E+00  0.19930472447E-01 0.  0.
         14    1    1    2    0    0 -0.55506970444E-02  0.22805957083E-01  0.24190693843E-02  0.23596055027E-01  0.00000000000E+00 0. -1.
     999901    1    3    3    0    0 -0.11808014647E+00 -0.71133446555E-02  0.35284181377E-01  0.88861605551E+00  0.88000000000E+00 0. -1.
        -11    1    4    4    0    0  0.44209225101E-01  0.36996992012E-02 -0.15555349080E-01  0.47014607987E-01  0.51100000000E-03 0. -1.
         11    1    4    4    0    0  0.79421618416E-01 -0.19392311628E-01 -0.22147901681E-01  0.84703281471E-01  0.51100000000E-03 0.  1.
</event>
<event>
 8    1  0.1071333E+005  0.1043930E+01  0.7957747E-01            NaN
         13   -1    0    0    0    0  0.00000000000E+00  0.00000000000E+00  0.74505805969E-08  0.10566000000E+00  0.10566000000E+00 0. -1.
     999900   -1    0    0    0    0 -0.00000000000E+00 -0.00000000000E+00 -0.74505805969E-08  0.93827000000E+00  0.93827000000E+00 0.  1.
     999902    2    1    2    0    0  0.14493839780E-01 -0.86539536404E-02  0.15890645542E-01  0.10207464946E+01  0.10204831853E+01 0.  0.
     999903    2    3    3    0    0  0.23015297841E-01  0.84260599803E-01  0.97324634600E-01  0.13207488821E+00  0.18496999293E-01 0.  0.
         14    1    1    2    0    0 -0.14493839780E-01  0.86539536404E-02 -0.15890645542E-01  0.23183505363E-01  0.00000000000E+00 0.  1.
     999901    1    3    3    0    0 -0.85214580617E-02 -0.92914553443E-01 -0.81433989058E-01  0.88867160642E+00  0.88000000000E+00 0.  1.
        -11    1    4    4    0    0  0.20324884485E-01  0.57490816754E-01  0.77689060146E-01  0.98763080793E-01  0.51100000000E-03 0. -1.
         11    1    4    4    0    0  0.26904133562E-02  0.26769783049E-01  0.19635574454E-01  0.33311807421E-01  0.51100000000E-03 0.  1.
</event>
<event>
 8    1  0.1071333E+005  0.1043930E+01  0.7957747E-01            NaN
         13   -1    0    0    0    0  0.00000000000E+00  0.00000000000E+00  0.74505805969E-08  0.10566000000E+00  0.10566000000E+00 0.  1.
     999900   -1    0    0    0    0 -0.00000000000E+00 -0.00000000000E+00 -0.74505805969E-08  0.93827000000E+00  0.93827000000E+00 0. -1.
     999902    2    1    2    0    0 -0.15827626462E-01  0.17719042044E-01  0.50403302075E-02  0.10196424901E+01  0.10193531892E+01 0.  0.
     999903    2    3    3    0    0  0.10037292271E+00  0.57886221111E-01 -0.53464197596E-01  0.12917140705E+00  0.20032318079E-01 0.  0.
         14    1    1    2    0    0  0.15827626462E-01 -0.17719042044E-01 -0.50403302075E-02  0.24287509938E-01  0.00000000000E+00 0. -1.
     999901    1    3    3    0    0 -0.11620054917E+00 -0.40167179068E-01  0.58504527804E-01  0.89047108301E+00  0.88000000000E+00 0.  1.
        -11    1    4    4    0    0  0.56893253575E-01  0.29445680281E-01 -0.39897741521E-01  0.75471725097E-01  0.51100000000E-03 0.  1.
         11    1    4    4    0    0  0.43479669134E-01  0.28440540830E-01 -0.13566456075E-01  0.53699681956E-01  0.51100000000E-03 0. -1.
</event>
<event>
 8    1  0.1071333E+005  0.1043930E+01  0.7957747E-01            NaN
         13   -1    0    0    0    0  0.00000000000E+00  0.00000000000E+00  0.74505805969E-08  0.10566000000E+00  0.10566000000E+00 0. -1.
     999900   -1    0    0    0    0 -0.00000000000E+00 -0.00000000000E+00 -0.74505805969E-08  0.93827000000E+00  0.93827000000E+00 0. -1.
     999902    2    1    2    0    0  0.93851423345E-02  0.94731158684E-02  0.19787589593E-01  0.10200685348E+01  0.10197894126E+01 0.  0.
     999903    2    3    3    0    0 -0.97787413265E-01 -0.25253316469E-01 -0.75721270017E-01  0.12776039067E+00  0.19720509734E-01 0.  0.
         14    1    1    2    0    0 -0.93851423345E-02 -0.94731158684E-02 -0.19787589593E-01  0.23861465227E-01  0.00000000000E+00 0.  1.
     999901    1    3    3    0    0  0.10717255560E+00  0.34726432337E-01  0.95508859610E-01  0.89230814411E+00  0.88000000000E+00 0.  1.
        -11    1    4    4    0    0 -0.37803568053E-01 -0.46807365075E-04 -0.29296946612E-01  0.47829741273E-01  0.51100000000E-03 0.  1.
         11    1    4    4    0    0 -0.59983845212E-01 -0.25206509104E-01 -0.46424323405E-01  0.79930649392E-01  0.51100000000E-03 0. -1.
</event>
<event>
 8    1  0.1071333E+005  0.1043930E+01  0.7957747E-01            NaN
         13   -1    0    0    0    0  0.00000000000E+00  0.00000000000E+00  0.74505805969E-08  0.10566000000E+00  0.10566000000E+00 0. -1.
     999900   -1    0    0    0    0 -0.00000000000E+00 -0.00000000000E+00 -0.74505805969E-08  0.93827000000E+00  0.93827000000E+00 0.  1.
     999902    2    1    2    0    0  0.83260652764E-02  0.15716971326E-01  0.31890309634E-02  0.10258602333E+01  0.10257010782E+01 0.  0.
     999903    2    3    3    0    0 -0.42148305962E-01 -0.96026350419E-02 -0.12594294029E+00  0.13464543840E+00  0.19976976201E-01 0.  0.
         14    1    1    2    0    0 -0.83260652764E-02 -0.15716971326E-01 -0.31890309634E-02  0.18069766715E-01  0.00000000000E+00 0.  1.
     999901    1    3    3    0    0  0.50474371238E-01  0.25319606368E-01  0.12913197125E+00  0.89121479488E+00  0.88000000000E+00 0. -1.
        -11    1    4    4    0    0 -0.76949959919E-02 -0.10487110442E-01 -0.30160017988E-01  0.32849356992E-01  0.51100000000E-03 0.  1.
         11    1    4    4    0    0 -0.34453309970E-01  0.88447539969E-03 -0.95782922303E-01  0.10179608141E+00  0.51100000000E-03 0. -1.
</event>
<event>
 8    1  0.1071333E+005  0.1043930E+01  0.7957747E-01            NaN
         13   -1    0    0    0    0  0.00000000000E+00  0.00000000000E+00  0.74505805969E-08  0.10566000000E+00  0.10566000000E+00 0.  1.
     999900   -1    0    0    0    0 -0.00000000000E+00 -0.00000000000E+00 -0.74505805969E-08  0.93827000000E+00  0.93827000000E+00 0.  1.
     999902    2    1    2    0    0  0.14302978541E-02 -0.83685926171E-02 -0.21584306926E-01  0.10207360051E+01  0.10204724546E+01 0.  0.
     999903    2    3    3    0    0 -0.12421347030E+00 -0.28879448150E-01  0.18781660613E-01  0.13065934378E+00  0.21356605831E-01 0.  0.
         14    1    1    2    0    0 -0.14302978541E-02  0.83685926171E-02  0.21584306926E-01  0.23193994909E-01  0.00000000000E+00 0.  1.
     999901    1    3    3    0    0  0.12564376816E+00  0.20510855533E-01 -0.40365967540E-01  0.89007666131E+00  0.88000000000E+00 0. -1.
        -11    1    4    4    0    0 -0.51678701219E-01 -0.17891610213E-01 -0.91133013915E-03  0.54698167422E-01  0.51100000000E-03 0.  1.
         11    1    4    4    0    0 -0.72534769082E-01 -0.10987837937E-01  0.19692990752E-01  0.75961176360E-01  0.51100000000E-03 0. -1.
</event>
<event>
 8    1  0.1071333E+005  0.1043930E+01  0.7957747E-01            NaN
         13   -1    0    0    0    0  0.00000000000E+00  0.00000000000E+00  0.74505805969E-08  0.10566000000E+00  0.10566000000E+00 0.  1.
     999900   -1    0    0    0    0 -0.00000000000E+00 -0.00000000000E+00 -0.74505805969E-08  0.93827000000E+00  0.93827000000E+00 0. -1.
     999902    2    1    2    0    0 -0.10397047121E-01  0.20952569020E-01 -0.29701699266E-02  0.10203518184E+01  0.10200793610E+01 0.  0.
     999903    2    3    3    0    0 -0.10650656980E+00  0.26591029637E-01  0.70789235868E-01  0.13203358573E+00  0.19261868483E-01 0.  0.
         14    1    1    2    0    0  0.10397047121E-01 -0.20952569020E-01  0.29701699266E-02  0.23578181583E-01  0.00000000000E+00 0.  1.
     999901    1    3    3    0    0  0.96109522678E-01 -0.56384606168E-02 -0.73759405795E-01  0.88831823269E+00  0.88000000000E+00 0. -1.
        -11    1    4    4    0    0 -0.25223443434E-01 -0.16593109486E-02  0.18637331438E-01  0.31409977008E-01  0.51100000000E-03 0. -1.
         11    1    4    4    0    0 -0.81283126365E-01  0.28250340585E-01  0.52151904430E-01  0.10062360872E+00  0.51100000000E-03 0.  1.
</event>
<event>
 8    1  0.1071333E+005  0.1043930E+01  0.7957747E-01            NaN
         13   -1    0    0    0    0  0.00000000000E+00  0.00000000000E+00  0.74505805969E-08  0.10566000000E+00  0.10566000000E+00 0. -1.
     999900   -1    0    0    0    0 -0.00000000000E+00 -0.00000000000E+00 -0.74505805969E-08  0.93827000000E+00  0.93827000000E+00 0. -1.
     999902    2    1    2    0    0 -0.11107284452E-01  0.17297700427E-01 -0.11761881503E-01  0.10202461645E+01  0.10199712310E+01 0.  0.
     999903    2    3    3    0    0  0.10435535123E+00  0.43512641500E-01 -0.62802629123E-01  0.13085086357E+00  0.19859228880E-01 0.  0.
         14    1    1    2    0    0  0.11107284452E-01 -0.17297700427E-01  0.11761881503E-01  0.23683835510E-01  0.00000000000E+00 0.  1.
     999901    1    3    3    0    0 -0.11546263569E+00 -0.26214941073E-01  0.51040747620E-01  0.88939530092E+00  0.88000000000E+00 0. -1.
        -11    1    4    4    0    0  0.89026181161E-01  0.37924931327E-01 -0.45073551150E-01  0.10675133480E+00  0.51100000000E-03 0.  1.
         11    1    4    4    0    0  0.15329170072E-01  0.55877101731E-02 -0.17729077974E-01  0.24099528769E-01  0.51100000000E-03 0. -1.
</event>
<event>
 8    1  0.1071333E+005  0.1043930E+01  0.7957747E-01            NaN
         13   -1    0    0    0    0  0.00000000000E+00  0.00000000000E+00  0.74505805969E-08  0.10566000000E+00  0.10566000000E+00 0.  1.
     999900   -1    0    0    0    0 -0.00000000000E+00 -0.00000000000E+00 -0.74505805969E-08  0.93827000000E+00  0.93827000000E+00 0. -1.
     999902    2    1    2    0    0  0.19167461802E-01  0.11680592077E-01 -0.81546134718E-02  0.10200485104E+01  0.10197689141E+01 0.  0.
     999903    2    3    3    0    0 -0.75604837652E-01 -0.92038824175E-01 -0.42877947166E-01  0.12822721894E+00  0.20407466580E-01 0.  0.
         14    1    1    2    0    0 -0.19167461802E-01 -0.11680592077E-01  0.81546134718E-02  0.23881489569E-01  0.00000000000E+00 0. -1.
     999901    1    3    3    0    0  0.94772299454E-01  0.10371941625E+00  0.34723333694E-01  0.89182129149E+00  0.88000000000E+00 0. -1.
        -11    1    4    4    0    0 -0.53180115733E-01 -0.64753698453E-01 -0.20012306705E-01  0.86150564209E-01  0.51100000000E-03 0. -1.
         11    1    4    4    0    0 -0.22424721919E-01 -0.27285125722E-01 -0.22865640460E-01  0.42076654732E-01  0.51100000000E-03 0.  1.
</event>
<event>
 8    1  0.1071333E+005  0.1043930E+01  0.7957747E-01            NaN
         13   -1    0    0    0    0  0.00000000000E+00  0.00000000000E+00  0.74505805969E-08  0.10566000000E+00  0.10566000000E+00 0.  1.
     999900   -1    0    0    0    0 -0.00000000000E+00 -0.00000000000E+00 -0.74505805969E-08  0.93827000000E+00  0.93827000000E+00 0. -1.
     999902    2    1    2    0    0  0.12415499401E-01 -0.16449557420E-01 -0.11552448218E-01  0.10203039207E+01  0.10200303422E+01 0.  0.
     999903    2    3    3    0    0 -0.35221473570E-01 -0.21476835119E-01  0.12072700102E+00  0.12912918617E+00  0.19938186941E-01 0.  0.
         14    1    1    2    0    0 -0.12415499401E-01  0.16449557420E-01  0.11552448218E-01  0.23626079330E-01  0.00000000000E+00 0.  1.
     999901    1    3    3    0    0  0.47636972971E-01  0.50272776981E-02 -0.13227944924E+00  0.89117473450E+00  0.88000000000E+00 0. -1.
        -11    1    4    4    0    0 -0.30451593362E-01 -0.11906209352E-01  0.69678431953E-01  0.76970139403E-01  0.51100000000E-03 0.  1.
         11    1    4    4    0    0 -0.47698802083E-02 -0.95706257661E-02  0.51048569070E-01  0.52159046769E-01  0.51100000000E-03 0. -1.
</event>
<event>
 8    1  0.1071333E+005  0.1043930E+01  0.7957747E-01            NaN
         13   -1    0    0    0    0  0.00000000000E+00  0.00000000000E+00  0.74505805969E-08  0.10566000000E+00  0.10566000000E+00 0.  1.
     999900   -1    0    0    0    0 -0.00000000000E+00 -0.00000000000E+00 -0.74505805969E-08  0.93827000000E+00  0.93827000000E+00 0.  1.
     999902    2    1    2    0    0 -0.18006814356E-01  0.12398400176E-01  0.84830270495E-02  0.10204794683E+01  0.10202099871E+01 0.  0.
     999903    2    3    3    0    0 -0.82128626402E-01  0.61545878068E-01  0.83055052370E-01  0.13363784300E+00  0.20686347569E-01 0.  0.
         14    1    1    2    0    0  0.18006814356E-01 -0.12398400176E-01 -0.84830270495E-02  0.23450531723E-01  0.00000000000E+00 0. -1.
     999901    1    3    3    0    0  0.64121812046E-01 -0.49147477892E-01 -0.74572025320E-01  0.88684162528E+00  0.88000000000E+00 0.  1.
        -11    1    4    4    0    0 -0.15529313953E-01  0.18043667293E-01  0.28697477138E-01  0.37289942830E-01  0.51100000000E-03 0.  1.
         11    1    4    4    0    0 -0.66599312449E-01  0.43502210775E-01  0.54357575232E-01  0.96347900170E-01  0.51100000000E-03 0. -1.
</event>
<event>
 8    1  0.1071333E+005  0.1043930E+01  0.7957747E-01            NaN
         13   -1    0    0    0    0  0.00000000000E+00  0.00000000000E+00  0.74505805969E-08  0.10566000000E+00  0.10566000000E+00 0. -1.
     999900   -1    0    0    0    0 -0.00000000000E+00 -0.00000000000E+00 -0.74505805969E-08  0.93827000000E+00  0.93827000000E+00 0. -1.
     999902    2    1    2    0    0 -0.40300151753E-03 -0.22183875583E-01  0.10463556169E-01  0.10193989431E+01  0.10191037398E+01 0.  0.
     999903    2    3    3    0    0 -0.12170466246E+00  0.10321131184E-01  0.40402985356E-01  0.12997944822E+00  0.18539285895E-01 0.  0.
         14    1    1    2    0    0  0.40300151753E-03  0.22183875583E-01 -0.10463556169E-01  0.24531056924E-01  0.00000000000E+00 0.  1.
     999901    1    3    3    0    0  0.12130166094E+00 -0.32505006767E-01 -0.29939429187E-01  0.88941949486E+00  0.88000000000E+00 0. -1.
        -11    1    4    4    0    0 -0.89099538593E-01  0.15603350653E-01  0.27960331639E-01  0.94679636647E-01  0.51100000000E-03 0. -1.
         11    1    4    4    0    0 -0.32605123862E-01 -0.52822194689E-02  0.12442653716E-01  0.35299811573E-01  0.51100000000E-03 0.  1.
</event>
<event>
 8    1  0.1071333E+005  0.1043930E+01  0.7957747E-01            NaN
         13   -1    0    0    0    0  0.00000000000E+00  0.00000000000E+00  0.74505805969E-08  0.10566000000E+00  0.10566000000E+00 0. -1.
     999900   -1    0    0    0    0 -0.00000000000E+00 -0.00000000000E+00 -0.74505805969E-08  0.93827000000E+00  0.93827000000E+00 0. -1.
     999902    2    1    2    0    0  0.13996512535E-01  0.17022897291E-01  0.86382024012E-02  0.10202593444E+01  0.10199847204E+01 0.  0.
     999903    2    3    3    0    0  0.57026392060E-01 -0.10114558646E-01  0.11706676501E+00  0.13214630812E+00  0.20092426203E-01 0.  0.
         14    1    1    2    0    0 -0.13996512535E-01 -0.17022897291E-01 -0.86382024012E-02  0.23670655589E-01  0.00000000000E+00 0.  1.
     999901    1    3    3    0    0 -0.43029879526E-01  0.27137455936E-01 -0.10842856261E+00  0.88811303629E+00  0.88000000000E+00 0. -1.
        -11    1    4    4    0    0  0.20665486337E-01 -0.73824363430E-02  0.25863027472E-01  0.33922264119E-01  0.51100000000E-03 0. -1.
         11    1    4    4    0    0  0.36360905723E-01 -0.27321223028E-02  0.91203737538E-01  0.98224043997E-01  0.51100000000E-03 0.  1.
</event>
<event>
 8    1  0.1071333E+005  0.1043930E+01  0.7957747E-01            NaN
         13   -1    0    0    0    0  0.00000000000E+00  0.00000000000E+00  0.74505805969E-08  0.10566000000E+00  0.10566000000E+00 0.  1.
     999900   -1    0    0    0    0 -0.00000000000E+00 -0.00000000000E+00 -0.74505805969E-08  0.93827000000E+00  0.93827000000E+00 0. -1.
     999902    2    1    2    0    0  0.21685389311E-01 -0.83178012714E-02 -0.92349485166E-02  0.10189354766E+01  0.10186288722E+01 0.  0.
     999903    2    3    3    0    0 -0.66666128525E-01 -0.37643144188E-01 -0.10206203899E+00  0.12916986970E+00  0.20169691057E-01 0.  0.
         14    1    1    2    0    0 -0.21685389311E-01  0.83178012714E-02  0.92349485166E-02  0.24994523433E-01  0.00000000000E+00 0.  1.
     999901    1    3    3    0    0  0.88351517836E-01  0.29325342916E-01  0.92827090476E-01  0.88976560687E+00  0.88000000000E+00 0.  1.
        -11    1    4    4    0    0 -0.25310453954E-01 -0.38563140987E-02 -0.36983141362E-01  0.44983375861E-01  0.51100000000E-03 0. -1.
         11    1    4    4    0    0 -0.41355674571E-01 -0.33786830089E-01 -0.65078897630E-01  0.84186493837E-01  0.51100000000E-03 0.  1.
</event>
<event>
 8    1  0.1071333E+005  0.1043930E+01  0.7957747E-01            NaN
         13   -1    0    0    0    0  0.00000000000E+00  0.00000000000E+00  0.74505805969E-08  0.10566000000E+00  0.10566000000E+00 0.  1.
     999900   -1    0    0    0    0 -0.00000000000E+00 -0.00000000000E+00 -0.74505805969E-08  0.93827000000E+00  0.93827000000E+00 0.  1.
     999902    2    1    2    0    0  0.17323745724E-01  0.74948033905E-02 -0.14296688489E-01  0.10202513272E+01  0.10199765150E+01 0.  0.
     999903    2    3    3    0    0 -0.24463120525E-01  0.71245659939E-01 -0.10659338977E+00  0.13214716948E+00  0.20647889278E-01 0.  0.
         14    1    1    2    0    0 -0.17323745724E-01 -0.74948033905E-02  0.14296688489E-01  0.23678672799E-01  0.00000000000E+00 0.  1.
     999901    1    3    3    0    0  0.41786866248E-01 -0.63750856549E-01  0.92296701283E-01  0.88810415773E+00  0.88000000000E+00 0. -1.
        -11    1    4    4    0    0 -0.16065738837E-02  0.29922272950E-01 -0.31844132835E-01  0.43729091176E-01  0.51100000000E-03 0.  1.
         11    1    4    4    0    0 -0.22856546641E-01  0.41323386989E-01 -0.74749256937E-01  0.88418078300E-01  0.51100000000E-03 0. -1.
</event>
<event>
 8    1  0.1071333E+005  0.1043930E+01  0.7957747E-01            NaN
         13   -1    0    0    0    0  0.00000000000E+00  0.00000000000E+00  0.74505805969E-08  0.10566000000E+00  0.10566000000E+00 0.  1.
     999900   -1    0    0    0    0 -0.00000000000E+00 -0.00000000000E+00 -0.74505805969E-08  0.93827000000E+00  0.93827000000E+00 0. -1.
     999902    2    1    2    0    0  0.34988758902E-03  0.19614889466E-01 -0.16769209760E-01  0.10181216156E+01  0.10177944544E+01 0.  0.
     999903    2    3    3    0    0  0.10726100745E+00  0.56661548394E-01  0.39620325676E-01  0.12908718307E+00  0.19449314669E-01 0.  0.
         14    1    1    2    0    0 -0.34988758902E-03 -0.19614889466E-01  0.16769209760E-01  0.25808384414E-01  0.00000000000E+00 0.  1.
     999901    1    3    3    0    0 -0.10691111986E+00 -0.37046658928E-01 -0.56389535436E-01  0.88903443251E+00  0.88000000000E+00 0.  1.
        -11    1    4    4    0    0  0.44906493719E-01  0.16145163204E-01  0.84995015655E-02  0.48474344976E-01  0.51100000000E-03 0. -1.
         11    1    4    4    0    0  0.62354513733E-01  0.40516385190E-01  0.31120824110E-01  0.80612838097E-01  0.51100000000E-03 0.  1.
</event>
<event>
 8    1  0.1071333E+005  0.1043930E+01  0.7957747E-01            NaN
         13   -1    0    0    0    0  0.00000000000E+00  0.00000000000E+00  0.74505805969E-08  0.10566000000E+00  0.10566000000E+00 0.  1.
     999900   -1    0    0    0    0 -0.00000000000E+00 -0.00000000000E+00 -0.74505805969E-08  0.93827000000E+00  0.93827000000E+00 0.  1.
     999902    2    1    2    0    0 -0.17344655415E-01 -0.71621034126E-02 -0.14764134378E-01  0.10200529721E+01  0.10197734814E+01 0.  0.
     999903    2    3    3    0    0  0.45305479669E-01  0.46807279188E-01 -0.11166776562E+00  0.13088029629E+00  0.20407209615E-01 0.  0.
         14    1    1    2    0    0  0.17344655415E-01  0.71621034126E-02  0.14764134378E-01  0.23877027886E-01  0.00000000000E+00 0.  1.
     999901    1    3    3    0    0 -0.62650135084E-01 -0.53969382600E-01  0.96903631246E-01  0.88917267582E+00  0.88000000000E+00 0. -1.
        -11    1    4    4    0    0  0.31029222087E-01  0.23759628162E-01 -0.49605655956E-01  0.63153105843E-01  0.51100000000E-03 0.  1.
         11    1    4    4    0    0  0.14276257582E-01  0.23047651026E-01 -0.62062109668E-01  0.67727190446E-01  0.51100000000E-03 0. -1.
</event>
<event>
 8    1  0.1071333E+005  0.1043930E+01  0.7957747E-01            NaN
         13   -1    0    0    0    0  0.00000000000E+00  0.00000000000E+00  0.74505805969E-08  0.10566000000E+00  0.10566000000E+00 0. -1.
     999900   -1    0    0    0    0 -0.00000000000E+00 -0.00000000000E+00 -0.74505805969E-08  0.93827000000E+00  0.93827000000E+00 0.  1.
     999902    2    1    2    0    0 -0.40134732636E-02  0.46003254895E-02  0.22557850700E-01  0.10205606271E+01  0.10202930295E+01 0.  0.
     999903    2    3    3    0    0  0.96051646336E-01  0.84668532465E-01 -0.17754634163E-01  0.13036455747E+00  0.16882288214E-01 0.  0.
         14    1    1    2    0    0  0.40134732636E-02 -0.46003254895E-02 -0.22557850700E-01  0.23369372916E-01  0.00000000000E+00 0.  1.
     999901    1    3    3    0    0 -0.10006511960E+00 -0.80068206975E-01  0.40312484863E-01  0.89019606962E+00  0.88000000000E+00 0. -1.
        -11    1    4    4    0    0  0.41991402030E-01  0.26798665252E-01 -0.98055598359E-02  0.50772595250E-01  0.51100000000E-03 0.  1.
         11    1    4    4    0    0  0.54060244306E-01  0.57869867213E-01 -0.79490743268E-02  0.79591962216E-01  0.51100000000E-03 0. -1.
</event>
<event>
 8    1  0.1071333E+005  0.1043930E+01  0.7957747E-01            NaN
         13   -1    0    0    0    0  0.00000000000E+00  0.00000000000E+00  0.74505805969E-08  0.10566000000E+00  0.10566000000E+00 0. -1.
     999900   -1    0    0    0    0 -0.00000000000E+00 -0.00000000000E+00 -0.74505805969E-08  0.93827000000E+00  0.93827000000E+00 0.  1.
     999902    2    1    2    0    0 -0.88847848416E-02 -0.79389720963E-02  0.20935628145E-01  0.10198412639E+01  0.10195567353E+01 0.  0.
     999903    2    3    3    0    0 -0.53553866942E-01  0.79226244305E-01 -0.83179318350E-01  0.12830717937E+00  0.19977958504E-01 0.  0.
         14    1    1    2    0    0  0.88847848416E-02  0.79389720963E-02 -0.20935628145E-01  0.24088736070E-01  0.00000000000E+00 0.  1.
     999901    1    3    3    0    0  0.44669082101E-01 -0.87165216401E-01  0.10411494650E+00  0.89153408456E+00  0.88000000000E+00 0. -1.
        -11    1    4    4    0    0 -0.41156565173E-01  0.72753631988E-01 -0.73309568956E-01  0.11118231805E+00  0.51100000000E-03 0. -1.
         11    1    4    4    0    0 -0.12397301769E-01  0.64726123162E-02 -0.98697493938E-02  0.17124861326E-01  0.51100000000E-03 0.  1.
</event>
<event>
 7    1  0.1071333E+005  0.1043930E+01  0.7957747E-01            NaN
         13   -1    0    0    0    0  0.00000000000E+00  0.00000000000E+00  0.74505805969E-08  0.10566000000E+00  0.10566000000E+00 0.  1.
     999900   -1    0    0    0    0 -0.00000000000E+00 -0.00000000000E+00 -0.74505805969E-08  0.93827000000E+00  0.93827000000E+00 0.  1.
     999902    2    1    2    0    0 -0.21115248225E-01 -0.11738938266E-01  0.44155051612E-03  0.10197669839E+01  0.10194806767E+01 0.  0.
         14    1    1    2    0    0  0.21115248225E-01  0.11738938266E-01 -0.44155051612E-03  0.24163016080E-01  0.00000000000E+00 0. -1.
     999901    1    3    3    0    0 -0.10174484834E+00  0.78371714144E-01  0.31242927656E-01  0.88987092338E+00  0.88000000000E+00 0. -1.
        -11    1    3    3    0    0  0.61866780680E-01 -0.68656186186E-01 -0.68674306698E-02  0.92674663087E-01  0.51100000000E-03 0. -1.
         11    1    3    3    0    0  0.18762819432E-01 -0.21454466224E-01 -0.23933946470E-01  0.37221397457E-01  0.51100000000E-03 0.  1.
</event>
<event>
 7    1  0.1071333E+005  0.1043930E+01  0.7957747E-01            NaN
         13   -1    0    0    0    0  0.00000000000E+00  0.00000000000E+00  0.74505805969E-08  0.10566000000E+00  0.10566000000E+00 0. -1.
     999900   -1    0    0    0    0 -0.00000000000E+00 -0.00000000000E+00 -0.74505805969E-08  0.93827000000E+00  0.93827000000E+00 0.  1.
     999902    2    1    2    0    0 -0.16043957271E-01 -0.16004940253E-01 -0.98018985173E-02  0.10192390322E+01  0.10189399201E+01 0.  0.
         14    1    1    2    0    0  0.16043957271E-01  0.16004940253E-01  0.98018985173E-02  0.24690967822E-01  0.00000000000E+00 0.  1.
     999901    1    3    3    0    0  0.76895907008E-01 -0.80082421710E-01 -0.25485635974E-01  0.88734192532E+00  0.88000000000E+00 0.  1.
        -11    1    3    3    0    0 -0.23957165200E-01  0.22586105856E-01 -0.25335480117E-01  0.41547871376E-01  0.51100000000E-03 0. -1.
         11    1    3    3    0    0 -0.68982699080E-01  0.41491375601E-01  0.41019217574E-01  0.90349235486E-01  0.51100000000E-03 0.  1.
</event>
<event>
 8    1  0.1071333E+005  0.1043930E+01  0.7957747E-01            NaN
         13   -1    0    0    0    0  0.00000000000E+00  0.00000000000E+00  0.74505805969E-08  0.10566000000E+00  0.10566000000E+00 0.  1.
     999900   -1    0    0    0    0 -0.00000000000E+00 -0.00000000000E+00 -0.74505805969E-08  0.93827000000E+00  0.93827000000E+00 0.  1.
     999902    2    1    2    0    0 -0.18547031200E-01 -0.14007565380E-01 -0.13061454224E-02  0.10206510337E+01  0.10203855264E+01 0.  0.
     999903    2    3    3    0    0  0.59833377346E-01 -0.11615989573E+00 -0.19468763583E-02  0.13128103336E+00  0.12560452748E-01 0.  0.
         14    1    1    2    0    0  0.18547031200E-01  0.14007565380E-01  0.13061454224E-02  0.23278966259E-01  0.00000000000E+00 0.  1.
     999901    1    3    3    0    0 -0.78380408546E-01  0.10215233035E+00  0.64073093584E-03  0.88937000038E+00  0.88000000000E+00 0. -1.
        -11    1    4    4    0    0  0.28826959789E-01 -0.44084059912E-01 -0.36201311285E-02  0.52799284269E-01  0.51100000000E-03 0.  1.
         11    1    4    4    0    0  0.31006417557E-01 -0.72075835814E-01  0.16732547702E-02  0.78481749092E-01  0.51100000000E-03 0. -1.
</event>
<event>
 8    1  0.1071333E+005  0.1043930E+01  0.7957747E-01            NaN
         13   -1    0    0    0    0  0.00000000000E+00  0.00000000000E+00  0.74505805969E-08  0.10566000000E+00  0.10566000000E+00 0.  1.
     999900   -1    0    0    0    0 -0.00000000000E+00 -0.00000000000E+00 -0.74505805969E-08  0.93827000000E+00  0.93827000000E+00 0. -1.
     999902    2    1    2    0    0 -0.67129085669E-02 -0.21859441371E-01 -0.49581954661E-03  0.10210576552E+01  0.10208014455E+01 0.  0.
     999903    2    3    3    0    0  0.10112727550E+00 -0.80836502235E-01  0.18920306863E-01  0.13230302937E+00  0.19617533628E-01 0.  0.
         14    1    1    2    0    0  0.67129085669E-02  0.21859441371E-01  0.49581954661E-03  0.22872344775E-01  0.00000000000E+00 0.  1.
     999901    1    3    3    0    0 -0.10784018407E+00  0.58977060865E-01 -0.19416126409E-01  0.88875462585E+00  0.88000000000E+00 0. -1.
        -11    1    4    4    0    0  0.69330846346E-01 -0.63587395045E-01  0.75412498657E-02  0.94378252973E-01  0.51100000000E-03 0.  1.
         11    1    4    4    0    0  0.31796429156E-01 -0.17249107190E-01  0.11379056997E-01  0.37924776401E-01  0.51100000000E-03 0. -1.
</event>
<event>
 8    1  0.1071333E+005  0.1043930E+01  0.7957747E-01            NaN
         13   -1    0    0    0    0  0.00000000000E+00  0.00000000000E+00  0.74505805969E-08  0.10566000000E+00  0.10566000000E+00 0.  1.
     999900   -1    0    0    0    0 -0.00000000000E+00 -0.00000000000E+00 -0.74505805969E-08  0.93827000000E+00  0.93827000000E+00 0. -1.
     999902    2    1    2    0    0 -0.17600881629E-01 -0.74123802704E-02 -0.11758693016E-01  0.10215023100E+01  0.10212560737E+01 0.  0.
     999903    2    3    3    0    0  0.63885225062E-01  0.92703249775E-01  0.59969338982E-01  0.12919740950E+00  0.20504499573E-01 0.  0.
         14    1    1    2    0    0  0.17600881629E-01  0.74123802704E-02  0.11758693016E-01  0.22427689958E-01  0.00000000000E+00 0.  1.
     999901    1    3    3    0    0 -0.81486106691E-01 -0.10011563005E+00 -0.71728031997E-01  0.89230490055E+00  0.88000000000E+00 0. -1.
        -11    1    4    4    0    0  0.94772802337E-02  0.12183298225E-01  0.16921969971E-01  0.22909949476E-01  0.51100000000E-03 0. -1.
         11    1    4    4    0    0  0.54407944828E-01  0.80519951550E-01  0.43047369010E-01  0.10628746002E+00  0.51100000000E-03 0.  1.
</event>
<event>
 8    1  0.1071333E+005  0.1043930E+01  0.7957747E-01            NaN
         13   -1    0    0    0    0  0.00000000000E+00  0.00000000000E+00  0.74505805969E-08  0.10566000000E+00  0.10566000000E+00 0.  1.
     999900   -1    0    0    0    0 -0.00000000000E+00 -0.00000000000E+00 -0.74505805969E-08  0.93827000000E+00  0.93827000000E+00 0. -1.
     999902    2    1    2    0    0 -0.52675581221E-02  0.23495086513E-01 -0.15661902688E-02  0.10198007810E+01  0.10195152837E+01 0.  0.
     999903    2    3    3    0    0 -0.78911831762E-01 -0.10200705102E-02  0.10176431982E+00  0.13036181945E+00  0.20251159123E-01 0.  0.
         14    1    1    2    0    0  0.52675581221E-02 -0.23495086513E-01  0.15661902688E-02  0.24129219025E-01  0.00000000000E+00 0.  1.
     999901    1    3    3    0    0  0.73644273640E-01  0.24515157023E-01 -0.10333051009E+00  0.88943896153E+00  0.88000000000E+00 0. -1.
        -11    1    4    4    0    0 -0.44525089524E-01  0.31898904236E-02  0.71840398641E-01  0.84581103067E-01  0.51100000000E-03 0.  1.
         11    1    4    4    0    0 -0.34386742238E-01 -0.42099609338E-02  0.29923921179E-01  0.45780716383E-01  0.51100000000E-03 0. -1.
</event>
<event>
 8    1  0.1071333E+005  0.1043930E+01  0.7957747E-01            NaN
         13   -1    0    0    0    0  0.00000000000E+00  0.00000000000E+00  0.74505805969E-08  0.10566000000E+00  0.10566000000E+00 0. -1.
     999900   -1    0    0    0    0 -0.00000000000E+00 -0.00000000000E+00 -0.74505805969E-08  0.93827000000E+00  0.93827000000E+00 0. -1.
     999902    2    1    2    0    0  0.21645277680E-02 -0.51512411238E-02  0.23049843374E-01  0.10202125856E+01  0.10199368628E+01 0.  0.
     999903    2    3    3    0    0 -0.32793610887E-01 -0.12256770327E+00  0.29320414427E-01  0.13170371278E+00  0.19695645649E-01 0.  0.
         14    1    1    2    0    0 -0.21645277680E-02  0.51512411238E-02 -0.23049843374E-01  0.23717414386E-01  0.00000000000E+00 0.  1.
     999901    1    3    3    0    0  0.34958138655E-01  0.11741646215E+00 -0.62705710527E-02  0.88850887283E+00  0.88000000000E+00 0. -1.
        -11    1    4    4    0    0  0.25731096543E-02 -0.13015808172E-01  0.31622659044E-02  0.13648926782E-01  0.51100000000E-03 0.  1.
         11    1    4    4    0    0 -0.35366720541E-01 -0.10955189510E+00  0.26158148523E-01  0.11805478600E+00  0.51100000000E-03 0. -1.
</event>
<event>
 8    1  0.1071333E+005  0.1043930E+01  0.7957747E-01            NaN
         13   -1    0    0    0    0  0.00000000000E+00  0.00000000000E+00  0.74505805969E-08  0.10566000000E+00  0.10566000000E+00 0. -1.
     999900   -1    0    0    0    0 -0.00000000000E+00 -0.00000000000E+00 -0.74505805969E-08  0.93827000000E+00  0.93827000000E+00 0.  1.
     999902    2    1    2    0    0 -0.11826039439E-01  0.91070876113E-02 -0.18581689950E-01  0.10200957084E+01  0.10198172292E+01 0.  0.
     999903    2    3    3    0    0 -0.11978699884E+00  0.51559272427E-01  0.68577157120E-02  0.13211771314E+00  0.20019445410E-01 0.  0.
         14    1    1    2    0    0  0.11826039439E-01 -0.91070876113E-02  0.18581689950E-01  0.23834291577E-01  0.00000000000E+00 0. -1.
     999901    1    3    3    0    0  0.10796095941E+00 -0.42452184816E-01 -0.25439405662E-01  0.88797799529E+00  0.88000000000E+00 0.  1.
        -11    1    4    4    0    0 -0.56760592874E-01  0.30752594716E-01 -0.47652841641E-02  0.64733731851E-01  0.51100000000E-03 0. -1.
         11    1    4    4    0    0 -0.63026405970E-01  0.20806677712E-01  0.11622999876E-01  0.67383981287E-01  0.51100000000E-03 0.  1.
</event>
<event>
 8    1  0.1071333E+005  0.1043930E+01  0.7957747E-01            NaN
         13   -1    0    0    0    0  0.00000000000E+00  0.00000000000E+00  0.74505805969E-08  0.10566000000E+00  0.10566000000E+00 0.  1.
     999900   -1    0    0    0    0 -0.00000000000E+00 -0.00000000000E+00 -0.74505805969E-08  0.93827000000E+00  0.93827000000E+00 0.  1.
     999902    2    1    2    0    0 -0.22171591938E-01 -0.11878381849E-02 -0.79964711548E-02  0.10203305509E+01  0.10200575959E+01 0.  0.
     999903    2    3    3    0    0  0.50546862386E-01  0.28304059566E-01 -0.11513645765E+00  0.13036610082E+00  0.19565563597E-01 0.  0.
         14    1    1    2    0    0  0.22171591938E-01  0.11878381849E-02  0.79964711548E-02  0.23599449137E-01  0.00000000000E+00 0. -1.
     999901    1    3    3    0    0 -0.72718454324E-01 -0.29491897751E-01  0.10713998649E+00  0.88996445004E+00  0.88000000000E+00 0. -1.
        -11    1    4    4    0    0  0.49255890607E-01  0.22417942750E-01 -0.94922678960E-01  0.10926702622E+00  0.51100000000E-03 0. -1.
         11    1    4    4    0    0  0.12909717793E-02  0.58861168159E-02 -0.20213778687E-01  0.21099074603E-01  0.51100000000E-03 0.  1.
</event>
<event>
 8    1  0.1207506E+005  0.1043930E+01  0.7957747E-01            NaN
         13   -1    0    0    0    0  0.00000000000E+00  0.00000000000E+00  0.74505805969E-08  0.10566000000E+00  0.10566000000E+00 0. -1.
     999900   -1    0    0    0    0 -0.00000000000E+00 -0.00000000000E+00 -0.74505805969E-08  0.93827000000E+00  0.93827000000E+00 0. -1.
     999902    2    1    2    0    0 -0.32129128835E-01  0.19812085096E-02  0.12716373997E-02  0.10117147370E+01  0.10112017039E+01 0.  0.
     999903    2    3    3    0    0  0.56535851900E-01  0.97476393382E-01 -0.41929976175E-01  0.12107048225E+00  0.14212281810E-01 0.  0.
         14    1    1    2    0    0  0.32129128835E-01 -0.19812085096E-02 -0.12716373997E-02  0.32215262975E-01  0.00000000000E+00 0.  1.
     999901    1    3    3    0    0 -0.88664980735E-01 -0.95495184872E-01  0.43201613575E-01  0.89064425477E+00  0.88000000000E+00 0.  1.
        -11    1    4    4    0    0  0.35459157772E-01  0.47037804666E-01 -0.21368660943E-01  0.62664086438E-01  0.51100000000E-03 0. -1.
         11    1    4    4    0    0  0.21076694128E-01  0.50438588716E-01 -0.20561315232E-01  0.58406395815E-01  0.51100000000E-03 0.  1.
</event>
<event>
 8    1  0.1071333E+005  0.1043930E+01  0.7957747E-01            NaN
         13   -1    0    0    0    0  0.00000000000E+00  0.00000000000E+00  0.74505805969E-08  0.10566000000E+00  0.10566000000E+00 0.  1.
     999900   -1    0    0    0    0 -0.00000000000E+00 -0.00000000000E+00 -0.74505805969E-08  0.93827000000E+00  0.93827000000E+00 0.  1.
     999902    2    1    2    0    0  0.14692920092E-01  0.84927110166E-02 -0.12683577779E-01  0.10227431837E+01  0.10225237105E+01 0.  0.
     999903    2    3    3    0    0  0.12919741488E+00  0.42649029331E-02 -0.34424944786E-01  0.13504850601E+00  0.18516499269E-01 0.  0.
         14    1    1    2    0    0 -0.14692920092E-01 -0.84927110166E-02  0.12683577779E-01  0.21186816338E-01  0.00000000000E+00 0.  1.
     999901    1    3    3    0    0 -0.11450449478E+00  0.42278080835E-02  0.21741367007E-01  0.88769467765E+00  0.88000000000E+00 0. -1.
        -11    1    4    4    0    0  0.47247832798E-01 -0.31862994129E-02 -0.48483630307E-02  0.47605440373E-01  0.51100000000E-03 0. -1.
         11    1    4    4    0    0  0.81949582079E-01  0.74512023459E-02 -0.29576581755E-01  0.87443065641E-01  0.51100000000E-03 0.  1.
</event>
<event>
 8    1  0.1071333E+005  0.1043930E+01  0.7957747E-01            NaN
         13   -1    0    0    0    0  0.00000000000E+00  0.00000000000E+00  0.74505805969E-08  0.10566000000E+00  0.10566000000E+00 0. -1.
     999900   -1    0    0    0    0 -0.00000000000E+00 -0.00000000000E+00 -0.74505805969E-08  0.93827000000E+00  0.93827000000E+00 0.  1.
     999902    2    1    2    0    0  0.20349873035E-02  0.15318832658E-01 -0.18254913735E-01  0.10200124399E+01  0.10197319882E+01 0.  0.
     999903    2    3    3    0    0 -0.55081290528E-03 -0.64161321772E-01 -0.11302010811E+00  0.13135940106E+00  0.19098921516E-01 0.  0.
         14    1    1    2    0    0 -0.20349873035E-02 -0.15318832658E-01  0.18254913735E-01  0.23917560135E-01  0.00000000000E+00 0. -1.
     999901    1    3    3    0    0  0.25858002088E-02  0.79480154430E-01  0.94765194376E-01  0.88865303880E+00  0.88000000000E+00 0. -1.
        -11    1    4    4    0    0 -0.60672722400E-02 -0.26919509891E-01 -0.62757982607E-01  0.68558714305E-01  0.51100000000E-03 0.  1.
         11    1    4    4    0    0  0.55164593348E-02 -0.37241811881E-01 -0.50262125504E-01  0.62800686756E-01  0.51100000000E-03 0. -1.
</event>
<event>
 7    1  0.1071333E+005  0.1043930E+01  0.7957747E-01            NaN
         13   -1    0    0    0    0  0.00000000000E+00  0.00000000000E+00  0.74505805969E-08  0.10566000000E+00  0.10566000000E+00 0. -1.
     999900   -1    0    0    0    0 -0.00000000000E+00 -0.00000000000E+00 -0.74505805969E-08  0.93827000000E+00  0.93827000000E+00 0.  1.
     999902    2    1    2    0    0  0.42583273107E-03 -0.16701819412E-01 -0.16867908527E-01  0.10201885080E+01  0.10199122185E+01 0.  0.
         14    1    1    2    0    0 -0.42583273107E-03  0.16701819412E-01  0.16867908527E-01  0.23741492019E-01  0.00000000000E+00 0. -1.
     999901    1    3    3    0    0 -0.46450071646E-01 -0.12603556029E+00  0.40101308351E-02  0.89020146751E+00  0.88000000000E+00 0.  1.
        -11    1    3    3    0    0  0.51369707365E-01  0.60983731277E-01 -0.13148685032E-01  0.80814672890E-01  0.51100000000E-03 0.  1.
         11    1    3    3    0    0 -0.44938029880E-02  0.48350009602E-01 -0.77293543302E-02  0.49172367577E-01  0.51100000000E-03 0. -1.
</event>
<event>
 8    1  0.1071333E+005  0.1043930E+01  0.7957747E-01            NaN
         13   -1    0    0    0    0  0.00000000000E+00  0.00000000000E+00  0.74505805969E-08  0.10566000000E+00  0.10566000000E+00 0.  1.
     999900   -1    0    0    0    0 -0.00000000000E+00 -0.00000000000E+00 -0.74505805969E-08  0.93827000000E+00  0.93827000000E+00 0.  1.
     999902    2    1    2    0    0  0.63723109263E-03 -0.21274811227E-01 -0.43902545934E-02  0.10221975820E+01  0.10219665350E+01 0.  0.
     999903    2    3    3    0    0 -0.82533066401E-01 -0.10291727224E+00  0.14856921464E-01  0.13430499639E+00  0.20333026429E-01 0.  0.
         14    1    1    2    0    0 -0.63723109263E-03  0.21274811227E-01  0.43902545934E-02  0.21732417988E-01  0.00000000000E+00 0.  1.
     999901    1    3    3    0    0  0.83170297493E-01  0.81642461014E-01 -0.19247176057E-01  0.88789258563E+00  0.88000000000E+00 0.  1.
        -11    1    4    4    0    0 -0.55275908139E-01 -0.60192339702E-01  0.86957999852E-03  0.81728581719E-01  0.51100000000E-03 0. -1.
         11    1    4    4    0    0 -0.27257158261E-01 -0.42724932538E-01  0.13987341465E-01  0.52576414666E-01  0.51100000000E-03 0.  1.
</event>
<event>
 8    1  0.1071333E+005  0.1043930E+01  0.7957747E-01            NaN
         13   -1    0    0    0    0  0.00000000000E+00  0.00000000000E+00  0.74505805969E-08  0.10566000000E+00  0.10566000000E+00 0. -1.
     999900   -1    0    0    0    0 -0.00000000000E+00 -0.00000000000E+00 -0.74505805969E-08  0.93827000000E+00  0.93827000000E+00 0. -1.
     999902    2    1    2    0    0 -0.11691261686E-01 -0.21175218446E-01  0.31325936813E-02  0.10195396614E+01  0.10192478759E+01 0.  0.
     999903    2    3    3    0    0  0.62466253932E-01  0.28678880678E-01  0.10703085488E+00  0.12893334148E+00  0.21063987535E-01 0.  0.
         14    1    1    2    0    0  0.11691261686E-01  0.21175218446E-01 -0.31325936813E-02  0.24390338646E-01  0.00000000000E+00 0.  1.
     999901    1    3    3    0    0 -0.74157515619E-01 -0.49854099125E-01 -0.10389826120E+00  0.89060631988E+00  0.88000000000E+00 0. -1.
        -11    1    4    4    0    0  0.35366829276E-01  0.25809082025E-01  0.56062415492E-01  0.71134920256E-01  0.51100000000E-03 0.  1.
         11    1    4    4    0    0  0.27099424656E-01  0.28697986529E-02  0.50968439390E-01  0.57798421223E-01  0.51100000000E-03 0. -1.
</event>
<event>
 8    1  0.1071333E+005  0.1043930E+01  0.7957747E-01            NaN
         13   -1    0    0    0    0  0.00000000000E+00  0.00000000000E+00  0.74505805969E-08  0.10566000000E+00  0.10566000000E+00 0.  1.
     999900   -1    0    0    0    0 -0.00000000000E+00 -0.00000000000E+00 -0.74505805969E-08  0.93827000000E+00  0.93827000000E+00 0.  1.
     999902    2    1    2    0    0  0.11545351682E-01  0.58943933941E-02 -0.19772653911E-01  0.10202868855E+01  0.10200129077E+01 0.  0.
     999903    2    3    3    0    0 -0.66841923944E-01  0.10955957986E+00 -0.14858447909E-01  0.13072790194E+00  0.19946592090E-01 0.  0.
         14    1    1    2    0    0 -0.11545351682E-01 -0.58943933941E-02  0.19772653911E-01  0.23643114465E-01  0.00000000000E+00 0.  1.
     999901    1    3    3    0    0  0.78387275626E-01 -0.10366518647E+00 -0.49142060013E-02  0.88955898359E+00  0.88000000000E+00 0.  1.
        -11    1    4    4    0    0 -0.24977071568E-01  0.33567916499E-01 -0.13456476136E-01  0.43954487748E-01  0.51100000000E-03 0.  1.
         11    1    4    4    0    0 -0.41864852376E-01  0.75991663365E-01 -0.14019717734E-02  0.86773414197E-01  0.51100000000E-03 0. -1.
</event>
<event>
 8    1  0.1071333E+005  0.1043930E+01  0.7957747E-01            NaN
         13   -1    0    0    0    0  0.00000000000E+00  0.00000000000E+00  0.74505805969E-08  0.10566000000E+00  0.10566000000E+00 0.  1.
     999900   -1    0    0    0    0 -0.00000000000E+00 -0.00000000000E+00 -0.74505805969E-08  0.93827000000E+00  0.93827000000E+00 0. -1.
     999902    2    1    2    0    0  0.20997814754E-02  0.20817402865E-02  0.23682022047E-01  0.10200641061E+01  0.10197848791E+01 0.  0.
     999903    2    3    3    0    0  0.12446973009E+00 -0.30158941401E-01  0.19403363750E-01  0.13100158139E+00  0.19561399362E-01 0.  0.
         14    1    1    2    0    0 -0.20997814754E-02 -0.20817402865E-02 -0.23682022047E-01  0.23865893930E-01  0.00000000000E+00 0. -1.
     999901    1    3    3    0    0 -0.12236994862E+00  0.32240681688E-01  0.42786582961E-02  0.88906252468E+00  0.88000000000E+00 0.  1.
        -11    1    4    4    0    0  0.25227130861E-01 -0.13615966918E-01  0.78521060659E-02  0.29727417938E-01  0.51100000000E-03 0.  1.
         11    1    4    4    0    0  0.99242599232E-01 -0.16542974483E-01  0.11551257685E-01  0.10127416345E+00  0.51100000000E-03 0. -1.
</event>
<event>
 8    1  0.1071333E+005  0.1043930E+01  0.7957747E-01            NaN
         13   -1    0    0    0    0  0.00000000000E+00  0.00000000000E+00  0.74505805969E-08  0.10566000000E+00  0.10566000000E+00 0. -1.
     999900   -1    0    0    0    0 -0.00000000000E+00 -0.00000000000E+00 -0.74505805969E-08  0.93827000000E+00  0.93827000000E+00 0.  1.
     999902    2    1    2    0    0 -0.20323185363E-01 -0.40606949655E-02  0.87593159542E-02  0.10214300728E+01  0.10211822300E+01 0.  0.
     999903    2    3    3    0    0  0.42531584287E-01 -0.32892029410E-01  0.11870595784E+00  0.13189635678E+00  0.20364754966E-01 0.  0.
         14    1    1    2    0    0  0.20323185363E-01  0.40606949655E-02 -0.87593159542E-02  0.22499927175E-01  0.00000000000E+00 0.  1.
     999901    1    3    3    0    0 -0.62854769650E-01  0.28831334444E-01 -0.10994664189E+00  0.88953371604E+00  0.88000000000E+00 0.  1.
        -11    1    4    4    0    0  0.36583757364E-01 -0.34273816661E-01  0.95063806367E-01  0.10747303947E+00  0.51100000000E-03 0. -1.
         11    1    4    4    0    0  0.59478269236E-02  0.13817872513E-02  0.23642151475E-01  0.24423317311E-01  0.51100000000E-03 0.  1.
</event>
<event>
 8    1  0.1071333E+005  0.1043930E+01  0.7957747E-01            NaN
         13   -1    0    0    0    0  0.00000000000E+00  0.00000000000E+00  0.74505805969E-08  0.10566000000E+00  0.10566000000E+00 0.  1.
     999900   -1    0    0    0    0 -0.00000000000E+00 -0.00000000000E+00 -0.74505805969E-08  0.93827000000E+00  0.93827000000E+00 0.  1.
     999902    2    1    2    0    0 -0.22615779074E-01  0.45503984131E-03 -0.87951014258E-02  0.10196599705E+01  0.10193710909E+01 0.  0.
     999903    2    3    3    0    0 -0.96278106351E-01  0.50790623893E-02  0.87887830171E-01  0.13129343052E+00  0.14779159893E-01 0.  0.
         14    1    1    2    0    0  0.22615779074E-01 -0.45503984131E-03  0.87951014258E-02  0.24270029532E-01  0.00000000000E+00 0. -1.
     999901    1    3    3    0    0  0.73662327277E-01 -0.46240225480E-02 -0.96682931597E-01  0.88836653995E+00  0.88000000000E+00 0.  1.
        -11    1    4    4    0    0 -0.23170506617E-01  0.50504401060E-02  0.15042396506E-01  0.28087615345E-01  0.51100000000E-03 0. -1.
         11    1    4    4    0    0 -0.73107599734E-01  0.28622283338E-04  0.72845433665E-01  0.10320581517E+00  0.51100000000E-03 0.  1.
</event>
<event>
 8    1  0.1071333E+005  0.1043930E+01  0.7957747E-01            NaN
         13   -1    0    0    0    0  0.00000000000E+00  0.00000000000E+00  0.74505805969E-08  0.10566000000E+00  0.10566000000E+00 0.  1.
     999900   -1    0    0    0    0 -0.00000000000E+00 -0.00000000000E+00 -0.74505805969E-08  0.93827000000E+00  0.93827000000E+00 0. -1.
     999902    2    1    2    0    0  0.54931289496E-02 -0.16988998297E-01  0.11940166306E-01  0.10224505191E+01  0.10222248754E+01 0.  0.
     999903    2    3    3    0    0 -0.18285552809E-01  0.12248660077E+00 -0.34798195945E-01  0.12992413687E+00  0.18221912379E-01 0.  0.
         14    1    1    2    0    0 -0.54931289496E-02  0.16988998297E-01 -0.11940166306E-01  0.21479480911E-01  0.00000000000E+00 0. -1.
     999901    1    3    3    0    0  0.23778681758E-01 -0.13947559907E+00  0.46738362251E-01  0.89252638221E+00  0.88000000000E+00 0. -1.
        -11    1    4    4    0    0 -0.72387917996E-02  0.79008242654E-01 -0.29928787308E-01  0.84797971348E-01  0.51100000000E-03 0.  1.
         11    1    4    4    0    0 -0.11046761009E-01  0.43478358120E-01 -0.48694086365E-02  0.45126165526E-01  0.51100000000E-03 0. -1.
</event>
<event>
 8    1  0.1071333E+005  0.1043930E+01  0.7957747E-01            NaN
         13   -1    0    0    0    0  0.00000000000E+00  0.00000000000E+00  0.74505805969E-08  0.10566000000E+00  0.10566000000E+00 0. -1.
     999900   -1    0    0    0    0 -0.00000000000E+00 -0.00000000000E+00 -0.74505805969E-08  0.93827000000E+00  0.93827000000E+00 0. -1.
     999902    2    1    2    0    0  0.50291333129E-02 -0.19827110709E-01 -0.36782786877E-03  0.10234717059E+01  0.10232672138E+01 0.  0.
     999903    2    3    3    0    0 -0.12399659643E+00 -0.72470526678E-02 -0.43044761822E-01  0.13295094953E+00  0.19885365536E-01 0.  0.
         14    1    1    2    0    0 -0.50291333129E-02  0.19827110709E-01  0.36782786877E-03  0.20458294120E-01  0.00000000000E+00 0. -1.
     999901    1    3    3    0    0  0.12902572974E+00 -0.12580058041E-01  0.42676933953E-01  0.89052075635E+00  0.88000000000E+00 0.  1.
        -11    1    4    4    0    0 -0.11097665413E+00 -0.12263464428E-01 -0.36010070339E-01  0.11731665103E+00  0.51100000000E-03 0. -1.
         11    1    4    4    0    0 -0.13019942301E-01  0.50164117605E-02 -0.70346914822E-02  0.15634298505E-01  0.51100000000E-03 0.  1.
</event>
<event>
 8    1  0.1071333E+005  0.1043930E+01  0.7957747E-01            NaN
         13   -1    0    0    0    0  0.00000000000E+00  0.00000000000E+00  0.74505805969E-08  0.10566000000E+00  0.10566000000E+00 0.  1.
     999900   -1    0    0    0    0 -0.00000000000E+00 -0.00000000000E+00 -0.74505805969E-08  0.93827000000E+00  0.93827000000E+00 0.  1.
     999902    2    1    2    0    0 -0.18029261307E-01 -0.12954222053E-01 -0.61724334786E-02  0.10208873207E+01  0.10206272368E+01 0.  0.
     999903    2    3    3    0    0 -0.80729059595E-01  0.94434519839E-01  0.36992542342E-01  0.13109699616E+00  0.19568204110E-01 0.  0.
         14    1    1    2    0    0  0.18029261307E-01  0.12954222053E-01  0.61724334786E-02  0.23042679257E-01  0.00000000000E+00 0.  1.
     999901    1    3    3    0    0  0.62699798288E-01 -0.10738874189E+00 -0.43164975820E-01  0.88979032459E+00  0.88000000000E+00 0.  1.
        -11    1    4    4    0    0 -0.56787645730E-01  0.78581789350E-01  0.30677603868E-01  0.10169223582E+00  0.51100000000E-03 0. -1.
         11    1    4    4    0    0 -0.23941413865E-01  0.15852730489E-01  0.63149384739E-02  0.29404760342E-01  0.51100000000E-03 0.  1.
</event>
<event>
 8    1  0.1071333E+005  0.1043930E+01  0.7957747E-01            NaN
         13   -1    0    0    0    0  0.00000000000E+00  0.00000000000E+00  0.74505805969E-08  0.10566000000E+00  0.10566000000E+00 0. -1.
     999900   -1    0    0    0    0 -0.00000000000E+00 -0.00000000000E+00 -0.74505805969E-08  0.93827000000E+00  0.93827000000E+00 0.  1.
     999902    2    1    2    0    0  0.39611586918E-02 -0.22687133512E-01 -0.50262341406E-02  0.10203575620E+01  0.10200852388E+01 0.  0.
     999903    2    3    3    0    0  0.14384569092E-01 -0.12346531881E+00 -0.43910343929E-01  0.13369141053E+00  0.22241271739E-01 0.  0.
         14    1    1    2    0    0 -0.39611586918E-02  0.22687133512E-01  0.50262341406E-02  0.23572438033E-01  0.00000000000E+00 0.  1.
     999901    1    3    3    0    0 -0.10423410400E-01  0.10077818530E+00  0.38884109788E-01  0.88666615144E+00  0.88000000000E+00 0. -1.
        -11    1    4    4    0    0  0.79645330837E-02 -0.11472120563E+00 -0.36934851709E-01  0.12078424235E+00  0.51100000000E-03 0.  1.
         11    1    4    4    0    0  0.64200360083E-02 -0.87441131748E-02 -0.69754922197E-02  0.12907168174E-01  0.51100000000E-03 0. -1.
</event>
<event>
 8    1  0.1071333E+005  0.1043930E+01  0.7957747E-01            NaN
         13   -1    0    0    0    0  0.00000000000E+00  0.00000000000E+00  0.74505805969E-08  0.10566000000E+00  0.10566000000E+00 0. -1.
     999900   -1    0    0    0    0 -0.00000000000E+00 -0.00000000000E+00 -0.74505805969E-08  0.93827000000E+00  0.93827000000E+00 0. -1.
     999902    2    1    2    0    0  0.17691504258E-01 -0.89716453031E-02  0.12748986523E-01  0.10203500000E+01  0.10200775001E+01 0.  0.
     999903    2    3    3    0    0 -0.88283132741E-01  0.43990722377E-02  0.93360248233E-01  0.13023339231E+00  0.20768658128E-01 0.  0.
         14    1    1    2    0    0 -0.17691504258E-01  0.89716453031E-02 -0.12748986523E-01  0.23579999994E-01  0.00000000000E+00 0.  1.
     999901    1    3    3    0    0  0.10597463700E+00 -0.13370717541E-01 -0.80611261710E-01  0.89011660769E+00  0.88000000000E+00 0. -1.
        -11    1    4    4    0    0 -0.46502614292E-01 -0.56950581676E-02  0.39205457408E-01  0.61092191278E-01  0.51100000000E-03 0. -1.
         11    1    4    4    0    0 -0.41780518449E-01  0.10094130405E-01  0.54154790825E-01  0.69141201036E-01  0.51100000000E-03 0.  1.
</event>
<event>
 8    1  0.1071333E+005  0.1043930E+01  0.7957747E-01            NaN
         13   -1    0    0    0    0  0.00000000000E+00  0.00000000000E+00  0.74505805969E-08  0.10566000000E+00  0.10566000000E+00 0.  1.
     999900   -1    0    0    0    0 -0.00000000000E+00 -0.00000000000E+00 -0.74505805969E-08  0.93827000000E+00  0.93827000000E+00 0.  1.
     999902    2    1    2    0    0 -0.14387672117E-01 -0.17611221457E-01 -0.45335351018E-02  0.10207413569E+01  0.10204779294E+01 0.  0.
     999903    2    3    3    0    0  0.42037744260E-01 -0.67989158527E-01 -0.10296159415E+00  0.13202889101E+00  0.20996203726E-01 0.  0.
         14    1    1    2    0    0  0.14387672117E-01  0.17611221457E-01  0.45335351018E-02  0.23188643140E-01  0.00000000000E+00 0. -1.
     999901    1    3    3    0    0 -0.56425416377E-01  0.50377937070E-01  0.98428059047E-01  0.88871246585E+00  0.88000000000E+00 0. -1.
        -11    1    4    4    0    0  0.15792007090E-01 -0.19140579685E-01 -0.18361245907E-01  0.30873058657E-01  0.51100000000E-03 0.  1.
         11    1    4    4    0    0  0.26245737171E-01 -0.48848578842E-01 -0.84600348242E-01  0.10115583235E+00  0.51100000000E-03 0. -1.
</event>
<event>
 8    1  0.1071333E+005  0.1043930E+01  0.7957747E-01            NaN
         13   -1    0    0    0    0  0.00000000000E+00  0.00000000000E+00  0.74505805969E-08  0.10566000000E+00  0.10566000000E+00 0.  1.
     999900   -1    0    0    0    0 -0.00000000000E+00 -0.00000000000E+00 -0.74505805969E-08  0.93827000000E+00  0.93827000000E+00 0.  1.
     999902    2    1    2    0    0 -0.96659636216E-02 -0.58809557546E-02 -0.20510599351E-01  0.10205056285E+01  0.10202367552E+01 0.  0.
     999903    2    3    3    0    0 -0.70358596114E-01  0.88015972241E-01 -0.66202331276E-01  0.13225568448E+00  0.20289750974E-01 0.  0.
         14    1    1    2    0    0  0.96659636216E-02  0.58809557546E-02  0.20510599351E-01  0.23424371476E-01  0.00000000000E+00 0.  1.
     999901    1    3    3    0    0  0.60692632492E-01 -0.93896927995E-01  0.45691731925E-01  0.88824994404E+00  0.88000000000E+00 0. -1.
        -11    1    4    4    0    0 -0.50174316105E-01  0.56460845827E-01 -0.54015729900E-01  0.92861452205E-01  0.51100000000E-03 0. -1.
         11    1    4    4    0    0 -0.20184280009E-01  0.31555126414E-01 -0.12186601376E-01  0.39394232276E-01  0.51100000000E-03 0.  1.
</event>
<event>
 8    1  0.1071333E+005  0.1043930E+01  0.7957747E-01            NaN
         13   -1    0    0    0    0  0.00000000000E+00  0.00000000000E+00  0.74505805969E-08  0.10566000000E+00  0.10566000000E+00 0.  1.
     999900   -1    0    0    0    0 -0.00000000000E+00 -0.00000000000E+00 -0.74505805969E-08  0.93827000000E+00  0.93827000000E+00 0. -1.
     999902    2    1    2    0    0 -0.15196454824E-01  0.17322639903E-01  0.17215762571E-02  0.10208222109E+01  0.10205606382E+01 0.  0.
     999903    2    3    3    0    0 -0.10497302693E+00 -0.75797400612E-01 -0.91879243881E-02  0.13129975921E+00  0.19764273121E-01 0.  0.
         14    1    1    2    0    0  0.15196454824E-01 -0.17322639903E-01 -0.17215762571E-02  0.23107789103E-01  0.00000000000E+00 0. -1.
     999901    1    3    3    0    0  0.89776572109E-01  0.93120040515E-01  0.10909500645E-01  0.88952245168E+00  0.88000000000E+00 0. -1.
        -11    1    4    4    0    0 -0.43093381038E-01 -0.33225341528E-01 -0.13493053420E-01  0.56065019580E-01  0.51100000000E-03 0.  1.
         11    1    4    4    0    0 -0.61879645895E-01 -0.42572059083E-01  0.43051290315E-02  0.75234739633E-01  0.51100000000E-03 0. -1.
</event>
<event>
 8    1  0.1071333E+005  0.1043930E+01  0.7957747E-01            NaN
         13   -1    0    0    0    0  0.00000000000E+00  0.00000000000E+00  0.74505805969E-08  0.10566000000E+00  0.10566000000E+00 0. -1.
     999900   -1    0    0    0    0 -0.00000000000E+00 -0.00000000000E+00 -0.74505805969E-08  0.93827000000E+00  0.93827000000E+00 0.  1.
     999902    2    1    2    0    0 -0.12492728578E-01 -0.18192336223E-01  0.35621390894E-02  0.10215756224E+01  0.10213310110E+01 0.  0.
     999903    2    3    3    0    0  0.93456335661E-02 -0.57297821639E-01 -0.11689546720E+00  0.13224093398E+00  0.21277526566E-01 0.  0.
         14    1    1    2    0    0  0.12492728578E-01  0.18192336223E-01 -0.35621390894E-02  0.22354377636E-01  0.00000000000E+00 0. -1.
     999901    1    3    3    0    0 -0.21838362144E-01  0.39105485415E-01  0.12045760629E+00  0.88933468838E+00  0.88000000000E+00 0. -1.
        -11    1    4    4    0    0  0.14297173695E-01 -0.40374864019E-01 -0.94321529961E-01  0.10359223405E+00  0.51100000000E-03 0.  1.
         11    1    4    4    0    0 -0.49515401289E-02 -0.16922957619E-01 -0.22573937239E-01  0.28648699931E-01  0.51100000000E-03 0. -1.
</event>
<event>
 8    1  0.1071333E+005  0.1043930E+01  0.7957747E-01            NaN
         13   -1    0    0    0    0  0.00000000000E+00  0.00000000000E+00  0.74505805969E-08  0.10566000000E+00  0.10566000000E+00 0.  1.
     999900   -1    0    0    0    0 -0.00000000000E+00 -0.00000000000E+00 -0.74505805969E-08  0.93827000000E+00  0.93827000000E+00 0.  1.
     999902    2    1    2    0    0 -0.11414806166E-01  0.17262853896E-01 -0.85420794254E-02  0.10215409168E+01  0.10212955369E+01 0.  0.
     999903    2    3    3    0    0  0.10796394082E+00 -0.66590374171E-01 -0.13381391358E-01  0.12951733640E+00  0.22476395279E-01 0.  0.
         14    1    1    2    0    0  0.11414806166E-01 -0.17262853896E-01  0.85420794254E-02  0.22389083173E-01  0.00000000000E+00 0.  1.
     999901    1    3    3    0    0 -0.11937874699E+00  0.83853228066E-01  0.48393119331E-02  0.89202358042E+00  0.88000000000E+00 0.  1.
        -11    1    4    4    0    0  0.67813009017E-01 -0.29213134890E-01 -0.10514088678E-01  0.74584305479E-01  0.51100000000E-03 0.  1.
         11    1    4    4    0    0  0.40150931804E-01 -0.37377239280E-01 -0.28673026808E-02  0.54933030925E-01  0.51100000000E-03 0. -1.
</event>
<event>
 8    1  0.1071333E+005  0.1043930E+01  0.7957747E-01            NaN
         13   -1    0    0    0    0  0.00000000000E+00  0.00000000000E+00  0.74505805969E-08  0.10566000000E+00  0.10566000000E+00 0.  1.
     999900   -1    0    0    0    0 -0.00000000000E+00 -0.00000000000E+00 -0.74505805969E-08  0.93827000000E+00  0.93827000000E+00 0.  1.
     999902    2    1    2    0    0  0.14175538470E-01  0.73710230320E-02  0.21893033882E-01  0.10168268119E+01  0.10164655344E+01 0.  0.
     999903    2    3    3    0    0  0.51979969178E-01  0.10830356251E+00 -0.39894352189E-01  0.12810062598E+00  0.19662964952E-01 0.  0.
         14    1    1    2    0    0 -0.14175538470E-01 -0.73710230320E-02 -0.21893033882E-01  0.27103188078E-01  0.00000000000E+00 0. -1.
     999901    1    3    3    0    0 -0.37804430708E-01 -0.10093253948E+00  0.61787386071E-01  0.88872618594E+00  0.88000000000E+00 0. -1.
        -11    1    4    4    0    0  0.17355601287E-01  0.58644525364E-01 -0.18654418716E-01  0.63942518795E-01  0.51100000000E-03 0. -1.
         11    1    4    4    0    0  0.34624367891E-01  0.49659037147E-01 -0.21239933473E-01  0.64158107182E-01  0.51100000000E-03 0.  1.
</event>
<event>
 8    1  0.1071333E+005  0.1043930E+01  0.7957747E-01            NaN
         13   -1    0    0    0    0  0.00000000000E+00  0.00000000000E+00  0.74505805969E-08  0.10566000000E+00  0.10566000000E+00 0. -1.
     999900   -1    0    0    0    0 -0.00000000000E+00 -0.00000000000E+00 -0.74505805969E-08  0.93827000000E+00  0.93827000000E+00 0.  1.
     999902    2    1    2    0    0 -0.95061460419E-02 -0.20196954429E-01  0.17939389297E-02  0.10215357597E+01  0.10212902655E+01 0.  0.
     999903    2    3    3    0    0  0.34917247672E-01 -0.28452035462E-01  0.12265585200E+00  0.13212630042E+00  0.19600222580E-01 0.  0.
         14    1    1    2    0    0  0.95061460419E-02  0.20196954429E-01 -0.17939389297E-02  0.22394240278E-01  0.00000000000E+00 0. -1.
     999901    1    3    3    0    0 -0.44423393713E-01  0.82550810339E-02 -0.12086191307E+00  0.88940945931E+00  0.88000000000E+00 0.  1.
        -11    1    4    4    0    0  0.34928735558E-01 -0.19223535545E-01  0.98752412284E-01  0.10649817341E+00  0.51100000000E-03 0.  1.
         11    1    4    4    0    0 -0.11487886233E-04 -0.92284999176E-02  0.23903439714E-01  0.25628127007E-01  0.51100000000E-03 0. -1.
</event>
<event>
 8    1  0.1071333E+005  0.1043930E+01  0.7957747E-01            NaN
         13   -1    0    0    0    0  0.00000000000E+00  0.00000000000E+00  0.74505805969E-08  0.10566000000E+00  0.10566000000E+00 0.  1.
     999900   -1    0    0    0    0 -0.00000000000E+00 -0.00000000000E+00 -0.74505805969E-08  0.93827000000E+00  0.93827000000E+00 0. -1.
     999902    2    1    2    0    0  0.66085679117E-02 -0.16529978485E-01 -0.15658102530E-01  0.10202215725E+01  0.10199460611E+01 0.  0.
     999903    2    3    3    0    0  0.11421940065E+00 -0.31557945095E-02  0.59756508995E-01  0.13036409868E+00  0.19181432029E-01 0.  0.
         14    1    1    2    0    0 -0.66085679117E-02  0.16529978485E-01  0.15658102530E-01  0.23708427476E-01  0.00000000000E+00 0.  1.
     999901    1    3    3    0    0 -0.10761083274E+00 -0.13374183975E-01 -0.75414611525E-01  0.88985747384E+00  0.88000000000E+00 0. -1.
        -11    1    4    4    0    0  0.87158840334E-01 -0.16607912604E-02  0.54328376709E-01  0.10271930351E+00  0.51100000000E-03 0.  1.
         11    1    4    4    0    0  0.27060560314E-01 -0.14950032491E-02  0.54281322858E-02  0.27644795177E-01  0.51100000000E-03 0. -1.
</event>
<event>
 8    1  0.1071333E+005  0.1043930E+01  0.7957747E-01            NaN
         13   -1    0    0    0    0  0.00000000000E+00  0.00000000000E+00  0.74505805969E-08  0.10566000000E+00  0.10566000000E+00 0.  1.
     999900   -1    0    0    0    0 -0.00000000000E+00 -0.00000000000E+00 -0.74505805969E-08  0.93827000000E+00  0.93827000000E+00 0.  1.
     999902    2    1    2    0    0  0.43178728656E-02  0.17122790866E-01  0.17617637601E-01  0.10189857592E+01  0.10186804025E+01 0.  0.
     999903    2    3    3    0    0  0.51804022633E-01 -0.93927951166E-01 -0.64728443893E-01  0.12692742096E+00  0.20363741619E-01 0.  0.
         14    1    1    2    0    0 -0.43178728656E-02 -0.17122790866E-01 -0.17617637601E-01  0.24944240773E-01  0.00000000000E+00 0. -1.
     999901    1    3    3    0    0 -0.47486149767E-01  0.11105074203E+00  0.82346081494E-01  0.89205833826E+00  0.88000000000E+00 0. -1.
        -11    1    4    4    0    0  0.43184933351E-01 -0.58487757284E-01 -0.42903721875E-01  0.84420060959E-01  0.51100000000E-03 0. -1.
         11    1    4    4    0    0  0.86190892814E-02 -0.35440193882E-01 -0.21824722018E-01  0.42507360005E-01  0.51100000000E-03 0.  1.
</event>
<event>
 8    1  0.1071333E+005  0.1043930E+01  0.7957747E-01            NaN
         13   -1    0    0    0    0  0.00000000000E+00  0.00000000000E+00  0.74505805969E-08  0.10566000000E+00  0.10566000000E+00 0.  1.
     999900   -1    0    0    0    0 -0.00000000000E+00 -0.00000000000E+00 -0.74505805969E-08  0.93827000000E+00  0.93827000000E+00 0. -1.
     999902    2    1    2    0    0  0.26159794624E-02 -0.90651350144E-02  0.21787489032E-01  0.10201873232E+01  0.10199110058E+01 0.  0.
     999903    2    3    3    0    0  0.95361550759E-01  0.22857234367E-01 -0.80992101613E-01  0.12879267275E+00  0.20286781548E-01 0.  0.
         14    1    1    2    0    0 -0.26159794624E-02  0.90651350144E-02 -0.21787489032E-01  0.23742676759E-01  0.00000000000E+00 0. -1.
     999901    1    3    3    0    0 -0.92745571296E-01 -0.31922369382E-01  0.10277959064E+00  0.89139465049E+00  0.88000000000E+00 0.  1.
        -11    1    4    4    0    0  0.55306226012E-01  0.33053794305E-02 -0.41292931105E-01  0.69101891791E-01  0.51100000000E-03 0.  1.
         11    1    4    4    0    0  0.40055324747E-01  0.19551854937E-01 -0.39699170508E-01  0.59690780963E-01  0.51100000000E-03 0. -1.
</event>
<event>
 8    1  0.1071333E+005  0.1043930E+01  0.7957747E-01            NaN
         13   -1    0    0    0    0  0.00000000000E+00  0.00000000000E+00  0.74505805969E-08  0.10566000000E+00  0.10566000000E+00 0. -1.
     999900   -1    0    0    0    0 -0.00000000000E+00 -0.00000000000E+00 -0.74505805969E-08  0.93827000000E+00  0.93827000000E+00 0.  1.
     999902    2    1    2    0    0 -0.13702329554E-01  0.16588741727E-01  0.99263856830E-02  0.10202345717E+01  0.10199593659E+01 0.  0.
     999903    2    3    3    0    0 -0.91417545733E-02  0.12647660064E+00  0.35418446340E-01  0.13302209126E+00  0.18987054402E-01 0.  0.
         14    1    1    2    0    0  0.13702329554E-01 -0.16588741727E-01 -0.99263856830E-02  0.23695428252E-01  0.00000000000E+00 0.  1.
     999901    1    3    3    0    0 -0.45605749808E-02 -0.10988785891E+00 -0.25492060657E-01  0.88721248049E+00  0.88000000000E+00 0. -1.
        -11    1    4    4    0    0 -0.63715226626E-02  0.98983629098E-01  0.35599097622E-01  0.10538459092E+00  0.51100000000E-03 0.  1.
         11    1    4    4    0    0 -0.27702319108E-02  0.27492971544E-01 -0.18065128176E-03  0.27637500340E-01  0.51100000000E-03 0. -1.
</event>
<event>
 8    1  0.1071333E+005  0.1043930E+01  0.7957747E-01            NaN
         13   -1    0    0    0    0  0.00000000000E+00  0.00000000000E+00  0.74505805969E-08  0.10566000000E+00  0.10566000000E+00 0. -1.
     999900   -1    0    0    0    0 -0.00000000000E+00 -0.00000000000E+00 -0.74505805969E-08  0.93827000000E+00  0.93827000000E+00 0. -1.
     999902    2    1    2    0    0 -0.15205189214E-01 -0.16862799971E-01 -0.57838581465E-02  0.10204991482E+01  0.10202301243E+01 0.  0.
     999903    2    3    3    0    0 -0.20319642186E-01  0.12539176430E+00  0.89861977169E-02  0.12893834081E+00  0.20207958055E-01 0.  0.
         14    1    1    2    0    0  0.15205189214E-01  0.16862799971E-01  0.57838581465E-02  0.23430851819E-01  0.00000000000E+00 0. -1.
     999901    1    3    3    0    0  0.51144529722E-02 -0.14225456427E+00 -0.14770055863E-01  0.89156080737E+00  0.88000000000E+00 0. -1.
        -11    1    4    4    0    0  0.19764567180E-02  0.47761857714E-01  0.50695826135E-02  0.48073518931E-01  0.51100000000E-03 0. -1.
         11    1    4    4    0    0 -0.22296098904E-01  0.77629906587E-01  0.39166151034E-02  0.80864821881E-01  0.51100000000E-03 0.  1.
</event>
<event>
 8    1  0.1071333E+005  0.1043930E+01  0.7957747E-01            NaN
         13   -1    0    0    0    0  0.00000000000E+00  0.00000000000E+00  0.74505805969E-08  0.10566000000E+00  0.10566000000E+00 0. -1.
     999900   -1    0    0    0    0 -0.00000000000E+00 -0.00000000000E+00 -0.74505805969E-08  0.93827000000E+00  0.93827000000E+00 0. -1.
     999902    2    1    2    0    0  0.15197429803E-01  0.51854767799E-02  0.35298134702E-02  0.10274888740E+01  0.10273573261E+01 0.  0.
     999903    2    3    3    0    0  0.74190227187E-01 -0.11321503858E+00 -0.14262964128E-01  0.13742403638E+00  0.18976270928E-01 0.  0.
         14    1    1    2    0    0 -0.15197429803E-01 -0.51854767799E-02 -0.35298134702E-02  0.16441126032E-01  0.00000000000E+00 0.  1.
     999901    1    3    3    0    0 -0.58992797384E-01  0.11840051536E+00  0.17792777599E-01  0.89006483759E+00  0.88000000000E+00 0. -1.
        -11    1    4    4    0    0  0.26364068205E-01 -0.42267139568E-01 -0.14408637254E-01  0.51859860472E-01  0.51100000000E-03 0.  1.
         11    1    4    4    0    0  0.47826158981E-01 -0.70947899010E-01  0.14567312540E-03  0.85564175906E-01  0.51100000000E-03 0. -1.
</event>
<event>
 8    1  0.1071333E+005  0.1043930E+01  0.7957747E-01            NaN
         13   -1    0    0    0    0  0.00000000000E+00  0.00000000000E+00  0.74505805969E-08  0.10566000000E+00  0.10566000000E+00 0.  1.
     999900   -1    0    0    0    0 -0.00000000000E+00 -0.00000000000E+00 -0.74505805969E-08  0.93827000000E+00  0.93827000000E+00 0.  1.
     999902    2    1    2    0    0  0.12820759342E-01  0.13929885355E-01 -0.10967734383E-01  0.10220506770E+01  0.10218164618E+01 0.  0.
     999903    2    3    3    0    0  0.21514809664E-01  0.58123828426E-01  0.11484076004E+00  0.13196277779E+00  0.19608877809E-01 0.  0.
         14    1    1    2    0    0 -0.12820759342E-01 -0.13929885355E-01  0.10967734383E-01  0.21879322969E-01  0.00000000000E+00 0.  1.
     999901    1    3    3    0    0 -0.86940503229E-02 -0.44193943070E-01 -0.12580849442E+00  0.89008789925E+00  0.88000000000E+00 0.  1.
        -11    1    4    4    0    0  0.43439358312E-02  0.17998275550E-01  0.53971748499E-01  0.57061532211E-01  0.51100000000E-03 0. -1.
         11    1    4    4    0    0  0.17170873833E-01  0.40125552875E-01  0.60869011539E-01  0.74901245574E-01  0.51100000000E-03 0.  1.
</event>
<event>
 7    1  0.1071333E+005  0.1043930E+01  0.7957747E-01            NaN
         13   -1    0    0    0    0  0.00000000000E+00  0.00000000000E+00  0.74505805969E-08  0.10566000000E+00  0.10566000000E+00 0.  1.
     999900   -1    0    0    0    0 -0.00000000000E+00 -0.00000000000E+00 -0.74505805969E-08  0.93827000000E+00  0.93827000000E+00 0. -1.
     999903    2    1    2    0    0  0.46107274418E-01 -0.23656230398E-01  0.84741974534E-01  0.10132307649E+00  0.19991638030E-01 0.  0.
         14    1    1    2    0    0  0.84322959585E-02 -0.42849223511E-01  0.27057335033E-01  0.51373718473E-01  0.00000000000E+00 0.  1.
     999901    1    1    2    0    0 -0.54539570376E-01  0.66505453909E-01 -0.11179930957E+00  0.89123320503E+00  0.88000000000E+00 0. -1.
        -11    1    3    3    0    0  0.20232678487E-01 -0.11472627922E-01  0.56606229635E-01  0.61200562290E-01  0.51100000000E-03 0. -1.
         11    1    3    3    0    0  0.25874595930E-01 -0.12183602476E-01  0.28135744900E-01  0.40122514202E-01  0.51100000000E-03 0.  1.
</event>
<event>
 8    1  0.1071333E+005  0.1043930E+01  0.7957747E-01            NaN
         13   -1    0    0    0    0  0.00000000000E+00  0.00000000000E+00  0.74505805969E-08  0.10566000000E+00  0.10566000000E+00 0.  1.
     999900   -1    0    0    0    0 -0.00000000000E+00 -0.00000000000E+00 -0.74505805969E-08  0.93827000000E+00  0.93827000000E+00 0.  1.
     999902    2    1    2    0    0  0.27833648185E-02  0.10760746117E-01 -0.19500830187E-01  0.10214839947E+01  0.10212373516E+01 0.  0.
     999903    2    3    3    0    0  0.80262282192E-01  0.97398066753E-01  0.34140746436E-01  0.13222226341E+00  0.19715958619E-01 0.  0.
         14    1    1    2    0    0 -0.27833648185E-02 -0.10760746117E-01  0.19500830187E-01  0.22446005317E-01  0.00000000000E+00 0.  1.
     999901    1    3    3    0    0 -0.77478917373E-01 -0.86637320636E-01 -0.53641576623E-01  0.88926173127E+00  0.88000000000E+00 0.  1.
        -11    1    4    4    0    0  0.52368810972E-01  0.49558540539E-01  0.15153399734E-01  0.73677866062E-01  0.51100000000E-03 0. -1.
         11    1    4    4    0    0  0.27893471220E-01  0.47839526214E-01  0.18987346702E-01  0.58544397348E-01  0.51100000000E-03 0.  1.
</event>
<event>
 8    1  0.1071333E+005  0.1043930E+01  0.7957747E-01            NaN
         13   -1    0    0    0    0  0.00000000000E+00  0.00000000000E+00  0.74505805969E-08  0.10566000000E+00  0.10566000000E+00 0. -1.
     999900   -1    0    0    0    0 -0.00000000000E+00 -0.00000000000E+00 -0.74505805969E-08  0.93827000000E+00  0.93827000000E+00 0. -1.
     999902    2    1    2    0    0  0.16007522212E-02 -0.68672043378E-03  0.23533151264E-01  0.10203324747E+01  0.10200595648E+01 0.  0.
     999903    2    3    3    0    0  0.86665571896E-01  0.81690242326E-01  0.50309616813E-01  0.13199753411E+00  0.26609667858E-01 0.  0.
         14    1    1    2    0    0 -0.16007522212E-02  0.68672043378E-03 -0.23533151264E-01  0.23597525316E-01  0.00000000000E+00 0.  1.
     999901    1    3    3    0    0 -0.85064819675E-01 -0.82376962760E-01 -0.26776465549E-01  0.88833494058E+00  0.88000000000E+00 0. -1.
        -11    1    4    4    0    0  0.40920216353E-01  0.32063706617E-01  0.35336668103E-01  0.62860851268E-01  0.51100000000E-03 0.  1.
         11    1    4    4    0    0  0.45745355543E-01  0.49626535709E-01  0.14972948710E-01  0.69136682841E-01  0.51100000000E-03 0. -1.
</event>
<event>
 8    1  0.1071333E+005  0.1043930E+01  0.7957747E-01            NaN
         13   -1    0    0    0    0  0.00000000000E+00  0.00000000000E+00  0.74505805969E-08  0.10566000000E+00  0.10566000000E+00 0. -1.
     999900   -1    0    0    0    0 -0.00000000000E+00 -0.00000000000E+00 -0.74505805969E-08  0.93827000000E+00  0.93827000000E+00 0.  1.
     999902    2    1    2    0    0 -0.22380318315E-01  0.39582841783E-02  0.66386698537E-02  0.10202526142E+01  0.10199778322E+01 0.  0.
     999903    2    3    3    0    0  0.37274385849E-01 -0.10465536399E+00  0.63168348472E-01  0.12977453312E+00  0.22562449920E-01 0.  0.
         14    1    1    2    0    0  0.22380318315E-01 -0.39582841783E-02 -0.66386698537E-02  0.23677385813E-01  0.00000000000E+00 0.  1.
     999901    1    3    3    0    0 -0.59654704163E-01  0.10861364816E+00 -0.56529678618E-01  0.89047808107E+00  0.88000000000E+00 0.  1.
        -11    1    4    4    0    0  0.26276869066E-01 -0.46781443299E-01  0.22478598698E-01  0.58176677504E-01  0.51100000000E-03 0.  1.
         11    1    4    4    0    0  0.10997516783E-01 -0.57873920687E-01  0.40689749774E-01  0.71597855616E-01  0.51100000000E-03 0. -1.
</event>
<event>
 8    1  0.1071333E+005  0.1043930E+01  0.7957747E-01            NaN
         13   -1    0    0    0    0  0.00000000000E+00  0.00000000000E+00  0.74505805969E-08  0.10566000000E+00  0.10566000000E+00 0.  1.
     999900   -1    0    0    0    0 -0.00000000000E+00 -0.00000000000E+00 -0.74505805969E-08  0.93827000000E+00  0.93827000000E+00 0. -1.
     999902    2    1    2    0    0 -0.11587597402E-01  0.16596463261E-01  0.14639285688E-01  0.10189495338E+01  0.10186432784E+01 0.  0.
     999903    2    3    3    0    0 -0.16173968156E-01 -0.11385845282E+00  0.55141981677E-01  0.12839914875E+00  0.14844484918E-01 0.  0.
         14    1    1    2    0    0  0.11587597402E-01 -0.16596463261E-01 -0.14639285688E-01  0.24980466205E-01  0.00000000000E+00 0.  1.
     999901    1    3    3    0    0  0.45863707539E-02  0.13045491608E+00 -0.40502695989E-01  0.89055038505E+00  0.88000000000E+00 0. -1.
        -11    1    4    4    0    0 -0.16545841210E-01 -0.67027314212E-01  0.35173009433E-01  0.77484368910E-01  0.51100000000E-03 0.  1.
         11    1    4    4    0    0  0.37187305361E-03 -0.46831138603E-01  0.19968972244E-01  0.50914779838E-01  0.51100000000E-03 0. -1.
</event>
<event>
 8    1  0.1071333E+005  0.1043930E+01  0.7957747E-01            NaN
         13   -1    0    0    0    0  0.00000000000E+00  0.00000000000E+00  0.74505805969E-08  0.10566000000E+00  0.10566000000E+00 0. -1.
     999900   -1    0    0    0    0 -0.00000000000E+00 -0.00000000000E+00 -0.74505805969E-08  0.93827000000E+00  0.93827000000E+00 0. -1.
     999902    2    1    2    0    0  0.15921789185E-01 -0.12992071045E-01 -0.11460858096E-01  0.10204002624E+01  0.10201289365E+01 0.  0.
     999903    2    3    3    0    0  0.20735862430E-01 -0.47334323118E-01 -0.12080621937E+00  0.13295506774E+00  0.20307468182E-01 0.  0.
         14    1    1    2    0    0 -0.15921789185E-01  0.12992071045E-01  0.11460858096E-01  0.23529737550E-01  0.00000000000E+00 0.  1.
     999901    1    3    3    0    0 -0.48140732445E-02  0.34342252072E-01  0.10934536127E+00  0.88744519471E+00  0.88000000000E+00 0.  1.
        -11    1    4    4    0    0  0.14354860172E-01 -0.38432093406E-01 -0.11064042155E+00  0.11800276190E+00  0.51100000000E-03 0.  1.
         11    1    4    4    0    0  0.63810022577E-02 -0.89022297119E-02 -0.10165797817E-01  0.14952305839E-01  0.51100000000E-03 0. -1.
</event>
<event>
 8    1  0.1071333E+005  0.1043930E+01  0.7957747E-01            NaN
         13   -1    0    0    0    0  0.00000000000E+00  0.00000000000E+00  0.74505805969E-08  0.10566000000E+00  0.10566000000E+00 0.  1.
     999900   -1    0    0    0    0 -0.00000000000E+00 -0.00000000000E+00 -0.74505805969E-08  0.93827000000E+00  0.93827000000E+00 0.  1.
     999902    2    1    2    0    0  0.21989625246E-01 -0.17891231104E-03  0.83623987066E-02  0.10204033058E+01  0.10201320508E+01 0.  0.
     999903    2    3    3    0    0 -0.47339308619E-02  0.11405092074E+00 -0.58932841542E-01  0.13007120339E+00  0.20381744657E-01 0.  0.
         14    1    1    2    0    0 -0.21989625246E-01  0.17891231104E-03 -0.83623987066E-02  0.23526694205E-01  0.00000000000E+00 0.  1.
     999901    1    3    3    0    0  0.26723556108E-01 -0.11422983306E+00  0.67295240248E-01  0.89033210240E+00  0.88000000000E+00 0. -1.
        -11    1    4    4    0    0 -0.11451779605E-01  0.95990341621E-01 -0.49617602004E-01  0.10866212077E+00  0.51100000000E-03 0. -1.
         11    1    4    4    0    0  0.67178487432E-02  0.18060579123E-01 -0.93152395374E-02  0.21409082620E-01  0.51100000000E-03 0.  1.
</event>
<event>
 8    1  0.1174898E+005  0.1043930E+01  0.7957747E-01            NaN
         13   -1    0    0    0    0  0.00000000000E+00  0.00000000000E+00  0.74505805969E-08  0.10566000000E+00  0.10566000000E+00 0. -1.
     999900   -1    0    0    0    0 -0.00000000000E+00 -0.00000000000E+00 -0.74505805969E-08  0.93827000000E+00  0.93827000000E+00 0.  1.
     999902    2    1    2    0    0  0.55022488229E-02  0.83979369691E-02  0.21435340279E-01  0.10202598944E+01  0.10199852833E+01 0.  0.
     999903    2    3    3    0    0  0.73803579638E-01  0.10605494577E+00  0.18905466222E-01  0.13222365445E+00  0.20761942416E-01 0.  0.
         14    1    1    2    0    0 -0.55022488229E-02 -0.83979369691E-02 -0.21435340279E-01  0.23670105625E-01  0.00000000000E+00 0.  1.
     999901    1    3    3    0    0 -0.68301330815E-01 -0.97657008802E-01  0.25298740564E-02  0.88803623993E+00  0.88000000000E+00 0.  1.
        -11    1    4    4    0    0  0.37420714256E-01  0.38105523628E-01  0.12678902321E-01  0.54894047687E-01  0.51100000000E-03 0.  1.
         11    1    4    4    0    0  0.36382865382E-01  0.67949422143E-01  0.62265639014E-02  0.77329606762E-01  0.51100000000E-03 0. -1.
</event>
<event>
 8    1  0.1071333E+005  0.1043930E+01  0.7957747E-01            NaN
         13   -1    0    0    0    0  0.00000000000E+00  0.00000000000E+00  0.74505805969E-08  0.10566000000E+00  0.10566000000E+00 0.  1.
     999900   -1    0    0    0    0 -0.00000000000E+00 -0.00000000000E+00 -0.74505805969E-08  0.93827000000E+00  0.93827000000E+00 0. -1.
     999902    2    1    2    0    0  0.22974755228E-01 -0.42100828686E-02 -0.41529439500E-02  0.10202063595E+01  0.10199304902E+01 0.  0.
     999903    2    3    3    0    0 -0.96853982144E-01 -0.79037681455E-01 -0.23221272130E-01  0.12873471275E+00  0.20143233101E-01 0.  0.
         14    1    1    2    0    0 -0.22974755228E-01  0.42100828686E-02  0.41529439500E-02  0.23723640509E-01  0.00000000000E+00 0.  1.
     999901    1    3    3    0    0  0.11982873737E+00  0.74827598586E-01  0.19068328180E-01  0.89147164674E+00  0.88000000000E+00 0.  1.
        -11    1    4    4    0    0 -0.25664732338E-01 -0.23249947469E-01 -0.15549051967E-01  0.37964097268E-01  0.51100000000E-03 0.  1.
         11    1    4    4    0    0 -0.71189249806E-01 -0.55787733986E-01 -0.76722201632E-02  0.90770615479E-01  0.51100000000E-03 0. -1.
</event>
<event>
 8    1  0.1071333E+005  0.1043930E+01  0.7957747E-01            NaN
         13   -1    0    0    0    0  0.00000000000E+00  0.00000000000E+00  0.74505805969E-08  0.10566000000E+00  0.10566000000E+00 0. -1.
     999900   -1    0    0    0    0 -0.00000000000E+00 -0.00000000000E+00 -0.74505805969E-08  0.93827000000E+00  0.93827000000E+00 0.  1.
     999902    2    1    2    0    0  0.14206106997E-01  0.88055925420E-02  0.19426935597E-01  0.10183027145E+01  0.10179801867E+01 0.  0.
     999903    2    3    3    0    0  0.44020471146E-03  0.52334390861E-02 -0.12460123148E+00  0.12648077416E+00  0.21079295023E-01 0.  0.
         14    1    1    2    0    0 -0.14206106997E-01 -0.88055925420E-02 -0.19426935597E-01  0.25627285512E-01  0.00000000000E+00 0.  1.
     999901    1    3    3    0    0  0.13765902285E-01  0.35721534558E-02  0.14402816708E+00  0.89182194033E+00  0.88000000000E+00 0. -1.
        -11    1    4    4    0    0 -0.27116549579E-02  0.11147842495E-01 -0.40084070690E-01  0.41696778161E-01  0.51100000000E-03 0.  1.
         11    1    4    4    0    0  0.31518596694E-02 -0.59144034091E-02 -0.84517160794E-01  0.84783995995E-01  0.51100000000E-03 0. -1.
</event>
<event>
 8    1  0.1071333E+005  0.1043930E+01  0.7957747E-01            NaN
         13   -1    0    0    0    0  0.00000000000E+00  0.00000000000E+00  0.74505805969E-08  0.10566000000E+00  0.10566000000E+00 0.  1.
     999900   -1    0    0    0    0 -0.00000000000E+00 -0.00000000000E+00 -0.74505805969E-08  0.93827000000E+00  0.93827000000E+00 0. -1.
     999902    2    1    2    0    0 -0.18293758193E-01 -0.28308706919E-02  0.11359852664E-01  0.10222108455E+01  0.10219800835E+01 0.  0.
     999903    2    3    3    0    0 -0.11685149497E+00  0.11898504051E-01 -0.60663646032E-01  0.13366261032E+00  0.19742572592E-01 0.  0.
         14    1    1    2    0    0  0.18293758193E-01  0.28308706919E-02 -0.11359852664E-01  0.21719154455E-01  0.00000000000E+00 0. -1.
     999901    1    3    3    0    0  0.98557736775E-01 -0.14729374743E-01  0.72023498696E-01  0.88854823523E+00  0.88000000000E+00 0. -1.
        -11    1    4    4    0    0 -0.26275880575E-01 -0.27730333813E-02 -0.20750994870E-01  0.33600245881E-01  0.51100000000E-03 0.  1.
         11    1    4    4    0    0 -0.90575614393E-01  0.14671537433E-01 -0.39912651161E-01  0.10006236444E+00  0.51100000000E-03 0. -1.
</event>
<event>
 8    1  0.1071333E+005  0.1043930E+01  0.7957747E-01            NaN
         13   -1    0    0    0    0  0.00000000000E+00  0.00000000000E+00  0.74505805969E-08  0.10566000000E+00  0.10566000000E+00 0. -1.
     999900   -1    0    0    0    0 -0.00000000000E+00 -0.00000000000E+00 -0.74505805969E-08  0.93827000000E+00  0.93827000000E+00 0. -1.
     999902    2    1    2    0    0 -0.59372151469E-02 -0.22327849172E-01 -0.58348503597E-02  0.10201008403E+01  0.10198224824E+01 0.  0.
     999903    2    3    3    0    0  0.52186540218E-01  0.69800536621E-01 -0.93183139942E-01  0.12909257206E+00  0.19653109174E-01 0.  0.
         14    1    1    2    0    0  0.59372151469E-02  0.22327849172E-01  0.58348503597E-02  0.23829159681E-01  0.00000000000E+00 0.  1.
     999901    1    3    3    0    0 -0.58123755365E-01 -0.92128385794E-01  0.87348289582E-01  0.89100826826E+00  0.88000000000E+00 0. -1.
        -11    1    4    4    0    0  0.36653317364E-01  0.36875440756E-01 -0.45455971524E-01  0.69063523462E-01  0.51100000000E-03 0. -1.
         11    1    4    4    0    0  0.15533222854E-01  0.32925095866E-01 -0.47727168417E-01  0.60029048602E-01  0.51100000000E-03 0.  1.
</event>
<event>
 8    1  0.1071333E+005  0.1043930E+01  0.7957747E-01            NaN
         13   -1    0    0    0    0  0.00000000000E+00  0.00000000000E+00  0.74505805969E-08  0.10566000000E+00  0.10566000000E+00 0. -1.
     999900   -1    0    0    0    0 -0.00000000000E+00 -0.00000000000E+00 -0.74505805969E-08  0.93827000000E+00  0.93827000000E+00 0.  1.
     999902    2    1    2    0    0 -0.14018754770E-01 -0.15275752211E-01  0.31825963650E-02  0.10229537513E+01  0.10227386637E+01 0.  0.
     999903    2    3    3    0    0 -0.20562133880E-01 -0.13197504040E+00  0.75935975597E-02  0.13521448967E+00  0.19623528067E-01 0.  0.
         14    1    1    2    0    0  0.14018754770E-01  0.15275752211E-01 -0.31825963650E-02  0.20976248724E-01  0.00000000000E+00 0.  1.
     999901    1    3    3    0    0  0.65433791099E-02  0.11669928819E+00 -0.44110011947E-02  0.88773926161E+00  0.88000000000E+00 0.  1.
        -11    1    4    4    0    0 -0.52588750010E-02 -0.78732474747E-01 -0.22724974315E-02  0.78942280887E-01  0.51100000000E-03 0. -1.
         11    1    4    4    0    0 -0.15303258879E-01 -0.53242565650E-01  0.98660949911E-02  0.56272208778E-01  0.51100000000E-03 0.  1.
</event>
<event>
 8    1  0.1071333E+005  0.1043930E+01  0.7957747E-01            NaN
         13   -1    0    0    0    0  0.00000000000E+00  0.00000000000E+00  0.74505805969E-08  0.10566000000E+00  0.10566000000E+00 0.  1.
     999900   -1    0    0    0    0 -0.00000000000E+00 -0.00000000000E+00 -0.74505805969E-08  0.93827000000E+00  0.93827000000E+00 0.  1.
     999902    2    1    2    0    0  0.65731444492E-02  0.22202607789E-01 -0.65669972767E-02  0.10198616084E+01  0.10195775659E+01 0.  0.
     999903    2    3    3    0    0 -0.86482535141E-01  0.86593908932E-01  0.42320804724E-01  0.13126967937E+00  0.21516139548E-01 0.  0.
         14    1    1    2    0    0 -0.65731444492E-02 -0.22202607789E-01  0.65669972767E-02  0.24068391592E-01  0.00000000000E+00 0. -1.
     999901    1    3    3    0    0  0.93055679590E-01 -0.64391301143E-01 -0.48887802001E-01  0.88859192904E+00  0.88000000000E+00 0.  1.
        -11    1    4    4    0    0 -0.56947386771E-01  0.46090906115E-01  0.17473335654E-01  0.75319021942E-01  0.51100000000E-03 0.  1.
         11    1    4    4    0    0 -0.29535148370E-01  0.40503002816E-01  0.24847469070E-01  0.55950657428E-01  0.51100000000E-03 0. -1.
</event>
<event>
 8    1  0.1071333E+005  0.1043930E+01  0.7957747E-01            NaN
         13   -1    0    0    0    0  0.00000000000E+00  0.00000000000E+00  0.74505805969E-08  0.10566000000E+00  0.10566000000E+00 0. -1.
     999900   -1    0    0    0    0 -0.00000000000E+00 -0.00000000000E+00 -0.74505805969E-08  0.93827000000E+00  0.93827000000E+00 0.  1.
     999902    2    1    2    0    0 -0.14223209713E-01  0.10099915207E-01 -0.16017324426E-01  0.10202474608E+01  0.10199725578E+01 0.  0.
     999903    2    3    3    0    0  0.86249684828E-01  0.56146326058E-01 -0.78359584659E-01  0.13114587385E+00  0.21624006490E-01 0.  0.
         14    1    1    2    0    0  0.14223209713E-01 -0.10099915207E-01  0.16017324426E-01  0.23682539211E-01  0.00000000000E+00 0. -1.
     999901    1    3    3    0    0 -0.10047289454E+00 -0.46046410851E-01  0.62342260233E-01  0.88910158694E+00  0.88000000000E+00 0. -1.
        -11    1    4    4    0    0  0.54062674650E-01  0.43733015619E-01 -0.61100604886E-01  0.92568323328E-01  0.51100000000E-03 0. -1.
         11    1    4    4    0    0  0.32187010179E-01  0.12413310439E-01 -0.17258979773E-01  0.38577550520E-01  0.51100000000E-03 0.  1.
</event>
<event>
 8    1  0.1071333E+005  0.1043930E+01  0.7957747E-01            NaN
         13   -1    0    0    0    0  0.00000000000E+00  0.00000000000E+00  0.74505805969E-08  0.10566000000E+00  0.10566000000E+00 0. -1.
     999900   -1    0    0    0    0 -0.00000000000E+00 -0.00000000000E+00 -0.74505805969E-08  0.93827000000E+00  0.93827000000E+00 0. -1.
     999902    2    1    2    0    0 -0.77348985148E-02  0.30342601091E-01 -0.85673150294E-02  0.10114661588E+01  0.10109450477E+01 0.  0.
     999903    2    3    3    0    0 -0.79696042976E-01 -0.63005735788E-01 -0.64312313451E-01  0.12185960358E+00  0.19811797385E-01 0.  0.
         14    1    1    2    0    0  0.77348985148E-02 -0.30342601091E-01  0.85673150294E-02  0.32463841159E-01  0.00000000000E+00 0.  1.
     999901    1    3    3    0    0  0.71961144461E-01  0.93348336879E-01  0.55744998422E-01  0.88960655526E+00  0.88000000000E+00 0.  1.
        -11    1    4    4    0    0 -0.46184639300E-01 -0.34000829869E-01 -0.24813877952E-01  0.62490535275E-01  0.51100000000E-03 0. -1.
         11    1    4    4    0    0 -0.33511403676E-01 -0.29004905919E-01 -0.39498435499E-01  0.59369068307E-01  0.51100000000E-03 0.  1.
</event>
<event>
 8    1  0.1071333E+005  0.1043930E+01  0.7957747E-01            NaN
         13   -1    0    0    0    0  0.00000000000E+00  0.00000000000E+00  0.74505805969E-08  0.10566000000E+00  0.10566000000E+00 0. -1.
     999900   -1    0    0    0    0 -0.00000000000E+00 -0.00000000000E+00 -0.74505805969E-08  0.93827000000E+00  0.93827000000E+00 0.  1.
     999902    2    1    2    0    0  0.21693916255E-01 -0.26114901867E-02  0.66001572933E-02  0.10211044012E+01  0.10208492495E+01 0.  0.
     999903    2    3    3    0    0  0.10111591136E+00 -0.76105209451E-01  0.39089739713E-01  0.13388134412E+00  0.19487845379E-01 0.  0.
         14    1    1    2    0    0 -0.21693916255E-01  0.26114901867E-02 -0.66001572933E-02  0.22825598783E-01  0.00000000000E+00 0. -1.
     999901    1    3    3    0    0 -0.79421995103E-01  0.73493719264E-01 -0.32489582420E-01  0.88722305710E+00  0.88000000000E+00 0.  1.
        -11    1    4    4    0    0  0.73208417396E-01 -0.45601960527E-01  0.21124415464E-01  0.88800412337E-01  0.51100000000E-03 0. -1.
         11    1    4    4    0    0  0.27907493962E-01 -0.30503248924E-01  0.17965324249E-01  0.45080931784E-01  0.51100000000E-03 0.  1.
</event>
<event>
 8    1  0.1071333E+005  0.1043930E+01  0.7957747E-01            NaN
         13   -1    0    0    0    0  0.00000000000E+00  0.00000000000E+00  0.74505805969E-08  0.10566000000E+00  0.10566000000E+00 0.  1.
     999900   -1    0    0    0    0 -0.00000000000E+00 -0.00000000000E+00 -0.74505805969E-08  0.93827000000E+00  0.93827000000E+00 0.  1.
     999902    2    1    2    0    0 -0.24190690019E-02 -0.14856931706E-01  0.13709476727E-01  0.10235699885E+01  0.10233674762E+01 0.  0.
     999903    2    3    3    0    0  0.43833976177E-01 -0.18698045335E-01 -0.12150862896E+00  0.13203309393E+00  0.19933805828E-01 0.  0.
         14    1    1    2    0    0  0.24190690019E-02  0.14856931706E-01 -0.13709476727E-01  0.20360011461E-01  0.00000000000E+00 0.  1.
     999901    1    3    3    0    0 -0.46253045179E-01  0.38411136292E-02  0.13521810569E+00  0.89153689461E+00  0.88000000000E+00 0. -1.
        -11    1    4    4    0    0  0.13993527176E-01  0.24503912283E-02 -0.45721985734E-01  0.47880939010E-01  0.51100000000E-03 0. -1.
         11    1    4    4    0    0  0.29840449001E-01 -0.21148436564E-01 -0.75786643224E-01  0.84152154921E-01  0.51100000000E-03 0.  1.
</event>
<event>
 8    1  0.1071333E+005  0.1043930E+01  0.7957747E-01            NaN
         13   -1    0    0    0    0  0.00000000000E+00  0.00000000000E+00  0.74505805969E-08  0.10566000000E+00  0.10566000000E+00 0.  1.
     999900   -1    0    0    0    0 -0.00000000000E+00 -0.00000000000E+00 -0.74505805969E-08  0.93827000000E+00  0.93827000000E+00 0.  1.
     999902    2    1    2    0    0 -0.77175141500E-02  0.75084844621E-02  0.21529282657E-01  0.10198582868E+01  0.10195741649E+01 0.  0.
     999903    2    3    3    0    0 -0.51143074276E-01  0.82868566166E-01 -0.82871570668E-01  0.12942891884E+00  0.20033334794E-01 0.  0.
         14    1    1    2    0    0  0.77175141500E-02 -0.75084844621E-02 -0.21529282657E-01  0.24071713177E-01  0.00000000000E+00 0. -1.
     999901    1    3    3    0    0  0.43425560126E-01 -0.75360081703E-01  0.10440085332E+00  0.89042936798E+00  0.88000000000E+00 0. -1.
        -11    1    4    4    0    0 -0.11927813114E-02  0.15484064575E-01 -0.13001830459E-01  0.20260496029E-01  0.51100000000E-03 0.  1.
         11    1    4    4    0    0 -0.49950292965E-01  0.67384501590E-01 -0.69869740209E-01  0.10916842281E+00  0.51100000000E-03 0. -1.
</event>
<event>
 8    1  0.1071333E+005  0.1043930E+01  0.7957747E-01            NaN
         13   -1    0    0    0    0  0.00000000000E+00  0.00000000000E+00  0.74505805969E-08  0.10566000000E+00  0.10566000000E+00 0.  1.
     999900   -1    0    0    0    0 -0.00000000000E+00 -0.00000000000E+00 -0.74505805969E-08  0.93827000000E+00  0.93827000000E+00 0. -1.
     999902    2    1    2    0    0  0.44827045329E-02 -0.15199787039E-01 -0.18014286733E-01  0.10199374451E+01  0.10196552109E+01 0.  0.
     999903    2    3    3    0    0 -0.29895020932E-01  0.11432688010E+00  0.43759308038E-01  0.12765107706E+00  0.20385598959E-01 0.  0.
         14    1    1    2    0    0 -0.44827045329E-02  0.15199787039E-01  0.18014286733E-01  0.23992554938E-01  0.00000000000E+00 0.  1.
     999901    1    3    3    0    0  0.34377725465E-01 -0.12952666714E+00 -0.61773594771E-01  0.89228636800E+00  0.88000000000E+00 0. -1.
        -11    1    4    4    0    0 -0.25842935278E-01  0.78120788246E-01  0.38466005581E-01  0.90832866113E-01  0.51100000000E-03 0. -1.
         11    1    4    4    0    0 -0.40520856538E-02  0.36206091855E-01  0.52933024571E-02  0.36818210949E-01  0.51100000000E-03 0.  1.
</event>
<event>
 8    1  0.1071333E+005  0.1043930E+01  0.7957747E-01            NaN
         13   -1    0    0    0    0  0.00000000000E+00  0.00000000000E+00  0.74505805969E-08  0.10566000000E+00  0.10566000000E+00 0.  1.
     999900   -1    0    0    0    0 -0.00000000000E+00 -0.00000000000E+00 -0.74505805969E-08  0.93827000000E+00  0.93827000000E+00 0.  1.
     999902    2    1    2    0    0 -0.66104195483E-02 -0.17054202920E-01 -0.16914572942E-01  0.10190172269E+01  0.10187126496E+01 0.  0.
     999903    2    3    3    0    0 -0.20175552952E-01 -0.12705338644E+00 -0.22020017889E-01  0.13205054279E+00  0.20071091647E-01 0.  0.
         14    1    1    2    0    0  0.66104195483E-02  0.17054202920E-01  0.16914572942E-01  0.24912773062E-01  0.00000000000E+00 0.  1.
     999901    1    3    3    0    0  0.13565133403E-01  0.10999918352E+00  0.51054449474E-02  0.88696668415E+00  0.88000000000E+00 0.  1.
        -11    1    4    4    0    0 -0.14558513551E-01 -0.51679331869E-01 -0.16910504485E-01  0.56293249526E-01  0.51100000000E-03 0.  1.
         11    1    4    4    0    0 -0.56170394003E-02 -0.75374054574E-01 -0.51095134038E-02  0.75757293265E-01  0.51100000000E-03 0. -1.
</event>
<event>
 8    1  0.1071333E+005  0.1043930E+01  0.7957747E-01            NaN
         13   -1    0    0    0    0  0.00000000000E+00  0.00000000000E+00  0.74505805969E-08  0.10566000000E+00  0.10566000000E+00 0.  1.
     999900   -1    0    0    0    0 -0.00000000000E+00 -0.00000000000E+00 -0.74505805969E-08  0.93827000000E+00  0.93827000000E+00 0.  1.
     999902    2    1    2    0    0 -0.20094529713E-01  0.11598396396E-01  0.53010696032E-02  0.10201305407E+01  0.10198528844E+01 0.  0.
     999903    2    3    3    0    0  0.11509055035E+00  0.53509496568E-01  0.98501411739E-02  0.12881003706E+00  0.19644321359E-01 0.  0.
         14    1    1    2    0    0  0.20094529713E-01 -0.11598396396E-01 -0.53010696032E-02  0.23799459286E-01  0.00000000000E+00 0. -1.
     999901    1    3    3    0    0 -0.13518508007E+00 -0.41911100172E-01 -0.45490715708E-02  0.89132050366E+00  0.88000000000E+00 0. -1.
        -11    1    4    4    0    0  0.46304525121E-01  0.12570079807E-01  0.86233515941E-02  0.48751812959E-01  0.51100000000E-03 0.  1.
         11    1    4    4    0    0  0.68786025231E-01  0.40939416761E-01  0.12267895798E-02  0.80058224097E-01  0.51100000000E-03 0. -1.
</event>
<event>
 8    1  0.1071333E+005  0.1043930E+01  0.7957747E-01            NaN
         13   -1    0    0    0    0  0.00000000000E+00  0.00000000000E+00  0.74505805969E-08  0.10566000000E+00  0.10566000000E+00 0. -1.
     999900   -1    0    0    0    0 -0.00000000000E+00 -0.00000000000E+00 -0.74505805969E-08  0.93827000000E+00  0.93827000000E+00 0. -1.
     999902    2    1    2    0    0 -0.15361001748E-01 -0.15170229870E-01  0.92956195863E-02  0.10204245795E+01  0.10201538206E+01 0.  0.
     999903    2    3    3    0    0 -0.98226876503E-01  0.12242805719E-01 -0.83783802649E-01  0.13122156188E+00  0.20024164299E-01 0.  0.
         14    1    1    2    0    0  0.15361001748E-01  0.15170229870E-01 -0.92956195863E-02  0.23505420492E-01  0.00000000000E+00 0.  1.
     999901    1    3    3    0    0  0.82865874755E-01 -0.27413035589E-01  0.93079422235E-01  0.88920301763E+00  0.88000000000E+00 0.  1.
        -11    1    4    4    0    0 -0.85787352563E-01  0.17316198635E-01 -0.71543514314E-01  0.11304006439E+00  0.51100000000E-03 0.  1.
         11    1    4    4    0    0 -0.12439523940E-01 -0.50733929154E-02 -0.12240288335E-01  0.18181497492E-01  0.51100000000E-03 0. -1.
</event>
<event>
 8    1  0.1071333E+005  0.1043930E+01  0.7957747E-01            NaN
         13   -1    0    0    0    0  0.00000000000E+00  0.00000000000E+00  0.74505805969E-08  0.10566000000E+00  0.10566000000E+00 0.  1.
     999900   -1    0    0    0    0 -0.00000000000E+00 -0.00000000000E+00 -0.74505805969E-08  0.93827000000E+00  0.93827000000E+00 0. -1.
     999902    2    1    2    0    0  0.16696830261E-01  0.78391109697E-02  0.11993241238E-01  0.10219283265E+01  0.10216914558E+01 0.  0.
     999903    2    3    3    0    0  0.58073147822E-01  0.76790707702E-01 -0.88562904366E-01  0.13255896523E+00  0.21428671095E-01 0.  0.
         14    1    1    2    0    0 -0.16696830261E-01 -0.78391109697E-02 -0.11993241238E-01  0.22001673504E-01  0.00000000000E+00 0.  1.
     999901    1    3    3    0    0 -0.41376317560E-01 -0.68951596732E-01  0.10055614560E+00  0.88936936127E+00  0.88000000000E+00 0.  1.
        -11    1    4    4    0    0  0.48893660656E-01  0.73481727995E-01 -0.83722396966E-01  0.12165465579E+00  0.51100000000E-03 0. -1.
         11    1    4    4    0    0  0.91794871656E-02  0.33089797070E-02 -0.48405074001E-02  0.10904309433E-01  0.51100000000E-03 0.  1.
</event>
<event>
 8    1  0.1071333E+005  0.1043930E+01  0.7957747E-01            NaN
         13   -1    0    0    0    0  0.00000000000E+00  0.00000000000E+00  0.74505805969E-08  0.10566000000E+00  0.10566000000E+00 0.  1.
     999900   -1    0    0    0    0 -0.00000000000E+00 -0.00000000000E+00 -0.74505805969E-08  0.93827000000E+00  0.93827000000E+00 0.  1.
     999902    2    1    2    0    0 -0.18220904131E-01 -0.14075581102E-01 -0.50566118033E-02  0.10203568659E+01  0.10200845264E+01 0.  0.
     999903    2    3    3    0    0  0.10659461903E+00 -0.54248144550E-01 -0.45721956718E-01  0.12971304257E+00  0.20729256905E-01 0.  0.
         14    1    1    2    0    0  0.18220904131E-01  0.14075581102E-01  0.50566118033E-02  0.23573134149E-01  0.00000000000E+00 0. -1.
     999901    1    3    3    0    0 -0.12481552316E+00  0.40172563449E-01  0.40665344915E-01  0.89064382328E+00  0.88000000000E+00 0.  1.
        -11    1    4    4    0    0  0.58851677099E-01 -0.39676665420E-01 -0.32538533097E-01  0.78081847656E-01  0.51100000000E-03 0. -1.
         11    1    4    4    0    0  0.47742941934E-01 -0.14571479130E-01 -0.13183423621E-01  0.51631194911E-01  0.51100000000E-03 0.  1.
</event>
<event>
 8    1  0.1071333E+005  0.1043930E+01  0.7957747E-01            NaN
         13   -1    0    0    0    0  0.00000000000E+00  0.00000000000E+00  0.74505805969E-08  0.10566000000E+00  0.10566000000E+00 0. -1.
     999900   -1    0    0    0    0 -0.00000000000E+00 -0.00000000000E+00 -0.74505805969E-08  0.93827000000E+00  0.93827000000E+00 0.  1.
     999902    2    1    2    0    0 -0.12603585312E-01  0.54924399095E-02 -0.18701828642E-01  0.10207184586E+01  0.10204545047E+01 0.  0.
     999903    2    3    3    0    0  0.10874406800E+00  0.42772174982E-01 -0.55507472356E-01  0.13084785734E+00  0.19630359227E-01 0.  0.
         14    1    1    2    0    0  0.12603585312E-01 -0.54924399095E-02  0.18701828642E-01  0.23211541384E-01  0.00000000000E+00 0. -1.
     999901    1    3    3    0    0 -0.12134765332E+00 -0.37279735072E-01  0.36805643714E-01  0.88987060128E+00  0.88000000000E+00 0.  1.
        -11    1    4    4    0    0  0.60392299203E-01  0.13288777592E-01 -0.30097616810E-01  0.68774625201E-01  0.51100000000E-03 0. -1.
         11    1    4    4    0    0  0.48351768801E-01  0.29483397390E-01 -0.25409855546E-01  0.62073232135E-01  0.51100000000E-03 0.  1.
</event>
<event>
 8    1  0.1071333E+005  0.1043930E+01  0.7957747E-01            NaN
         13   -1    0    0    0    0  0.00000000000E+00  0.00000000000E+00  0.74505805969E-08  0.10566000000E+00  0.10566000000E+00 0. -1.
     999900   -1    0    0    0    0 -0.00000000000E+00 -0.00000000000E+00 -0.74505805969E-08  0.93827000000E+00  0.93827000000E+00 0.  1.
     999902    2    1    2    0    0 -0.12118044770E-01  0.11943810244E-01  0.15689003577E-01  0.10207859631E+01  0.10205235597E+01 0.  0.
     999903    2    3    3    0    0 -0.28121258560E-01  0.10661560587E+00 -0.68818644481E-01  0.13153886900E+00  0.20218200453E-01 0.  0.
         14    1    1    2    0    0  0.12118044770E-01 -0.11943810244E-01 -0.15689003577E-01  0.23144036931E-01  0.00000000000E+00 0.  1.
     999901    1    3    3    0    0  0.16003213789E-01 -0.94671795629E-01  0.84507648058E-01  0.88924709407E+00  0.88000000000E+00 0. -1.
        -11    1    4    4    0    0 -0.20786522682E-01  0.57685261440E-01 -0.47941149498E-01  0.77834978311E-01  0.51100000000E-03 0.  1.
         11    1    4    4    0    0 -0.73347358777E-02  0.48930344434E-01 -0.20877494984E-01  0.53703890684E-01  0.51100000000E-03 0. -1.
</event>
<event>
 8    1  0.1071333E+005  0.1043930E+01  0.7957747E-01            NaN
         13   -1    0    0    0    0  0.00000000000E+00  0.00000000000E+00  0.74505805969E-08  0.10566000000E+00  0.10566000000E+00 0.  1.
     999900   -1    0    0    0    0 -0.00000000000E+00 -0.00000000000E+00 -0.74505805969E-08  0.93827000000E+00  0.93827000000E+00 0. -1.
     999902    2    1    2    0    0  0.17489755229E-01  0.15766658955E-01  0.43520112778E-02  0.10199838296E+01  0.10197026987E+01 0.  0.
     999903    2    3    3    0    0 -0.90262330709E-01  0.10742090740E-03 -0.88962959390E-01  0.12837662492E+00  0.20465820252E-01 0.  0.
         14    1    1    2    0    0 -0.17489755229E-01 -0.15766658955E-01 -0.43520112778E-02  0.23946170357E-01  0.00000000000E+00 0. -1.
     999901    1    3    3    0    0  0.10775208594E+00  0.15659238048E-01  0.93314970668E-01  0.89160720472E+00  0.88000000000E+00 0.  1.
        -11    1    4    4    0    0 -0.53705324322E-01  0.86850559635E-02 -0.45385081606E-01  0.70850256252E-01  0.51100000000E-03 0.  1.
         11    1    4    4    0    0 -0.36557006387E-01 -0.85776350561E-02 -0.43577877785E-01  0.57526368670E-01  0.51100000000E-03 0. -1.
</event>
<event>
 8    1  0.1071333E+005  0.1043930E+01  0.7957747E-01            NaN
         13   -1    0    0    0    0  0.00000000000E+00  0.00000000000E+00  0.74505805969E-08  0.10566000000E+00  0.10566000000E+00 0.  1.
     999900   -1    0    0    0    0 -0.00000000000E+00 -0.00000000000E+00 -0.74505805969E-08  0.93827000000E+00  0.93827000000E+00 0.  1.
     999902    2    1    2    0    0 -0.17110176966E-01  0.11801393087E-01 -0.93645773760E-02  0.10211324926E+01  0.10208779756E+01 0.  0.
     999903    2    3    3    0    0 -0.62844569411E-01  0.71048243149E-01  0.90584136099E-01  0.13231779356E+00  0.17470547211E-01 0.  0.
         14    1    1    2    0    0  0.17110176966E-01 -0.11801393087E-01  0.93645773760E-02  0.22797507408E-01  0.00000000000E+00 0.  1.
     999901    1    3    3    0    0  0.45734392445E-01 -0.59246850063E-01 -0.99948713475E-01  0.88881469903E+00  0.88000000000E+00 0.  1.
        -11    1    4    4    0    0 -0.53108338063E-01  0.61263835940E-01  0.84854331746E-01  0.11736384410E+00  0.51100000000E-03 0.  1.
         11    1    4    4    0    0 -0.97362313480E-02  0.97844072094E-02  0.57298043531E-02  0.14953949452E-01  0.51100000000E-03 0. -1.
</event>
<event>
 8    1  0.1071333E+005  0.1043930E+01  0.7957747E-01            NaN
         13   -1    0    0    0    0  0.00000000000E+00  0.00000000000E+00  0.74505805969E-08  0.10566000000E+00  0.10566000000E+00 0. -1.
     999900   -1    0    0    0    0 -0.00000000000E+00 -0.00000000000E+00 -0.74505805969E-08  0.93827000000E+00  0.93827000000E+00 0.  1.
     999902    2    1    2    0    0  0.15532398657E-01  0.79344936921E-02  0.16022396086E-01  0.10202460651E+01  0.10199711292E+01 0.  0.
     999903    2    3    3    0    0 -0.62397236997E-01 -0.10887892387E+00  0.24081809553E-01  0.12907640849E+00  0.18241448084E-01 0.  0.
         14    1    1    2    0    0 -0.15532398657E-01 -0.79344936921E-02 -0.16022396086E-01  0.23683934946E-01  0.00000000000E+00 0. -1.
     999901    1    3    3    0    0  0.77929635654E-01  0.11681341757E+00 -0.80594134671E-02  0.89116965656E+00  0.88000000000E+00 0.  1.
        -11    1    4    4    0    0 -0.32611826717E-01 -0.39178875112E-01  0.11119151245E-01  0.52176739476E-01  0.51100000000E-03 0. -1.
         11    1    4    4    0    0 -0.29785410280E-01 -0.69700048762E-01  0.12962658308E-01  0.76899669013E-01  0.51100000000E-03 0.  1.
</event>
<event>
 8    1  0.1071333E+005  0.1043930E+01  0.7957747E-01            NaN
         13   -1    0    0    0    0  0.00000000000E+00  0.00000000000E+00  0.74505805969E-08  0.10566000000E+00  0.10566000000E+00 0. -1.
     999900   -1    0    0    0    0 -0.00000000000E+00 -0.00000000000E+00 -0.74505805969E-08  0.93827000000E+00  0.93827000000E+00 0.  1.
     999902    2    1    2    0    0 -0.15907001292E-01  0.23120005790E-01  0.70942673174E-02  0.10149835669E+01  0.10145707197E+01 0.  0.
     999903    2    3    3    0    0  0.98972548074E-01 -0.53070663313E-01  0.47469766442E-01  0.12333761151E+00  0.18620609797E-01 0.  0.
         14    1    1    2    0    0  0.15907001292E-01 -0.23120005790E-01 -0.70942673174E-02  0.28946433055E-01  0.00000000000E+00 0.  1.
     999901    1    3    3    0    0 -0.11487954937E+00  0.76190669103E-01 -0.40375499125E-01  0.89164595544E+00  0.88000000000E+00 0. -1.
        -11    1    4    4    0    0  0.15167338062E-01 -0.13809624315E-01  0.14366126315E-01  0.25047965465E-01  0.51100000000E-03 0. -1.
         11    1    4    4    0    0  0.83805210011E-01 -0.39261038998E-01  0.33103640127E-01  0.98289646042E-01  0.51100000000E-03 0.  1.
</event>
<event>
 8    1  0.1071333E+005  0.1043930E+01  0.7957747E-01            NaN
         13   -1    0    0    0    0  0.00000000000E+00  0.00000000000E+00  0.74505805969E-08  0.10566000000E+00  0.10566000000E+00 0. -1.
     999900   -1    0    0    0    0 -0.00000000000E+00 -0.00000000000E+00 -0.74505805969E-08  0.93827000000E+00  0.93827000000E+00 0.  1.
     999902    2    1    2    0    0  0.39605585346E-02 -0.22301310199E-01 -0.23688106435E-02  0.10211562053E+01  0.10209022235E+01 0.  0.
     999903    2    3    3    0    0 -0.11354107930E+00 -0.64039020434E-01 -0.10762618130E-01  0.13232600367E+00  0.20044063241E-01 0.  0.
         14    1    1    2    0    0 -0.39605585346E-02  0.22301310199E-01  0.23688106435E-02  0.22773794685E-01  0.00000000000E+00 0. -1.
     999901    1    3    3    0    0  0.11750163784E+00  0.41737710235E-01  0.83938074861E-02  0.88883020164E+00  0.88000000000E+00 0. -1.
        -11    1    4    4    0    0 -0.99650369870E-01 -0.47967707508E-01 -0.77744783964E-02  0.11086839412E+00  0.51100000000E-03 0. -1.
         11    1    4    4    0    0 -0.13890709433E-01 -0.16071312925E-01 -0.29881397332E-02  0.21457609554E-01  0.51100000000E-03 0.  1.
</event>
<event>
 8    1  0.1071333E+005  0.1043930E+01  0.7957747E-01            NaN
         13   -1    0    0    0    0  0.00000000000E+00  0.00000000000E+00  0.74505805969E-08  0.10566000000E+00  0.10566000000E+00 0.  1.
     999900   -1    0    0    0    0 -0.00000000000E+00 -0.00000000000E+00 -0.74505805969E-08  0.93827000000E+00  0.93827000000E+00 0.  1.
     999902    2    1    2    0    0 -0.61802013496E-03  0.14182335355E-02 -0.22818384053E-01  0.10210592329E+01  0.10208030590E+01 0.  0.
     999903    2    3    3    0    0  0.98469745400E-01  0.80303921250E-01  0.23717947642E-01  0.13077446548E+00  0.19859739506E-01 0.  0.
         14    1    1    2    0    0  0.61802013496E-03 -0.14182335355E-02  0.22818384053E-01  0.22870767063E-01  0.00000000000E+00 0.  1.
     999901    1    3    3    0    0 -0.99087765535E-01 -0.78885687714E-01 -0.46536331695E-01  0.89028476746E+00  0.88000000000E+00 0.  1.
        -11    1    4    4    0    0  0.75264184765E-01  0.64548498145E-01  0.26357431174E-01  0.10259718037E+00  0.51100000000E-03 0. -1.
         11    1    4    4    0    0  0.23205560635E-01  0.15755423105E-01 -0.26394835324E-02  0.28177285105E-01  0.51100000000E-03 0.  1.
</event>
<event>
 8    1  0.1071333E+005  0.1043930E+01  0.7957747E-01            NaN
         13   -1    0    0    0    0  0.00000000000E+00  0.00000000000E+00  0.74505805969E-08  0.10566000000E+00  0.10566000000E+00 0. -1.
     999900   -1    0    0    0    0 -0.00000000000E+00 -0.00000000000E+00 -0.74505805969E-08  0.93827000000E+00  0.93827000000E+00 0. -1.
     999902    2    1    2    0    0 -0.19370735391E-01  0.84677701320E-02 -0.68721068190E-02  0.10217004167E+01  0.10214585587E+01 0.  0.
     999903    2    3    3    0    0  0.97501288218E-01  0.66880460585E-02  0.82371960790E-01  0.12949710978E+00  0.20811783964E-01 0.  0.
         14    1    1    2    0    0  0.19370735391E-01 -0.84677701320E-02  0.68721068190E-02  0.22229583279E-01  0.00000000000E+00 0. -1.
     999901    1    3    3    0    0 -0.11687202361E+00  0.17797240735E-02 -0.89244067609E-01  0.89220330695E+00  0.88000000000E+00 0. -1.
        -11    1    4    4    0    0  0.84335860477E-01  0.42699525997E-02  0.79104600985E-01  0.11570898356E+00  0.51100000000E-03 0.  1.
         11    1    4    4    0    0  0.13165427740E-01  0.24180934588E-02  0.32673598057E-02  0.13788126220E-01  0.51100000000E-03 0. -1.
</event>
<event>
 8    1  0.1071333E+005  0.1043930E+01  0.7957747E-01            NaN
         13   -1    0    0    0    0  0.00000000000E+00  0.00000000000E+00  0.74505805969E-08  0.10566000000E+00  0.10566000000E+00 0.  1.
     999900   -1    0    0    0    0 -0.00000000000E+00 -0.00000000000E+00 -0.74505805969E-08  0.93827000000E+00  0.93827000000E+00 0. -1.
     999902    2    1    2    0    0  0.17118599319E-01 -0.14311333129E-01 -0.98023121992E-02  0.10195589922E+01  0.10192676746E+01 0.  0.
     999903    2    3    3    0    0  0.48506928739E-01 -0.11686279787E+00  0.31937077881E-01  0.13206577707E+00  0.20286864459E-01 0.  0.
         14    1    1    2    0    0 -0.17118599319E-01  0.14311333129E-01  0.98023121992E-02  0.24371007838E-01  0.00000000000E+00 0. -1.
     999901    1    3    3    0    0 -0.31388329421E-01  0.10255146474E+00 -0.41739390080E-01  0.88749321509E+00  0.88000000000E+00 0. -1.
        -11    1    4    4    0    0  0.18137872694E-01 -0.49985966160E-01  0.23476663089E-01  0.58129115507E-01  0.51100000000E-03 0. -1.
         11    1    4    4    0    0  0.30369056045E-01 -0.66876831707E-01  0.84604147916E-02  0.73936661567E-01  0.51100000000E-03 0.  1.
</event>
<event>
 8    1  0.1071333E+005  0.1043930E+01  0.7957747E-01            NaN
         13   -1    0    0    0    0  0.00000000000E+00  0.00000000000E+00  0.74505805969E-08  0.10566000000E+00  0.10566000000E+00 0.  1.
     999900   -1    0    0    0    0 -0.00000000000E+00 -0.00000000000E+00 -0.74505805969E-08  0.93827000000E+00  0.93827000000E+00 0.  1.
     999902    2    1    2    0    0  0.26619539603E-02 -0.18987247877E-01 -0.96088639812E-02  0.10224839783E+01  0.10222590445E+01 0.  0.
     999903    2    3    3    0    0 -0.65538063742E-02 -0.19808846205E-01 -0.13094033487E+00  0.13411078468E+00  0.20124326252E-01 0.  0.
         14    1    1    2    0    0 -0.26619539603E-02  0.18987247877E-01  0.96088639812E-02  0.21446021725E-01  0.00000000000E+00 0.  1.
     999901    1    3    3    0    0  0.92157603345E-02  0.82159832833E-03  0.12133147089E+00  0.88837319359E+00  0.88000000000E+00 0. -1.
        -11    1    4    4    0    0 -0.10411152380E-01 -0.12819165881E-01 -0.11593314689E+00  0.11710456344E+00  0.51100000000E-03 0. -1.
         11    1    4    4    0    0  0.38573460059E-02 -0.69896803236E-02 -0.15007187975E-01  0.17006221248E-01  0.51100000000E-03 0.  1.
</event>
<event>
 8    1  0.1071333E+005  0.1043930E+01  0.7957747E-01            NaN
         13   -1    0    0    0    0  0.00000000000E+00  0.00000000000E+00  0.74505805969E-08  0.10566000000E+00  0.10566000000E+00 0. -1.
     999900   -1    0    0    0    0 -0.00000000000E+00 -0.00000000000E+00 -0.74505805969E-08  0.93827000000E+00  0.93827000000E+00 0. -1.
     999902    2    1    2    0    0  0.57748158645E-02 -0.23266408264E-02 -0.22231586578E-01  0.10208430947E+01  0.10205820000E+01 0.  0.
     999903    2    3    3    0    0 -0.12001068330E-01 -0.12128506264E+00 -0.47563775987E-01  0.13230001299E+00  0.19669483727E-01 0.  0.
         14    1    1    2    0    0 -0.57748158645E-02  0.23266408264E-02  0.22231586578E-01  0.23086905327E-01  0.00000000000E+00 0. -1.
     999901    1    3    3    0    0  0.17775884194E-01  0.11895842182E+00  0.25332189408E-01  0.88854308168E+00  0.88000000000E+00 0.  1.
        -11    1    4    4    0    0 -0.10539656728E-01 -0.41641068764E-01 -0.94128325148E-02  0.43976419917E-01  0.51100000000E-03 0.  1.
         11    1    4    4    0    0 -0.14614116023E-02 -0.79643993881E-01 -0.38150943472E-01  0.88323593076E-01  0.51100000000E-03 0. -1.
</event>
<event>
 8    1  0.1071333E+005  0.1043930E+01  0.7957747E-01            NaN
         13   -1    0    0    0    0  0.00000000000E+00  0.00000000000E+00  0.74505805969E-08  0.10566000000E+00  0.10566000000E+00 0.  1.
     999900   -1    0    0    0    0 -0.00000000000E+00 -0.00000000000E+00 -0.74505805969E-08  0.93827000000E+00  0.93827000000E+00 0.  1.
     999902    2    1    2    0    0 -0.12842900410E-01 -0.11522771683E-01  0.17130729385E-01  0.10196158838E+01  0.10193259411E+01 0.  0.
     999903    2    3    3    0    0 -0.87162148323E-01  0.93857089127E-01  0.11831233703E-01  0.13020239708E+00  0.20156706937E-01 0.  0.
         14    1    1    2    0    0  0.12842900410E-01  0.11522771683E-01 -0.17130729385E-01  0.24314116218E-01  0.00000000000E+00 0.  1.
     999901    1    3    3    0    0  0.74319247913E-01 -0.10537986081E+00  0.52994956811E-02  0.88941348670E+00  0.88000000000E+00 0.  1.
        -11    1    4    4    0    0 -0.67855379090E-01  0.80165693030E-01  0.15757787291E-01  0.10620480117E+00  0.51100000000E-03 0.  1.
         11    1    4    4    0    0 -0.19306769233E-01  0.13691396097E-01 -0.39265535881E-02  0.23997595908E-01  0.51100000000E-03 0. -1.
</event>
<event>
 8    1  0.1071333E+005  0.1043930E+01  0.7957747E-01            NaN
         13   -1    0    0    0    0  0.00000000000E+00  0.00000000000E+00  0.74505805969E-08  0.10566000000E+00  0.10566000000E+00 0.  1.
     999900   -1    0    0    0    0 -0.00000000000E+00 -0.00000000000E+00 -0.74505805969E-08  0.93827000000E+00  0.93827000000E+00 0.  1.
     999902    2    1    2    0    0  0.16839789954E-01  0.16049830921E-01  0.29031639397E-02  0.10204863663E+01  0.10202170455E+01 0.  0.
     999903    2    3    3    0    0  0.67246752367E-01  0.84265601490E-01 -0.74999479957E-01  0.13298252120E+00  0.20895254302E-01 0.  0.
         14    1    1    2    0    0 -0.16839789954E-01 -0.16049830921E-01 -0.29031639397E-02  0.23443633660E-01  0.00000000000E+00 0. -1.
     999901    1    3    3    0    0 -0.50406962412E-01 -0.68215770569E-01  0.77902643897E-01  0.88750384514E+00  0.88000000000E+00 0. -1.
        -11    1    4    4    0    0  0.31517307239E-01  0.46826912301E-01 -0.50423827752E-01  0.75689655154E-01  0.51100000000E-03 0. -1.
         11    1    4    4    0    0  0.35729445128E-01  0.37438689190E-01 -0.24575652206E-01  0.57292866046E-01  0.51100000000E-03 0.  1.
</event>
<event>
 8    1  0.1071333E+005  0.1043930E+01  0.7957747E-01            NaN
         13   -1    0    0    0    0  0.00000000000E+00  0.00000000000E+00  0.74505805969E-08  0.10566000000E+00  0.10566000000E+00 0.  1.
     999900   -1    0    0    0    0 -0.00000000000E+00 -0.00000000000E+00 -0.74505805969E-08  0.93827000000E+00  0.93827000000E+00 0. -1.
     999902    2    1    2    0    0  0.28665503330E-02 -0.20942440025E-01  0.10177003930E-01  0.10204699422E+01  0.10202002394E+01 0.  0.
     999903    2    3    3    0    0 -0.11202719872E+00 -0.31466224905E-01  0.57398865264E-01  0.13168356298E+00  0.22488096057E-01 0.  0.
         14    1    1    2    0    0 -0.28665503330E-02  0.20942440025E-01 -0.10177003930E-01  0.23460057843E-01  0.00000000000E+00 0. -1.
     999901    1    3    3    0    0  0.11489374905E+00  0.10523784880E-01 -0.47221861334E-01  0.88878637917E+00  0.88000000000E+00 0.  1.
        -11    1    4    4    0    0 -0.24748481407E-01 -0.44571430031E-03  0.49883030529E-02  0.25255302048E-01  0.51100000000E-03 0. -1.
         11    1    4    4    0    0 -0.87278717309E-01 -0.31020510605E-01  0.52410562211E-01  0.10642826093E+00  0.51100000000E-03 0.  1.
</event>
<event>
 8    1  0.1071333E+005  0.1043930E+01  0.7957747E-01            NaN
         13   -1    0    0    0    0  0.00000000000E+00  0.00000000000E+00  0.74505805969E-08  0.10566000000E+00  0.10566000000E+00 0.  1.
     999900   -1    0    0    0    0 -0.00000000000E+00 -0.00000000000E+00 -0.74505805969E-08  0.93827000000E+00  0.93827000000E+00 0. -1.
     999902    2    1    2    0    0  0.82609703232E-02  0.21640831899E-02  0.22423754391E-01  0.10199351746E+01  0.10196528864E+01 0.  0.
     999903    2    3    3    0    0 -0.44289572807E-01  0.70699154701E-01 -0.94859571724E-01  0.12796320516E+00  0.20403597555E-01 0.  0.
         14    1    1    2    0    0 -0.82609703232E-02 -0.21640831899E-02 -0.22423754391E-01  0.23994825437E-01  0.00000000000E+00 0. -1.
     999901    1    3    3    0    0  0.52550543130E-01 -0.68535071511E-01  0.11728332612E+00  0.89197196940E+00  0.88000000000E+00 0.  1.
        -11    1    4    4    0    0 -0.52547165739E-02  0.10609597293E-01 -0.45866512105E-02  0.12707245622E-01  0.51100000000E-03 0. -1.
         11    1    4    4    0    0 -0.39034856233E-01  0.60089557409E-01 -0.90272920513E-01  0.11525595954E+00  0.51100000000E-03 0.  1.
</event>
<event>
 8    1  0.1071333E+005  0.1043930E+01  0.7957747E-01            NaN
         13   -1    0    0    0    0  0.00000000000E+00  0.00000000000E+00  0.74505805969E-08  0.10566000000E+00  0.10566000000E+00 0.  1.
     999900   -1    0    0    0    0 -0.00000000000E+00 -0.00000000000E+00 -0.74505805969E-08  0.93827000000E+00  0.93827000000E+00 0. -1.
     999902    2    1    2    0    0  0.14480892081E-01  0.16378644618E-01 -0.66737690373E-02  0.10210718411E+01  0.10208159527E+01 0.  0.
     999903    2    3    3    0    0 -0.12386269614E+00 -0.21926407019E-01  0.20434382903E-01  0.12902863739E+00  0.20201248564E-01 0.  0.
         14    1    1    2    0    0 -0.14480892081E-01 -0.16378644618E-01  0.66737690373E-02  0.22858158897E-01  0.00000000000E+00 0.  1.
     999901    1    3    3    0    0  0.13834358822E+00  0.38305051637E-01 -0.27108151941E-01  0.89204320371E+00  0.88000000000E+00 0.  1.
        -11    1    4    4    0    0 -0.34889942857E-01 -0.43147857682E-03  0.12827347871E-01  0.37179245027E-01  0.51100000000E-03 0.  1.
         11    1    4    4    0    0 -0.88972753281E-01 -0.21494928442E-01  0.76070350320E-02  0.91849392367E-01  0.51100000000E-03 0. -1.
</event>
<event>
 7    1  0.1071333E+005  0.1043930E+01  0.7957747E-01            NaN
         13   -1    0    0    0    0  0.00000000000E+00  0.00000000000E+00  0.74505805969E-08  0.10566000000E+00  0.10566000000E+00 0. -1.
     999900   -1    0    0    0    0 -0.00000000000E+00 -0.00000000000E+00 -0.74505805969E-08  0.93827000000E+00  0.93827000000E+00 0.  1.
     999903    2    1    2    0    0  0.61902009957E-01 -0.42751793310E-01  0.46959121118E-01  0.90858283679E-01  0.19760920749E-01 0.  0.
         14    1    1    2    0    0  0.11866948075E-01 -0.79810527180E-02 -0.66792884383E-01  0.68306742444E-01  0.00000000000E+00 0.  1.
     999901    1    1    2    0    0 -0.73768958033E-01  0.50732846028E-01  0.19833763264E-01  0.88476497388E+00  0.88000000000E+00 0. -1.
        -11    1    3    3    0    0  0.19937592339E-02 -0.12434338370E-02  0.77120337344E-02  0.80782293178E-02  0.51100000000E-03 0. -1.
         11    1    3    3    0    0  0.59908250724E-01 -0.41508359473E-01  0.39247087384E-01  0.82780054361E-01  0.51100000000E-03 0.  1.
</event>
<event>
 8    1  0.1071333E+005  0.1043930E+01  0.7957747E-01            NaN
         13   -1    0    0    0    0  0.00000000000E+00  0.00000000000E+00  0.74505805969E-08  0.10566000000E+00  0.10566000000E+00 0. -1.
     999900   -1    0    0    0    0 -0.00000000000E+00 -0.00000000000E+00 -0.74505805969E-08  0.93827000000E+00  0.93827000000E+00 0. -1.
     999902    2    1    2    0    0  0.18061659167E-01  0.69320082896E-02 -0.60193959515E-02  0.10236689685E+01  0.10234684400E+01 0.  0.
     999903    2    3    3    0    0 -0.37768775315E-02  0.11934561753E+00 -0.58822764528E-01  0.13467969016E+00  0.20514874815E-01 0.  0.
         14    1    1    2    0    0 -0.18061659167E-01 -0.69320082896E-02  0.60193959515E-02  0.20261031524E-01  0.00000000000E+00 0.  1.
     999901    1    3    3    0    0  0.21838536698E-01 -0.11241360924E+00  0.52803368576E-01  0.88898927832E+00  0.88000000000E+00 0. -1.
        -11    1    4    4    0    0  0.92269465667E-03  0.38609856400E-01 -0.29696126054E-01  0.48720564449E-01  0.51100000000E-03 0. -1.
         11    1    4    4    0    0 -0.46995721882E-02  0.80735761126E-01 -0.29126638474E-01  0.85959125712E-01  0.51100000000E-03 0.  1.
</event>
<event>
 8    1  0.1071333E+005  0.1043930E+01  0.7957747E-01            NaN
         13   -1    0    0    0    0  0.00000000000E+00  0.00000000000E+00  0.74505805969E-08  0.10566000000E+00  0.10566000000E+00 0.  1.
     999900   -1    0    0    0    0 -0.00000000000E+00 -0.00000000000E+00 -0.74505805969E-08  0.93827000000E+00  0.93827000000E+00 0. -1.
     999902    2    1    2    0    0 -0.14044346289E-01 -0.88410344701E-02  0.16658830579E-01  0.10204156599E+01  0.10201446931E+01 0.  0.
     999903    2    3    3    0    0 -0.58513480563E-01  0.77745901490E-01 -0.83015772539E-01  0.12945560027E+00  0.19972014042E-01 0.  0.
         14    1    1    2    0    0  0.14044346289E-01  0.88410344701E-02 -0.16658830579E-01  0.23514340081E-01  0.00000000000E+00 0. -1.
     999901    1    3    3    0    0  0.44469134273E-01 -0.86586935960E-01  0.99674603118E-01  0.89096005965E+00  0.88000000000E+00 0.  1.
        -11    1    4    4    0    0 -0.16282787010E-01  0.37495913861E-01 -0.37215299588E-01  0.55283924910E-01  0.51100000000E-03 0.  1.
         11    1    4    4    0    0 -0.42230693553E-01  0.40249987629E-01 -0.45800472951E-01  0.74171675360E-01  0.51100000000E-03 0. -1.
</event>
<event>
 8    1  0.1071333E+005  0.1043930E+01  0.7957747E-01            NaN
         13   -1    0    0    0    0  0.00000000000E+00  0.00000000000E+00  0.74505805969E-08  0.10566000000E+00  0.10566000000E+00 0.  1.
     999900   -1    0    0    0    0 -0.00000000000E+00 -0.00000000000E+00 -0.74505805969E-08  0.93827000000E+00  0.93827000000E+00 0.  1.
     999902    2    1    2    0    0 -0.89702467937E-02 -0.55239702384E-02  0.20125237208E-01  0.10212142621E+01  0.10209615881E+01 0.  0.
     999903    2    3    3    0    0 -0.73287820705E-01 -0.10866866350E+00  0.27111127554E-02  0.13268804991E+00  0.20464246016E-01 0.  0.
         14    1    1    2    0    0  0.89702467937E-02  0.55239702384E-02 -0.20125237208E-01  0.22715737880E-01  0.00000000000E+00 0.  1.
     999901    1    3    3    0    0  0.64317573911E-01  0.10314469326E+00  0.17414124453E-01  0.88852621221E+00  0.88000000000E+00 0. -1.
        -11    1    4    4    0    0 -0.38827337305E-01 -0.72273440466E-01 -0.38613364325E-02  0.82135153004E-01  0.51100000000E-03 0. -1.
         11    1    4    4    0    0 -0.34460483400E-01 -0.36395223034E-01  0.65724491878E-02  0.50552896902E-01  0.51100000000E-03 0.  1.
</event>
<event>
 8    1  0.1223597E+005  0.1043930E+01  0.7957747E-01            NaN
         13   -1    0    0    0    0  0.00000000000E+00  0.00000000000E+00  0.74505805969E-08  0.10566000000E+00  0.10566000000E+00 0.  1.
     999900   -1    0    0    0    0 -0.00000000000E+00 -0.00000000000E+00 -0.74505805969E-08  0.93827000000E+00  0.93827000000E+00 0.  1.
     999902    2    1    2    0    0 -0.96391224548E-02 -0.60861125611E-02 -0.20403226699E-01  0.10205581129E+01  0.10202904570E+01 0.  0.
     999903    2    3    3    0    0 -0.10747250587E+00  0.39248151917E-01 -0.64370201769E-01  0.13288719337E+00  0.20608889840E-01 0.  0.
         14    1    1    2    0    0  0.96391224548E-02  0.60861125611E-02  0.20403226699E-01  0.23371887120E-01  0.00000000000E+00 0.  1.
     999901    1    3    3    0    0  0.97833383411E-01 -0.45334264478E-01  0.43966975070E-01  0.88767091951E+00  0.88000000000E+00 0. -1.
        -11    1    4    4    0    0 -0.52090819138E-01  0.81183286444E-02 -0.28936971315E-01  0.60141251470E-01  0.51100000000E-03 0. -1.
         11    1    4    4    0    0 -0.55381686727E-01  0.31129823273E-01 -0.35433230454E-01  0.72745941901E-01  0.51100000000E-03 0.  1.
</event>
<event>
 8    1  0.1071333E+005  0.1043930E+01  0.7957747E-01            NaN
         13   -1    0    0    0    0  0.00000000000E+00  0.00000000000E+00  0.74505805969E-08  0.10566000000E+00  0.10566000000E+00 0.  1.
     999900   -1    0    0    0    0 -0.00000000000E+00 -0.00000000000E+00 -0.74505805969E-08  0.93827000000E+00  0.93827000000E+00 0. -1.
     999902    2    1    2    0    0 -0.18012479340E-01  0.14768621071E-02  0.13023208936E-01  0.10216536784E+01  0.10214107910E+01 0.  0.
     999903    2    3    3    0    0 -0.23183392854E-02 -0.12225720891E+00 -0.42720422518E-01  0.13111239422E+00  0.20327950950E-01 0.  0.
         14    1    1    2    0    0  0.18012479340E-01 -0.14768621071E-02 -0.13023208936E-01  0.22276321614E-01  0.00000000000E+00 0. -1.
     999901    1    3    3    0    0 -0.15694140055E-01  0.12373407102E+00  0.55743631454E-01  0.89054128417E+00  0.88000000000E+00 0.  1.
        -11    1    4    4    0    0  0.52501011578E-02 -0.27855340960E-01 -0.16672380363E-01  0.32889405135E-01  0.51100000000E-03 0. -1.
         11    1    4    4    0    0 -0.75684404432E-02 -0.94401867948E-01 -0.26048042155E-01  0.98222989081E-01  0.51100000000E-03 0.  1.
</event>
<event>
 8    1  0.1071333E+005  0.1043930E+01  0.7957747E-01            NaN
         13   -1    0    0    0    0  0.00000000000E+00  0.00000000000E+00  0.74505805969E-08  0.10566000000E+00  0.10566000000E+00 0.  1.
     999900   -1    0    0    0    0 -0.00000000000E+00 -0.00000000000E+00 -0.74505805969E-08  0.93827000000E+00  0.93827000000E+00 0.  1.
     999902    2    1    2    0    0  0.22692254855E-02  0.21833153255E-01  0.88852323117E-02  0.10202491360E+01  0.10199742723E+01 0.  0.
     999903    2    3    3    0    0 -0.87762795980E-01 -0.44352776181E-01  0.82912111920E-01  0.13009953003E+00  0.19544623267E-01 0.  0.
         14    1    1    2    0    0 -0.22692254855E-02 -0.21833153255E-01 -0.88852323117E-02  0.23680863974E-01  0.00000000000E+00 0. -1.
     999901    1    3    3    0    0  0.90032021466E-01  0.66185929435E-01 -0.74026879608E-01  0.89014960599E+00  0.88000000000E+00 0.  1.
        -11    1    4    4    0    0 -0.36842442738E-01 -0.17800271202E-01  0.22304972111E-01  0.46604593589E-01  0.51100000000E-03 0.  1.
         11    1    4    4    0    0 -0.50920353242E-01 -0.26552504979E-01  0.60607139809E-01  0.83494936444E-01  0.51100000000E-03 0. -1.
</event>
<event>
 8    1  0.1071333E+005  0.1043930E+01  0.7957747E-01            NaN
         13   -1    0    0    0    0  0.00000000000E+00  0.00000000000E+00  0.74505805969E-08  0.10566000000E+00  0.10566000000E+00 0. -1.
     999900   -1    0    0    0    0 -0.00000000000E+00 -0.00000000000E+00 -0.74505805969E-08  0.93827000000E+00  0.93827000000E+00 0.  1.
     999902    2    1    2    0    0 -0.23295522075E-01  0.70675753609E-02 -0.57880816815E-02  0.10189073331E+01  0.10186000292E+01 0.  0.
     999903    2    3    3    0    0  0.10703947423E+00  0.69246109329E-02  0.64122082676E-01  0.12656509897E+00  0.20042043576E-01 0.  0.
         14    1    1    2    0    0  0.23295522075E-01 -0.70675753609E-02  0.57880816815E-02  0.25022666920E-01  0.00000000000E+00 0. -1.
     999901    1    3    3    0    0 -0.13033499630E+00  0.14296442800E-03 -0.69910164357E-01  0.89234223411E+00  0.88000000000E+00 0. -1.
        -11    1    4    4    0    0  0.59957015467E-01  0.12826474459E-02  0.24558233949E-01  0.64806302655E-01  0.51100000000E-03 0. -1.
         11    1    4    4    0    0  0.47082458760E-01  0.56419634871E-02  0.39563848727E-01  0.61758796313E-01  0.51100000000E-03 0.  1.
</event>
<event>
 8    1  0.1071333E+005  0.1043930E+01  0.7957747E-01            NaN
         13   -1    0    0    0    0  0.00000000000E+00  0.00000000000E+00  0.74505805969E-08  0.10566000000E+00  0.10566000000E+00 0.  1.
     999900   -1    0    0    0    0 -0.00000000000E+00 -0.00000000000E+00 -0.74505805969E-08  0.93827000000E+00  0.93827000000E+00 0.  1.
     999902    2    1    2    0    0 -0.12221798136E-01 -0.21186596317E-01 -0.68280265673E-02  0.10185357849E+01  0.10182191704E+01 0.  0.
     999903    2    3    3    0    0  0.85858594190E-01  0.79642610078E-01  0.40394846036E-01  0.12611419624E+00  0.23630560125E-01 0.  0.
         14    1    1    2    0    0  0.12221798136E-01  0.21186596317E-01  0.68280265673E-02  0.25394215089E-01  0.00000000000E+00 0.  1.
     999901    1    3    3    0    0 -0.98080392326E-01 -0.10082920640E+00 -0.47222872604E-01  0.89242158867E+00  0.88000000000E+00 0.  1.
        -11    1    4    4    0    0  0.77210284415E-01  0.63123194339E-01  0.27549874573E-01  0.10346604464E+00  0.51100000000E-03 0. -1.
         11    1    4    4    0    0  0.86483097751E-02  0.16519415738E-01  0.12844971463E-01  0.22648151606E-01  0.51100000000E-03 0.  1.
</event>
<event>
 8    1  0.1071333E+005  0.1043930E+01  0.7957747E-01            NaN
         13   -1    0    0    0    0  0.00000000000E+00  0.00000000000E+00  0.74505805969E-08  0.10566000000E+00  0.10566000000E+00 0. -1.
     999900   -1    0    0    0    0 -0.00000000000E+00 -0.00000000000E+00 -0.74505805969E-08  0.93827000000E+00  0.93827000000E+00 0.  1.
     999902    2    1    2    0    0  0.66709267886E-02  0.97052271619E-02 -0.20184457331E-01  0.10205611101E+01  0.10202935236E+01 0.  0.
     999903    2    3    3    0    0  0.93712161218E-01 -0.87802496592E-01 -0.15455369485E-01  0.13089471364E+00  0.20082580620E-01 0.  0.
         14    1    1    2    0    0 -0.66709267886E-02 -0.97052271619E-02  0.20184457331E-01  0.23368889923E-01  0.00000000000E+00 0. -1.
     999901    1    3    3    0    0 -0.87041234429E-01  0.97507723754E-01 -0.47290878464E-02  0.88966639644E+00  0.88000000000E+00 0.  1.
        -11    1    4    4    0    0  0.41454308556E-01 -0.42963247384E-01  0.24179714455E-02  0.59752891399E-01  0.51100000000E-03 0. -1.
         11    1    4    4    0    0  0.52257852662E-01 -0.44839249208E-01 -0.17873340930E-01  0.71141822238E-01  0.51100000000E-03 0.  1.
</event>
<event>
 7    1  0.1071333E+005  0.1043930E+01  0.7957747E-01            NaN
         13   -1    0    0    0    0  0.00000000000E+00  0.00000000000E+00  0.74505805969E-08  0.10566000000E+00  0.10566000000E+00 0.  1.
     999900   -1    0    0    0    0 -0.00000000000E+00 -0.00000000000E+00 -0.74505805969E-08  0.93827000000E+00  0.93827000000E+00 0. -1.
     999903    2    1    2    0    0  0.29580711540E-01  0.39005068664E-01 -0.91438780512E-01  0.10526855585E+00  0.18000122040E-01 0.  0.
         14    1    1    2    0    0  0.67935746565E-02  0.42289266276E-01 -0.19822125683E-01  0.47195882928E-01  0.00000000000E+00 0. -1.
     999901    1    1    2    0    0 -0.36374286196E-01 -0.81294334940E-01  0.11126090619E+00  0.89146556122E+00  0.88000000000E+00 0.  1.
        -11    1    3    3    0    0  0.27808320201E-01  0.23214075864E-01 -0.65210818626E-01  0.74598310822E-01  0.51100000000E-03 0.  1.
         11    1    3    3    0    0  0.17723913391E-02  0.15790992799E-01 -0.26227961886E-01  0.30670245032E-01  0.51100000000E-03 0. -1.
</event>
<event>
 8    1  0.1071333E+005  0.1043930E+01  0.7957747E-01            NaN
         13   -1    0    0    0    0  0.00000000000E+00  0.00000000000E+00  0.74505805969E-08  0.10566000000E+00  0.10566000000E+00 0.  1.
     999900   -1    0    0    0    0 -0.00000000000E+00 -0.00000000000E+00 -0.74505805969E-08  0.93827000000E+00  0.93827000000E+00 0.  1.
     999902    2    1    2    0    0 -0.13927217385E-01 -0.19839829227E-01 -0.36031561919E-02  0.10194234918E+01  0.10191288862E+01 0.  0.
     999903    2    3    3    0    0  0.80246783210E-01  0.83672146216E-01  0.48504081265E-01  0.12684372753E+00  0.17207877476E-01 0.  0.
         14    1    1    2    0    0  0.13927217385E-01  0.19839829227E-01  0.36031561919E-02  0.24506508164E-01  0.00000000000E+00 0. -1.
     999901    1    3    3    0    0 -0.94174000595E-01 -0.10351197544E+00 -0.52107237457E-01  0.89257976430E+00  0.88000000000E+00 0.  1.
        -11    1    4    4    0    0  0.35437416339E-01  0.42785890040E-01  0.31397790114E-01  0.63816339666E-01  0.51100000000E-03 0. -1.
         11    1    4    4    0    0  0.44809366870E-01  0.40886256176E-01  0.17106291151E-01  0.63027387867E-01  0.51100000000E-03 0.  1.
</event>
<event>
 8    1  0.1071333E+005  0.1043930E+01  0.7957747E-01            NaN
         13   -1    0    0    0    0  0.00000000000E+00  0.00000000000E+00  0.74505805969E-08  0.10566000000E+00  0.10566000000E+00 0. -1.
     999900   -1    0    0    0    0 -0.00000000000E+00 -0.00000000000E+00 -0.74505805969E-08  0.93827000000E+00  0.93827000000E+00 0. -1.
     999902    2    1    2    0    0 -0.37265501358E-03 -0.27148477574E-01  0.45532798579E-02  0.10163998154E+01  0.10160269060E+01 0.  0.
     999903    2    3    3    0    0  0.10820650065E+00  0.31450813045E-01  0.53627277735E-01  0.12643826164E+00  0.20321138421E-01 0.  0.
         14    1    1    2    0    0  0.37265501358E-03  0.27148477574E-01 -0.45532798579E-02  0.27530184595E-01  0.00000000000E+00 0.  1.
     999901    1    3    3    0    0 -0.10857915566E+00 -0.58599290619E-01 -0.49073997877E-01  0.88996155376E+00  0.88000000000E+00 0. -1.
        -11    1    4    4    0    0  0.11687851934E-01  0.99510852240E-02  0.10198390225E-01  0.18436330008E-01  0.51100000000E-03 0. -1.
         11    1    4    4    0    0  0.96518648714E-01  0.21499727821E-01  0.43428887510E-01  0.10800193164E+00  0.51100000000E-03 0.  1.
</event>
<event>
 8    1  0.1071333E+005  0.1043930E+01  0.7957747E-01            NaN
         13   -1    0    0    0    0  0.00000000000E+00  0.00000000000E+00  0.74505805969E-08  0.10566000000E+00  0.10566000000E+00 0. -1.
     999900   -1    0    0    0    0 -0.00000000000E+00 -0.00000000000E+00 -0.74505805969E-08  0.93827000000E+00  0.93827000000E+00 0. -1.
     999902    2    1    2    0    0  0.19963535182E-01 -0.12352047622E-01 -0.60335945829E-02  0.10196911865E+01  0.10194030585E+01 0.  0.
     999903    2    3    3    0    0 -0.14611983114E-01  0.90405072042E-01 -0.89119838483E-01  0.12915325015E+00  0.18751781580E-01 0.  0.
         14    1    1    2    0    0 -0.19963535182E-01  0.12352047622E-01  0.60335945829E-02  0.24238813523E-01  0.00000000000E+00 0. -1.
     999901    1    3    3    0    0  0.34575518295E-01 -0.10275711966E+00  0.83086243900E-01  0.89053793632E+00  0.88000000000E+00 0.  1.
        -11    1    4    4    0    0 -0.17184766166E-01  0.68408720200E-01 -0.60259681891E-01  0.92771545046E-01  0.51100000000E-03 0. -1.
         11    1    4    4    0    0  0.25727830527E-02  0.21996351842E-01 -0.28860156592E-01  0.36381705107E-01  0.51100000000E-03 0.  1.
</event>
<event>
 8    1  0.1071333E+005  0.1043930E+01  0.7957747E-01            NaN
         13   -1    0    0    0    0  0.00000000000E+00  0.00000000000E+00  0.74505805969E-08  0.10566000000E+00  0.10566000000E+00 0. -1.
     999900   -1    0    0    0    0 -0.00000000000E+00 -0.00000000000E+00 -0.74505805969E-08  0.93827000000E+00  0.93827000000E+00 0. -1.
     999902    2    1    2    0    0  0.35824064456E-03 -0.81245047037E-03  0.23772614172E-01  0.10201408092E+01  0.10198633953E+01 0.  0.
     999903    2    3    3    0    0  0.85423883664E-01 -0.49982635421E-01  0.85959803333E-01  0.13249160083E+00  0.19220633628E-01 0.  0.
         14    1    1    2    0    0 -0.35824064456E-03  0.81245047037E-03 -0.23772614172E-01  0.23789190753E-01  0.00000000000E+00 0.  1.
     999901    1    3    3    0    0 -0.85065643020E-01  0.49170184951E-01 -0.62187189161E-01  0.88764920842E+00  0.88000000000E+00 0. -1.
        -11    1    4    4    0    0  0.56863436249E-01 -0.35951281705E-01  0.46432079846E-01  0.81744383282E-01  0.51100000000E-03 0. -1.
         11    1    4    4    0    0  0.28560447416E-01 -0.14031353716E-01  0.39527723487E-01  0.50747217547E-01  0.51100000000E-03 0.  1.
</event>
<event>
 8    1  0.1071333E+005  0.1043930E+01  0.7957747E-01            NaN
         13   -1    0    0    0    0  0.00000000000E+00  0.00000000000E+00  0.74505805969E-08  0.10566000000E+00  0.10566000000E+00 0.  1.
     999900   -1    0    0    0    0 -0.00000000000E+00 -0.00000000000E+00 -0.74505805969E-08  0.93827000000E+00  0.93827000000E+00 0.  1.
     999902    2    1    2    0    0  0.16561762826E-01  0.74069878905E-02  0.46995829922E-02  0.10251885609E+01  0.10250172408E+01 0.  0.
     999903    2    3    3    0    0 -0.95769653970E-01 -0.85735201331E-01 -0.25933030405E-01  0.13264602884E+00  0.20002388167E-01 0.  0.
         14    1    1    2    0    0 -0.16561762826E-01 -0.74069878905E-02 -0.46995829922E-02  0.18741439054E-01  0.00000000000E+00 0. -1.
     999901    1    3    3    0    0  0.11233141680E+00  0.93142189222E-01  0.30632613397E-01  0.89254253210E+00  0.88000000000E+00 0.  1.
        -11    1    4    4    0    0 -0.71058368840E-01 -0.74035485696E-01 -0.22793165535E-01  0.10512057097E+00  0.51100000000E-03 0.  1.
         11    1    4    4    0    0 -0.24711285131E-01 -0.11699715635E-01 -0.31398648700E-02  0.27525457874E-01  0.51100000000E-03 0. -1.
</event>
<event>
 8    1  0.1071333E+005  0.1043930E+01  0.7957747E-01            NaN
         13   -1    0    0    0    0  0.00000000000E+00  0.00000000000E+00  0.74505805969E-08  0.10566000000E+00  0.10566000000E+00 0.  1.
     999900   -1    0    0    0    0 -0.00000000000E+00 -0.00000000000E+00 -0.74505805969E-08  0.93827000000E+00  0.93827000000E+00 0.  1.
     999902    2    1    2    0    0 -0.15423305495E-01 -0.99932326911E-02  0.14293711622E-01  0.10206479631E+01  0.10203823848E+01 0.  0.
     999903    2    3    3    0    0 -0.19006572764E-01 -0.42262554727E-01 -0.11987261826E+00  0.12988719101E+00  0.18811284914E-01 0.  0.
         14    1    1    2    0    0  0.15423305495E-01  0.99932326911E-02 -0.14293711622E-01  0.23282036938E-01  0.00000000000E+00 0. -1.
     999901    1    3    3    0    0  0.35832672688E-02  0.32269322036E-01  0.13416632988E+00  0.89076077205E+00  0.88000000000E+00 0. -1.
        -11    1    4    4    0    0 -0.12439817307E-01 -0.11387521181E-01 -0.58307264057E-01  0.60699446917E-01  0.51100000000E-03 0.  1.
         11    1    4    4    0    0 -0.65667554569E-02 -0.30875033546E-01 -0.61565354204E-01  0.69187744095E-01  0.51100000000E-03 0. -1.
</event>
<event>
 8    1  0.1071333E+005  0.1043930E+01  0.7957747E-01            NaN
         13   -1    0    0    0    0  0.00000000000E+00  0.00000000000E+00  0.74505805969E-08  0.10566000000E+00  0.10566000000E+00 0.  1.
     999900   -1    0    0    0    0 -0.00000000000E+00 -0.00000000000E+00 -0.74505805969E-08  0.93827000000E+00  0.93827000000E+00 0. -1.
     999902    2    1    2    0    0  0.23156692595E-01 -0.57534947571E-02 -0.10110634303E-01  0.10180155245E+01  0.10176856332E+01 0.  0.
     999903    2    3    3    0    0 -0.78199776496E-01 -0.24684194618E-01  0.93382088843E-01  0.12597166406E+00  0.20594443944E-01 0.  0.
         14    1    1    2    0    0 -0.23156692595E-01  0.57534947571E-02  0.10110634303E-01  0.25914475489E-01  0.00000000000E+00 0. -1.
     999901    1    3    3    0    0  0.10135646909E+00  0.18930699861E-01 -0.10349272315E+00  0.89204386045E+00  0.88000000000E+00 0. -1.
        -11    1    4    4    0    0 -0.86927942941E-03 -0.45116237310E-02  0.47503121415E-02  0.66284977074E-02  0.51100000000E-03 0.  1.
         11    1    4    4    0    0 -0.77330497066E-01 -0.20172570887E-01  0.88631776701E-01  0.11934316635E+00  0.51100000000E-03 0. -1.
</event>
<event>
 8    1  0.1071333E+005  0.1043930E+01  0.7957747E-01            NaN
         13   -1    0    0    0    0  0.00000000000E+00  0.00000000000E+00  0.74505805969E-08  0.10566000000E+00  0.10566000000E+00 0.  1.
     999900   -1    0    0    0    0 -0.00000000000E+00 -0.00000000000E+00 -0.74505805969E-08  0.93827000000E+00  0.93827000000E+00 0. -1.
     999902    2    1    2    0    0 -0.19630005206E-01  0.12249953717E-01 -0.39337356756E-02  0.10204593216E+01  0.10201893717E+01 0.  0.
     999903    2    3    3    0    0  0.16255223814E-01 -0.10065791767E+00 -0.77199374513E-01  0.12950264981E+00  0.20370178977E-01 0.  0.
         14    1    1    2    0    0  0.19630005206E-01 -0.12249953717E-01  0.39337356756E-02  0.23470678448E-01  0.00000000000E+00 0.  1.
     999901    1    3    3    0    0 -0.35885229020E-01  0.11290787139E+00  0.73265638837E-01  0.89095667174E+00  0.88000000000E+00 0. -1.
        -11    1    4    4    0    0 -0.23256015841E-02 -0.33610143067E-01 -0.32438698805E-01  0.46771577276E-01  0.51100000000E-03 0.  1.
         11    1    4    4    0    0  0.18580825398E-01 -0.67047774606E-01 -0.44760675708E-01  0.82731072536E-01  0.51100000000E-03 0. -1.
</event>
<event>
 8    1  0.1071333E+005  0.1043930E+01  0.7957747E-01            NaN
         13   -1    0    0    0    0  0.00000000000E+00  0.00000000000E+00  0.74505805969E-08  0.10566000000E+00  0.10566000000E+00 0.  1.
     999900   -1    0    0    0    0 -0.00000000000E+00 -0.00000000000E+00 -0.74505805969E-08  0.93827000000E+00  0.93827000000E+00 0. -1.
     999902    2    1    2    0    0  0.20804954692E-02  0.19211845669E-01 -0.13722384542E-01  0.10202292128E+01  0.10199538810E+01 0.  0.
     999903    2    3    3    0    0  0.44031466606E-01 -0.11698549141E+00 -0.23661875707E-01  0.12870894267E+00  0.19537970986E-01 0.  0.
         14    1    1    2    0    0 -0.20804954692E-02 -0.19211845669E-01  0.13722384542E-01  0.23700787179E-01  0.00000000000E+00 0.  1.
     999901    1    3    3    0    0 -0.41950971137E-01  0.13619733707E+00  0.99394911654E-02  0.89152027015E+00  0.88000000000E+00 0.  1.
        -11    1    4    4    0    0  0.17074202160E-01 -0.68608211283E-01 -0.80014580814E-02  0.71154054609E-01  0.51100000000E-03 0. -1.
         11    1    4    4    0    0  0.26957264446E-01 -0.48377280123E-01 -0.15660417626E-01  0.57554888061E-01  0.51100000000E-03 0.  1.
</event>
<event>
 8    1  0.1071333E+005  0.1043930E+01  0.7957747E-01            NaN
         13   -1    0    0    0    0  0.00000000000E+00  0.00000000000E+00  0.74505805969E-08  0.10566000000E+00  0.10566000000E+00 0.  1.
     999900   -1    0    0    0    0 -0.00000000000E+00 -0.00000000000E+00 -0.74505805969E-08  0.93827000000E+00  0.93827000000E+00 0.  1.
     999902    2    1    2    0    0 -0.22736972217E-01  0.64119842152E-02  0.27357664375E-02  0.10201483292E+01  0.10198710927E+01 0.  0.
     999903    2    3    3    0    0 -0.70740875086E-02 -0.11689336670E+00 -0.52252174939E-01  0.12971404797E+00  0.19527994361E-01 0.  0.
         14    1    1    2    0    0  0.22736972217E-01 -0.64119842152E-02 -0.27357664375E-02  0.23781670782E-01  0.00000000000E+00 0. -1.
     999901    1    3    3    0    0 -0.15662884709E-01  0.12330535091E+00  0.54987941376E-01  0.89043428125E+00  0.88000000000E+00 0. -1.
        -11    1    4    4    0    0  0.68066859637E-02 -0.42610727165E-01 -0.19075780821E-01  0.47182110786E-01  0.51100000000E-03 0. -1.
         11    1    4    4    0    0 -0.13880773472E-01 -0.74282639532E-01 -0.33176394118E-01  0.82531937186E-01  0.51100000000E-03 0.  1.
</event>
<event>
 8    1  0.1071333E+005  0.1043930E+01  0.7957747E-01            NaN
         13   -1    0    0    0    0  0.00000000000E+00  0.00000000000E+00  0.74505805969E-08  0.10566000000E+00  0.10566000000E+00 0.  1.
     999900   -1    0    0    0    0 -0.00000000000E+00 -0.00000000000E+00 -0.74505805969E-08  0.93827000000E+00  0.93827000000E+00 0.  1.
     999902    2    1    2    0    0  0.92049058831E-02  0.12376864330E-01  0.19287652515E-01  0.10192332269E+01  0.10189339724E+01 0.  0.
     999903    2    3    3    0    0  0.64706908245E-01 -0.86828395659E-01 -0.65123843636E-01  0.12791540671E+00  0.19876669642E-01 0.  0.
         14    1    1    2    0    0 -0.92049058831E-02 -0.12376864330E-01 -0.19287652515E-01  0.24696773119E-01  0.00000000000E+00 0. -1.
     999901    1    3    3    0    0 -0.55502002362E-01  0.99205259989E-01  0.84411496151E-01  0.89131782017E+00  0.88000000000E+00 0. -1.
        -11    1    4    4    0    0  0.96793042268E-02 -0.20303666358E-01 -0.60301450531E-02  0.23292736384E-01  0.51100000000E-03 0.  1.
         11    1    4    4    0    0  0.55027604018E-01 -0.66524729301E-01 -0.59093698583E-01  0.10462267032E+00  0.51100000000E-03 0. -1.
</event>
<event>
 8    1  0.1071333E+005  0.1043930E+01  0.7957747E-01            NaN
         13   -1    0    0    0    0  0.00000000000E+00  0.00000000000E+00  0.74505805969E-08  0.10566000000E+00  0.10566000000E+00 0.  1.
     999900   -1    0    0    0    0 -0.00000000000E+00 -0.00000000000E+00 -0.74505805969E-08  0.93827000000E+00  0.93827000000E+00 0.  1.
     999902    2    1    2    0    0  0.50123552527E-02  0.22946636932E-01  0.15110274469E-02  0.10203937502E+01  0.10201222723E+01 0.  0.
     999903    2    3    3    0    0  0.50506868744E-01  0.64960649250E-01 -0.10152286307E+00  0.13222095698E+00  0.20116162603E-01 0.  0.
         14    1    1    2    0    0 -0.50123552527E-02 -0.22946636932E-01 -0.15110274469E-02  0.23536249821E-01  0.00000000000E+00 0.  1.
     999901    1    3    3    0    0 -0.45494513491E-01 -0.42014012317E-01  0.10303389051E+00  0.88817279320E+00  0.88000000000E+00 0. -1.
        -11    1    4    4    0    0  0.40896633648E-01  0.43642684617E-01 -0.60992188517E-01  0.85425562600E-01  0.51100000000E-03 0.  1.
         11    1    4    4    0    0  0.96102350951E-02  0.21317964632E-01 -0.40530674548E-01  0.46795394378E-01  0.51100000000E-03 0. -1.
</event>
<event>
 8    1  0.1071333E+005  0.1043930E+01  0.7957747E-01            NaN
         13   -1    0    0    0    0  0.00000000000E+00  0.00000000000E+00  0.74505805969E-08  0.10566000000E+00  0.10566000000E+00 0.  1.
     999900   -1    0    0    0    0 -0.00000000000E+00 -0.00000000000E+00 -0.74505805969E-08  0.93827000000E+00  0.93827000000E+00 0.  1.
     999902    2    1    2    0    0  0.14616432761E-01 -0.95124885227E-02  0.15644078413E-01  0.10205021377E+01  0.10202331833E+01 0.  0.
     999903    2    3    3    0    0  0.64654547008E-01 -0.91482251069E-01  0.70090777702E-01  0.13360456865E+00  0.19704084238E-01 0.  0.
         14    1    1    2    0    0 -0.14616432761E-01  0.95124885227E-02 -0.15644078413E-01  0.23427862343E-01  0.00000000000E+00 0. -1.
     999901    1    3    3    0    0 -0.50038114247E-01  0.81969762546E-01 -0.54446699289E-01  0.88689756901E+00  0.88000000000E+00 0. -1.
        -11    1    4    4    0    0  0.13315994950E-01 -0.33146879406E-01  0.26704304822E-01  0.44602828978E-01  0.51100000000E-03 0. -1.
         11    1    4    4    0    0  0.51338552058E-01 -0.58335371663E-01  0.43386472880E-01  0.89001739671E-01  0.51100000000E-03 0.  1.
</event>
<event>
 8    1  0.1071333E+005  0.1043930E+01  0.7957747E-01            NaN
         13   -1    0    0    0    0  0.00000000000E+00  0.00000000000E+00  0.74505805969E-08  0.10566000000E+00  0.10566000000E+00 0.  1.
     999900   -1    0    0    0    0 -0.00000000000E+00 -0.00000000000E+00 -0.74505805969E-08  0.93827000000E+00  0.93827000000E+00 0. -1.
     999902    2    1    2    0    0 -0.58687087184E-02 -0.20609336995E-01 -0.83734637197E-02  0.10209234486E+01  0.10206641889E+01 0.  0.
     999903    2    3    3    0    0  0.64787670600E-01  0.96747937308E-01 -0.52803422423E-01  0.12921773760E+00  0.18746110417E-01 0.  0.
         14    1    1    2    0    0  0.58687087184E-02  0.20609336995E-01  0.83734637197E-02  0.23006551416E-01  0.00000000000E+00 0.  1.
     999901    1    3    3    0    0 -0.70656379318E-01 -0.11735727430E+00  0.44429958704E-01  0.89170571098E+00  0.88000000000E+00 0.  1.
        -11    1    4    4    0    0  0.26616562421E-01  0.42786832172E-01 -0.32920891793E-01  0.60193028167E-01  0.51100000000E-03 0. -1.
         11    1    4    4    0    0  0.38171108179E-01  0.53961105136E-01 -0.19882530630E-01  0.69024709434E-01  0.51100000000E-03 0.  1.
</event>
<event>
 8    1  0.1071333E+005  0.1043930E+01  0.7957747E-01            NaN
         13   -1    0    0    0    0  0.00000000000E+00  0.00000000000E+00  0.74505805969E-08  0.10566000000E+00  0.10566000000E+00 0.  1.
     999900   -1    0    0    0    0 -0.00000000000E+00 -0.00000000000E+00 -0.74505805969E-08  0.93827000000E+00  0.93827000000E+00 0. -1.
     999902    2    1    2    0    0  0.19737153553E-01  0.85116409267E-02  0.96476364844E-02  0.10203698610E+01  0.10200978252E+01 0.  0.
     999903    2    3    3    0    0 -0.83857706139E-01 -0.33598844667E-01  0.90701101836E-01  0.12959780696E+00  0.20196644586E-01 0.  0.
         14    1    1    2    0    0 -0.19737153553E-01 -0.85116409267E-02 -0.96476364844E-02  0.23560139035E-01  0.00000000000E+00 0.  1.
     999901    1    3    3    0    0  0.10359485969E+00  0.42110485594E-01 -0.81053465352E-01  0.89077205401E+00  0.88000000000E+00 0. -1.
        -11    1    4    4    0    0 -0.66609746068E-01 -0.34203287291E-01  0.68607522541E-01  0.10155774910E+00  0.51100000000E-03 0.  1.
         11    1    4    4    0    0 -0.17247960071E-01  0.60444262357E-03  0.22093579295E-01  0.28040057856E-01  0.51100000000E-03 0. -1.
</event>
<event>
 8    1  0.1071333E+005  0.1043930E+01  0.7957747E-01            NaN
         13   -1    0    0    0    0  0.00000000000E+00  0.00000000000E+00  0.74505805969E-08  0.10566000000E+00  0.10566000000E+00 0. -1.
     999900   -1    0    0    0    0 -0.00000000000E+00 -0.00000000000E+00 -0.74505805969E-08  0.93827000000E+00  0.93827000000E+00 0. -1.
     999902    2    1    2    0    0 -0.18237174754E-01 -0.11161891041E-01 -0.10383347509E-01  0.10201603500E+01  0.10198833970E+01 0.  0.
     999903    2    3    3    0    0 -0.47403337707E-01 -0.92087469242E-01  0.78067899635E-01  0.13155287909E+00  0.22008739788E-01 0.  0.
         14    1    1    2    0    0  0.18237174754E-01  0.11161891041E-01  0.10383347509E-01  0.23769649979E-01  0.00000000000E+00 0. -1.
     999901    1    3    3    0    0  0.29166162953E-01  0.80925578202E-01 -0.88451247144E-01  0.88860747093E+00  0.88000000000E+00 0. -1.
        -11    1    4    4    0    0 -0.23236501395E-01 -0.65608398277E-01  0.45825151231E-01  0.83334281828E-01  0.51100000000E-03 0. -1.
         11    1    4    4    0    0 -0.24166836312E-01 -0.26479070966E-01  0.32242748404E-01  0.48218597265E-01  0.51100000000E-03 0.  1.
</event>
<event>
 8    1  0.1071333E+005  0.1043930E+01  0.7957747E-01            NaN
         13   -1    0    0    0    0  0.00000000000E+00  0.00000000000E+00  0.74505805969E-08  0.10566000000E+00  0.10566000000E+00 0. -1.
     999900   -1    0    0    0    0 -0.00000000000E+00 -0.00000000000E+00 -0.74505805969E-08  0.93827000000E+00  0.93827000000E+00 0.  1.
     999902    2    1    2    0    0 -0.14729280202E-01  0.15175827272E-01 -0.97387733216E-02  0.10206469346E+01  0.10203813326E+01 0.  0.
     999903    2    3    3    0    0  0.67507218791E-01  0.64773174014E-01  0.87207055544E-01  0.13012953875E+00  0.23996617649E-01 0.  0.
         14    1    1    2    0    0  0.14729280202E-01 -0.15175827272E-01  0.97387733216E-02  0.23283065401E-01  0.00000000000E+00 0.  1.
     999901    1    3    3    0    0 -0.82236498993E-01 -0.49597346742E-01 -0.96945828866E-01  0.89051739585E+00  0.88000000000E+00 0.  1.
        -11    1    4    4    0    0  0.16083854992E-01  0.75445924467E-02  0.27486793580E-01  0.32732189186E-01  0.51100000000E-03 0. -1.
         11    1    4    4    0    0  0.51423363798E-01  0.57228581567E-01  0.59720261964E-01  0.97397349567E-01  0.51100000000E-03 0.  1.
</event>
<event>
 8    1  0.1071333E+005  0.1043930E+01  0.7957747E-01            NaN
         13   -1    0    0    0    0  0.00000000000E+00  0.00000000000E+00  0.74505805969E-08  0.10566000000E+00  0.10566000000E+00 0.  1.
     999900   -1    0    0    0    0 -0.00000000000E+00 -0.00000000000E+00 -0.74505805969E-08  0.93827000000E+00  0.93827000000E+00 0.  1.
     999902    2    1    2    0    0 -0.13536066044E-01 -0.64859369724E-02 -0.18685253277E-01  0.10199627066E+01  0.10196810735E+01 0.  0.
     999903    2    3    3    0    0 -0.11779157075E+00  0.52246775146E-01  0.14695096629E-01  0.13123722060E+00  0.20066951707E-01 0.  0.
         14    1    1    2    0    0  0.13536066044E-01  0.64859369724E-02  0.18685253277E-01  0.23967293388E-01  0.00000000000E+00 0.  1.
     999901    1    3    3    0    0  0.10425550471E+00 -0.58732712119E-01 -0.33380349905E-01  0.88872548602E+00  0.88000000000E+00 0.  1.
        -11    1    4    4    0    0 -0.79732139513E-01  0.44764266939E-01  0.13465568392E-01  0.92426383241E-01  0.51100000000E-03 0. -1.
         11    1    4    4    0    0 -0.38059431241E-01  0.74825082071E-02  0.12295282369E-02  0.38810837354E-01  0.51100000000E-03 0.  1.
</event>
<event>
 8    1  0.1071333E+005  0.1043930E+01  0.7957747E-01            NaN
         13   -1    0    0    0    0  0.00000000000E+00  0.00000000000E+00  0.74505805969E-08  0.10566000000E+00  0.10566000000E+00 0.  1.
     999900   -1    0    0    0    0 -0.00000000000E+00 -0.00000000000E+00 -0.74505805969E-08  0.93827000000E+00  0.93827000000E+00 0.  1.
     999902    2    1    2    0    0  0.18039282686E-01 -0.42253500515E-02 -0.18695724894E-01  0.10176089166E+01  0.10172684541E+01 0.  0.
     999903    2    3    3    0    0  0.20287320829E-01  0.41361246020E-01  0.11563122484E+00  0.12624652067E+00  0.21101558389E-01 0.  0.
         14    1    1    2    0    0 -0.18039282686E-01  0.42253500515E-02  0.18695724894E-01  0.26321083416E-01  0.00000000000E+00 0. -1.
     999901    1    3    3    0    0 -0.22480381426E-02 -0.45586596071E-01 -0.13432694973E+00  0.89136239591E+00  0.88000000000E+00 0.  1.
        -11    1    4    4    0    0  0.11056610282E-02  0.25835689230E-01  0.54742075759E-01  0.60544705001E-01  0.51100000000E-03 0.  1.
         11    1    4    4    0    0  0.19181659801E-01  0.15525556790E-01  0.60889149079E-01  0.65701815674E-01  0.51100000000E-03 0. -1.
</event>
<event>
 8    1  0.1071333E+005  0.1043930E+01  0.7957747E-01            NaN
         13   -1    0    0    0    0  0.00000000000E+00  0.00000000000E+00  0.74505805969E-08  0.10566000000E+00  0.10566000000E+00 0.  1.
     999900   -1    0    0    0    0 -0.00000000000E+00 -0.00000000000E+00 -0.74505805969E-08  0.93827000000E+00  0.93827000000E+00 0. -1.
     999902    2    1    2    0    0 -0.54959925591E-02  0.20475793649E-01  0.13339316955E-01  0.10188820173E+01  0.10185740836E+01 0.  0.
     999903    2    3    3    0    0  0.11418226045E+00 -0.52716975957E-01 -0.79394244334E-02  0.12751629518E+00  0.19511609863E-01 0.  0.
         14    1    1    2    0    0  0.54959925591E-02 -0.20475793649E-01 -0.13339316955E-01  0.25047982686E-01  0.00000000000E+00 0. -1.
     999901    1    3    3    0    0 -0.11967825301E+00  0.73192769606E-01  0.21278741389E-01  0.89136572214E+00  0.88000000000E+00 0.  1.
        -11    1    4    4    0    0  0.54058961869E-01 -0.15293175458E-01  0.57125925466E-03  0.56185763606E-01  0.51100000000E-03 0. -1.
         11    1    4    4    0    0  0.60123298583E-01 -0.37423800499E-01 -0.85106836881E-02  0.71330531571E-01  0.51100000000E-03 0.  1.
</event>
<event>
 8    1  0.1071333E+005  0.1043930E+01  0.7957747E-01            NaN
         13   -1    0    0    0    0  0.00000000000E+00  0.00000000000E+00  0.74505805969E-08  0.10566000000E+00  0.10566000000E+00 0.  1.
     999900   -1    0    0    0    0 -0.00000000000E+00 -0.00000000000E+00 -0.74505805969E-08  0.93827000000E+00  0.93827000000E+00 0.  1.
     999902    2    1    2    0    0  0.69923931355E-02 -0.25387992728E-02  0.22147135048E-01  0.10205668954E+01  0.10202994430E+01 0.  0.
     999903    2    3    3    0    0  0.25444627009E-01 -0.12688615554E+00 -0.61932881058E-02  0.13118175417E+00  0.20561378761E-01 0.  0.
         14    1    1    2    0    0 -0.69923931355E-02  0.25387992728E-02 -0.22147135048E-01  0.23363104552E-01  0.00000000000E+00 0. -1.
     999901    1    3    3    0    0 -0.18452233873E-01  0.12434735627E+00  0.28340423154E-01  0.88938514128E+00  0.88000000000E+00 0. -1.
        -11    1    4    4    0    0  0.21079345404E-01 -0.91676000849E-01 -0.13265810707E-01  0.95000372574E-01  0.51100000000E-03 0.  1.
         11    1    4    4    0    0  0.43652816050E-02 -0.35210154694E-01  0.70725226010E-02  0.36181381593E-01  0.51100000000E-03 0. -1.
</event>
<event>
 8    1  0.1071333E+005  0.1043930E+01  0.7957747E-01            NaN
         13   -1    0    0    0    0  0.00000000000E+00  0.00000000000E+00  0.74505805969E-08  0.10566000000E+00  0.10566000000E+00 0. -1.
     999900   -1    0    0    0    0 -0.00000000000E+00 -0.00000000000E+00 -0.74505805969E-08  0.93827000000E+00  0.93827000000E+00 0. -1.
     999902    2    1    2    0    0 -0.35737345325E-02  0.19690508046E-01  0.13207474243E-01  0.10199524050E+01  0.10196705269E+01 0.  0.
     999903    2    3    3    0    0 -0.60811905724E-01 -0.98000771829E-01  0.54916788289E-01  0.12929696519E+00  0.19990308023E-01 0.  0.
         14    1    1    2    0    0  0.35737345325E-02 -0.19690508046E-01 -0.13207474243E-01  0.23977594990E-01  0.00000000000E+00 0.  1.
     999901    1    3    3    0    0  0.57238171191E-01  0.11769127987E+00 -0.41709314046E-01  0.89065543982E+00  0.88000000000E+00 0. -1.
        -11    1    4    4    0    0 -0.24296320845E-01 -0.22210052543E-01  0.15844747589E-01  0.36536485706E-01  0.51100000000E-03 0. -1.
         11    1    4    4    0    0 -0.36515584879E-01 -0.75790719285E-01  0.39072040700E-01  0.92760479485E-01  0.51100000000E-03 0.  1.
</event>
<event>
 8    1  0.1071333E+005  0.1043930E+01  0.7957747E-01            NaN
         13   -1    0    0    0    0  0.00000000000E+00  0.00000000000E+00  0.74505805969E-08  0.10566000000E+00  0.10566000000E+00 0.  1.
     999900   -1    0    0    0    0 -0.00000000000E+00 -0.00000000000E+00 -0.74505805969E-08  0.93827000000E+00  0.93827000000E+00 0.  1.
     999902    2    1    2    0    0 -0.10475646021E-01 -0.53860562862E-02  0.22214428092E-01  0.10187858242E+01  0.10184754911E+01 0.  0.
     999903    2    3    3    0    0  0.41661823256E-01  0.11755404355E+00 -0.19633321680E-01  0.12772812796E+00  0.19348040685E-01 0.  0.
         14    1    1    2    0    0  0.10475646021E-01  0.53860562862E-02 -0.22214428092E-01  0.25144175813E-01  0.00000000000E+00 0. -1.
     999901    1    3    3    0    0 -0.52137469277E-01 -0.12294009984E+00  0.41847749772E-01  0.89105769623E+00  0.88000000000E+00 0.  1.
        -11    1    4    4    0    0  0.18464470886E-01  0.36588769555E-01  0.10529106767E-02  0.41000542491E-01  0.51100000000E-03 0. -1.
         11    1    4    4    0    0  0.23197352370E-01  0.80965273998E-01 -0.20686232357E-01  0.86727585465E-01  0.51100000000E-03 0.  1.
</event>
<event>
 8    1  0.1071333E+005  0.1043930E+01  0.7957747E-01            NaN
         13   -1    0    0    0    0  0.00000000000E+00  0.00000000000E+00  0.74505805969E-08  0.10566000000E+00  0.10566000000E+00 0.  1.
     999900   -1    0    0    0    0 -0.00000000000E+00 -0.00000000000E+00 -0.74505805969E-08  0.93827000000E+00  0.93827000000E+00 0.  1.
     999902    2    1    2    0    0 -0.16783920192E-01  0.59809037837E-02 -0.15109528536E-01  0.10205682997E+01  0.10203008798E+01 0.  0.
     999903    2    3    3    0    0  0.97500505926E-01  0.90367205723E-02  0.79804832267E-01  0.12811157587E+00  0.21348387395E-01 0.  0.
         14    1    1    2    0    0  0.16783920192E-01 -0.59809037837E-02  0.15109528536E-01  0.23361700273E-01  0.00000000000E+00 0.  1.
     999901    1    3    3    0    0 -0.11428442612E+00 -0.30558167886E-02 -0.94914360803E-01  0.89245672386E+00  0.88000000000E+00 0.  1.
        -11    1    4    4    0    0  0.82669237887E-01  0.45484532001E-02  0.56937729686E-01  0.10048411567E+00  0.51100000000E-03 0. -1.
         11    1    4    4    0    0  0.14831268039E-01  0.44882673722E-02  0.22867102581E-01  0.27627460200E-01  0.51100000000E-03 0.  1.
</event>
<event>
 8    1  0.1071333E+005  0.1043930E+01  0.7957747E-01            NaN
         13   -1    0    0    0    0  0.00000000000E+00  0.00000000000E+00  0.74505805969E-08  0.10566000000E+00  0.10566000000E+00 0.  1.
     999900   -1    0    0    0    0 -0.00000000000E+00 -0.00000000000E+00 -0.74505805969E-08  0.93827000000E+00  0.93827000000E+00 0. -1.
     999902    2    1    2    0    0 -0.16509636338E-01 -0.41117855574E-02 -0.15842950304E-01  0.10206819044E+01  0.10204171089E+01 0.  0.
     999903    2    3    3    0    0  0.39502822043E-01 -0.11984735415E+00 -0.28675231221E-01  0.13124568708E+00  0.21892926822E-01 0.  0.
         14    1    1    2    0    0  0.16509636338E-01  0.41117855574E-02  0.15842950304E-01  0.23248095552E-01  0.00000000000E+00 0.  1.
     999901    1    3    3    0    0 -0.56012458381E-01  0.11573556859E+00  0.12832280917E-01  0.88943621737E+00  0.88000000000E+00 0.  1.
        -11    1    4    4    0    0  0.61163787030E-02 -0.11451963236E-01 -0.97764178353E-02  0.16260289576E-01  0.51100000000E-03 0. -1.
         11    1    4    4    0    0  0.33386443340E-01 -0.10839539092E+00 -0.18898813386E-01  0.11498539750E+00  0.51100000000E-03 0.  1.
</event>
<event>
 8    1  0.1071333E+005  0.1043930E+01  0.7957747E-01            NaN
         13   -1    0    0    0    0  0.00000000000E+00  0.00000000000E+00  0.74505805969E-08  0.10566000000E+00  0.10566000000E+00 0. -1.
     999900   -1    0    0    0    0 -0.00000000000E+00 -0.00000000000E+00 -0.74505805969E-08  0.93827000000E+00  0.93827000000E+00 0.  1.
     999902    2    1    2    0    0  0.36634845569E-02 -0.73142482363E-02  0.21916361445E-01  0.10205367051E+01  0.10202685530E+01 0.  0.
     999903    2    3    3    0    0  0.47850918340E-01 -0.99612566983E-01  0.71617344821E-01  0.13321393594E+00  0.20113049590E-01 0.  0.
         14    1    1    2    0    0 -0.36634845569E-02  0.73142482363E-02 -0.21916361445E-01  0.23393294880E-01  0.00000000000E+00 0.  1.
     999901    1    3    3    0    0 -0.44187433783E-01  0.92298318746E-01 -0.49700983376E-01  0.88732276917E+00  0.88000000000E+00 0.  1.
        -11    1    4    4    0    0  0.18973934575E-01 -0.59832748847E-01  0.34592491724E-01  0.71671958481E-01  0.51100000000E-03 0. -1.
         11    1    4    4    0    0  0.28876983765E-01 -0.39779818136E-01  0.37024853097E-01  0.61541977464E-01  0.51100000000E-03 0.  1.
</event>
<event>
 8    1  0.1071333E+005  0.1043930E+01  0.7957747E-01            NaN
         13   -1    0    0    0    0  0.00000000000E+00  0.00000000000E+00  0.74505805969E-08  0.10566000000E+00  0.10566000000E+00 0.  1.
     999900   -1    0    0    0    0 -0.00000000000E+00 -0.00000000000E+00 -0.74505805969E-08  0.93827000000E+00  0.93827000000E+00 0.  1.
     999902    2    1    2    0    0  0.59105089111E-02  0.11643162752E-01 -0.19970969850E-01  0.10200692165E+01  0.10197901105E+01 0.  0.
     999903    2    3    3    0    0  0.62435879342E-01  0.99578468570E-01  0.54319926281E-01  0.13077349919E+00  0.18356014438E-01 0.  0.
         14    1    1    2    0    0 -0.59105089111E-02 -0.11643162752E-01  0.19970969850E-01  0.23860783542E-01  0.00000000000E+00 0.  1.
     999901    1    3    3    0    0 -0.56525370431E-01 -0.87935305817E-01 -0.74290896132E-01  0.88929571727E+00  0.88000000000E+00 0.  1.
        -11    1    4    4    0    0  0.51226775011E-01  0.91578253850E-01  0.50618662972E-01  0.11650437424E+00  0.51100000000E-03 0.  1.
         11    1    4    4    0    0  0.11209104331E-01  0.80002147201E-02  0.37012633098E-02  0.14269124940E-01  0.51100000000E-03 0. -1.
</event>
<event>
 8    1  0.1071333E+005  0.1043930E+01  0.7957747E-01            NaN
         13   -1    0    0    0    0  0.00000000000E+00  0.00000000000E+00  0.74505805969E-08  0.10566000000E+00  0.10566000000E+00 0. -1.
     999900   -1    0    0    0    0 -0.00000000000E+00 -0.00000000000E+00 -0.74505805969E-08  0.93827000000E+00  0.93827000000E+00 0.  1.
     999902    2    1    2    0    0  0.13867474795E-01  0.18146568745E-01 -0.70681655456E-02  0.10200225999E+01  0.10197423893E+01 0.  0.
     999903    2    3    3    0    0 -0.29973585805E-01 -0.12090804922E+00 -0.20956558330E-01  0.12791772221E+00  0.20164178819E-01 0.  0.
         14    1    1    2    0    0 -0.13867474795E-01 -0.18146568745E-01  0.70681655456E-02  0.23907400080E-01  0.00000000000E+00 0. -1.
     999901    1    3    3    0    0  0.43841060600E-01  0.13905461796E+00  0.13888392785E-01  0.89210487771E+00  0.88000000000E+00 0. -1.
        -11    1    4    4    0    0 -0.23330570735E-01 -0.53570883360E-01 -0.72978244773E-02  0.58886963225E-01  0.51100000000E-03 0.  1.
         11    1    4    4    0    0 -0.66430150705E-02 -0.67337165859E-01 -0.13658733853E-01  0.69030758989E-01  0.51100000000E-03 0. -1.
</event>
<event>
 8    1  0.1132657E+005  0.1043930E+01  0.7957747E-01            NaN
         13   -1    0    0    0    0  0.00000000000E+00  0.00000000000E+00  0.74505805969E-08  0.10566000000E+00  0.10566000000E+00 0.  1.
     999900   -1    0    0    0    0 -0.00000000000E+00 -0.00000000000E+00 -0.74505805969E-08  0.93827000000E+00  0.93827000000E+00 0.  1.
     999902    2    1    2    0    0 -0.13320064523E-01 -0.13166570097E-01  0.13269930127E-01  0.10209762697E+01  0.10207182127E+01 0.  0.
     999903    2    3    3    0    0  0.27170712347E-01  0.11563524117E+00 -0.44641812921E-01  0.12879737536E+00  0.22048034599E-01 0.  0.
         14    1    1    2    0    0  0.13320064523E-01  0.13166570097E-01 -0.13269930127E-01  0.22953730255E-01  0.00000000000E+00 0. -1.
     999901    1    3    3    0    0 -0.40490776870E-01 -0.12880181127E+00  0.57911743048E-01  0.89217889438E+00  0.88000000000E+00 0. -1.
        -11    1    4    4    0    0  0.22186919751E-01  0.46793284840E-01 -0.19201333356E-01  0.55234257828E-01  0.51100000000E-03 0. -1.
         11    1    4    4    0    0  0.49837925957E-02  0.68841956331E-01 -0.25440479565E-01  0.73563117536E-01  0.51100000000E-03 0.  1.
</event>
<event>
 8    1  0.1071333E+005  0.1043930E+01  0.7957747E-01            NaN
         13   -1    0    0    0    0  0.00000000000E+00  0.00000000000E+00  0.74505805969E-08  0.10566000000E+00  0.10566000000E+00 0.  1.
     999900   -1    0    0    0    0 -0.00000000000E+00 -0.00000000000E+00 -0.74505805969E-08  0.93827000000E+00  0.93827000000E+00 0.  1.
     999902    2    1    2    0    0  0.19494872534E-01 -0.18102117005E-01  0.11968685038E-03  0.10173264096E+01  0.10169785016E+01 0.  0.
     999903    2    3    3    0    0 -0.32237303253E-01  0.23329205642E-01  0.11876439541E+00  0.12689430140E+00  0.20339285969E-01 0.  0.
         14    1    1    2    0    0 -0.19494872534E-01  0.18102117005E-01 -0.11968685038E-03  0.26603590362E-01  0.00000000000E+00 0.  1.
     999901    1    3    3    0    0  0.51732175787E-01 -0.41431322647E-01 -0.11864470856E+00  0.89043210824E+00  0.88000000000E+00 0.  1.
        -11    1    4    4    0    0 -0.17820966557E-01  0.23788601138E-01  0.70317178084E-01  0.76342982964E-01  0.51100000000E-03 0.  1.
         11    1    4    4    0    0 -0.14416336696E-01 -0.45939549640E-03  0.48447217328E-01  0.50551318438E-01  0.51100000000E-03 0. -1.
</event>
<event>
 8    1  0.1071333E+005  0.1043930E+01  0.7957747E-01            NaN
         13   -1    0    0    0    0  0.00000000000E+00  0.00000000000E+00  0.74505805969E-08  0.10566000000E+00  0.10566000000E+00 0. -1.
     999900   -1    0    0    0    0 -0.00000000000E+00 -0.00000000000E+00 -0.74505805969E-08  0.93827000000E+00  0.93827000000E+00 0.  1.
     999902    2    1    2    0    0 -0.60683497713E-02  0.20029223144E-01 -0.11191201537E-01  0.10201973718E+01  0.10199212910E+01 0.  0.
     999903    2    3    3    0    0 -0.14467439168E-01  0.10724037724E+00 -0.75684831413E-01  0.13349800991E+00  0.19588763037E-01 0.  0.
         14    1    1    2    0    0  0.60683497713E-02 -0.20029223144E-01  0.11191201537E-01  0.23732628185E-01  0.00000000000E+00 0.  1.
     999901    1    3    3    0    0  0.83990893969E-02 -0.87211154100E-01  0.64493629877E-01  0.88669936190E+00  0.88000000000E+00 0. -1.
        -11    1    4    4    0    0 -0.15524765109E-01  0.91218112298E-01 -0.71386501169E-01  0.11686768592E+00  0.51100000000E-03 0.  1.
         11    1    4    4    0    0  0.10573259408E-02  0.16022264946E-01 -0.42983302448E-02  0.16630323990E-01  0.51100000000E-03 0. -1.
</event>
<event>
 8    1  0.1071333E+005  0.1043930E+01  0.7957747E-01            NaN
         13   -1    0    0    0    0  0.00000000000E+00  0.00000000000E+00  0.74505805969E-08  0.10566000000E+00  0.10566000000E+00 0.  1.
     999900   -1    0    0    0    0 -0.00000000000E+00 -0.00000000000E+00 -0.74505805969E-08  0.93827000000E+00  0.93827000000E+00 0. -1.
     999902    2    1    2    0    0 -0.13989879443E-01  0.12134315552E-01  0.16377086113E-01  0.10192082021E+01  0.10189083335E+01 0.  0.
     999903    2    3    3    0    0  0.67381657157E-01  0.23644574726E-01 -0.10366723747E+00  0.12726400395E+00  0.18704997775E-01 0.  0.
         14    1    1    2    0    0  0.13989879443E-01 -0.12134315552E-01 -0.16377086113E-01  0.24721797878E-01  0.00000000000E+00 0. -1.
     999901    1    3    3    0    0 -0.81371536600E-01 -0.11510259175E-01  0.12004432358E+00  0.89194419818E+00  0.88000000000E+00 0.  1.
        -11    1    4    4    0    0  0.41265728411E-02 -0.97882544227E-03 -0.14999871521E-01  0.15596280624E-01  0.51100000000E-03 0. -1.
         11    1    4    4    0    0  0.63255084316E-01  0.24623400169E-01 -0.88667365945E-01  0.11166772332E+00  0.51100000000E-03 0.  1.
</event>
<event>
 8    1  0.1071333E+005  0.1043930E+01  0.7957747E-01            NaN
         13   -1    0    0    0    0  0.00000000000E+00  0.00000000000E+00  0.74505805969E-08  0.10566000000E+00  0.10566000000E+00 0. -1.
     999900   -1    0    0    0    0 -0.00000000000E+00 -0.00000000000E+00 -0.74505805969E-08  0.93827000000E+00  0.93827000000E+00 0. -1.
     999902    2    1    2    0    0  0.86379439242E-02 -0.18161117217E-01  0.14017195075E-01  0.10194162893E+01  0.10191215084E+01 0.  0.
     999903    2    3    3    0    0  0.10500543725E+00 -0.53858475162E-01  0.56494214709E-01  0.13241837932E+00  0.20399845291E-01 0.  0.
         14    1    1    2    0    0 -0.86379439242E-02  0.18161117217E-01 -0.14017195075E-01  0.24513710686E-01  0.00000000000E+00 0. -1.
     999901    1    3    3    0    0 -0.96367493326E-01  0.35697357944E-01 -0.42477019635E-01  0.88699790999E+00  0.88000000000E+00 0. -1.
        -11    1    4    4    0    0  0.30544743201E-01 -0.24883848669E-01  0.24188411990E-01  0.46233404129E-01  0.51100000000E-03 0.  1.
         11    1    4    4    0    0  0.74460694049E-01 -0.28974626493E-01  0.32305802719E-01  0.86184975193E-01  0.51100000000E-03 0. -1.
</event>
<event>
 8    1  0.1071333E+005  0.1043930E+01  0.7957747E-01            NaN
         13   -1    0    0    0    0  0.00000000000E+00  0.00000000000E+00  0.74505805969E-08  0.10566000000E+00  0.10566000000E+00 0.  1.
     999900   -1    0    0    0    0 -0.00000000000E+00 -0.00000000000E+00 -0.74505805969E-08  0.93827000000E+00  0.93827000000E+00 0. -1.
     999902    2    1    2    0    0 -0.10753776746E-01  0.52944664696E-02 -0.20483618368E-01  0.10201970332E+01  0.10199209445E+01 0.  0.
     999903    2    3    3    0    0 -0.24260673641E-01  0.41535549873E-01 -0.12244011361E+00  0.13346653343E+00  0.22537789026E-01 0.  0.
         14    1    1    2    0    0  0.10753776746E-01 -0.52944664696E-02  0.20483618368E-01  0.23732966754E-01  0.00000000000E+00 0.  1.
     999901    1    3    3    0    0  0.13506896895E-01 -0.36241083403E-01  0.10195649525E+00  0.88673049982E+00  0.88000000000E+00 0.  1.
        -11    1    4    4    0    0 -0.14240129137E-01  0.23819538457E-01 -0.96940516165E-01  0.10083588888E+00  0.51100000000E-03 0.  1.
         11    1    4    4    0    0 -0.10020544504E-01  0.17716011416E-01 -0.25499597448E-01  0.32630644549E-01  0.51100000000E-03 0. -1.
</event>
<event>
 8    1  0.1071333E+005  0.1043930E+01  0.7957747E-01            NaN
         13   -1    0    0    0    0  0.00000000000E+00  0.00000000000E+00  0.74505805969E-08  0.10566000000E+00  0.10566000000E+00 0.  1.
     999900   -1    0    0    0    0 -0.00000000000E+00 -0.00000000000E+00 -0.74505805969E-08  0.93827000000E+00  0.93827000000E+00 0.  1.
     999902    2    1    2    0    0 -0.21252877375E-01 -0.84800670078E-02 -0.47079367143E-02  0.10205684718E+01  0.10203010558E+01 0.  0.
     999903    2    3    3    0    0 -0.12796420965E+00  0.23915697984E-03  0.32193311899E-01  0.13331144280E+00  0.18990400266E-01 0.  0.
         14    1    1    2    0    0  0.21252877375E-01  0.84800670078E-02  0.47079367143E-02  0.23361528231E-01  0.00000000000E+00 0.  1.
     999901    1    3    3    0    0  0.10671133228E+00 -0.87192239876E-02 -0.36901248613E-01  0.88725702897E+00  0.88000000000E+00 0.  1.
        -11    1    4    4    0    0 -0.94945746272E-01 -0.49618452452E-02  0.16971577265E-01  0.96579553733E-01  0.51100000000E-03 0. -1.
         11    1    4    4    0    0 -0.33018463382E-01  0.52010022250E-02  0.15221734634E-01  0.36731889068E-01  0.51100000000E-03 0.  1.
</event>
<event>
 8    1  0.1071333E+005  0.1043930E+01  0.7957747E-01            NaN
         13   -1    0    0    0    0  0.00000000000E+00  0.00000000000E+00  0.74505805969E-08  0.10566000000E+00  0.10566000000E+00 0. -1.
     999900   -1    0    0    0    0 -0.00000000000E+00 -0.00000000000E+00 -0.74505805969E-08  0.93827000000E+00  0.93827000000E+00 0. -1.
     999902    2    1    2    0    0 -0.33630016285E-02  0.12776679682E-01  0.19705004043E-01  0.10202057401E+01  0.10199298562E+01 0.  0.
     999903    2    3    3    0    0 -0.73383583073E-01 -0.23756627010E-01 -0.10077142059E+00  0.12849270710E+00  0.20148671900E-01 0.  0.
         14    1    1    2    0    0  0.33630016285E-02 -0.12776679682E-01 -0.19705004043E-01  0.23724259904E-01  0.00000000000E+00 0.  1.
     999901    1    3    3    0    0  0.70020581445E-01  0.36533306691E-01  0.12047642463E+00  0.89171303300E+00  0.88000000000E+00 0.  1.
        -11    1    4    4    0    0 -0.51569634072E-01 -0.22912283848E-01 -0.60855314602E-01  0.82994158504E-01  0.51100000000E-03 0. -1.
         11    1    4    4    0    0 -0.21813949001E-01 -0.84434316181E-03 -0.39916105984E-01  0.45498548596E-01  0.51100000000E-03 0.  1.
</event>
<event>
 8    1  0.1071333E+005  0.1043930E+01  0.7957747E-01            NaN
         13   -1    0    0    0    0  0.00000000000E+00  0.00000000000E+00  0.74505805969E-08  0.10566000000E+00  0.10566000000E+00 0. -1.
     999900   -1    0    0    0    0 -0.00000000000E+00 -0.00000000000E+00 -0.74505805969E-08  0.93827000000E+00  0.93827000000E+00 0.  1.
     999902    2    1    2    0    0 -0.21416472761E-01 -0.24876731090E-02 -0.78592307441E-02  0.10209817685E+01  0.10207238364E+01 0.  0.
     999903    2    3    3    0    0 -0.10240701774E+00  0.28424499349E-01 -0.79564437604E-01  0.13381962574E+00  0.16794137540E-01 0.  0.
         14    1    1    2    0    0  0.21416472761E-01  0.24876731090E-02  0.78592307441E-02  0.22948231542E-01  0.00000000000E+00 0.  1.
     999901    1    3    3    0    0  0.80990544981E-01 -0.30912172458E-01  0.71705206860E-01  0.88716214272E+00  0.88000000000E+00 0. -1.
        -11    1    4    4    0    0 -0.24360006689E-01  0.54382315606E-02 -0.10449271361E-01  0.27063493518E-01  0.51100000000E-03 0. -1.
         11    1    4    4    0    0 -0.78047011052E-01  0.22986267789E-01 -0.69115166244E-01  0.10675613222E+00  0.51100000000E-03 0.  1.
</event>
<event>
 8    1  0.1071333E+005  0.1043930E+01  0.7957747E-01            NaN
         13   -1    0    0    0    0  0.00000000000E+00  0.00000000000E+00  0.74505805969E-08  0.10566000000E+00  0.10566000000E+00 0. -1.
     999900   -1    0    0    0    0 -0.00000000000E+00 -0.00000000000E+00 -0.74505805969E-08  0.93827000000E+00  0.93827000000E+00 0. -1.
     999902    2    1    2    0    0 -0.23265738434E-01 -0.19871011354E-02 -0.56025830886E-02  0.10199168350E+01  0.10196341100E+01 0.  0.
     999903    2    3    3    0    0 -0.17015843201E-01 -0.73569854797E-01  0.10428578219E+00  0.13017608364E+00  0.19189213927E-01 0.  0.
         14    1    1    2    0    0  0.23265738434E-01  0.19871011354E-02  0.56025830886E-02  0.24013164995E-01  0.00000000000E+00 0. -1.
     999901    1    3    3    0    0 -0.62498952337E-02  0.71582753662E-01 -0.10988836528E+00  0.88974075136E+00  0.88000000000E+00 0. -1.
        -11    1    4    4    0    0  0.23757765737E-02 -0.14774388095E-01  0.12737889976E-01  0.19658123510E-01  0.51100000000E-03 0.  1.
         11    1    4    4    0    0 -0.19391619774E-01 -0.58795466702E-01  0.91547892213E-01  0.11051796013E+00  0.51100000000E-03 0. -1.
</event>
<event>
 8    1  0.1071333E+005  0.1043930E+01  0.7957747E-01            NaN
         13   -1    0    0    0    0  0.00000000000E+00  0.00000000000E+00  0.74505805969E-08  0.10566000000E+00  0.10566000000E+00 0. -1.
     999900   -1    0    0    0    0 -0.00000000000E+00 -0.00000000000E+00 -0.74505805969E-08  0.93827000000E+00  0.93827000000E+00 0. -1.
     999902    2    1    2    0    0  0.23243742934E-01 -0.47068123346E-02  0.32544281788E-02  0.10199922271E+01  0.10197112956E+01 0.  0.
     999903    2    3    3    0    0  0.96036404833E-01  0.88605107197E-01  0.34022033252E-02  0.13206998514E+00  0.18895764424E-01 0.  0.
         14    1    1    2    0    0 -0.23243742934E-01  0.47068123346E-02 -0.32544281788E-02  0.23937772885E-01  0.00000000000E+00 0.  1.
     999901    1    3    3    0    0 -0.72792661900E-01 -0.93311919531E-01 -0.14777514633E-03  0.88792224197E+00  0.88000000000E+00 0.  1.
        -11    1    4    4    0    0  0.48322276982E-01  0.39533986847E-01  0.10290038408E-01  0.63278152471E-01  0.51100000000E-03 0.  1.
         11    1    4    4    0    0  0.47714127852E-01  0.49071120350E-01 -0.68878350831E-02  0.68791832670E-01  0.51100000000E-03 0. -1.
</event>
<event>
 8    1  0.1071333E+005  0.1043930E+01  0.7957747E-01            NaN
         13   -1    0    0    0    0  0.00000000000E+00  0.00000000000E+00  0.74505805969E-08  0.10566000000E+00  0.10566000000E+00 0.  1.
     999900   -1    0    0    0    0 -0.00000000000E+00 -0.00000000000E+00 -0.74505805969E-08  0.93827000000E+00  0.93827000000E+00 0. -1.
     999902    2    1    2    0    0 -0.60464431643E-02 -0.12160582875E-01  0.19124324277E-01  0.10204741046E+01  0.10202044987E+01 0.  0.
     999903    2    3    3    0    0 -0.89091570908E-01  0.92534506885E-01 -0.56636070407E-02  0.13004050425E+00  0.19455419027E-01 0.  0.
         14    1    1    2    0    0  0.60464431643E-02  0.12160582875E-01 -0.19124324277E-01  0.23455895418E-01  0.00000000000E+00 0. -1.
     999901    1    3    3    0    0  0.83045127744E-01 -0.10469508976E+00  0.24787931318E-01  0.89043360033E+00  0.88000000000E+00 0. -1.
        -11    1    4    4    0    0 -0.43712934342E-01  0.32354212719E-01  0.78217142868E-03  0.54391990427E-01  0.51100000000E-03 0. -1.
         11    1    4    4    0    0 -0.45378636565E-01  0.60180294166E-01 -0.64457784694E-02  0.75648513822E-01  0.51100000000E-03 0.  1.
</event>
<event>
 8    1  0.1071333E+005  0.1043930E+01  0.7957747E-01            NaN
         13   -1    0    0    0    0  0.00000000000E+00  0.00000000000E+00  0.74505805969E-08  0.10566000000E+00  0.10566000000E+00 0.  1.
     999900   -1    0    0    0    0 -0.00000000000E+00 -0.00000000000E+00 -0.74505805969E-08  0.93827000000E+00  0.93827000000E+00 0.  1.
     999902    2    1    2    0    0 -0.11912215013E-01 -0.12207242415E-01 -0.18887852254E-01  0.10184806661E+01  0.10181626582E+01 0.  0.
     999903    2    3    3    0    0 -0.11394753569E+00 -0.56734003723E-01 -0.19290421841E-01  0.13146657307E+00  0.26618628661E-01 0.  0.
         14    1    1    2    0    0  0.11912215013E-01  0.12207242415E-01  0.18887852254E-01  0.25449333914E-01  0.00000000000E+00 0.  1.
     999901    1    3    3    0    0  0.10203532068E+00  0.44526761308E-01  0.40256958650E-03  0.88701409301E+00  0.88000000000E+00 0.  1.
        -11    1    4    4    0    0 -0.68837833882E-01 -0.25885974213E-01 -0.10568728215E-03  0.73545926640E-01  0.51100000000E-03 0. -1.
         11    1    4    4    0    0 -0.45109701812E-01 -0.30848029510E-01 -0.19184734558E-01  0.57920646434E-01  0.51100000000E-03 0.  1.
</event>
<event>
 8    1  0.1071333E+005  0.1043930E+01  0.7957747E-01            NaN
         13   -1    0    0    0    0  0.00000000000E+00  0.00000000000E+00  0.74505805969E-08  0.10566000000E+00  0.10566000000E+00 0. -1.
     999900   -1    0    0    0    0 -0.00000000000E+00 -0.00000000000E+00 -0.74505805969E-08  0.93827000000E+00  0.93827000000E+00 0. -1.
     999902    2    1    2    0    0  0.12649670751E-01  0.20635133960E-01  0.27116653028E-03  0.10197247019E+01  0.10194373798E+01 0.  0.
     999903    2    3    3    0    0  0.72808162883E-01 -0.10352907611E+00 -0.13275827244E-01  0.12887156236E+00  0.20306004332E-01 0.  0.
         14    1    1    2    0    0 -0.12649670751E-01 -0.20635133960E-01 -0.27116653028E-03  0.24205298076E-01  0.00000000000E+00 0. -1.
     999901    1    3    3    0    0 -0.60158492132E-01  0.12416421007E+00  0.13546993775E-01  0.89085313957E+00  0.88000000000E+00 0. -1.
        -11    1    4    4    0    0  0.67339875817E-01 -0.98827606316E-01 -0.16910215074E-01  0.12077984575E+00  0.51100000000E-03 0. -1.
         11    1    4    4    0    0  0.54682870664E-02 -0.47014697957E-02  0.36343878300E-02  0.80917166027E-02  0.51100000000E-03 0.  1.
</event>
<event>
 8    1  0.1071333E+005  0.1043930E+01  0.7957747E-01            NaN
         13   -1    0    0    0    0  0.00000000000E+00  0.00000000000E+00  0.74505805969E-08  0.10566000000E+00  0.10566000000E+00 0.  1.
     999900   -1    0    0    0    0 -0.00000000000E+00 -0.00000000000E+00 -0.74505805969E-08  0.93827000000E+00  0.93827000000E+00 0. -1.
     999902    2    1    2    0    0 -0.20218520514E-01 -0.11138026424E-02 -0.30035145064E-02  0.10234592837E+01  0.10232545407E+01 0.  0.
     999903    2    3    3    0    0 -0.33025757471E-01  0.12742409212E+00 -0.13368053082E-01  0.13396873319E+00  0.21007539658E-01 0.  0.
         14    1    1    2    0    0  0.20218520514E-01  0.11138026424E-02  0.30035145064E-02  0.20470716340E-01  0.00000000000E+00 0.  1.
     999901    1    3    3    0    0  0.12807236957E-01 -0.12853789476E+00  0.10364538575E-01  0.88949055047E+00  0.88000000000E+00 0.  1.
        -11    1    4    4    0    0 -0.31335129441E-01  0.81560851557E-01 -0.10073818960E-01  0.87953429684E-01  0.51100000000E-03 0.  1.
         11    1    4    4    0    0 -0.16906280298E-02  0.45863240559E-01 -0.32942341219E-02  0.46015303510E-01  0.51100000000E-03 0. -1.
</event>
<event>
 8    1  0.1071333E+005  0.1043930E+01  0.7957747E-01            NaN
         13   -1    0    0    0    0  0.00000000000E+00  0.00000000000E+00  0.74505805969E-08  0.10566000000E+00  0.10566000000E+00 0.  1.
     999900   -1    0    0    0    0 -0.00000000000E+00 -0.00000000000E+00 -0.74505805969E-08  0.93827000000E+00  0.93827000000E+00 0. -1.
     999902    2    1    2    0    0 -0.74389327958E-02  0.12281701464E-01  0.17101662085E-01  0.10215996449E+01  0.10213555648E+01 0.  0.
     999903    2    3    3    0    0  0.16094552170E-01 -0.11645515305E+00 -0.50002935396E-01  0.12939449495E+00  0.20537879483E-01 0.  0.
         14    1    1    2    0    0  0.74389327958E-02 -0.12281701464E-01 -0.17101662085E-01  0.22330355081E-01  0.00000000000E+00 0. -1.
     999901    1    3    3    0    0 -0.23533484966E-01  0.12873685452E+00  0.67104597482E-01  0.89220514997E+00  0.88000000000E+00 0.  1.
        -11    1    4    4    0    0  0.11959196516E-01 -0.88553237476E-01 -0.28080761173E-01  0.93666901934E-01  0.51100000000E-03 0.  1.
         11    1    4    4    0    0  0.41353556538E-02 -0.27901915575E-01 -0.21922174223E-01  0.35727593017E-01  0.51100000000E-03 0. -1.
</event>
<event>
 8    1  0.1071333E+005  0.1043930E+01  0.7957747E-01            NaN
         13   -1    0    0    0    0  0.00000000000E+00  0.00000000000E+00  0.74505805969E-08  0.10566000000E+00  0.10566000000E+00 0.  1.
     999900   -1    0    0    0    0 -0.00000000000E+00 -0.00000000000E+00 -0.74505805969E-08  0.93827000000E+00  0.93827000000E+00 0.  1.
     999902    2    1    2    0    0  0.12749893292E-01 -0.52766911882E-02 -0.13338279555E-01  0.10247385188E+01  0.10245587923E+01 0.  0.
     999903    2    3    3    0    0 -0.13386166112E-01  0.97723951098E-01 -0.89946357053E-01  0.13504136615E+00  0.20412333594E-01 0.  0.
         14    1    1    2    0    0 -0.12749893292E-01  0.52766911882E-02  0.13338279555E-01  0.19191481192E-01  0.00000000000E+00 0.  1.
     999901    1    3    3    0    0  0.26136059404E-01 -0.10300064229E+00  0.76608077499E-01  0.88969715266E+00  0.88000000000E+00 0. -1.
        -11    1    4    4    0    0 -0.16396214464E-02  0.18790933225E-01 -0.29121580262E-01  0.34700361495E-01  0.51100000000E-03 0.  1.
         11    1    4    4    0    0 -0.11746544666E-01  0.78933017873E-01 -0.60824776791E-01  0.10034100465E+00  0.51100000000E-03 0. -1.
</event>
<event>
 8    1  0.1071333E+005  0.1043930E+01  0.7957747E-01            NaN
         13   -1    0    0    0    0  0.00000000000E+00  0.00000000000E+00  0.74505805969E-08  0.10566000000E+00  0.10566000000E+00 0.  1.
     999900   -1    0    0    0    0 -0.00000000000E+00 -0.00000000000E+00 -0.74505805969E-08  0.93827000000E+00  0.93827000000E+00 0.  1.
     999902    2    1    2    0    0 -0.15337477549E-01 -0.10217766288E-01  0.13017324435E-01  0.10213669395E+01  0.10211176883E+01 0.  0.
     999903    2    3    3    0    0  0.80738447096E-01  0.48434295524E-01  0.87510165440E-01  0.13107494746E+00  0.25652192400E-01 0.  0.
         14    1    1    2    0    0  0.15337477549E-01  0.10217766288E-01 -0.13017324435E-01  0.22563060540E-01  0.00000000000E+00 0. -1.
     999901    1    3    3    0    0 -0.96075924645E-01 -0.58652061813E-01 -0.74492841005E-01  0.89029199200E+00  0.88000000000E+00 0. -1.
        -11    1    4    4    0    0  0.38317888946E-01  0.34965632454E-01  0.57223948773E-01  0.77237927861E-01  0.51100000000E-03 0.  1.
         11    1    4    4    0    0  0.42420558150E-01  0.13468663070E-01  0.30286216667E-01  0.53837019603E-01  0.51100000000E-03 0. -1.
</event>
<event>
 8    1  0.1071333E+005  0.1043930E+01  0.7957747E-01            NaN
         13   -1    0    0    0    0  0.00000000000E+00  0.00000000000E+00  0.74505805969E-08  0.10566000000E+00  0.10566000000E+00 0. -1.
     999900   -1    0    0    0    0 -0.00000000000E+00 -0.00000000000E+00 -0.74505805969E-08  0.93827000000E+00  0.93827000000E+00 0.  1.
     999902    2    1    2    0    0  0.22844315810E-01  0.57320291565E-02 -0.29229426343E-02  0.10201968477E+01  0.10199207546E+01 0.  0.
     999903    2    3    3    0    0  0.73647846933E-01  0.48534671697E-01  0.96272600116E-01  0.13213557693E+00  0.20292300121E-01 0.  0.
         14    1    1    2    0    0 -0.22844315810E-01 -0.57320291565E-02  0.29229426343E-02  0.23733152272E-01  0.00000000000E+00 0. -1.
     999901    1    3    3    0    0 -0.50803531122E-01 -0.42802642540E-01 -0.99195542750E-01  0.88806127079E+00  0.88000000000E+00 0.  1.
        -11    1    4    4    0    0  0.23818952788E-01  0.21745117444E-01  0.23257409165E-01  0.39766328051E-01  0.51100000000E-03 0.  1.
         11    1    4    4    0    0  0.49828894145E-01  0.26789554253E-01  0.73015190951E-01  0.92369248884E-01  0.51100000000E-03 0. -1.
</event>
<event>
 8    1  0.1071333E+005  0.1043930E+01  0.7957747E-01            NaN
         13   -1    0    0    0    0  0.00000000000E+00  0.00000000000E+00  0.74505805969E-08  0.10566000000E+00  0.10566000000E+00 0.  1.
     999900   -1    0    0    0    0 -0.00000000000E+00 -0.00000000000E+00 -0.74505805969E-08  0.93827000000E+00  0.93827000000E+00 0. -1.
     999902    2    1    2    0    0 -0.11179013997E-01 -0.21121837075E-01  0.82590324612E-02  0.10186453412E+01  0.10183314868E+01 0.  0.
     999903    2    3    3    0    0 -0.87866787151E-01 -0.89892362099E-01 -0.33256261822E-01  0.13166511628E+00  0.20700600185E-01 0.  0.
         14    1    1    2    0    0  0.11179013997E-01  0.21121837075E-01 -0.82590324612E-02  0.25284658838E-01  0.00000000000E+00 0. -1.
     999901    1    3    3    0    0  0.76687773153E-01  0.68770525024E-01  0.41515294283E-01  0.88698022488E+00  0.88000000000E+00 0.  1.
        -11    1    4    4    0    0 -0.13294142935E-04 -0.37820500736E-02 -0.33161688409E-02  0.50559050896E-02  0.51100000000E-03 0.  1.
         11    1    4    4    0    0 -0.87853493008E-01 -0.86110312025E-01 -0.29940092981E-01  0.12660921120E+00  0.51100000000E-03 0. -1.
</event>
<event>
 8    1  0.1071333E+005  0.1043930E+01  0.7957747E-01            NaN
         13   -1    0    0    0    0  0.00000000000E+00  0.00000000000E+00  0.74505805969E-08  0.10566000000E+00  0.10566000000E+00 0. -1.
     999900   -1    0    0    0    0 -0.00000000000E+00 -0.00000000000E+00 -0.74505805969E-08  0.93827000000E+00  0.93827000000E+00 0.  1.
     999902    2    1    2    0    0  0.12122532671E-01 -0.12621324371E-01 -0.11187059696E-01  0.10231597344E+01  0.10229488933E+01 0.  0.
     999903    2    3    3    0    0  0.54938266721E-02 -0.12957123199E+00 -0.32400447391E-01  0.13514440323E+00  0.19883018907E-01 0.  0.
         14    1    1    2    0    0 -0.12122532671E-01  0.12621324371E-01  0.11187059696E-01  0.20770265570E-01  0.00000000000E+00 0. -1.
     999901    1    3    3    0    0  0.66287059986E-02  0.11694990762E+00  0.21213387695E-01  0.88801533120E+00  0.88000000000E+00 0.  1.
        -11    1    4    4    0    0 -0.62682746690E-02 -0.79853328700E-01 -0.20576174891E-01  0.82701181768E-01  0.51100000000E-03 0. -1.
         11    1    4    4    0    0  0.11762101341E-01 -0.49717903292E-01 -0.11824272500E-01  0.52443221457E-01  0.51100000000E-03 0.  1.
</event>
<event>
 8    1  0.1071333E+005  0.1043930E+01  0.7957747E-01            NaN
         13   -1    0    0    0    0  0.00000000000E+00  0.00000000000E+00  0.74505805969E-08  0.10566000000E+00  0.10566000000E+00 0.  1.
     999900   -1    0    0    0    0 -0.00000000000E+00 -0.00000000000E+00 -0.74505805969E-08  0.93827000000E+00  0.93827000000E+00 0.  1.
     999902    2    1    2    0    0 -0.10228525501E-01 -0.12600806027E-02  0.20824018879E-01  0.10206953212E+01  0.10204308347E+01 0.  0.
     999903    2    3    3    0    0 -0.10304190603E+00 -0.80076310751E-01 -0.29681747763E-02  0.13199267676E+00  0.19580774128E-01 0.  0.
         14    1    1    2    0    0  0.10228525501E-01  0.12600806027E-02 -0.20824018879E-01  0.23234678809E-01  0.00000000000E+00 0. -1.
     999901    1    3    3    0    0  0.92813380527E-01  0.78816230149E-01  0.23792193656E-01  0.88870264443E+00  0.88000000000E+00 0. -1.
        -11    1    4    4    0    0 -0.79273228542E-01 -0.56311878702E-01  0.52726385298E-02  0.97382412603E-01  0.51100000000E-03 0.  1.
         11    1    4    4    0    0 -0.23768677486E-01 -0.23764432049E-01 -0.82408133061E-02  0.34610264157E-01  0.51100000000E-03 0. -1.
</event>
<event>
 8    1  0.1071333E+005  0.1043930E+01  0.7957747E-01            NaN
         13   -1    0    0    0    0  0.00000000000E+00  0.00000000000E+00  0.74505805969E-08  0.10566000000E+00  0.10566000000E+00 0.  1.
     999900   -1    0    0    0    0 -0.00000000000E+00 -0.00000000000E+00 -0.74505805969E-08  0.93827000000E+00  0.93827000000E+00 0. -1.
     999902    2    1    2    0    0  0.17398865511E-01  0.90174553851E-02  0.12774808669E-01  0.10205370361E+01  0.10202688917E+01 0.  0.
     999903    2    3    3    0    0 -0.76431151566E-01 -0.29492257734E-01 -0.96215100933E-01  0.12803164650E+00  0.20572862242E-01 0.  0.
         14    1    1    2    0    0 -0.17398865511E-01 -0.90174553851E-02 -0.12774808669E-01  0.23392963883E-01  0.00000000000E+00 0. -1.
     999901    1    3    3    0    0  0.93830017077E-01  0.38509713119E-01  0.10898990960E+00  0.89250538962E+00  0.88000000000E+00 0.  1.
        -11    1    4    4    0    0 -0.19566114621E-01 -0.16498746980E-01 -0.36218461132E-01  0.44351770438E-01  0.51100000000E-03 0.  1.
         11    1    4    4    0    0 -0.56865036945E-01 -0.12993510754E-01 -0.59996639802E-01  0.83679876057E-01  0.51100000000E-03 0. -1.
</event>
<event>
 8    1  0.1071333E+005  0.1043930E+01  0.7957747E-01            NaN
         13   -1    0    0    0    0  0.00000000000E+00  0.00000000000E+00  0.74505805969E-08  0.10566000000E+00  0.10566000000E+00 0. -1.
     999900   -1    0    0    0    0 -0.00000000000E+00 -0.00000000000E+00 -0.74505805969E-08  0.93827000000E+00  0.93827000000E+00 0. -1.
     999902    2    1    2    0    0 -0.23697877618E-01  0.13444418662E-02 -0.12824792106E-01  0.10169508929E+01  0.10165929600E+01 0.  0.
     999903    2    3    3    0    0  0.70527618980E-01 -0.10032485027E+00  0.17262455490E-01  0.12559219314E+00  0.20885066105E-01 0.  0.
         14    1    1    2    0    0  0.23697877618E-01 -0.13444418662E-02  0.12824792106E-01  0.26979107103E-01  0.00000000000E+00 0. -1.
     999901    1    3    3    0    0 -0.94225496598E-01  0.10166929214E+00 -0.30087247596E-01  0.89135869976E+00  0.88000000000E+00 0. -1.
        -11    1    4    4    0    0  0.36224084814E-01 -0.33792541424E-01  0.65565645392E-02  0.49973691439E-01  0.51100000000E-03 0.  1.
         11    1    4    4    0    0  0.34303534166E-01 -0.66532308847E-01  0.10705890951E-01  0.75618501696E-01  0.51100000000E-03 0. -1.
</event>
<event>
 8    1  0.1071333E+005  0.1043930E+01  0.7957747E-01            NaN
         13   -1    0    0    0    0  0.00000000000E+00  0.00000000000E+00  0.74505805969E-08  0.10566000000E+00  0.10566000000E+00 0.  1.
     999900   -1    0    0    0    0 -0.00000000000E+00 -0.00000000000E+00 -0.74505805969E-08  0.93827000000E+00  0.93827000000E+00 0.  1.
     999902    2    1    2    0    0 -0.24199484274E-01  0.25099652153E-02  0.15174027047E-03  0.10196002242E+01  0.10193099034E+01 0.  0.
     999903    2    3    3    0    0 -0.10091832852E+00 -0.72447994991E-01  0.39538738430E-01  0.13221315395E+00  0.21995118348E-01 0.  0.
         14    1    1    2    0    0  0.24199484274E-01 -0.25099652153E-02 -0.15174027047E-03  0.24329775782E-01  0.00000000000E+00 0. -1.
     999901    1    3    3    0    0  0.76718844243E-01  0.74957960206E-01 -0.39386998160E-01  0.88738707027E+00  0.88000000000E+00 0.  1.
        -11    1    4    4    0    0 -0.28766369057E-01 -0.13809268852E-01  0.18492990170E-01  0.36884301558E-01  0.51100000000E-03 0. -1.
         11    1    4    4    0    0 -0.72151959459E-01 -0.58638726139E-01  0.21045748260E-01  0.95328852389E-01  0.51100000000E-03 0.  1.
</event>
<event>
 8    1  0.1071333E+005  0.1043930E+01  0.7957747E-01            NaN
         13   -1    0    0    0    0  0.00000000000E+00  0.00000000000E+00  0.74505805969E-08  0.10566000000E+00  0.10566000000E+00 0. -1.
     999900   -1    0    0    0    0 -0.00000000000E+00 -0.00000000000E+00 -0.74505805969E-08  0.93827000000E+00  0.93827000000E+00 0.  1.
     999902    2    1    2    0    0 -0.86011663252E-02 -0.22873795300E-02 -0.19369924877E-01  0.10226131954E+01  0.10223909924E+01 0.  0.
     999903    2    3    3    0    0  0.19774116244E-01  0.12510511015E+00  0.30015624608E-01  0.13161772093E+00  0.19493139387E-01 0.  0.
         14    1    1    2    0    0  0.86011663252E-02  0.22873795300E-02  0.19369924877E-01  0.21316804568E-01  0.00000000000E+00 0. -1.
     999901    1    3    3    0    0 -0.28375282569E-01 -0.12739248968E+00 -0.49385549485E-01  0.89099547450E+00  0.88000000000E+00 0.  1.
        -11    1    4    4    0    0  0.13035576666E-01  0.36968939507E-01  0.36405381860E-02  0.39371860339E-01  0.51100000000E-03 0.  1.
         11    1    4    4    0    0  0.67385395781E-02  0.88136170642E-01  0.26375086422E-01  0.92245860589E-01  0.51100000000E-03 0. -1.
</event>
<event>
 8    1  0.1071333E+005  0.1043930E+01  0.7957747E-01            NaN
         13   -1    0    0    0    0  0.00000000000E+00  0.00000000000E+00  0.74505805969E-08  0.10566000000E+00  0.10566000000E+00 0. -1.
     999900   -1    0    0    0    0 -0.00000000000E+00 -0.00000000000E+00 -0.74505805969E-08  0.93827000000E+00  0.93827000000E+00 0.  1.
     999902    2    1    2    0    0 -0.10014556232E-01 -0.60958724221E-02 -0.21351392406E-01  0.10195715732E+01  0.10192805600E+01 0.  0.
     999903    2    3    3    0    0 -0.10673415243E+00  0.70849849532E-01 -0.17032735269E-01  0.13092430056E+00  0.20956572584E-01 0.  0.
         14    1    1    2    0    0  0.10014556232E-01  0.60958724221E-02  0.21351392406E-01  0.24358426772E-01  0.00000000000E+00 0. -1.
     999901    1    3    3    0    0  0.96719596194E-01 -0.76945721954E-01 -0.43186571365E-02  0.88864727266E+00  0.88000000000E+00 0.  1.
        -11    1    4    4    0    0 -0.67293069161E-01  0.40082528993E-01 -0.80052321133E-03  0.78331783115E-01  0.51100000000E-03 0. -1.
         11    1    4    4    0    0 -0.39441083266E-01  0.30767320539E-01 -0.16232212058E-01  0.52592517449E-01  0.51100000000E-03 0.  1.
</event>
<event>
 8    1  0.1071333E+005  0.1043930E+01  0.7957747E-01            NaN
         13   -1    0    0    0    0  0.00000000000E+00  0.00000000000E+00  0.74505805969E-08  0.10566000000E+00  0.10566000000E+00 0.  1.
     999900   -1    0    0    0    0 -0.00000000000E+00 -0.00000000000E+00 -0.74505805969E-08  0.93827000000E+00  0.93827000000E+00 0. -1.
     999902    2    1    2    0    0  0.95210705787E-02 -0.20224591136E-01  0.11285449486E-03  0.10215760829E+01  0.10213314818E+01 0.  0.
     999903    2    3    3    0    0 -0.10313492703E+00 -0.54985736444E-01 -0.57425676164E-01  0.13185118528E+00  0.20658712196E-01 0.  0.
         14    1    1    2    0    0 -0.95210705787E-02  0.20224591136E-01 -0.11285449486E-03  0.22353917056E-01  0.00000000000E+00 0.  1.
     999901    1    3    3    0    0  0.11265599761E+00  0.34761145308E-01  0.57538530659E-01  0.88972489767E+00  0.88000000000E+00 0. -1.
        -11    1    4    4    0    0 -0.69277870751E-02  0.14669697150E-02 -0.42751031490E-02  0.82875727350E-02  0.51100000000E-03 0. -1.
         11    1    4    4    0    0 -0.96207139957E-01 -0.56452706159E-01 -0.53150573015E-01  0.12356361254E+00  0.51100000000E-03 0.  1.
</event>
<event>
 8    1  0.1071333E+005  0.1043930E+01  0.7957747E-01            NaN
         13   -1    0    0    0    0  0.00000000000E+00  0.00000000000E+00  0.74505805969E-08  0.10566000000E+00  0.10566000000E+00 0.  1.
     999900   -1    0    0    0    0 -0.00000000000E+00 -0.00000000000E+00 -0.74505805969E-08  0.93827000000E+00  0.93827000000E+00 0. -1.
     999902    2    1    2    0    0 -0.81691775160E-03 -0.20610059327E-01 -0.11471871038E-01  0.10203281839E+01  0.10200551735E+01 0.  0.
     999903    2    3    3    0    0  0.10962662473E+00  0.45051251273E-01 -0.50316272899E-01  0.13014951003E+00  0.18961950095E-01 0.  0.
         14    1    1    2    0    0  0.81691775160E-03  0.20610059327E-01  0.11471871038E-01  0.23601816141E-01  0.00000000000E+00 0.  1.
     999901    1    3    3    0    0 -0.11044354248E+00 -0.65661310600E-01  0.38844401861E-01  0.89017867383E+00  0.88000000000E+00 0.  1.
        -11    1    4    4    0    0  0.23582677093E-01  0.18330132386E-01 -0.10794515096E-01  0.31763486731E-01  0.51100000000E-03 0. -1.
         11    1    4    4    0    0  0.86043947637E-01  0.26721118887E-01 -0.39521757804E-01  0.98386023298E-01  0.51100000000E-03 0.  1.
</event>
<event>
 8    1  0.1071333E+005  0.1043930E+01  0.7957747E-01            NaN
         13   -1    0    0    0    0  0.00000000000E+00  0.00000000000E+00  0.74505805969E-08  0.10566000000E+00  0.10566000000E+00 0.  1.
     999900   -1    0    0    0    0 -0.00000000000E+00 -0.00000000000E+00 -0.74505805969E-08  0.93827000000E+00  0.93827000000E+00 0.  1.
     999902    2    1    2    0    0  0.21353127818E-01 -0.82187838900E-02  0.54950201803E-02  0.10203991750E+01  0.10201278237E+01 0.  0.
     999903    2    3    3    0    0 -0.11388602240E+00  0.54516700957E-01  0.88004266000E-02  0.12785433330E+00  0.18088290574E-01 0.  0.
         14    1    1    2    0    0 -0.21353127818E-01  0.82187838900E-02 -0.54950201803E-02  0.23530824954E-01  0.00000000000E+00 0.  1.
     999901    1    3    3    0    0  0.13523915021E+00 -0.62735484847E-01 -0.33054064197E-02  0.89254484174E+00  0.88000000000E+00 0.  1.
        -11    1    4    4    0    0 -0.80080701765E-01  0.29441944676E-01  0.31201816142E-02  0.85379995056E-01  0.51100000000E-03 0. -1.
         11    1    4    4    0    0 -0.33805320630E-01  0.25074756281E-01  0.56802449859E-02  0.42474338247E-01  0.51100000000E-03 0.  1.
</event>
<event>
 8    1  0.1071333E+005  0.1043930E+01  0.7957747E-01            NaN
         13   -1    0    0    0    0  0.00000000000E+00  0.00000000000E+00  0.74505805969E-08  0.10566000000E+00  0.10566000000E+00 0.  1.
     999900   -1    0    0    0    0 -0.00000000000E+00 -0.00000000000E+00 -0.74505805969E-08  0.93827000000E+00  0.93827000000E+00 0. -1.
     999902    2    1    2    0    0 -0.83963158046E-02  0.28325593542E-02  0.21997939219E-01  0.10202143756E+01  0.10199386949E+01 0.  0.
     999903    2    3    3    0    0  0.92767491724E-01  0.80356326821E-01  0.41098261951E-01  0.13082757964E+00  0.19074634392E-01 0.  0.
         14    1    1    2    0    0  0.83963158046E-02 -0.28325593542E-02 -0.21997939219E-01  0.23715624417E-01  0.00000000000E+00 0. -1.
     999901    1    3    3    0    0 -0.10116380753E+00 -0.77523767467E-01 -0.19100322732E-01  0.88938679595E+00  0.88000000000E+00 0.  1.
        -11    1    4    4    0    0  0.45425803025E-01  0.42655037783E-01  0.30521364561E-01  0.69388548366E-01  0.51100000000E-03 0.  1.
         11    1    4    4    0    0  0.47341688699E-01  0.37701289038E-01  0.10576897391E-01  0.61439031270E-01  0.51100000000E-03 0. -1.
</event>
<event>
 8    1  0.1071333E+005  0.1043930E+01  0.7957747E-01            NaN
         13   -1    0    0    0    0  0.00000000000E+00  0.00000000000E+00  0.74505805969E-08  0.10566000000E+00  0.10566000000E+00 0. -1.
     999900   -1    0    0    0    0 -0.00000000000E+00 -0.00000000000E+00 -0.74505805969E-08  0.93827000000E+00  0.93827000000E+00 0. -1.
     999902    2    1    2    0    0 -0.86431570935E-02  0.20523490161E-01  0.50605990470E-02  0.10210930239E+01  0.10208376149E+01 0.  0.
     999903    2    3    3    0    0 -0.73164218870E-01 -0.56330507288E-02 -0.10692267623E+00  0.13126866712E+00  0.20353626049E-01 0.  0.
         14    1    1    2    0    0  0.86431570935E-02 -0.20523490161E-01 -0.50605990470E-02  0.22836976062E-01  0.00000000000E+00 0. -1.
     999901    1    3    3    0    0  0.64521061776E-01  0.26156540890E-01  0.11198327527E+00  0.88982435682E+00  0.88000000000E+00 0.  1.
        -11    1    4    4    0    0 -0.23389383524E-01 -0.10456825193E-01 -0.29238741803E-01  0.38878960865E-01  0.51100000000E-03 0. -1.
         11    1    4    4    0    0 -0.49774835346E-01  0.48237744638E-02 -0.77683934422E-01  0.92389706257E-01  0.51100000000E-03 0.  1.
</event>
<event>
 7    1  0.1071333E+005  0.1043930E+01  0.7957747E-01            NaN
         13   -1    0    0    0    0  0.00000000000E+00  0.00000000000E+00  0.74505805969E-08  0.10566000000E+00  0.10566000000E+00 0. -1.
     999900   -1    0    0    0    0 -0.00000000000E+00 -0.00000000000E+00 -0.74505805969E-08  0.93827000000E+00  0.93827000000E+00 0. -1.
     999903    2    1    2    0    0 -0.91594514458E-02  0.76579270079E-01  0.76227419021E-01  0.10994525520E+00  0.18139999282E-01 0.  0.
         14    1    1    2    0    0  0.41373599454E-01  0.18179843898E-01 -0.31077556175E-02  0.45298339935E-01  0.00000000000E+00 0. -1.
     999901    1    1    2    0    0 -0.32214148008E-01 -0.94759113977E-01 -0.73119663403E-01  0.88868640486E+00  0.88000000000E+00 0.  1.
        -11    1    3    3    0    0 -0.13956590592E-01  0.45637837531E-01  0.49687366740E-01  0.68896256575E-01  0.51100000000E-03 0. -1.
         11    1    3    3    0    0  0.47971391467E-02  0.30941432548E-01  0.26540052280E-01  0.41048998626E-01  0.51100000000E-03 0.  1.
</event>
<event>
 8    1  0.1071333E+005  0.1043930E+01  0.7957747E-01            NaN
         13   -1    0    0    0    0  0.00000000000E+00  0.00000000000E+00  0.74505805969E-08  0.10566000000E+00  0.10566000000E+00 0.  1.
     999900   -1    0    0    0    0 -0.00000000000E+00 -0.00000000000E+00 -0.74505805969E-08  0.93827000000E+00  0.93827000000E+00 0. -1.
     999902    2    1    2    0    0 -0.12578413613E-01  0.18283806213E-01 -0.90479487986E-02  0.10199637855E+01  0.10196821781E+01 0.  0.
     999903    2    3    3    0    0  0.41561625347E-01 -0.19706080908E-01 -0.12039853685E+00  0.13048453968E+00  0.20364407494E-01 0.  0.
         14    1    1    2    0    0  0.12578413613E-01 -0.18283806213E-01  0.90479487986E-02  0.23966214472E-01  0.00000000000E+00 0.  1.
     999901    1    3    3    0    0 -0.54140038960E-01  0.37989887121E-01  0.11135058805E+00  0.88947924585E+00  0.88000000000E+00 0.  1.
        -11    1    4    4    0    0  0.20652530187E-01  0.81205281700E-03 -0.42605110721E-01  0.47356551960E-01  0.51100000000E-03 0.  1.
         11    1    4    4    0    0  0.20909095160E-01 -0.20518133725E-01 -0.77793426129E-01  0.83127987717E-01  0.51100000000E-03 0. -1.
</event>
<event>
 8    1  0.1071333E+005  0.1043930E+01  0.7957747E-01            NaN
         13   -1    0    0    0    0  0.00000000000E+00  0.00000000000E+00  0.74505805969E-08  0.10566000000E+00  0.10566000000E+00 0. -1.
     999900   -1    0    0    0    0 -0.00000000000E+00 -0.00000000000E+00 -0.74505805969E-08  0.93827000000E+00  0.93827000000E+00 0. -1.
     999902    2    1    2    0    0 -0.15007182127E-01  0.61784708910E-02 -0.16358188647E-01  0.10208870107E+01  0.10206269198E+01 0.  0.
     999903    2    3    3    0    0  0.10152246061E+00  0.77542637174E-01 -0.16082016111E-01  0.13034106688E+00  0.20260599298E-01 0.  0.
         14    1    1    2    0    0  0.15007182127E-01 -0.61784708910E-02  0.16358188647E-01  0.23042989254E-01  0.00000000000E+00 0. -1.
     999901    1    3    3    0    0 -0.11652964274E+00 -0.71364166283E-01 -0.27617253630E-03  0.89054594387E+00  0.88000000000E+00 0.  1.
        -11    1    4    4    0    0  0.78288489739E-01  0.69371831908E-01 -0.10916143835E-01  0.10517110822E+00  0.51100000000E-03 0.  1.
         11    1    4    4    0    0  0.23233970875E-01  0.81708052662E-02 -0.51658722755E-02  0.25169958655E-01  0.51100000000E-03 0. -1.
</event>
<event>
 8    1  0.1071333E+005  0.1043930E+01  0.7957747E-01            NaN
         13   -1    0    0    0    0  0.00000000000E+00  0.00000000000E+00  0.74505805969E-08  0.10566000000E+00  0.10566000000E+00 0.  1.
     999900   -1    0    0    0    0 -0.00000000000E+00 -0.00000000000E+00 -0.74505805969E-08  0.93827000000E+00  0.93827000000E+00 0.  1.
     999902    2    1    2    0    0  0.19635902315E-02  0.14766399838E-01 -0.14086373222E-01  0.10234280937E+01  0.10232227201E+01 0.  0.
     999903    2    3    3    0    0  0.10639836291E+00  0.70397174406E-02 -0.79965084270E-01  0.13477387078E+00  0.19985301874E-01 0.  0.
         14    1    1    2    0    0 -0.19635902315E-02 -0.14766399838E-01  0.14086373222E-01  0.20501906285E-01  0.00000000000E+00 0.  1.
     999901    1    3    3    0    0 -0.10443477268E+00  0.77266823976E-02  0.65878711048E-01  0.88865422293E+00  0.88000000000E+00 0. -1.
        -11    1    4    4    0    0  0.64995764663E-01  0.12323558156E-01 -0.55772178493E-01  0.86528125627E-01  0.51100000000E-03 0. -1.
         11    1    4    4    0    0  0.41402598251E-01 -0.52838407154E-02 -0.24192905777E-01  0.48245745155E-01  0.51100000000E-03 0.  1.
</event>
<event>
 8    1  0.1071333E+005  0.1043930E+01  0.7957747E-01            NaN
         13   -1    0    0    0    0  0.00000000000E+00  0.00000000000E+00  0.74505805969E-08  0.10566000000E+00  0.10566000000E+00 0. -1.
     999900   -1    0    0    0    0 -0.00000000000E+00 -0.00000000000E+00 -0.74505805969E-08  0.93827000000E+00  0.93827000000E+00 0. -1.
     999902    2    1    2    0    0  0.36113748253E-02 -0.14067070774E-01  0.19121953874E-01  0.10199180524E+01  0.10196353564E+01 0.  0.
     999903    2    3    3    0    0  0.11279788165E+00 -0.21495912861E-01  0.61960832686E-01  0.13210498056E+00  0.20667479915E-01 0.  0.
         14    1    1    2    0    0 -0.36113748253E-02  0.14067070774E-01 -0.19121953874E-01  0.24011947615E-01  0.00000000000E+00 0.  1.
     999901    1    3    3    0    0 -0.10918650683E+00  0.74288420866E-02 -0.42838878812E-01  0.88781307183E+00  0.88000000000E+00 0.  1.
        -11    1    4    4    0    0  0.59421555498E-01 -0.15613554150E-01  0.43647891369E-01  0.75366463848E-01  0.51100000000E-03 0. -1.
         11    1    4    4    0    0  0.53376326155E-01 -0.58823587115E-02  0.18312941317E-01  0.56738516710E-01  0.51100000000E-03 0.  1.
</event>
<event>
 8    1  0.1071333E+005  0.1043930E+01  0.7957747E-01            NaN
         13   -1    0    0    0    0  0.00000000000E+00  0.00000000000E+00  0.74505805969E-08  0.10566000000E+00  0.10566000000E+00 0.  1.
     999900   -1    0    0    0    0 -0.00000000000E+00 -0.00000000000E+00 -0.74505805969E-08  0.93827000000E+00  0.93827000000E+00 0. -1.
     999902    2    1    2    0    0  0.16767255165E-01  0.14056787166E-01  0.63151180714E-02  0.10211568837E+01  0.10209029171E+01 0.  0.
     999903    2    3    3    0    0  0.57407508971E-01 -0.11480163681E+00 -0.13067426313E-01  0.13063355063E+00  0.20477524741E-01 0.  0.
         14    1    1    2    0    0 -0.16767255165E-01 -0.14056787166E-01 -0.63151180714E-02  0.22773116331E-01  0.00000000000E+00 0. -1.
     999901    1    3    3    0    0 -0.40640253806E-01  0.12885842397E+00  0.19382544384E-01  0.89052333304E+00  0.88000000000E+00 0. -1.
        -11    1    4    4    0    0  0.80777137987E-02 -0.13268217326E-01 -0.83691004737E-02  0.17652139104E-01  0.51100000000E-03 0. -1.
         11    1    4    4    0    0  0.49329795172E-01 -0.10153341948E+00 -0.46983258391E-02  0.11298141153E+00  0.51100000000E-03 0.  1.
</event>
<event>
 8    1  0.1071333E+005  0.1043930E+01  0.7957747E-01            NaN
         13   -1    0    0    0    0  0.00000000000E+00  0.00000000000E+00  0.74505805969E-08  0.10566000000E+00  0.10566000000E+00 0.  1.
     999900   -1    0    0    0    0 -0.00000000000E+00 -0.00000000000E+00 -0.74505805969E-08  0.93827000000E+00  0.93827000000E+00 0.  1.
     999902    2    1    2    0    0  0.12131517084E-01  0.11732880506E-01 -0.17257944986E-01  0.10197914239E+01  0.10195057025E+01 0.  0.
     999903    2    3    3    0    0 -0.51895920868E-01 -0.11281304370E+00  0.22307605459E-01  0.12784039786E+00  0.20629314881E-01 0.  0.
         14    1    1    2    0    0 -0.12131517084E-01 -0.11732880506E-01  0.17257944986E-01  0.24138576116E-01  0.00000000000E+00 0.  1.
     999901    1    3    3    0    0  0.64027437952E-01  0.12454592420E+00 -0.39565550445E-01  0.89195102603E+00  0.88000000000E+00 0.  1.
        -11    1    4    4    0    0 -0.28757972564E-01 -0.44664595274E-01  0.24537850878E-02  0.53181098515E-01  0.51100000000E-03 0. -1.
         11    1    4    4    0    0 -0.23137948304E-01 -0.68148448423E-01  0.19853820371E-01  0.74659299344E-01  0.51100000000E-03 0.  1.
</event>
<event>
 8    1  0.1071333E+005  0.1043930E+01  0.7957747E-01            NaN
         13   -1    0    0    0    0  0.00000000000E+00  0.00000000000E+00  0.74505805969E-08  0.10566000000E+00  0.10566000000E+00 0. -1.
     999900   -1    0    0    0    0 -0.00000000000E+00 -0.00000000000E+00 -0.74505805969E-08  0.93827000000E+00  0.93827000000E+00 0.  1.
     999902    2    1    2    0    0 -0.13479057082E-02 -0.76698293438E-02 -0.22930063141E-01  0.10197136640E+01  0.10194260766E+01 0.  0.
     999903    2    3    3    0    0 -0.43950180516E-01 -0.83120432257E-01  0.85776771641E-01  0.12880125351E+00  0.19785947703E-01 0.  0.
         14    1    1    2    0    0  0.13479057082E-02  0.76698293438E-02  0.22930063141E-01  0.24216335966E-01  0.00000000000E+00 0. -1.
     999901    1    3    3    0    0  0.42602274808E-01  0.75450602913E-01 -0.10870683478E+00  0.89091241052E+00  0.88000000000E+00 0.  1.
        -11    1    4    4    0    0 -0.42292801682E-03 -0.25138044571E-02  0.87000211920E-02  0.90801745962E-02  0.51100000000E-03 0. -1.
         11    1    4    4    0    0 -0.43527252499E-01 -0.80606627800E-01  0.77076750449E-01  0.11972107891E+00  0.51100000000E-03 0.  1.
</event>
<event>
 8    1  0.1071333E+005  0.1043930E+01  0.7957747E-01            NaN
         13   -1    0    0    0    0  0.00000000000E+00  0.00000000000E+00  0.74505805969E-08  0.10566000000E+00  0.10566000000E+00 0. -1.
     999900   -1    0    0    0    0 -0.00000000000E+00 -0.00000000000E+00 -0.74505805969E-08  0.93827000000E+00  0.93827000000E+00 0. -1.
     999902    2    1    2    0    0 -0.55428922215E-02  0.23672634146E-02  0.23038194214E-01  0.10201164328E+01  0.10198384433E+01 0.  0.
     999903    2    3    3    0    0  0.58450023330E-01 -0.10655100703E+00 -0.38065732628E-01  0.12899804967E+00  0.20542017700E-01 0.  0.
         14    1    1    2    0    0  0.55428922215E-02 -0.23672634146E-02 -0.23038194214E-01  0.23813567202E-01  0.00000000000E+00 0.  1.
     999901    1    3    3    0    0 -0.63992915552E-01  0.10891827044E+00  0.61103926841E-01  0.89111838313E+00  0.88000000000E+00 0. -1.
        -11    1    4    4    0    0  0.43233734076E-01 -0.67733232454E-01 -0.33471052582E-01  0.87048946132E-01  0.51100000000E-03 0.  1.
         11    1    4    4    0    0  0.15216289254E-01 -0.38817774576E-01 -0.45946800460E-02  0.41949103535E-01  0.51100000000E-03 0. -1.
</event>
<event>
 8    1  0.1071333E+005  0.1043930E+01  0.7957747E-01            NaN
         13   -1    0    0    0    0  0.00000000000E+00  0.00000000000E+00  0.74505805969E-08  0.10566000000E+00  0.10566000000E+00 0.  1.
     999900   -1    0    0    0    0 -0.00000000000E+00 -0.00000000000E+00 -0.74505805969E-08  0.93827000000E+00  0.93827000000E+00 0. -1.
     999902    2    1    2    0    0 -0.21761708644E-01  0.78512696174E-02  0.55049405774E-02  0.10201493615E+01  0.10198721493E+01 0.  0.
     999903    2    3    3    0    0  0.11660556462E-01 -0.11618101280E+00  0.45210148544E-01  0.12993727527E+00  0.34723791011E-01 0.  0.
         14    1    1    2    0    0  0.21761708644E-01 -0.78512696174E-02 -0.55049405774E-02  0.23780638522E-01  0.00000000000E+00 0. -1.
     999901    1    3    3    0    0 -0.33422265106E-01  0.12403228242E+00 -0.39705207967E-01  0.89021208621E+00  0.88000000000E+00 0. -1.
        -11    1    4    4    0    0  0.19428672346E-01 -0.40477309327E-01  0.96059488974E-02  0.45917548440E-01  0.51100000000E-03 0.  1.
         11    1    4    4    0    0 -0.77681158846E-02 -0.75703703472E-01  0.35604199647E-01  0.84019726834E-01  0.51100000000E-03 0. -1.
</event>
<event>
 8    1  0.1071333E+005  0.1043930E+01  0.7957747E-01            NaN
         13   -1    0    0    0    0  0.00000000000E+00  0.00000000000E+00  0.74505805969E-08  0.10566000000E+00  0.10566000000E+00 0.  1.
     999900   -1    0    0    0    0 -0.00000000000E+00 -0.00000000000E+00 -0.74505805969E-08  0.93827000000E+00  0.93827000000E+00 0. -1.
     999902    2    1    2    0    0  0.44944389394E-02 -0.11501973349E-03  0.23205376766E-01  0.10202931068E+01  0.10200192748E+01 0.  0.
     999903    2    3    3    0    0  0.44707087685E-01 -0.98030707946E-01 -0.68375021672E-01  0.12923109518E+00  0.20415410419E-01 0.  0.
         14    1    1    2    0    0 -0.44944389394E-02  0.11501973349E-03 -0.23205376766E-01  0.23636893234E-01  0.00000000000E+00 0. -1.
     999901    1    3    3    0    0 -0.40212648745E-01  0.97915688212E-01  0.91580398438E-01  0.89106201159E+00  0.88000000000E+00 0.  1.
        -11    1    4    4    0    0  0.98827425009E-02 -0.22852514394E-01 -0.26612530504E-01  0.36447138629E-01  0.51100000000E-03 0. -1.
         11    1    4    4    0    0  0.34824345184E-01 -0.75178193551E-01 -0.41762491169E-01  0.92783956548E-01  0.51100000000E-03 0.  1.
</event>
<event>
 8    1  0.1071333E+005  0.1043930E+01  0.7957747E-01            NaN
         13   -1    0    0    0    0  0.00000000000E+00  0.00000000000E+00  0.74505805969E-08  0.10566000000E+00  0.10566000000E+00 0.  1.
     999900   -1    0    0    0    0 -0.00000000000E+00 -0.00000000000E+00 -0.74505805969E-08  0.93827000000E+00  0.93827000000E+00 0.  1.
     999902    2    1    2    0    0  0.29841879887E-02 -0.23742285042E-01  0.16293391903E-02  0.10199455004E+01  0.10196634579E+01 0.  0.
     999903    2    3    3    0    0  0.12717743583E+00 -0.72292121020E-02 -0.23220566383E-01  0.13072440176E+00  0.17980901482E-01 0.  0.
         14    1    1    2    0    0 -0.29841879887E-02  0.23742285042E-01 -0.16293391903E-02  0.23984499644E-01  0.00000000000E+00 0. -1.
     999901    1    3    3    0    0 -0.12419324785E+00 -0.16513072940E-01  0.24849905573E-01  0.88922109860E+00  0.88000000000E+00 0.  1.
        -11    1    4    4    0    0  0.58732944697E-01 -0.11967746311E-01 -0.83455402847E-02  0.60520202480E-01  0.51100000000E-03 0.  1.
         11    1    4    4    0    0  0.68444491138E-01  0.47385342090E-02 -0.14875026098E-01  0.70204199276E-01  0.51100000000E-03 0. -1.
</event>
<event>
 8    1  0.1071333E+005  0.1043930E+01  0.7957747E-01            NaN
         13   -1    0    0    0    0  0.00000000000E+00  0.00000000000E+00  0.74505805969E-08  0.10566000000E+00  0.10566000000E+00 0. -1.
     999900   -1    0    0    0    0 -0.00000000000E+00 -0.00000000000E+00 -0.74505805969E-08  0.93827000000E+00  0.93827000000E+00 0.  1.
     999902    2    1    2    0    0 -0.18315862167E-01  0.14857177270E-01  0.58786438562E-03  0.10203386434E+01  0.10200658778E+01 0.  0.
     999903    2    3    3    0    0 -0.10703451458E-01 -0.12143860075E+00  0.36192704733E-01  0.12910231525E+00  0.22262037218E-01 0.  0.
         14    1    1    2    0    0  0.18315862167E-01 -0.14857177270E-01 -0.58786438562E-03  0.23591356635E-01  0.00000000000E+00 0.  1.
     999901    1    3    3    0    0 -0.76124107090E-02  0.13629577802E+00 -0.35604840347E-01  0.89123632812E+00  0.88000000000E+00 0.  1.
        -11    1    4    4    0    0 -0.49772545663E-02 -0.41658300987E-01  0.16920495808E-02  0.41991799877E-01  0.51100000000E-03 0.  1.
         11    1    4    4    0    0 -0.57261968917E-02 -0.79780299762E-01  0.34500655152E-01  0.87110515369E-01  0.51100000000E-03 0. -1.
</event>
<event>
 8    1  0.1071333E+005  0.1043930E+01  0.7957747E-01            NaN
         13   -1    0    0    0    0  0.00000000000E+00  0.00000000000E+00  0.74505805969E-08  0.10566000000E+00  0.10566000000E+00 0. -1.
     999900   -1    0    0    0    0 -0.00000000000E+00 -0.00000000000E+00 -0.74505805969E-08  0.93827000000E+00  0.93827000000E+00 0.  1.
     999902    2    1    2    0    0  0.98720708332E-02  0.12988924062E-01  0.19144241072E-01  0.10187770301E+01  0.10184664771E+01 0.  0.
     999903    2    3    3    0    0 -0.11758433636E+00  0.27212206122E-01 -0.36453966037E-01  0.12774470846E+00  0.20572763110E-01 0.  0.
         14    1    1    2    0    0 -0.98720708332E-02 -0.12988924062E-01 -0.19144241072E-01  0.25152969945E-01  0.00000000000E+00 0.  1.
     999901    1    3    3    0    0  0.12745640719E+00 -0.14223282060E-01  0.55598207108E-01  0.89103232159E+00  0.88000000000E+00 0. -1.
        -11    1    4    4    0    0 -0.51252018184E-01  0.34334085440E-02 -0.21615142526E-01  0.55731796755E-01  0.51100000000E-03 0. -1.
         11    1    4    4    0    0 -0.66332318174E-01  0.23778797578E-01 -0.14838823511E-01  0.72012911709E-01  0.51100000000E-03 0.  1.
</event>
<event>
 8    1  0.1071333E+005  0.1043930E+01  0.7957747E-01            NaN
         13   -1    0    0    0    0  0.00000000000E+00  0.00000000000E+00  0.74505805969E-08  0.10566000000E+00  0.10566000000E+00 0.  1.
     999900   -1    0    0    0    0 -0.00000000000E+00 -0.00000000000E+00 -0.74505805969E-08  0.93827000000E+00  0.93827000000E+00 0. -1.
     999902    2    1    2    0    0  0.60959797824E-02  0.20725942009E-01  0.11777621723E-01  0.10193243499E+01  0.10190273266E+01 0.  0.
     999903    2    3    3    0    0  0.12320109048E+00  0.37900643193E-01  0.17306812868E-01  0.13138338947E+00  0.18630668485E-01 0.  0.
         14    1    1    2    0    0 -0.60959797824E-02 -0.20725942009E-01 -0.11777621723E-01  0.24605650065E-01  0.00000000000E+00 0. -1.
     999901    1    3    3    0    0 -0.11710511070E+00 -0.17174701184E-01 -0.55291911446E-02  0.88794096046E+00  0.88000000000E+00 0. -1.
        -11    1    4    4    0    0  0.27611431056E-01  0.23925056558E-02 -0.11961875144E-02  0.27745399508E-01  0.51100000000E-03 0. -1.
         11    1    4    4    0    0  0.95589659423E-01  0.35508137537E-01  0.18503000382E-01  0.10363798997E+00  0.51100000000E-03 0.  1.
</event>
<event>
 8    1  0.1071333E+005  0.1043930E+01  0.7957747E-01            NaN
         13   -1    0    0    0    0  0.00000000000E+00  0.00000000000E+00  0.74505805969E-08  0.10566000000E+00  0.10566000000E+00 0.  1.
     999900   -1    0    0    0    0 -0.00000000000E+00 -0.00000000000E+00 -0.74505805969E-08  0.93827000000E+00  0.93827000000E+00 0. -1.
     999902    2    1    2    0    0  0.22626175579E-01 -0.23809386776E-02 -0.50277006391E-02  0.10206299900E+01  0.10203639969E+01 0.  0.
     999903    2    3    3    0    0 -0.42184738652E-01  0.68775719302E-01  0.98926273797E-01  0.12929943779E+00  0.20549579672E-01 0.  0.
         14    1    1    2    0    0 -0.22626175579E-01  0.23809386776E-02  0.50277006391E-02  0.23300009957E-01  0.00000000000E+00 0.  1.
     999901    1    3    3    0    0  0.64810914230E-01 -0.71156657980E-01 -0.10395397444E+00  0.89133055225E+00  0.88000000000E+00 0. -1.
        -11    1    4    4    0    0 -0.43377138977E-01  0.64017002059E-01  0.87038407475E-01  0.11642894071E+00  0.51100000000E-03 0.  1.
         11    1    4    4    0    0  0.11924003255E-02  0.47587172429E-02  0.11887866323E-01  0.12870497078E-01  0.51100000000E-03 0. -1.
</event>
<event>
 8    1  0.1071333E+005  0.1043930E+01  0.7957747E-01            NaN
         13   -1    0    0    0    0  0.00000000000E+00  0.00000000000E+00  0.74505805969E-08  0.10566000000E+00  0.10566000000E+00 0. -1.
     999900   -1    0    0    0    0 -0.00000000000E+00 -0.00000000000E+00 -0.74505805969E-08  0.93827000000E+00  0.93827000000E+00 0.  1.
     999902    2    1    2    0    0 -0.14481101609E-01  0.16975958108E-01  0.23762732209E-02  0.10214904783E+01  0.10212439793E+01 0.  0.
     999903    2    3    3    0    0 -0.70011318700E-01  0.11070425782E+00  0.24726641022E-01  0.13449096419E+00  0.17871631907E-01 0.  0.
         14    1    1    2    0    0  0.14481101609E-01 -0.16975958108E-01 -0.23762732209E-02  0.22439521651E-01  0.00000000000E+00 0.  1.
     999901    1    3    3    0    0  0.55530217091E-01 -0.93728299712E-01 -0.22350367801E-01  0.88699951416E+00  0.88000000000E+00 0.  1.
        -11    1    4    4    0    0 -0.59354796746E-01  0.81773692145E-01  0.14964942372E-01  0.10214763455E+00  0.51100000000E-03 0.  1.
         11    1    4    4    0    0 -0.10656521955E-01  0.28930565675E-01  0.97616986504E-02  0.32343329637E-01  0.51100000000E-03 0. -1.
</event>
<event>
 8    1  0.1071333E+005  0.1043930E+01  0.7957747E-01            NaN
         13   -1    0    0    0    0  0.00000000000E+00  0.00000000000E+00  0.74505805969E-08  0.10566000000E+00  0.10566000000E+00 0. -1.
     999900   -1    0    0    0    0 -0.00000000000E+00 -0.00000000000E+00 -0.74505805969E-08  0.93827000000E+00  0.93827000000E+00 0. -1.
     999902    2    1    2    0    0  0.65081683911E-02 -0.18936086496E-01  0.44335638092E-02  0.10234217549E+01  0.10232162530E+01 0.  0.
     999903    2    3    3    0    0 -0.95213289923E-01 -0.36829929104E-02 -0.89970719151E-01  0.13241553689E+00  0.18973905555E-01 0.  0.
         14    1    1    2    0    0 -0.65081683911E-02  0.18936086496E-01 -0.44335638092E-02  0.20508245065E-01  0.00000000000E+00 0. -1.
     999901    1    3    3    0    0  0.10172145831E+00 -0.15253093586E-01  0.94404282960E-01  0.89100621804E+00  0.88000000000E+00 0.  1.
        -11    1    4    4    0    0 -0.57923818541E-02 -0.50791298270E-02 -0.69716511043E-02  0.10402609647E-01  0.51100000000E-03 0.  1.
         11    1    4    4    0    0 -0.89420908068E-01  0.13961369166E-02 -0.82999068046E-01  0.12201292725E+00  0.51100000000E-03 0. -1.
</event>
<event>
 8    1  0.1071333E+005  0.1043930E+01  0.7957747E-01            NaN
         13   -1    0    0    0    0  0.00000000000E+00  0.00000000000E+00  0.74505805969E-08  0.10566000000E+00  0.10566000000E+00 0.  1.
     999900   -1    0    0    0    0 -0.00000000000E+00 -0.00000000000E+00 -0.74505805969E-08  0.93827000000E+00  0.93827000000E+00 0.  1.
     999902    2    1    2    0    0  0.47202712768E-02  0.15234254583E-01 -0.16318145291E-01  0.10211123459E+01  0.10208573738E+01 0.  0.
     999903    2    3    3    0    0 -0.88003085605E-01  0.86506605298E-01  0.40638324710E-01  0.13154986446E+00  0.20638739477E-01 0.  0.
         14    1    1    2    0    0 -0.47202712768E-02 -0.15234254583E-01  0.16318145291E-01  0.22817654116E-01  0.00000000000E+00 0.  1.
     999901    1    3    3    0    0  0.92723356882E-01 -0.71272350715E-01 -0.56956470001E-01  0.88956248143E+00  0.88000000000E+00 0.  1.
        -11    1    4    4    0    0 -0.31239344550E-01  0.22424243457E-01  0.48547798962E-02  0.38763041049E-01  0.51100000000E-03 0. -1.
         11    1    4    4    0    0 -0.56763741055E-01  0.64082361841E-01  0.35783544814E-01  0.92786823408E-01  0.51100000000E-03 0.  1.
</event>
<event>
 8    1  0.1071333E+005  0.1043930E+01  0.7957747E-01            NaN
         13   -1    0    0    0    0  0.00000000000E+00  0.00000000000E+00  0.74505805969E-08  0.10566000000E+00  0.10566000000E+00 0. -1.
     999900   -1    0    0    0    0 -0.00000000000E+00 -0.00000000000E+00 -0.74505805969E-08  0.93827000000E+00  0.93827000000E+00 0. -1.
     999902    2    1    2    0    0 -0.41550925297E-02 -0.22385428272E-01 -0.63211453921E-02  0.10203010120E+01  0.10200273654E+01 0.  0.
     999903    2    3    3    0    0 -0.64610105215E-01  0.33375703327E-01  0.10517379876E+00  0.12946138847E+00  0.20256354321E-01 0.  0.
         14    1    1    2    0    0  0.41550925297E-02  0.22385428272E-01  0.63211453921E-02  0.23628987958E-01  0.00000000000E+00 0.  1.
     999901    1    3    3    0    0  0.60455012685E-01 -0.55761131599E-01 -0.11149494415E+00  0.89083962357E+00  0.88000000000E+00 0. -1.
        -11    1    4    4    0    0 -0.42617489920E-01  0.14151838034E-01  0.51328263851E-01  0.68201002616E-01  0.51100000000E-03 0.  1.
         11    1    4    4    0    0 -0.21992615294E-01  0.19223865293E-01  0.53845534908E-01  0.61260385853E-01  0.51100000000E-03 0. -1.
</event>
<event>
 8    1  0.1071333E+005  0.1043930E+01  0.7957747E-01            NaN
         13   -1    0    0    0    0  0.00000000000E+00  0.00000000000E+00  0.74505805969E-08  0.10566000000E+00  0.10566000000E+00 0.  1.
     999900   -1    0    0    0    0 -0.00000000000E+00 -0.00000000000E+00 -0.74505805969E-08  0.93827000000E+00  0.93827000000E+00 0. -1.
     999902    2    1    2    0    0  0.78358818922E-02  0.14373560212E-01 -0.16935600786E-01  0.10203754919E+01  0.10201035877E+01 0.  0.
     999903    2    3    3    0    0 -0.90976763567E-01 -0.10254179443E-01 -0.91922472292E-01  0.13133471928E+00  0.20424198193E-01 0.  0.
         14    1    1    2    0    0 -0.78358818922E-02 -0.14373560212E-01  0.16935600786E-01  0.23554508107E-01  0.00000000000E+00 0.  1.
     999901    1    3    3    0    0  0.98812645460E-01  0.24627739655E-01  0.74986871506E-01  0.88904077261E+00  0.88000000000E+00 0. -1.
        -11    1    4    4    0    0 -0.50452374456E-01 -0.82532307021E-02 -0.37281686131E-01  0.63275138459E-01  0.51100000000E-03 0.  1.
         11    1    4    4    0    0 -0.40524389112E-01 -0.20009487409E-02 -0.54640786161E-01  0.68059580825E-01  0.51100000000E-03 0. -1.
</event>
<event>
 8    1  0.1071333E+005  0.1043930E+01  0.7957747E-01            NaN
         13   -1    0    0    0    0  0.00000000000E+00  0.00000000000E+00  0.74505805969E-08  0.10566000000E+00  0.10566000000E+00 0. -1.
     999900   -1    0    0    0    0 -0.00000000000E+00 -0.00000000000E+00 -0.74505805969E-08  0.93827000000E+00  0.93827000000E+00 0. -1.
     999902    2    1    2    0    0  0.69491621563E-02  0.22260112130E-01  0.34032493759E-04  0.10206103815E+01  0.10203439353E+01 0.  0.
     999903    2    3    3    0    0  0.12325152360E-01 -0.13179452699E-01 -0.12773663932E+00  0.13066082758E+00  0.20736332488E-01 0.  0.
         14    1    1    2    0    0 -0.69491621563E-02 -0.22260112130E-01 -0.34032493759E-04  0.23319618456E-01  0.00000000000E+00 0.  1.
     999901    1    3    3    0    0 -0.53759902033E-02  0.35439564829E-01  0.12777067181E+00  0.88994955396E+00  0.88000000000E+00 0.  1.
        -11    1    4    4    0    0  0.17981021820E-01 -0.10657961842E-01 -0.10653802010E+00  0.10857034652E+00  0.51100000000E-03 0. -1.
         11    1    4    4    0    0 -0.56558694606E-02 -0.25214908570E-02 -0.21198619219E-01  0.22090481056E-01  0.51100000000E-03 0.  1.
</event>
<event>
 8    1  0.1071333E+005  0.1043930E+01  0.7957747E-01            NaN
         13   -1    0    0    0    0  0.00000000000E+00  0.00000000000E+00  0.74505805969E-08  0.10566000000E+00  0.10566000000E+00 0.  1.
     999900   -1    0    0    0    0 -0.00000000000E+00 -0.00000000000E+00 -0.74505805969E-08  0.93827000000E+00  0.93827000000E+00 0. -1.
     999902    2    1    2    0    0 -0.20913825091E-01 -0.11320733705E-01 -0.13466387809E-02  0.10201106690E+01  0.10198325434E+01 0.  0.
     999903    2    3    3    0    0  0.30336038377E-01 -0.90833184886E-01 -0.87006556983E-01  0.13090518098E+00  0.19876688586E-01 0.  0.
         14    1    1    2    0    0  0.20913825091E-01  0.11320733705E-01  0.13466387809E-02  0.23819330963E-01  0.00000000000E+00 0. -1.
     999901    1    3    3    0    0 -0.51249863467E-01  0.79512451181E-01  0.85659918203E-01  0.88920548805E+00  0.88000000000E+00 0. -1.
        -11    1    4    4    0    0  0.95073018105E-02 -0.42412050484E-01 -0.27630584641E-01  0.51506127234E-01  0.51100000000E-03 0. -1.
         11    1    4    4    0    0  0.20828736566E-01 -0.48421134402E-01 -0.59375972342E-01  0.79399053749E-01  0.51100000000E-03 0.  1.
</event>
<event>
 8    1  0.1109675E+005  0.1043930E+01  0.7957747E-01            NaN
         13   -1    0    0    0    0  0.00000000000E+00  0.00000000000E+00  0.74505805969E-08  0.10566000000E+00  0.10566000000E+00 0.  1.
     999900   -1    0    0    0    0 -0.00000000000E+00 -0.00000000000E+00 -0.74505805969E-08  0.93827000000E+00  0.93827000000E+00 0.  1.
     999902    2    1    2    0    0 -0.24732685643E-01 -0.34913483984E-02 -0.22654087339E-02  0.10188495827E+01  0.10185408411E+01 0.  0.
     999903    2    3    3    0    0  0.21194748305E-01 -0.10670509542E+00  0.66331570935E-01  0.12897995613E+00  0.20018916957E-01 0.  0.
         14    1    1    2    0    0  0.24732685643E-01  0.34913483984E-02  0.22654087339E-02  0.25080417251E-01  0.00000000000E+00 0.  1.
     999901    1    3    3    0    0 -0.45927433949E-01  0.10321374702E+00 -0.68596979669E-01  0.88986962662E+00  0.88000000000E+00 0.  1.
        -11    1    4    4    0    0  0.20918673921E-02 -0.53014825227E-01  0.38516003215E-01  0.65564405188E-01  0.51100000000E-03 0.  1.
         11    1    4    4    0    0  0.19102880913E-01 -0.53690270191E-01  0.27815567720E-01  0.63415550939E-01  0.51100000000E-03 0. -1.
</event>
<event>
 8    1  0.1071333E+005  0.1043930E+01  0.7957747E-01            NaN
         13   -1    0    0    0    0  0.00000000000E+00  0.00000000000E+00  0.74505805969E-08  0.10566000000E+00  0.10566000000E+00 0. -1.
     999900   -1    0    0    0    0 -0.00000000000E+00 -0.00000000000E+00 -0.74505805969E-08  0.93827000000E+00  0.93827000000E+00 0.  1.
     999902    2    1    2    0    0  0.10621422028E-02 -0.18843007180E-01 -0.14483128616E-01  0.10201403367E+01  0.10198629116E+01 0.  0.
     999903    2    3    3    0    0 -0.97947012948E-01 -0.29413636743E-01 -0.81039672288E-01  0.13202754852E+00  0.20126244361E-01 0.  0.
         14    1    1    2    0    0 -0.10621422028E-02  0.18843007180E-01  0.14483128616E-01  0.23789663305E-01  0.00000000000E+00 0. -1.
     999901    1    3    3    0    0  0.99009155151E-01  0.10570629563E-01  0.66556543672E-01  0.88811278817E+00  0.88000000000E+00 0. -1.
        -11    1    4    4    0    0 -0.82764957418E-01 -0.22947664281E-01 -0.57823020651E-01  0.10353934668E+00  0.51100000000E-03 0. -1.
         11    1    4    4    0    0 -0.15182055530E-01 -0.64659724622E-02 -0.23216651638E-01  0.28488201843E-01  0.51100000000E-03 0.  1.
</event>
<event>
 8    1  0.1071333E+005  0.1043930E+01  0.7957747E-01            NaN
         13   -1    0    0    0    0  0.00000000000E+00  0.00000000000E+00  0.74505805969E-08  0.10566000000E+00  0.10566000000E+00 0. -1.
     999900   -1    0    0    0    0 -0.00000000000E+00 -0.00000000000E+00 -0.74505805969E-08  0.93827000000E+00  0.93827000000E+00 0.  1.
     999902    2    1    2    0    0 -0.18858384663E-01  0.71237783025E-03 -0.14082188346E-01  0.10203831492E+01  0.10201114238E+01 0.  0.
     999903    2    3    3    0    0  0.84976738046E-02 -0.12744320690E+00 -0.18582629059E-01  0.13066832870E+00  0.20369501203E-01 0.  0.
         14    1    1    2    0    0  0.18858384663E-01 -0.71237783025E-03  0.14082188346E-01  0.23546850806E-01  0.00000000000E+00 0. -1.
     999901    1    3    3    0    0 -0.27356058468E-01  0.12815558473E+00  0.45004407125E-02  0.88971482049E+00  0.88000000000E+00 0. -1.
        -11    1    4    4    0    0  0.14669277204E-02 -0.10621957001E+00 -0.99484099177E-02  0.10669573989E+00  0.51100000000E-03 0. -1.
         11    1    4    4    0    0  0.70307460842E-02 -0.21223636889E-01 -0.86342191413E-02  0.23972588815E-01  0.51100000000E-03 0.  1.
</event>
<event>
 8    1  0.1071333E+005  0.1043930E+01  0.7957747E-01            NaN
         13   -1    0    0    0    0  0.00000000000E+00  0.00000000000E+00  0.74505805969E-08  0.10566000000E+00  0.10566000000E+00 0. -1.
     999900   -1    0    0    0    0 -0.00000000000E+00 -0.00000000000E+00 -0.74505805969E-08  0.93827000000E+00  0.93827000000E+00 0.  1.
     999902    2    1    2    0    0  0.11047904936E-01  0.97019372248E-02  0.18027422421E-01  0.10206669016E+01  0.10204017602E+01 0.  0.
     999903    2    3    3    0    0  0.98259331418E-01  0.52061771831E-01  0.71765108377E-01  0.13371260321E+00  0.19065811779E-01 0.  0.
         14    1    1    2    0    0 -0.11047904936E-01 -0.97019372248E-02 -0.18027422421E-01  0.23263098429E-01  0.00000000000E+00 0.  1.
     999901    1    3    3    0    0 -0.87211426483E-01 -0.42359834606E-01 -0.53737685956E-01  0.88695429837E+00  0.88000000000E+00 0.  1.
        -11    1    4    4    0    0  0.80932204209E-01  0.36250545020E-01  0.50527206021E-01  0.10206558363E+00  0.51100000000E-03 0.  1.
         11    1    4    4    0    0  0.17327127210E-01  0.15811226810E-01  0.21237902355E-01  0.31647019576E-01  0.51100000000E-03 0. -1.
</event>
<event>
 8    1  0.1071333E+005  0.1043930E+01  0.7957747E-01            NaN
         13   -1    0    0    0    0  0.00000000000E+00  0.00000000000E+00  0.74505805969E-08  0.10566000000E+00  0.10566000000E+00 0. -1.
     999900   -1    0    0    0    0 -0.00000000000E+00 -0.00000000000E+00 -0.74505805969E-08  0.93827000000E+00  0.93827000000E+00 0.  1.
     999902    2    1    2    0    0  0.14804896055E-01  0.17018780767E-02 -0.18412629420E-01  0.10202423184E+01  0.10199672946E+01 0.  0.
     999903    2    3    3    0    0 -0.12516389098E+00  0.22945726439E-01 -0.41733940024E-02  0.12881351125E+00  0.19570321835E-01 0.  0.
         14    1    1    2    0    0 -0.14804896055E-01 -0.17018780767E-02  0.18412629420E-01  0.23687681574E-01  0.00000000000E+00 0. -1.
     999901    1    3    3    0    0  0.13996878703E+00 -0.21243848363E-01 -0.14239235418E-01  0.89142880718E+00  0.88000000000E+00 0.  1.
        -11    1    4    4    0    0 -0.48823976935E-01  0.16494253541E-01 -0.77474151045E-02  0.52116453117E-01  0.51100000000E-03 0.  1.
         11    1    4    4    0    0 -0.76339914043E-01  0.64514728977E-02  0.35740211021E-02  0.76697058134E-01  0.51100000000E-03 0. -1.
</event>
<event>
 8    1  0.1071333E+005  0.1043930E+01  0.7957747E-01            NaN
         13   -1    0    0    0    0  0.00000000000E+00  0.00000000000E+00  0.74505805969E-08  0.10566000000E+00  0.10566000000E+00 0. -1.
     999900   -1    0    0    0    0 -0.00000000000E+00 -0.00000000000E+00 -0.74505805969E-08  0.93827000000E+00  0.93827000000E+00 0.  1.
     999902    2    1    2    0    0  0.36921502074E-02 -0.20322982235E-01 -0.19246841857E-01  0.10156971025E+01  0.10153046378E+01 0.  0.
     999903    2    3    3    0    0  0.62688488610E-01  0.10643165913E+00  0.22344656603E-03  0.12444719412E+00  0.15149571796E-01 0.  0.
         14    1    1    2    0    0 -0.36921502074E-02  0.20322982235E-01  0.19246841857E-01  0.28232897505E-01  0.00000000000E+00 0. -1.
     999901    1    3    3    0    0 -0.58996338403E-01 -0.12675464137E+00 -0.19470288423E-01  0.89124990838E+00  0.88000000000E+00 0. -1.
        -11    1    4    4    0    0  0.42644410162E-01  0.79601856324E-01 -0.54721795261E-02  0.90472134484E-01  0.51100000000E-03 0. -1.
         11    1    4    4    0    0  0.20044078448E-01  0.26829802807E-01  0.56956260921E-02  0.33975059633E-01  0.51100000000E-03 0.  1.
</event>
<event>
 8    1  0.1071333E+005  0.1043930E+01  0.7957747E-01            NaN
         13   -1    0    0    0    0  0.00000000000E+00  0.00000000000E+00  0.74505805969E-08  0.10566000000E+00  0.10566000000E+00 0.  1.
     999900   -1    0    0    0    0 -0.00000000000E+00 -0.00000000000E+00 -0.74505805969E-08  0.93827000000E+00  0.93827000000E+00 0.  1.
     999902    2    1    2    0    0 -0.87318987740E-02  0.35965593302E-02  0.26206631661E-01  0.10160737828E+01  0.10156918643E+01 0.  0.
     999903    2    3    3    0    0 -0.10536049306E+00  0.24633065637E-01  0.68609938418E-01  0.12951997151E+00  0.18986256908E-01 0.  0.
         14    1    1    2    0    0  0.87318987740E-02 -0.35965593302E-02 -0.26206631661E-01  0.27856217228E-01  0.00000000000E+00 0. -1.
     999901    1    3    3    0    0  0.96628594284E-01 -0.21036506307E-01 -0.42403306757E-01  0.88655381126E+00  0.88000000000E+00 0.  1.
        -11    1    4    4    0    0 -0.16130696225E-01 -0.73148057186E-03  0.45473653039E-02  0.16783148594E-01  0.51100000000E-03 0.  1.
         11    1    4    4    0    0 -0.89229796833E-01  0.25364546209E-01  0.64062573115E-01  0.11273682292E+00  0.51100000000E-03 0. -1.
</event>
<event>
 8    1  0.1071333E+005  0.1043930E+01  0.7957747E-01            NaN
         13   -1    0    0    0    0  0.00000000000E+00  0.00000000000E+00  0.74505805969E-08  0.10566000000E+00  0.10566000000E+00 0. -1.
     999900   -1    0    0    0    0 -0.00000000000E+00 -0.00000000000E+00 -0.74505805969E-08  0.93827000000E+00  0.93827000000E+00 0.  1.
     999902    2    1    2    0    0  0.17061348586E-01  0.25950344550E-01 -0.61092672755E-02  0.10122782521E+01  0.10117832903E+01 0.  0.
     999903    2    3    3    0    0  0.97969779632E-01 -0.52966330169E-01  0.49264330140E-01  0.12332366888E+00  0.19448476240E-01 0.  0.
         14    1    1    2    0    0 -0.17061348586E-01 -0.25950344550E-01  0.61092672755E-02  0.31651747890E-01  0.00000000000E+00 0. -1.
     999901    1    3    3    0    0 -0.80908431046E-01  0.78916674720E-01 -0.55373597416E-01  0.88895458323E+00  0.88000000000E+00 0.  1.
        -11    1    4    4    0    0  0.32874881148E-01 -0.27023027464E-01  0.13500416663E-01  0.44648899145E-01  0.51100000000E-03 0.  1.
         11    1    4    4    0    0  0.65094898484E-01 -0.25943302705E-01  0.35763913477E-01  0.78674769730E-01  0.51100000000E-03 0. -1.
</event>
<event>
 7    1  0.1071333E+005  0.1043930E+01  0.7957747E-01            NaN
         13   -1    0    0    0    0  0.00000000000E+00  0.00000000000E+00  0.74505805969E-08  0.10566000000E+00  0.10566000000E+00 0.  1.
     999900   -1    0    0    0    0 -0.00000000000E+00 -0.00000000000E+00 -0.74505805969E-08  0.93827000000E+00  0.93827000000E+00 0. -1.
     999903    2    1    2    0    0  0.16782168987E-01  0.53183990485E-01 -0.91085277373E-01  0.10861459549E+00  0.19759163938E-01 0.  0.
         14    1    1    2    0    0  0.43561689779E-01 -0.39359193458E-02 -0.13331768596E-01  0.45725795033E-01  0.00000000000E+00 0. -1.
     999901    1    1    2    0    0 -0.60343858766E-01 -0.49248071139E-01  0.10441704597E+00  0.88958960948E+00  0.88000000000E+00 0.  1.
        -11    1    3    3    0    0  0.15155688307E-01  0.22057436931E-01 -0.31256360925E-01  0.41151508251E-01  0.51100000000E-03 0. -1.
         11    1    3    3    0    0  0.16264806803E-02  0.31126553554E-01 -0.59828916448E-01  0.67463087239E-01  0.51100000000E-03 0.  1.
</event>
<event>
 8    1  0.1071333E+005  0.1043930E+01  0.7957747E-01            NaN
         13   -1    0    0    0    0  0.00000000000E+00  0.00000000000E+00  0.74505805969E-08  0.10566000000E+00  0.10566000000E+00 0.  1.
     999900   -1    0    0    0    0 -0.00000000000E+00 -0.00000000000E+00 -0.74505805969E-08  0.93827000000E+00  0.93827000000E+00 0.  1.
     999902    2    1    2    0    0 -0.18362096559E-01  0.15933443853E-01  0.47625715848E-02  0.10191565604E+01  0.10188554221E+01 0.  0.
     999903    2    3    3    0    0 -0.21742620254E-01 -0.12443687045E+00 -0.52140577186E-02  0.12796927017E+00  0.19790690922E-01 0.  0.
         14    1    1    2    0    0  0.18362096559E-01 -0.15933443853E-01 -0.47625715848E-02  0.24773439631E-01  0.00000000000E+00 0. -1.
     999901    1    3    3    0    0  0.33805236951E-02  0.14037031430E+00  0.99766293034E-02  0.89118729020E+00  0.88000000000E+00 0. -1.
        -11    1    4    4    0    0 -0.12996740643E-01 -0.49064965620E-01 -0.10759644589E-01  0.51887543701E-01  0.51100000000E-03 0. -1.
         11    1    4    4    0    0 -0.87458796109E-02 -0.75371904831E-01  0.55455868699E-02  0.76081726470E-01  0.51100000000E-03 0.  1.
</event>
<event>
 8    1  0.1071333E+005  0.1043930E+01  0.7957747E-01            NaN
         13   -1    0    0    0    0  0.00000000000E+00  0.00000000000E+00  0.74505805969E-08  0.10566000000E+00  0.10566000000E+00 0.  1.
     999900   -1    0    0    0    0 -0.00000000000E+00 -0.00000000000E+00 -0.74505805969E-08  0.93827000000E+00  0.93827000000E+00 0. -1.
     999902    2    1    2    0    0  0.20991946360E-01 -0.91658414932E-02 -0.64322137924E-02  0.10201382402E+01  0.10198607656E+01 0.  0.
     999903    2    3    3    0    0  0.53791918694E-01 -0.30344393534E-01  0.11398223366E+00  0.13108030706E+00  0.19384131977E-01 0.  0.
         14    1    1    2    0    0 -0.20991946360E-01  0.91658414932E-02  0.64322137924E-02  0.23791759845E-01  0.00000000000E+00 0. -1.
     999901    1    3    3    0    0 -0.32799972334E-01  0.21178552041E-01 -0.12041444745E+00  0.88905793310E+00  0.88000000000E+00 0. -1.
        -11    1    4    4    0    0  0.46537153308E-01 -0.32869276716E-01  0.98579016997E-01  0.11386035176E+00  0.51100000000E-03 0.  1.
         11    1    4    4    0    0  0.72547653864E-02  0.25248831817E-02  0.15403216661E-01  0.17219955296E-01  0.51100000000E-03 0. -1.
</event>
<event>
 8    1  0.1071333E+005  0.1043930E+01  0.7957747E-01            NaN
         13   -1    0    0    0    0  0.00000000000E+00  0.00000000000E+00  0.74505805969E-08  0.10566000000E+00  0.10566000000E+00 0.  1.
     999900   -1    0    0    0    0 -0.00000000000E+00 -0.00000000000E+00 -0.74505805969E-08  0.93827000000E+00  0.93827000000E+00 0. -1.
     999902    2    1    2    0    0 -0.15066767060E-01 -0.23930054508E-02 -0.15670219807E-01  0.10220601638E+01  0.10218261539E+01 0.  0.
     999903    2    3    3    0    0 -0.60229777586E-01 -0.73566635751E-02 -0.11871923948E+00  0.13488293472E+00  0.20430409920E-01 0.  0.
         14    1    1    2    0    0  0.15066767060E-01  0.23930054508E-02  0.15670219807E-01  0.21869836157E-01  0.00000000000E+00 0.  1.
     999901    1    3    3    0    0  0.45163010526E-01  0.49636581244E-02  0.10304901967E+00  0.88717722912E+00  0.88000000000E+00 0.  1.
        -11    1    4    4    0    0 -0.14019967795E-01 -0.36074920218E-02 -0.49456988513E-01  0.51534729352E-01  0.51100000000E-03 0. -1.
         11    1    4    4    0    0 -0.46209809791E-01 -0.37491715534E-02 -0.69262250964E-01  0.83348205367E-01  0.51100000000E-03 0.  1.
</event>
<event>
 8    1  0.1071333E+005  0.1043930E+01  0.7957747E-01            NaN
         13   -1    0    0    0    0  0.00000000000E+00  0.00000000000E+00  0.74505805969E-08  0.10566000000E+00  0.10566000000E+00 0.  1.
     999900   -1    0    0    0    0 -0.00000000000E+00 -0.00000000000E+00 -0.74505805969E-08  0.93827000000E+00  0.93827000000E+00 0.  1.
     999902    2    1    2    0    0 -0.23593503218E-01  0.21563611568E-03 -0.39514789188E-02  0.10200069133E+01  0.10197263305E+01 0.  0.
     999903    2    3    3    0    0 -0.42603268242E-01  0.10462054614E+00 -0.64423516260E-01  0.13157085834E+00  0.20000104441E-01 0.  0.
         14    1    1    2    0    0  0.23593503218E-01 -0.21563611568E-03  0.39514789188E-02  0.23923086730E-01  0.00000000000E+00 0. -1.
     999901    1    3    3    0    0  0.19009765023E-01 -0.10440491002E+00  0.60472037342E-01  0.88843605493E+00  0.88000000000E+00 0.  1.
        -11    1    4    4    0    0 -0.15145545641E-02  0.20067038869E-01 -0.65227049022E-02  0.21160971734E-01  0.51100000000E-03 0. -1.
         11    1    4    4    0    0 -0.41088713678E-01  0.84553507268E-01 -0.57900811358E-01  0.11040988660E+00  0.51100000000E-03 0.  1.
</event>
<event>
 8    1  0.1071333E+005  0.1043930E+01  0.7957747E-01            NaN
         13   -1    0    0    0    0  0.00000000000E+00  0.00000000000E+00  0.74505805969E-08  0.10566000000E+00  0.10566000000E+00 0.  1.
     999900   -1    0    0    0    0 -0.00000000000E+00 -0.00000000000E+00 -0.74505805969E-08  0.93827000000E+00  0.93827000000E+00 0.  1.
     999902    2    1    2    0    0  0.13077101867E-01  0.20465539479E-02  0.18777417223E-01  0.10209563113E+01  0.10206978001E+01 0.  0.
     999903    2    3    3    0    0  0.47290121502E-01 -0.92684833186E-01  0.80435272874E-01  0.13306765970E+00  0.20256728303E-01 0.  0.
         14    1    1    2    0    0 -0.13077101867E-01 -0.20465539479E-02 -0.18777417223E-01  0.22973688730E-01  0.00000000000E+00 0. -1.
     999901    1    3    3    0    0 -0.34213019635E-01  0.94731387134E-01 -0.61657855651E-01  0.88788865157E+00  0.88000000000E+00 0.  1.
        -11    1    4    4    0    0  0.13506279846E-01 -0.14479021660E-01  0.22843728725E-01  0.30235057906E-01  0.51100000000E-03 0. -1.
         11    1    4    4    0    0  0.33783841656E-01 -0.78205811526E-01  0.57591544150E-01  0.10283260180E+00  0.51100000000E-03 0.  1.
</event>
<event>
 8    1  0.1071333E+005  0.1043930E+01  0.7957747E-01            NaN
         13   -1    0    0    0    0  0.00000000000E+00  0.00000000000E+00  0.74505805969E-08  0.10566000000E+00  0.10566000000E+00 0.  1.
     999900   -1    0    0    0    0 -0.00000000000E+00 -0.00000000000E+00 -0.74505805969E-08  0.93827000000E+00  0.93827000000E+00 0.  1.
     999902    2    1    2    0    0  0.15931873112E-01 -0.16077104372E-01  0.75953414720E-02  0.10200555979E+01  0.10197761694E+01 0.  0.
     999903    2    3    3    0    0  0.58174084234E-01  0.11134695589E+00 -0.23557378316E-01  0.12933017019E+00  0.19722428478E-01 0.  0.
         14    1    1    2    0    0 -0.15931873112E-01  0.16077104372E-01 -0.75953414720E-02  0.23874402148E-01  0.00000000000E+00 0. -1.
     999901    1    3    3    0    0 -0.42242211122E-01 -0.12742406027E+00  0.31152719788E-01  0.89072542766E+00  0.88000000000E+00 0. -1.
        -11    1    4    4    0    0  0.45237240090E-01  0.84338983420E-01 -0.26299076584E-01  0.99254090925E-01  0.51100000000E-03 0.  1.
         11    1    4    4    0    0  0.12936844143E-01  0.27007972473E-01  0.27416982681E-02  0.30076079264E-01  0.51100000000E-03 0. -1.
</event>
<event>
 8    1  0.1071333E+005  0.1043930E+01  0.7957747E-01            NaN
         13   -1    0    0    0    0  0.00000000000E+00  0.00000000000E+00  0.74505805969E-08  0.10566000000E+00  0.10566000000E+00 0.  1.
     999900   -1    0    0    0    0 -0.00000000000E+00 -0.00000000000E+00 -0.74505805969E-08  0.93827000000E+00  0.93827000000E+00 0. -1.
     999902    2    1    2    0    0  0.88409212018E-02 -0.20336254015E-01  0.84572237943E-02  0.10201971167E+01  0.10199210299E+01 0.  0.
     999903    2    3    3    0    0  0.81056537418E-01 -0.78196306328E-01  0.68101155853E-01  0.13333733100E+00  0.21360052139E-01 0.  0.
         14    1    1    2    0    0 -0.88409212018E-02  0.20336254015E-01 -0.84572237943E-02  0.23732883292E-01  0.00000000000E+00 0. -1.
     999901    1    3    3    0    0 -0.72215616216E-01  0.57860052314E-01 -0.59643932059E-01  0.88685978571E+00  0.88000000000E+00 0. -1.
        -11    1    4    4    0    0  0.52954489836E-01 -0.39510388300E-01  0.31949501318E-01  0.73391283767E-01  0.51100000000E-03 0.  1.
         11    1    4    4    0    0  0.28102047582E-01 -0.38685918028E-01  0.36151654535E-01  0.59946047230E-01  0.51100000000E-03 0. -1.
</event>
<event>
 8    1  0.1071333E+005  0.1043930E+01  0.7957747E-01            NaN
         13   -1    0    0    0    0  0.00000000000E+00  0.00000000000E+00  0.74505805969E-08  0.10566000000E+00  0.10566000000E+00 0.  1.
     999900   -1    0    0    0    0 -0.00000000000E+00 -0.00000000000E+00 -0.74505805969E-08  0.93827000000E+00  0.93827000000E+00 0. -1.
     999902    2    1    2    0    0 -0.17549361101E-01  0.15765399707E-01 -0.69294516551E-02  0.10193424990E+01  0.10190459191E+01 0.  0.
     999903    2    3    3    0    0 -0.11759546401E+00  0.33803884172E-01 -0.46048295549E-01  0.13262670829E+00  0.22315969323E-01 0.  0.
         14    1    1    2    0    0  0.17549361101E-01 -0.15765399707E-01  0.69294516551E-02  0.24587500955E-01  0.00000000000E+00 0.  1.
     999901    1    3    3    0    0  0.10004610291E+00 -0.18038484465E-01  0.39118843894E-01  0.88671579076E+00  0.88000000000E+00 0.  1.
        -11    1    4    4    0    0 -0.96245947841E-01  0.33358582233E-01 -0.44651158984E-01  0.11122079214E+00  0.51100000000E-03 0.  1.
         11    1    4    4    0    0 -0.21349516172E-01  0.44530193862E-03 -0.13971365649E-02  0.21405916149E-01  0.51100000000E-03 0. -1.
</event>
<event>
 8    1  0.1071333E+005  0.1043930E+01  0.7957747E-01            NaN
         13   -1    0    0    0    0  0.00000000000E+00  0.00000000000E+00  0.74505805969E-08  0.10566000000E+00  0.10566000000E+00 0.  1.
     999900   -1    0    0    0    0 -0.00000000000E+00 -0.00000000000E+00 -0.74505805969E-08  0.93827000000E+00  0.93827000000E+00 0.  1.
     999902    2    1    2    0    0 -0.12510721209E-01  0.14992761676E-02  0.19839060609E-01  0.10204277810E+01  0.10201570966E+01 0.  0.
     999903    2    3    3    0    0  0.45184593085E-01  0.52665666391E-01  0.11133869086E+00  0.13232928917E+00  0.17303664962E-01 0.  0.
         14    1    1    2    0    0  0.12510721209E-01 -0.14992761676E-02 -0.19839060609E-01  0.23502219046E-01  0.00000000000E+00 0. -1.
     999901    1    3    3    0    0 -0.57695314294E-01 -0.51166390224E-01 -0.91499630247E-01  0.88809849179E+00  0.88000000000E+00 0.  1.
        -11    1    4    4    0    0  0.27100146636E-01  0.18910279787E-01  0.47049450789E-01  0.57497204887E-01  0.51100000000E-03 0. -1.
         11    1    4    4    0    0  0.18084446449E-01  0.33755386604E-01  0.64289240067E-01  0.74832084279E-01  0.51100000000E-03 0.  1.
</event>
<event>
 8    1  0.1071333E+005  0.1043930E+01  0.7957747E-01            NaN
         13   -1    0    0    0    0  0.00000000000E+00  0.00000000000E+00  0.74505805969E-08  0.10566000000E+00  0.10566000000E+00 0.  1.
     999900   -1    0    0    0    0 -0.00000000000E+00 -0.00000000000E+00 -0.74505805969E-08  0.93827000000E+00  0.93827000000E+00 0.  1.
     999902    2    1    2    0    0  0.43096057913E-02  0.21357274883E-01  0.94261455796E-02  0.10201906210E+01  0.10199143813E+01 0.  0.
     999903    2    3    3    0    0  0.71220538516E-01 -0.18992013121E-02  0.10884520025E+00  0.13176387391E+00  0.20939646105E-01 0.  0.
         14    1    1    2    0    0 -0.43096057913E-02 -0.21357274883E-01 -0.94261455796E-02  0.23739378951E-01  0.00000000000E+00 0.  1.
     999901    1    3    3    0    0 -0.66910932724E-01  0.23256476195E-01 -0.99419054666E-01  0.88842674714E+00  0.88000000000E+00 0.  1.
        -11    1    4    4    0    0  0.71017233365E-02 -0.31971575598E-02  0.25078225518E-01  0.26264706489E-01  0.51100000000E-03 0. -1.
         11    1    4    4    0    0  0.64118815179E-01  0.12979562476E-02  0.83766974727E-01  0.10549916742E+00  0.51100000000E-03 0.  1.
</event>
<event>
 8    1  0.1071333E+005  0.1043930E+01  0.7957747E-01            NaN
         13   -1    0    0    0    0  0.00000000000E+00  0.00000000000E+00  0.74505805969E-08  0.10566000000E+00  0.10566000000E+00 0.  1.
     999900   -1    0    0    0    0 -0.00000000000E+00 -0.00000000000E+00 -0.74505805969E-08  0.93827000000E+00  0.93827000000E+00 0.  1.
     999902    2    1    2    0    0 -0.25851993988E-02  0.87178574469E-02 -0.22144859196E-01  0.10199909298E+01  0.10197099675E+01 0.  0.
     999903    2    3    3    0    0 -0.90652389327E-01  0.27103777702E-01 -0.90916499685E-01  0.13273481650E+00  0.20006277527E-01 0.  0.
         14    1    1    2    0    0  0.25851993988E-02 -0.87178574469E-02  0.22144859196E-01  0.23939070224E-01  0.00000000000E+00 0. -1.
     999901    1    3    3    0    0  0.88067189928E-01 -0.18385920255E-01  0.68771640489E-01  0.88725611327E+00  0.88000000000E+00 0. -1.
        -11    1    4    4    0    0 -0.68365700294E-01  0.21842987785E-01 -0.56265940236E-01  0.91198148248E-01  0.51100000000E-03 0.  1.
         11    1    4    4    0    0 -0.22286689033E-01  0.52607899172E-02 -0.34650559449E-01  0.41536668255E-01  0.51100000000E-03 0. -1.
</event>
<event>
 8    1  0.1071333E+005  0.1043930E+01  0.7957747E-01            NaN
         13   -1    0    0    0    0  0.00000000000E+00  0.00000000000E+00  0.74505805969E-08  0.10566000000E+00  0.10566000000E+00 0. -1.
     999900   -1    0    0    0    0 -0.00000000000E+00 -0.00000000000E+00 -0.74505805969E-08  0.93827000000E+00  0.93827000000E+00 0. -1.
     999902    2    1    2    0    0  0.19830693830E-01 -0.12112022705E-01 -0.33244901268E-02  0.10204564032E+01  0.10201863855E+01 0.  0.
     999903    2    3    3    0    0 -0.31802391885E-01  0.66186035016E-01 -0.10472995474E+00  0.12968166758E+00  0.21377280607E-01 0.  0.
         14    1    1    2    0    0 -0.19830693830E-01  0.12112022705E-01  0.33244901268E-02  0.23473596793E-01  0.00000000000E+00 0.  1.
     999901    1    3    3    0    0  0.51633085715E-01 -0.78298057722E-01  0.10140546461E+00  0.89077473563E+00  0.88000000000E+00 0.  1.
        -11    1    4    4    0    0 -0.10701909590E-01  0.79735354526E-02 -0.28481595167E-01  0.31457439832E-01  0.51100000000E-03 0. -1.
         11    1    4    4    0    0 -0.21100482295E-01  0.58212499564E-01 -0.76248359568E-01  0.98224227746E-01  0.51100000000E-03 0.  1.
</event>
<event>
 8    1  0.1071333E+005  0.1043930E+01  0.7957747E-01            NaN
         13   -1    0    0    0    0  0.00000000000E+00  0.00000000000E+00  0.74505805969E-08  0.10566000000E+00  0.10566000000E+00 0. -1.
     999900   -1    0    0    0    0 -0.00000000000E+00 -0.00000000000E+00 -0.74505805969E-08  0.93827000000E+00  0.93827000000E+00 0. -1.
     999902    2    1    2    0    0 -0.16950659081E-01  0.80363263047E-02 -0.14370843049E-01  0.10202989079E+01  0.10200252119E+01 0.  0.
     999903    2    3    3    0    0  0.25666266321E-01 -0.46396639807E-01  0.11492700128E+00  0.12816826574E+00  0.20186215772E-01 0.  0.
         14    1    1    2    0    0  0.16950659081E-01 -0.80363263047E-02  0.14370843049E-01  0.23631092097E-01  0.00000000000E+00 0.  1.
     999901    1    3    3    0    0 -0.42616925402E-01  0.54432966111E-01 -0.12929784433E+00  0.89213064216E+00  0.88000000000E+00 0. -1.
        -11    1    4    4    0    0  0.14133515324E-01 -0.22540409882E-01  0.80098023392E-01  0.84402492886E-01  0.51100000000E-03 0.  1.
         11    1    4    4    0    0  0.11532750997E-01 -0.23856229925E-01  0.34828977893E-01  0.43765772858E-01  0.51100000000E-03 0. -1.
</event>
<event>
 8    1  0.1071333E+005  0.1043930E+01  0.7957747E-01            NaN
         13   -1    0    0    0    0  0.00000000000E+00  0.00000000000E+00  0.74505805969E-08  0.10566000000E+00  0.10566000000E+00 0. -1.
     999900   -1    0    0    0    0 -0.00000000000E+00 -0.00000000000E+00 -0.74505805969E-08  0.93827000000E+00  0.93827000000E+00 0. -1.
     999902    2    1    2    0    0 -0.23274604559E-01  0.13997663110E-03  0.25067558618E-02  0.10205203730E+01  0.10202518420E+01 0.  0.
     999903    2    3    3    0    0 -0.34708795832E-01 -0.91763442850E-01 -0.84983784323E-01  0.13134571420E+00  0.20105300047E-01 0.  0.
         14    1    1    2    0    0  0.23274604559E-01 -0.13997663110E-03 -0.25067558618E-02  0.23409626990E-01  0.00000000000E+00 0.  1.
     999901    1    3    3    0    0  0.11434191273E-01  0.91903419481E-01  0.87490540185E-01  0.88917465881E+00  0.88000000000E+00 0.  1.
        -11    1    4    4    0    0 -0.31306999937E-01 -0.56225178647E-01 -0.57261319992E-01  0.86142433488E-01  0.51100000000E-03 0.  1.
         11    1    4    4    0    0 -0.34017958944E-02 -0.35538264204E-01 -0.27722464330E-01  0.45203280716E-01  0.51100000000E-03 0. -1.
</event>
<event>
 8    1  0.1071333E+005  0.1043930E+01  0.7957747E-01            NaN
         13   -1    0    0    0    0  0.00000000000E+00  0.00000000000E+00  0.74505805969E-08  0.10566000000E+00  0.10566000000E+00 0.  1.
     999900   -1    0    0    0    0 -0.00000000000E+00 -0.00000000000E+00 -0.74505805969E-08  0.93827000000E+00  0.93827000000E+00 0. -1.
     999902    2    1    2    0    0  0.22778099335E-02 -0.16298979101E-02  0.23717823739E-01  0.10200473672E+01  0.10197677438E+01 0.  0.
     999903    2    3    3    0    0  0.31628010579E-01 -0.12513197103E+00  0.60526252791E-02  0.13076324189E+00  0.20100993220E-01 0.  0.
         14    1    1    2    0    0 -0.22778099335E-02  0.16298979101E-02 -0.23717823739E-01  0.23882632773E-01  0.00000000000E+00 0. -1.
     999901    1    3    3    0    0 -0.29350200645E-01  0.12350207312E+00  0.17665198460E-01  0.88928412534E+00  0.88000000000E+00 0.  1.
        -11    1    4    4    0    0  0.14445591283E-01 -0.23866942719E-01  0.18310761682E-02  0.27962832889E-01  0.51100000000E-03 0. -1.
         11    1    4    4    0    0  0.17182419296E-01 -0.10126502831E+00  0.42215491109E-02  0.10280040900E+00  0.51100000000E-03 0.  1.
</event>
<event>
 8    1  0.1071333E+005  0.1043930E+01  0.7957747E-01            NaN
         13   -1    0    0    0    0  0.00000000000E+00  0.00000000000E+00  0.74505805969E-08  0.10566000000E+00  0.10566000000E+00 0. -1.
     999900   -1    0    0    0    0 -0.00000000000E+00 -0.00000000000E+00 -0.74505805969E-08  0.93827000000E+00  0.93827000000E+00 0.  1.
     999902    2    1    2    0    0  0.14815368245E-01  0.11562789640E-01  0.10880130312E-01  0.10222143265E+01  0.10219836392E+01 0.  0.
     999903    2    3    3    0    0  0.12780116231E+00 -0.89590352306E-02  0.35318819478E-01  0.13441694843E+00  0.20176610594E-01 0.  0.
         14    1    1    2    0    0 -0.14815368245E-01 -0.11562789640E-01 -0.10880130312E-01  0.21715673512E-01  0.00000000000E+00 0.  1.
     999901    1    3    3    0    0 -0.11298579407E+00  0.20521824871E-01 -0.24438689166E-01  0.88779737806E+00  0.88000000000E+00 0. -1.
        -11    1    4    4    0    0  0.10799887627E+00 -0.81494215662E-02  0.37163952324E-01  0.11450585496E+00  0.51100000000E-03 0.  1.
         11    1    4    4    0    0  0.19802286044E-01 -0.80961366444E-03 -0.18451328468E-02  0.19911093468E-01  0.51100000000E-03 0. -1.
</event>
<event>
 8    1  0.1071333E+005  0.1043930E+01  0.7957747E-01            NaN
         13   -1    0    0    0    0  0.00000000000E+00  0.00000000000E+00  0.74505805969E-08  0.10566000000E+00  0.10566000000E+00 0.  1.
     999900   -1    0    0    0    0 -0.00000000000E+00 -0.00000000000E+00 -0.74505805969E-08  0.93827000000E+00  0.93827000000E+00 0.  1.
     999902    2    1    2    0    0  0.21174970146E-01  0.70161174515E-02  0.41519325730E-02  0.10212398301E+01  0.10209877310E+01 0.  0.
     999903    2    3    3    0    0 -0.89192763133E-01 -0.90500229335E-01  0.10543794665E-01  0.12897791211E+00  0.19454811788E-01 0.  0.
         14    1    1    2    0    0 -0.21174970146E-01 -0.70161174515E-02 -0.41519325730E-02  0.22690169873E-01  0.00000000000E+00 0.  1.
     999901    1    3    3    0    0  0.11036773328E+00  0.97516346787E-01 -0.63918620922E-02  0.89226191802E+00  0.88000000000E+00 0. -1.
        -11    1    4    4    0    0 -0.74605677744E-01 -0.79113331059E-01  0.24439087959E-02  0.10877113640E+00  0.51100000000E-03 0. -1.
         11    1    4    4    0    0 -0.14587085389E-01 -0.11386898276E-01  0.80998858693E-02  0.20206775710E-01  0.51100000000E-03 0.  1.
</event>
<event>
 8    1  0.1071333E+005  0.1043930E+01  0.7957747E-01            NaN
         13   -1    0    0    0    0  0.00000000000E+00  0.00000000000E+00  0.74505805969E-08  0.10566000000E+00  0.10566000000E+00 0. -1.
     999900   -1    0    0    0    0 -0.00000000000E+00 -0.00000000000E+00 -0.74505805969E-08  0.93827000000E+00  0.93827000000E+00 0. -1.
     999902    2    1    2    0    0 -0.22957759027E-01  0.59653807328E-02  0.30204027192E-02  0.10200183439E+01  0.10197380323E+01 0.  0.
     999903    2    3    3    0    0  0.51514415236E-01  0.30415015289E-01 -0.11234287965E+00  0.12903429446E+00  0.21215994118E-01 0.  0.
         14    1    1    2    0    0  0.22957759027E-01 -0.59653807328E-02 -0.30204027192E-02  0.23911656142E-01  0.00000000000E+00 0. -1.
     999901    1    3    3    0    0 -0.74472174263E-01 -0.24449634557E-01  0.11536328237E+00  0.89098404940E+00  0.88000000000E+00 0.  1.
        -11    1    4    4    0    0  0.17397548664E-01  0.19904731910E-01 -0.61144079820E-01  0.66616309339E-01  0.51100000000E-03 0. -1.
         11    1    4    4    0    0  0.34116866573E-01  0.10510283379E-01 -0.51198799827E-01  0.62417985118E-01  0.51100000000E-03 0.  1.
</event>
<event>
 8    1  0.1071333E+005  0.1043930E+01  0.7957747E-01            NaN
         13   -1    0    0    0    0  0.00000000000E+00  0.00000000000E+00  0.74505805969E-08  0.10566000000E+00  0.10566000000E+00 0.  1.
     999900   -1    0    0    0    0 -0.00000000000E+00 -0.00000000000E+00 -0.74505805969E-08  0.93827000000E+00  0.93827000000E+00 0. -1.
     999902    2    1    2    0    0  0.11502355580E-02 -0.20329903899E-01  0.12250577724E-01  0.10201664841E+01  0.10198896757E+01 0.  0.
     999903    2    3    3    0    0 -0.93862008372E-01  0.83868754729E-01 -0.87727996720E-02  0.12869204846E+00  0.25310801817E-01 0.  0.
         14    1    1    2    0    0 -0.11502355580E-02  0.20329903899E-01 -0.12250577724E-01  0.23763515921E-01  0.00000000000E+00 0. -1.
     999901    1    3    3    0    0  0.95012243930E-01 -0.10419865863E+00  0.21023377396E-01  0.89147443561E+00  0.88000000000E+00 0.  1.
        -11    1    4    4    0    0 -0.12052917315E-01  0.17492098977E-01 -0.96500319976E-02  0.23337321633E-01  0.51100000000E-03 0. -1.
         11    1    4    4    0    0 -0.81809091056E-01  0.66376655751E-01  0.87723232565E-03  0.10535472683E+00  0.51100000000E-03 0.  1.
</event>
<event>
 8    1  0.1071333E+005  0.1043930E+01  0.7957747E-01            NaN
         13   -1    0    0    0    0  0.00000000000E+00  0.00000000000E+00  0.74505805969E-08  0.10566000000E+00  0.10566000000E+00 0. -1.
     999900   -1    0    0    0    0 -0.00000000000E+00 -0.00000000000E+00 -0.74505805969E-08  0.93827000000E+00  0.93827000000E+00 0. -1.
     999902    2    1    2    0    0  0.21008818254E-01  0.40271422068E-02 -0.11265395523E-01  0.10197536178E+01  0.10194669900E+01 0.  0.
     999903    2    3    3    0    0 -0.72547195912E-01  0.10403803281E+00 -0.14002855655E-01  0.12915696405E+00  0.19960798863E-01 0.  0.
         14    1    1    2    0    0 -0.21008818254E-01 -0.40271422068E-02  0.11265395523E-01  0.24176382175E-01  0.00000000000E+00 0. -1.
     999901    1    3    3    0    0  0.93556014165E-01 -0.10001089060E+00  0.27374601318E-02  0.89059665377E+00  0.88000000000E+00 0.  1.
        -11    1    4    4    0    0 -0.36407655793E-01  0.68766928694E-01 -0.62263837059E-02  0.78060469236E-01  0.51100000000E-03 0.  1.
         11    1    4    4    0    0 -0.36139540119E-01  0.35271104114E-01 -0.77764719492E-02  0.51096494815E-01  0.51100000000E-03 0. -1.
</event>
<event>
 8    1  0.1071333E+005  0.1043930E+01  0.7957747E-01            NaN
         13   -1    0    0    0    0  0.00000000000E+00  0.00000000000E+00  0.74505805969E-08  0.10566000000E+00  0.10566000000E+00 0.  1.
     999900   -1    0    0    0    0 -0.00000000000E+00 -0.00000000000E+00 -0.74505805969E-08  0.93827000000E+00  0.93827000000E+00 0. -1.
     999902    2    1    2    0    0  0.15238248530E-01  0.17468459128E-01 -0.62037129100E-02  0.10199333891E+01  0.10196510583E+01 0.  0.
     999903    2    3    3    0    0 -0.70467693446E-01  0.10760119600E-01  0.10539012002E+00  0.12872988040E+00  0.19566009223E-01 0.  0.
         14    1    1    2    0    0 -0.15238248530E-01 -0.17468459128E-01  0.62037129100E-02  0.23996610937E-01  0.00000000000E+00 0.  1.
     999901    1    3    3    0    0  0.85705941977E-01  0.67083395280E-02 -0.11159383293E+00  0.89120350866E+00  0.88000000000E+00 0. -1.
        -11    1    4    4    0    0 -0.60697932923E-01  0.92681838345E-02  0.75925456865E-01  0.97647705625E-01  0.51100000000E-03 0.  1.
         11    1    4    4    0    0 -0.97697605234E-02  0.14919357654E-02  0.29464663151E-01  0.31082174773E-01  0.51100000000E-03 0. -1.
</event>
<event>
 8    1  0.1071333E+005  0.1043930E+01  0.7957747E-01            NaN
         13   -1    0    0    0    0  0.00000000000E+00  0.00000000000E+00  0.74505805969E-08  0.10566000000E+00  0.10566000000E+00 0.  1.
     999900   -1    0    0    0    0 -0.00000000000E+00 -0.00000000000E+00 -0.74505805969E-08  0.93827000000E+00  0.93827000000E+00 0. -1.
     999902    2    1    2    0    0 -0.85041108557E-02 -0.22572404393E-02 -0.24752743478E-01  0.10176599915E+01  0.10173208663E+01 0.  0.
     999903    2    3    3    0    0  0.21494772726E-01 -0.47073132268E-01  0.11241554522E+00  0.12540244092E+00  0.20263571901E-01 0.  0.
         14    1    1    2    0    0  0.85041108557E-02  0.22572404393E-02  0.24752743478E-01  0.26270008479E-01  0.00000000000E+00 0.  1.
     999901    1    3    3    0    0 -0.29998883581E-01  0.44815891828E-01 -0.13716828870E+00  0.89225755060E+00  0.88000000000E+00 0. -1.
        -11    1    4    4    0    0 -0.20307840357E-02 -0.83247426676E-02  0.31545647221E-01  0.32692727079E-01  0.51100000000E-03 0. -1.
         11    1    4    4    0    0  0.23525556761E-01 -0.38748389600E-01  0.80869897998E-01  0.92709713842E-01  0.51100000000E-03 0.  1.
</event>
<event>
 8    1  0.1071333E+005  0.1043930E+01  0.7957747E-01            NaN
         13   -1    0    0    0    0  0.00000000000E+00  0.00000000000E+00  0.74505805969E-08  0.10566000000E+00  0.10566000000E+00 0.  1.
     999900   -1    0    0    0    0 -0.00000000000E+00 -0.00000000000E+00 -0.74505805969E-08  0.93827000000E+00  0.93827000000E+00 0. -1.
     999902    2    1    2    0    0 -0.31382960023E-02  0.21440094089E-01  0.10868416863E-01  0.10196885268E+01  0.10194003349E+01 0.  0.
     999903    2    3    3    0    0 -0.11038744712E+00  0.68142863567E-01  0.14303593355E-01  0.13194119254E+00  0.19366134617E-01 0.  0.
         14    1    1    2    0    0  0.31382960023E-02 -0.21440094089E-01 -0.10868416863E-01  0.24241473170E-01  0.00000000000E+00 0. -1.
     999901    1    3    3    0    0  0.10724915112E+00 -0.46702769478E-01 -0.34351764912E-02  0.88774733429E+00  0.88000000000E+00 0. -1.
        -11    1    4    4    0    0 -0.34085239325E-01  0.16373154425E-01  0.12102142646E-01  0.39706507065E-01  0.51100000000E-03 0. -1.
         11    1    4    4    0    0 -0.76302207797E-01  0.51769709141E-01  0.22014507087E-02  0.92234685480E-01  0.51100000000E-03 0.  1.
</event>
<event>
 8    1  0.1071333E+005  0.1043930E+01  0.7957747E-01            NaN
         13   -1    0    0    0    0  0.00000000000E+00  0.00000000000E+00  0.74505805969E-08  0.10566000000E+00  0.10566000000E+00 0. -1.
     999900   -1    0    0    0    0 -0.00000000000E+00 -0.00000000000E+00 -0.74505805969E-08  0.93827000000E+00  0.93827000000E+00 0. -1.
     999902    2    1    2    0    0  0.20518958259E-01  0.90149609747E-02  0.65511817162E-02  0.10205801574E+01  0.10203130120E+01 0.  0.
     999903    2    3    3    0    0  0.49104591972E-02  0.83984794386E-01 -0.98418360894E-01  0.13103942977E+00  0.20189108349E-01 0.  0.
         14    1    1    2    0    0 -0.20518958259E-01 -0.90149609747E-02 -0.65511817162E-02  0.23349842640E-01  0.00000000000E+00 0.  1.
     999901    1    3    3    0    0  0.15608499062E-01 -0.74969833411E-01  0.10496954261E+00  0.88954072759E+00  0.88000000000E+00 0.  1.
        -11    1    4    4    0    0  0.96512212985E-02  0.51659874712E-01 -0.71302667309E-01  0.88578892600E-01  0.51100000000E-03 0. -1.
         11    1    4    4    0    0 -0.47407621013E-02  0.32324919674E-01 -0.27115693585E-01  0.42460537171E-01  0.51100000000E-03 0.  1.
</event>
<event>
 8    1  0.1071333E+005  0.1043930E+01  0.7957747E-01            NaN
         13   -1    0    0    0    0  0.00000000000E+00  0.00000000000E+00  0.74505805969E-08  0.10566000000E+00  0.10566000000E+00 0. -1.
     999900   -1    0    0    0    0 -0.00000000000E+00 -0.00000000000E+00 -0.74505805969E-08  0.93827000000E+00  0.93827000000E+00 0.  1.
     999902    2    1    2    0    0 -0.55420985108E-02  0.20286994745E-02 -0.22507627789E-01  0.10206614851E+01  0.10203962188E+01 0.  0.
     999903    2    3    3    0    0 -0.26323548453E-01  0.18926335702E-02 -0.12950527008E+00  0.13393696043E+00  0.21702145624E-01 0.  0.
         14    1    1    2    0    0  0.55420985108E-02 -0.20286994745E-02  0.22507627789E-01  0.23268514910E-01  0.00000000000E+00 0. -1.
     999901    1    3    3    0    0  0.20781449942E-01  0.13606590428E-03  0.10699764230E+00  0.88672452466E+00  0.88000000000E+00 0. -1.
        -11    1    4    4    0    0 -0.23580091609E-01 -0.55674931469E-02 -0.11351239815E+00  0.11607042411E+00  0.51100000000E-03 0.  1.
         11    1    4    4    0    0 -0.27434568441E-02  0.74601267172E-02 -0.15992871938E-01  0.17866536316E-01  0.51100000000E-03 0. -1.
</event>
<event>
 8    1  0.1071333E+005  0.1043930E+01  0.7957747E-01            NaN
         13   -1    0    0    0    0  0.00000000000E+00  0.00000000000E+00  0.74505805969E-08  0.10566000000E+00  0.10566000000E+00 0. -1.
     999900   -1    0    0    0    0 -0.00000000000E+00 -0.00000000000E+00 -0.74505805969E-08  0.93827000000E+00  0.93827000000E+00 0. -1.
     999902    2    1    2    0    0  0.21788402855E-01  0.50033096002E-03 -0.10608886265E-02  0.10221100478E+01  0.10218771156E+01 0.  0.
     999903    2    3    3    0    0  0.48336430847E-01  0.10293280011E+00  0.66558993856E-01  0.13319517164E+00  0.19475168788E-01 0.  0.
         14    1    1    2    0    0 -0.21788402855E-01 -0.50033096002E-03  0.10608886265E-02  0.21819952216E-01  0.00000000000E+00 0. -1.
     999901    1    3    3    0    0 -0.26548027992E-01 -0.10243246915E+00 -0.67619882483E-01  0.88891487615E+00  0.88000000000E+00 0. -1.
        -11    1    4    4    0    0  0.32884209491E-01  0.48525836972E-01  0.37701788063E-01  0.69698020287E-01  0.51100000000E-03 0. -1.
         11    1    4    4    0    0  0.15452221356E-01  0.54406963137E-01  0.28857205793E-01  0.63497151352E-01  0.51100000000E-03 0.  1.
</event>
<event>
 8    1  0.1071333E+005  0.1043930E+01  0.7957747E-01            NaN
         13   -1    0    0    0    0  0.00000000000E+00  0.00000000000E+00  0.74505805969E-08  0.10566000000E+00  0.10566000000E+00 0.  1.
     999900   -1    0    0    0    0 -0.00000000000E+00 -0.00000000000E+00 -0.74505805969E-08  0.93827000000E+00  0.93827000000E+00 0. -1.
     999902    2    1    2    0    0 -0.14448847097E-01 -0.66708864641E-02 -0.18520353434E-01  0.10195112900E+01  0.10192188170E+01 0.  0.
     999903    2    3    3    0    0 -0.26445467257E-01 -0.12444417375E+00  0.21758321226E-01  0.13067112563E+00  0.20391258258E-01 0.  0.
         14    1    1    2    0    0  0.14448847097E-01  0.66708864641E-02  0.18520353434E-01  0.24418710039E-01  0.00000000000E+00 0.  1.
     999901    1    3    3    0    0  0.11996620160E-01  0.11777328728E+00 -0.40278674661E-01  0.88884016433E+00  0.88000000000E+00 0. -1.
        -11    1    4    4    0    0 -0.16758485521E-01 -0.45316032296E-01  0.11585175965E-02  0.48332110486E-01  0.51100000000E-03 0. -1.
         11    1    4    4    0    0 -0.96869817359E-02 -0.79128141450E-01  0.20599803630E-01  0.82339015145E-01  0.51100000000E-03 0.  1.
</event>
<event>
 8    1  0.1071333E+005  0.1043930E+01  0.7957747E-01            NaN
         13   -1    0    0    0    0  0.00000000000E+00  0.00000000000E+00  0.74505805969E-08  0.10566000000E+00  0.10566000000E+00 0.  1.
     999900   -1    0    0    0    0 -0.00000000000E+00 -0.00000000000E+00 -0.74505805969E-08  0.93827000000E+00  0.93827000000E+00 0. -1.
     999902    2    1    2    0    0  0.14526997698E-01 -0.12102989591E-01  0.62013272675E-02  0.10240309428E+01  0.10238375844E+01 0.  0.
     999903    2    3    3    0    0 -0.62622493087E-01  0.11418588880E+00  0.11602911664E-02  0.13165975498E+00  0.19311938366E-01 0.  0.
         14    1    1    2    0    0 -0.14526997698E-01  0.12102989591E-01 -0.62013272675E-02  0.19899057240E-01  0.00000000000E+00 0. -1.
     999901    1    3    3    0    0  0.77149490785E-01 -0.12628887840E+00  0.50410361012E-02  0.89237118778E+00  0.88000000000E+00 0.  1.
        -11    1    4    4    0    0 -0.51204817982E-01  0.94342626047E-01 -0.64269972499E-02  0.10753618874E+00  0.51100000000E-03 0. -1.
         11    1    4    4    0    0 -0.11417675105E-01  0.19843262757E-01  0.75872884162E-02  0.24123566240E-01  0.51100000000E-03 0.  1.
</event>
<event>
 8    1  0.1071333E+005  0.1043930E+01  0.7957747E-01            NaN
         13   -1    0    0    0    0  0.00000000000E+00  0.00000000000E+00  0.74505805969E-08  0.10566000000E+00  0.10566000000E+00 0. -1.
     999900   -1    0    0    0    0 -0.00000000000E+00 -0.00000000000E+00 -0.74505805969E-08  0.93827000000E+00  0.93827000000E+00 0. -1.
     999902    2    1    2    0    0  0.14872726895E-01  0.17238002492E-01  0.61177138087E-02  0.10203551584E+01  0.10200827790E+01 0.  0.
     999903    2    3    3    0    0  0.10335954756E+00  0.74413269293E-01  0.35156026826E-01  0.13359580422E+00  0.19782870451E-01 0.  0.
         14    1    1    2    0    0 -0.14872726895E-01 -0.17238002492E-01 -0.61177138087E-02  0.23574841621E-01  0.00000000000E+00 0. -1.
     999901    1    3    3    0    0 -0.88486820669E-01 -0.57175266801E-01 -0.29038313017E-01  0.88675935416E+00  0.88000000000E+00 0. -1.
        -11    1    4    4    0    0  0.38642512829E-01  0.17271458331E-01  0.15272820010E-01  0.45000746912E-01  0.51100000000E-03 0. -1.
         11    1    4    4    0    0  0.64717034735E-01  0.57141810962E-01  0.19883206816E-01  0.88595057307E-01  0.51100000000E-03 0.  1.
</event>
<event>
 8    1  0.1071333E+005  0.1043930E+01  0.7957747E-01            NaN
         13   -1    0    0    0    0  0.00000000000E+00  0.00000000000E+00  0.74505805969E-08  0.10566000000E+00  0.10566000000E+00 0.  1.
     999900   -1    0    0    0    0 -0.00000000000E+00 -0.00000000000E+00 -0.74505805969E-08  0.93827000000E+00  0.93827000000E+00 0.  1.
     999902    2    1    2    0    0 -0.20296702067E-01 -0.46541628869E-02 -0.47791888746E-02  0.10225651224E+01  0.10223419054E+01 0.  0.
     999903    2    3    3    0    0  0.48659323744E-01 -0.65492792389E-01 -0.10230784421E+00  0.13241451105E+00  0.20240358423E-01 0.  0.
         14    1    1    2    0    0  0.20296702067E-01  0.46541628869E-02  0.47791888746E-02  0.21364877563E-01  0.00000000000E+00 0.  1.
     999901    1    3    3    0    0 -0.68956025810E-01  0.60838629502E-01  0.97528655333E-01  0.89015061138E+00  0.88000000000E+00 0. -1.
        -11    1    4    4    0    0  0.43429503450E-01 -0.50864028496E-01 -0.71497182528E-01  0.97904950821E-01  0.51100000000E-03 0. -1.
         11    1    4    4    0    0  0.52298202936E-02 -0.14628763893E-01 -0.30810661680E-01  0.34509560233E-01  0.51100000000E-03 0.  1.
</event>
<event>
 8    1  0.1071333E+005  0.1043930E+01  0.7957747E-01            NaN
         13   -1    0    0    0    0  0.00000000000E+00  0.00000000000E+00  0.74505805969E-08  0.10566000000E+00  0.10566000000E+00 0. -1.
     999900   -1    0    0    0    0 -0.00000000000E+00 -0.00000000000E+00 -0.74505805969E-08  0.93827000000E+00  0.93827000000E+00 0.  1.
     999902    2    1    2    0    0  0.41051457255E-02 -0.17989143187E-02 -0.37471008731E-01  0.10061918918E+01  0.10054839424E+01 0.  0.
     999903    2    3    3    0    0  0.36341189344E-01 -0.43974332266E-01  0.97054698554E-01  0.11438748820E+00  0.20259787852E-01 0.  0.
         14    1    1    2    0    0 -0.41051457255E-02  0.17989143187E-02  0.37471008731E-01  0.37738108186E-01  0.00000000000E+00 0. -1.
     999901    1    3    3    0    0 -0.32236043619E-01  0.42175417948E-01 -0.13452570728E+00  0.89180440362E+00  0.88000000000E+00 0.  1.
        -11    1    4    4    0    0  0.18486100191E-01 -0.23298561268E-01  0.69426134040E-01  0.75530179837E-01  0.51100000000E-03 0. -1.
         11    1    4    4    0    0  0.17855089153E-01 -0.20675770999E-01  0.27628564514E-01  0.38857308362E-01  0.51100000000E-03 0.  1.
</event>
<event>
 8    1  0.1071333E+005  0.1043930E+01  0.7957747E-01            NaN
         13   -1    0    0    0    0  0.00000000000E+00  0.00000000000E+00  0.74505805969E-08  0.10566000000E+00  0.10566000000E+00 0.  1.
     999900   -1    0    0    0    0 -0.00000000000E+00 -0.00000000000E+00 -0.74505805969E-08  0.93827000000E+00  0.93827000000E+00 0.  1.
     999902    2    1    2    0    0 -0.23030647877E-01  0.12103514512E-03  0.87647920065E-02  0.10192876184E+01  0.10189896968E+01 0.  0.
     999903    2    3    3    0    0  0.16728120261E-01  0.11433408059E+00  0.55580706962E-01  0.12978376273E+00  0.20062355004E-01 0.  0.
         14    1    1    2    0    0  0.23030647877E-01 -0.12103514512E-03 -0.87647920065E-02  0.24642381582E-01  0.00000000000E+00 0. -1.
     999901    1    3    3    0    0 -0.39758768138E-01 -0.11421304545E+00 -0.46815914956E-01  0.88950385569E+00  0.88000000000E+00 0.  1.
        -11    1    4    4    0    0  0.54058773562E-02  0.15934448533E-01  0.15658475045E-01  0.22990848653E-01  0.51100000000E-03 0. -1.
         11    1    4    4    0    0  0.11322242905E-01  0.98399632062E-01  0.39922231917E-01  0.10679291407E+00  0.51100000000E-03 0.  1.
</event>
<event>
 8    1  0.1071333E+005  0.1043930E+01  0.7957747E-01            NaN
         13   -1    0    0    0    0  0.00000000000E+00  0.00000000000E+00  0.74505805969E-08  0.10566000000E+00  0.10566000000E+00 0. -1.
     999900   -1    0    0    0    0 -0.00000000000E+00 -0.00000000000E+00 -0.74505805969E-08  0.93827000000E+00  0.93827000000E+00 0. -1.
     999902    2    1    2    0    0  0.22671851771E-01 -0.56211266918E-02  0.92919216715E-02  0.10187913895E+01  0.10184811955E+01 0.  0.
     999903    2    3    3    0    0  0.50574369982E-01 -0.11569299856E+00  0.30137520706E-01  0.13125045723E+00  0.19384931118E-01 0.  0.
         14    1    1    2    0    0 -0.22671851771E-01  0.56211266918E-02 -0.92919216715E-02  0.25138610470E-01  0.00000000000E+00 0.  1.
     999901    1    3    3    0    0 -0.27902518211E-01  0.11007187187E+00 -0.20845599035E-01  0.88754093229E+00  0.88000000000E+00 0. -1.
        -11    1    4    4    0    0  0.14685174592E-01 -0.56849380346E-01  0.16444439244E-01  0.60976939096E-01  0.51100000000E-03 0.  1.
         11    1    4    4    0    0  0.35889195390E-01 -0.58843618217E-01  0.13693081462E-01  0.70273518139E-01  0.51100000000E-03 0. -1.
</event>
<event>
 8    1  0.1071333E+005  0.1043930E+01  0.7957747E-01            NaN
         13   -1    0    0    0    0  0.00000000000E+00  0.00000000000E+00  0.74505805969E-08  0.10566000000E+00  0.10566000000E+00 0.  1.
     999900   -1    0    0    0    0 -0.00000000000E+00 -0.00000000000E+00 -0.74505805969E-08  0.93827000000E+00  0.93827000000E+00 0.  1.
     999902    2    1    2    0    0  0.20516621886E-02  0.10414324385E-01 -0.20845660719E-01  0.10205375003E+01  0.10202693667E+01 0.  0.
     999903    2    3    3    0    0 -0.13144172210E-01 -0.11273997983E+00  0.57745194348E-01  0.12836351588E+00  0.16112492776E-01 0.  0.
         14    1    1    2    0    0 -0.20516621886E-02 -0.10414324385E-01  0.20845660719E-01  0.23392499673E-01  0.00000000000E+00 0.  1.
     999901    1    3    3    0    0  0.15195834399E-01  0.12315430421E+00 -0.78590855068E-01  0.89217398445E+00  0.88000000000E+00 0.  1.
        -11    1    4    4    0    0 -0.10021599267E-01 -0.43150730033E-01  0.15725091973E-01  0.47010186054E-01  0.51100000000E-03 0. -1.
         11    1    4    4    0    0 -0.31225729435E-02 -0.69589249794E-01  0.42020102375E-01  0.81353329823E-01  0.51100000000E-03 0.  1.
</event>
<event>
 8    1  0.1333299E+005  0.1043930E+01  0.7957747E-01            NaN
         13   -1    0    0    0    0  0.00000000000E+00  0.00000000000E+00  0.74505805969E-08  0.10566000000E+00  0.10566000000E+00 0. -1.
     999900   -1    0    0    0    0 -0.00000000000E+00 -0.00000000000E+00 -0.74505805969E-08  0.93827000000E+00  0.93827000000E+00 0.  1.
     999902    2    1    2    0    0  0.52281699188E-02 -0.23071484599E-01  0.26364160112E-02  0.10201271041E+01  0.10198493667E+01 0.  0.
     999903    2    3    3    0    0 -0.16012010259E-01 -0.13043589807E+00  0.97189728245E-02  0.13331910623E+00  0.20239013715E-01 0.  0.
         14    1    1    2    0    0 -0.52281699188E-02  0.23071484599E-01 -0.26364160112E-02  0.23802895868E-01  0.00000000000E+00 0. -1.
     999901    1    3    3    0    0  0.21240180178E-01  0.10736441347E+00 -0.70825568133E-02  0.88680799790E+00  0.88000000000E+00 0. -1.
        -11    1    4    4    0    0  0.22147431769E-02 -0.60813236264E-01  0.14289744795E-02  0.60872472279E-01  0.51100000000E-03 0.  1.
         11    1    4    4    0    0 -0.18226753436E-01 -0.69622661802E-01  0.82899983450E-02  0.72446633950E-01  0.51100000000E-03 0. -1.
</event>
<event>
 8    1  0.1071333E+005  0.1043930E+01  0.7957747E-01            NaN
         13   -1    0    0    0    0  0.00000000000E+00  0.00000000000E+00  0.74505805969E-08  0.10566000000E+00  0.10566000000E+00 0.  1.
     999900   -1    0    0    0    0 -0.00000000000E+00 -0.00000000000E+00 -0.74505805969E-08  0.93827000000E+00  0.93827000000E+00 0. -1.
     999902    2    1    2    0    0 -0.21933359969E-01  0.20736189636E-02  0.90981230860E-02  0.10200941443E+01  0.10198156280E+01 0.  0.
     999903    2    3    3    0    0 -0.39905721743E-01 -0.17933378695E-01  0.12331121570E+00  0.13230592837E+00  0.19624731018E-01 0.  0.
         14    1    1    2    0    0  0.21933359969E-01 -0.20736189636E-02 -0.90981230860E-02  0.23835855740E-01  0.00000000000E+00 0.  1.
     999901    1    3    3    0    0  0.17972361773E-01  0.20006997658E-01 -0.11421309261E+00  0.88778821589E+00  0.88000000000E+00 0. -1.
        -11    1    4    4    0    0 -0.11205547569E-01 -0.10557905004E-01  0.66131348005E-01  0.67901767020E-01  0.51100000000E-03 0.  1.
         11    1    4    4    0    0 -0.28700174173E-01 -0.73754736908E-02  0.57179867690E-01  0.64404161354E-01  0.51100000000E-03 0. -1.
</event>
<event>
 8    1  0.1071333E+005  0.1043930E+01  0.7957747E-01            NaN
         13   -1    0    0    0    0  0.00000000000E+00  0.00000000000E+00  0.74505805969E-08  0.10566000000E+00  0.10566000000E+00 0.  1.
     999900   -1    0    0    0    0 -0.00000000000E+00 -0.00000000000E+00 -0.74505805969E-08  0.93827000000E+00  0.93827000000E+00 0. -1.
     999902    2    1    2    0    0  0.16464350913E-02 -0.27231886272E-01 -0.10576733124E-01  0.10146698964E+01  0.10142479209E+01 0.  0.
     999903    2    3    3    0    0  0.11674921916E+00  0.11590692120E-01  0.38240822401E-01  0.12498512234E+00  0.19854369499E-01 0.  0.
         14    1    1    2    0    0 -0.16464350913E-02  0.27231886272E-01  0.10576733124E-01  0.29260103589E-01  0.00000000000E+00 0.  1.
     999901    1    3    3    0    0 -0.11510278407E+00 -0.38822578392E-01 -0.48817555525E-01  0.88968477408E+00  0.88000000000E+00 0.  1.
        -11    1    4    4    0    0  0.57960932732E-01 -0.26336911827E-02  0.13111429159E-01  0.59485937397E-01  0.51100000000E-03 0.  1.
         11    1    4    4    0    0  0.58788286431E-01  0.14224383303E-01  0.25129393242E-01  0.65499184938E-01  0.51100000000E-03 0. -1.
</event>
<event>
 8    1  0.1071333E+005  0.1043930E+01  0.7957747E-01            NaN
         13   -1    0    0    0    0  0.00000000000E+00  0.00000000000E+00  0.74505805969E-08  0.10566000000E+00  0.10566000000E+00 0.  1.
     999900   -1    0    0    0    0 -0.00000000000E+00 -0.00000000000E+00 -0.74505805969E-08  0.93827000000E+00  0.93827000000E+00 0.  1.
     999902    2    1    2    0    0 -0.12848181137E-01  0.58490863598E-02 -0.28497558457E-02  0.10295283099E+01  0.10294275750E+01 0.  0.
     999903    2    3    3    0    0  0.39571073128E-01  0.25641488674E-01 -0.12880465075E+00  0.13879594101E+00  0.21220730834E-01 0.  0.
         14    1    1    2    0    0  0.12848181137E-01 -0.58490863598E-02  0.28497558457E-02  0.14401690115E-01  0.00000000000E+00 0.  1.
     999901    1    3    3    0    0 -0.52419254265E-01 -0.19792402314E-01  0.12595489490E+00  0.89073236887E+00  0.88000000000E+00 0. -1.
        -11    1    4    4    0    0  0.29195749435E-01  0.19238595377E-01 -0.11579175026E+00  0.12095662812E+00  0.51100000000E-03 0. -1.
         11    1    4    4    0    0  0.10375323694E-01  0.64028932972E-02 -0.13012900489E-01  0.17839312892E-01  0.51100000000E-03 0.  1.
</event>
<event>
 8    1  0.1071333E+005  0.1043930E+01  0.7957747E-01            NaN
         13   -1    0    0    0    0  0.00000000000E+00  0.00000000000E+00  0.74505805969E-08  0.10566000000E+00  0.10566000000E+00 0. -1.
     999900   -1    0    0    0    0 -0.00000000000E+00 -0.00000000000E+00 -0.74505805969E-08  0.93827000000E+00  0.93827000000E+00 0. -1.
     999902    2    1    2    0    0 -0.63967492887E-02  0.14739140207E-01  0.18540182805E-01  0.10193963693E+01  0.10191011033E+01 0.  0.
     999903    2    3    3    0    0 -0.20462113051E-01 -0.26009498221E-01 -0.12128774636E+00  0.12731445842E+00  0.20076400061E-01 0.  0.
         14    1    1    2    0    0  0.63967492887E-02 -0.14739140207E-01 -0.18540182805E-01  0.24533630672E-01  0.00000000000E+00 0.  1.
     999901    1    3    3    0    0  0.14065363762E-01  0.40748638427E-01  0.13982792916E+00  0.89208191091E+00  0.88000000000E+00 0.  1.
        -11    1    4    4    0    0 -0.18275762059E-01 -0.20257801225E-01 -0.62424528146E-01  0.68128296798E-01  0.51100000000E-03 0.  1.
         11    1    4    4    0    0 -0.21863509923E-02 -0.57516969953E-02 -0.58863218209E-01  0.59186161625E-01  0.51100000000E-03 0. -1.
</event>
<event>
 8    1  0.1071333E+005  0.1043930E+01  0.7957747E-01            NaN
         13   -1    0    0    0    0  0.00000000000E+00  0.00000000000E+00  0.74505805969E-08  0.10566000000E+00  0.10566000000E+00 0. -1.
     999900   -1    0    0    0    0 -0.00000000000E+00 -0.00000000000E+00 -0.74505805969E-08  0.93827000000E+00  0.93827000000E+00 0. -1.
     999902    2    1    2    0    0  0.99128881005E-02 -0.11828976950E-01  0.17793180650E-01  0.10203760763E+01  0.10201041857E+01 0.  0.
     999903    2    3    3    0    0  0.62498947209E-01 -0.48836898408E-01 -0.10106050017E+00  0.13006092008E+00  0.20284407546E-01 0.  0.
         14    1    1    2    0    0 -0.99128881005E-02  0.11828976950E-01 -0.17793180650E-01  0.23553923746E-01  0.00000000000E+00 0. -1.
     999901    1    3    3    0    0 -0.52586059109E-01  0.37007921458E-01  0.11885368082E+00  0.89031515617E+00  0.88000000000E+00 0.  1.
        -11    1    4    4    0    0  0.45894725287E-01 -0.44380373334E-01 -0.71462755580E-01  0.95828648653E-01  0.51100000000E-03 0. -1.
         11    1    4    4    0    0  0.16604221922E-01 -0.44565250736E-02 -0.29597744591E-01  0.34232271430E-01  0.51100000000E-03 0.  1.
</event>
<event>
 8    1  0.1071333E+005  0.1043930E+01  0.7957747E-01            NaN
         13   -1    0    0    0    0  0.00000000000E+00  0.00000000000E+00  0.74505805969E-08  0.10566000000E+00  0.10566000000E+00 0.  1.
     999900   -1    0    0    0    0 -0.00000000000E+00 -0.00000000000E+00 -0.74505805969E-08  0.93827000000E+00  0.93827000000E+00 0.  1.
     999902    2    1    2    0    0  0.16026817074E-01  0.60011386188E-02 -0.16996086383E-01  0.10198107238E+01  0.10195254646E+01 0.  0.
     999903    2    3    3    0    0 -0.14088676418E-01 -0.73945863970E-01 -0.10605447052E+00  0.13119952542E+00  0.17299802085E-01 0.  0.
         14    1    1    2    0    0 -0.16026817074E-01 -0.60011386188E-02  0.16996086383E-01  0.24119276163E-01  0.00000000000E+00 0.  1.
     999901    1    3    3    0    0  0.30115493493E-01  0.79947002588E-01  0.89058384132E-01  0.88861119842E+00  0.88000000000E+00 0. -1.
        -11    1    4    4    0    0 -0.94989034643E-02 -0.13409221324E-01 -0.25188969246E-01  0.30079589030E-01  0.51100000000E-03 0. -1.
         11    1    4    4    0    0 -0.45897729540E-02 -0.60536642645E-01 -0.80865501270E-01  0.10111993639E+00  0.51100000000E-03 0.  1.
</event>
<event>
 8    1  0.1071333E+005  0.1043930E+01  0.7957747E-01            NaN
         13   -1    0    0    0    0  0.00000000000E+00  0.00000000000E+00  0.74505805969E-08  0.10566000000E+00  0.10566000000E+00 0. -1.
     999900   -1    0    0    0    0 -0.00000000000E+00 -0.00000000000E+00 -0.74505805969E-08  0.93827000000E+00  0.93827000000E+00 0.  1.
     999902    2    1    2    0    0  0.41420690003E-02 -0.22390612372E-01  0.67845327040E-02  0.10201702411E+01  0.10198935213E+01 0.  0.
     999903    2    3    3    0    0  0.87767006325E-01  0.59512395769E-01  0.73801513725E-01  0.12989359387E+00  0.13450265877E-01 0.  0.
         14    1    1    2    0    0 -0.41420690003E-02  0.22390612372E-01 -0.67845327040E-02  0.23759758880E-01  0.00000000000E+00 0.  1.
     999901    1    3    3    0    0 -0.83624937325E-01 -0.81903008141E-01 -0.67016981021E-01  0.89027664725E+00  0.88000000000E+00 0.  1.
        -11    1    4    4    0    0  0.34803150069E-01  0.17341171532E-01  0.31658446429E-01  0.50144728897E-01  0.51100000000E-03 0.  1.
         11    1    4    4    0    0  0.52963856256E-01  0.42171224237E-01  0.42143067296E-01  0.79748864978E-01  0.51100000000E-03 0. -1.
</event>
<event>
 8    1  0.1071333E+005  0.1043930E+01  0.7957747E-01            NaN
         13   -1    0    0    0    0  0.00000000000E+00  0.00000000000E+00  0.74505805969E-08  0.10566000000E+00  0.10566000000E+00 0.  1.
     999900   -1    0    0    0    0 -0.00000000000E+00 -0.00000000000E+00 -0.74505805969E-08  0.93827000000E+00  0.93827000000E+00 0.  1.
     999902    2    1    2    0    0  0.69334292310E-05  0.25873953084E-01 -0.36779971380E-02  0.10177959387E+01  0.10174603598E+01 0.  0.
     999903    2    3    3    0    0  0.92916574243E-01 -0.28400459062E-01 -0.80633019710E-01  0.12790831173E+00  0.20464029343E-01 0.  0.
         14    1    1    2    0    0 -0.69334292310E-05 -0.25873953084E-01  0.36779971380E-02  0.26134061284E-01  0.00000000000E+00 0.  1.
     999901    1    3    3    0    0 -0.92909640814E-01  0.54274412146E-01  0.76955022572E-01  0.88988762699E+00  0.88000000000E+00 0.  1.
        -11    1    4    4    0    0  0.81023504193E-01 -0.21717269681E-01 -0.76791881766E-01  0.11372643607E+00  0.51100000000E-03 0. -1.
         11    1    4    4    0    0  0.11893070051E-01 -0.66831893813E-02 -0.38411379444E-02  0.14181875660E-01  0.51100000000E-03 0.  1.
</event>
<event>
 8    1  0.1071333E+005  0.1043930E+01  0.7957747E-01            NaN
         13   -1    0    0    0    0  0.00000000000E+00  0.00000000000E+00  0.74505805969E-08  0.10566000000E+00  0.10566000000E+00 0.  1.
     999900   -1    0    0    0    0 -0.00000000000E+00 -0.00000000000E+00 -0.74505805969E-08  0.93827000000E+00  0.93827000000E+00 0. -1.
     999902    2    1    2    0    0 -0.14575225140E-01  0.15528726662E-01  0.11025011660E-01  0.10199481439E+01  0.10196661644E+01 0.  0.
     999903    2    3    3    0    0 -0.12206471387E+00  0.58380090678E-03 -0.44667539017E-01  0.13153438828E+00  0.20148723597E-01 0.  0.
         14    1    1    2    0    0  0.14575225140E-01 -0.15528726662E-01 -0.11025011660E-01  0.23981856094E-01  0.00000000000E+00 0. -1.
     999901    1    3    3    0    0  0.10748948873E+00  0.14944925755E-01  0.55692550677E-01  0.88841375563E+00  0.88000000000E+00 0.  1.
        -11    1    4    4    0    0 -0.11077735392E+00  0.17075808964E-02 -0.33839281950E-01  0.11584427521E+00  0.51100000000E-03 0. -1.
         11    1    4    4    0    0 -0.11287359941E-01 -0.11237799896E-02 -0.10828257066E-01  0.15690113065E-01  0.51100000000E-03 0.  1.
</event>
<event>
 8    1  0.1071333E+005  0.1043930E+01  0.7957747E-01            NaN
         13   -1    0    0    0    0  0.00000000000E+00  0.00000000000E+00  0.74505805969E-08  0.10566000000E+00  0.10566000000E+00 0.  1.
     999900   -1    0    0    0    0 -0.00000000000E+00 -0.00000000000E+00 -0.74505805969E-08  0.93827000000E+00  0.93827000000E+00 0.  1.
     999902    2    1    2    0    0 -0.20586785634E-01  0.96615694725E-02  0.61540603649E-02  0.10203708377E+01  0.10200988248E+01 0.  0.
     999903    2    3    3    0    0  0.91994569299E-01 -0.72913725536E-01  0.48413531948E-01  0.12836237155E+00  0.18804685614E-01 0.  0.
         14    1    1    2    0    0  0.20586785634E-01 -0.96615694725E-02 -0.61540603649E-02  0.23559162260E-01  0.00000000000E+00 0. -1.
     999901    1    3    3    0    0 -0.11258135493E+00  0.82575295009E-01 -0.42259471583E-01  0.89200846619E+00  0.88000000000E+00 0.  1.
        -11    1    4    4    0    0  0.80541179719E-01 -0.70728632726E-01  0.44376406864E-01  0.11601270502E+00  0.51100000000E-03 0.  1.
         11    1    4    4    0    0  0.11453389580E-01 -0.21850928100E-02  0.40371250834E-02  0.12349666530E-01  0.51100000000E-03 0. -1.
</event>
<event>
 8    1  0.1071333E+005  0.1043930E+01  0.7957747E-01            NaN
         13   -1    0    0    0    0  0.00000000000E+00  0.00000000000E+00  0.74505805969E-08  0.10566000000E+00  0.10566000000E+00 0.  1.
     999900   -1    0    0    0    0 -0.00000000000E+00 -0.00000000000E+00 -0.74505805969E-08  0.93827000000E+00  0.93827000000E+00 0. -1.
     999902    2    1    2    0    0  0.16676476086E-01 -0.95353611329E-02  0.21147162092E-01  0.10153602532E+01  0.10149582323E+01 0.  0.
     999903    2    3    3    0    0 -0.13519127098E-01  0.26250465216E-01 -0.11795605087E+00  0.12320437913E+00  0.19845286011E-01 0.  0.
         14    1    1    2    0    0 -0.16676476086E-01  0.95353611329E-02 -0.21147162092E-01  0.28569746781E-01  0.00000000000E+00 0. -1.
     999901    1    3    3    0    0  0.30195603184E-01 -0.35785826349E-01  0.13910321297E+00  0.89215587409E+00  0.88000000000E+00 0.  1.
        -11    1    4    4    0    0 -0.37002154869E-02  0.22249109323E-01 -0.98398996183E-01  0.10095215714E+00  0.51100000000E-03 0.  1.
         11    1    4    4    0    0 -0.98189116113E-02  0.40013558930E-02 -0.19557054691E-01  0.22252221988E-01  0.51100000000E-03 0. -1.
</event>
<event>
 8    1  0.1071333E+005  0.1043930E+01  0.7957747E-01            NaN
         13   -1    0    0    0    0  0.00000000000E+00  0.00000000000E+00  0.74505805969E-08  0.10566000000E+00  0.10566000000E+00 0.  1.
     999900   -1    0    0    0    0 -0.00000000000E+00 -0.00000000000E+00 -0.74505805969E-08  0.93827000000E+00  0.93827000000E+00 0. -1.
     999902    2    1    2    0    0  0.78799678085E-02  0.55667732315E-02  0.21214483238E-01  0.10206246968E+01  0.10203585814E+01 0.  0.
     999903    2    3    3    0    0  0.81711392493E-01 -0.12405405138E-01 -0.98013861957E-01  0.12933940201E+00  0.17068041365E-01 0.  0.
         14    1    1    2    0    0 -0.78799678085E-02 -0.55667732315E-02 -0.21214483238E-01  0.23305303172E-01  0.00000000000E+00 0. -1.
     999901    1    3    3    0    0 -0.73831424685E-01  0.17972178369E-01  0.11922834520E+00  0.89128529482E+00  0.88000000000E+00 0.  1.
        -11    1    4    4    0    0  0.12566933805E-01 -0.68628794909E-02 -0.23589929794E-01  0.27600232768E-01  0.51100000000E-03 0.  1.
         11    1    4    4    0    0  0.69144458688E-01 -0.55425256468E-02 -0.74423932163E-01  0.10173916924E+00  0.51100000000E-03 0. -1.
</event>
<event>
 8    1  0.1071333E+005  0.1043930E+01  0.7957747E-01            NaN
         13   -1    0    0    0    0  0.00000000000E+00  0.00000000000E+00  0.74505805969E-08  0.10566000000E+00  0.10566000000E+00 0. -1.
     999900   -1    0    0    0    0 -0.00000000000E+00 -0.00000000000E+00 -0.74505805969E-08  0.93827000000E+00  0.93827000000E+00 0.  1.
     999902    2    1    2    0    0 -0.22910201095E-01 -0.43049195519E-02 -0.30295173013E-02  0.10204228177E+01  0.10201520177E+01 0.  0.
     999903    2    3    3    0    0 -0.52415736659E-01  0.11042316541E+00  0.42649728258E-01  0.13131106789E+00  0.21975266095E-01 0.  0.
         14    1    1    2    0    0  0.22910201095E-01  0.43049195519E-02  0.30295173013E-02  0.23507182342E-01  0.00000000000E+00 0. -1.
     999901    1    3    3    0    0  0.29505535564E-01 -0.11472808496E+00 -0.45679245560E-01  0.88911174977E+00  0.88000000000E+00 0. -1.
        -11    1    4    4    0    0 -0.46971612303E-01  0.93027025169E-01  0.27973310389E-01  0.10790332242E+00  0.51100000000E-03 0.  1.
         11    1    4    4    0    0 -0.54441243556E-02  0.17396140242E-01  0.14676417869E-01  0.23407745466E-01  0.51100000000E-03 0. -1.
</event>
<event>
 8    1  0.1071333E+005  0.1043930E+01  0.7957747E-01            NaN
         13   -1    0    0    0    0  0.00000000000E+00  0.00000000000E+00  0.74505805969E-08  0.10566000000E+00  0.10566000000E+00 0.  1.
     999900   -1    0    0    0    0 -0.00000000000E+00 -0.00000000000E+00 -0.74505805969E-08  0.93827000000E+00  0.93827000000E+00 0. -1.
     999902    2    1    2    0    0  0.22711227503E-01 -0.64811236490E-02 -0.84019511503E-02  0.10188621401E+01  0.10185537113E+01 0.  0.
     999903    2    3    3    0    0 -0.91972744268E-02 -0.12586548434E+00  0.23635172351E-01  0.12965060429E+00  0.17998550411E-01 0.  0.
         14    1    1    2    0    0 -0.22711227503E-01  0.64811236490E-02  0.84019511503E-02  0.25067859932E-01  0.00000000000E+00 0. -1.
     999901    1    3    3    0    0  0.31908501930E-01  0.11938436069E+00 -0.32037123501E-01  0.88921153577E+00  0.88000000000E+00 0.  1.
        -11    1    4    4    0    0 -0.11803852423E-01 -0.44488345636E-01  0.72531654496E-02  0.46598426577E-01  0.51100000000E-03 0. -1.
         11    1    4    4    0    0  0.26065779958E-02 -0.81377138703E-01  0.16382006901E-01  0.83052177716E-01  0.51100000000E-03 0.  1.
</event>
<event>
 8    1  0.1071333E+005  0.1043930E+01  0.7957747E-01            NaN
         13   -1    0    0    0    0  0.00000000000E+00  0.00000000000E+00  0.74505805969E-08  0.10566000000E+00  0.10566000000E+00 0.  1.
     999900   -1    0    0    0    0 -0.00000000000E+00 -0.00000000000E+00 -0.74505805969E-08  0.93827000000E+00  0.93827000000E+00 0. -1.
     999902    2    1    2    0    0 -0.56700348361E-04 -0.38348615681E-02 -0.23071269493E-01  0.10205421216E+01  0.10202740951E+01 0.  0.
     999903    2    3    3    0    0  0.39526129149E-01 -0.12154183627E+00  0.17353524657E-01  0.13090405126E+00  0.22360522567E-01 0.  0.
         14    1    1    2    0    0  0.56700348361E-04  0.38348615681E-02  0.23071269493E-01  0.23387878360E-01  0.00000000000E+00 0.  1.
     999901    1    3    3    0    0 -0.39582829497E-01  0.11770697470E+00 -0.40424794150E-01  0.88963807038E+00  0.88000000000E+00 0.  1.
        -11    1    4    4    0    0  0.31300596255E-01 -0.60566190037E-01  0.10755094297E-01  0.69021184254E-01  0.51100000000E-03 0.  1.
         11    1    4    4    0    0  0.82255328939E-02 -0.60975646232E-01  0.65984303607E-02  0.61882867008E-01  0.51100000000E-03 0. -1.
</event>
<event>
 8    1  0.1071333E+005  0.1043930E+01  0.7957747E-01            NaN
         13   -1    0    0    0    0  0.00000000000E+00  0.00000000000E+00  0.74505805969E-08  0.10566000000E+00  0.10566000000E+00 0. -1.
     999900   -1    0    0    0    0 -0.00000000000E+00 -0.00000000000E+00 -0.74505805969E-08  0.93827000000E+00  0.93827000000E+00 0. -1.
     999902    2    1    2    0    0  0.23167286555E-01  0.17994122574E-02 -0.63321763485E-03  0.10206843119E+01  0.10204195718E+01 0.  0.
     999903    2    3    3    0    0 -0.91368880817E-01 -0.88072086998E-01 -0.78726330415E-02  0.12869337632E+00  0.19875660186E-01 0.  0.
         14    1    1    2    0    0 -0.23167286555E-01 -0.17994122574E-02  0.63321763485E-03  0.23245688103E-01  0.00000000000E+00 0.  1.
     999901    1    3    3    0    0  0.11453616737E+00  0.89871499256E-01  0.72394154066E-02  0.89199093558E+00  0.88000000000E+00 0. -1.
        -11    1    4    4    0    0 -0.38485728950E-01 -0.34700911275E-01 -0.12853818644E-01  0.53392755602E-01  0.51100000000E-03 0.  1.
         11    1    4    4    0    0 -0.52883151867E-01 -0.53371175724E-01  0.49811856027E-02  0.75300620718E-01  0.51100000000E-03 0. -1.
</event>
<event>
 8    1  0.1071333E+005  0.1043930E+01  0.7957747E-01            NaN
         13   -1    0    0    0    0  0.00000000000E+00  0.00000000000E+00  0.74505805969E-08  0.10566000000E+00  0.10566000000E+00 0. -1.
     999900   -1    0    0    0    0 -0.00000000000E+00 -0.00000000000E+00 -0.74505805969E-08  0.93827000000E+00  0.93827000000E+00 0.  1.
     999902    2    1    2    0    0 -0.15314771482E-01 -0.14324629628E-01  0.98818416008E-02  0.10207483686E+01  0.10204851023E+01 0.  0.
     999903    2    3    3    0    0  0.70170005830E-01 -0.57318753755E-01 -0.90875531851E-01  0.12984534912E+00  0.19803614558E-01 0.  0.
         14    1    1    2    0    0  0.15314771482E-01  0.14324629628E-01 -0.98818416008E-02  0.23181631370E-01  0.00000000000E+00 0.  1.
     999901    1    3    3    0    0 -0.85484777312E-01  0.42994124127E-01  0.10075737345E+00  0.89090301951E+00  0.88000000000E+00 0. -1.
        -11    1    4    4    0    0  0.45214543757E-01 -0.33295748654E-01 -0.42881545565E-01  0.70654440176E-01  0.51100000000E-03 0.  1.
         11    1    4    4    0    0  0.24955462073E-01 -0.24023005102E-01 -0.47993986286E-01  0.59190908947E-01  0.51100000000E-03 0. -1.
</event>
<event>
 8    1  0.1071333E+005  0.1043930E+01  0.7957747E-01            NaN
         13   -1    0    0    0    0  0.00000000000E+00  0.00000000000E+00  0.74505805969E-08  0.10566000000E+00  0.10566000000E+00 0.  1.
     999900   -1    0    0    0    0 -0.00000000000E+00 -0.00000000000E+00 -0.74505805969E-08  0.93827000000E+00  0.93827000000E+00 0.  1.
     999902    2    1    2    0    0 -0.17588354815E-01 -0.35405484366E-02  0.21198710992E-01  0.10161582328E+01  0.10157786584E+01 0.  0.
     999903    2    3    3    0    0  0.16575339105E-01 -0.38850905845E-01  0.12045056412E+00  0.12921691019E+00  0.20113098449E-01 0.  0.
         14    1    1    2    0    0  0.17588354815E-01  0.35405484366E-02 -0.21198710992E-01  0.27771767247E-01  0.00000000000E+00 0. -1.
     999901    1    3    3    0    0 -0.34163693919E-01  0.35310357408E-01 -0.99251853133E-01  0.88694132256E+00  0.88000000000E+00 0.  1.
        -11    1    4    4    0    0  0.11573002337E-01 -0.14129628340E-01  0.28382556390E-01  0.33755168617E-01  0.51100000000E-03 0. -1.
         11    1    4    4    0    0  0.50023367678E-02 -0.24721277505E-01  0.92068007734E-01  0.95461741571E-01  0.51100000000E-03 0.  1.
</event>
<event>
 8    1  0.1071333E+005  0.1043930E+01  0.7957747E-01            NaN
         13   -1    0    0    0    0  0.00000000000E+00  0.00000000000E+00  0.74505805969E-08  0.10566000000E+00  0.10566000000E+00 0. -1.
     999900   -1    0    0    0    0 -0.00000000000E+00 -0.00000000000E+00 -0.74505805969E-08  0.93827000000E+00  0.93827000000E+00 0.  1.
     999902    2    1    2    0    0 -0.46523642849E-02 -0.20325559185E-01  0.10689748013E-01  0.10204983214E+01  0.10202292784E+01 0.  0.
     999903    2    3    3    0    0  0.62295789092E-01 -0.91168139982E-01  0.71463943873E-01  0.13303326328E+00  0.19958927290E-01 0.  0.
         14    1    1    2    0    0  0.46523642849E-02  0.20325559185E-01 -0.10689748013E-01  0.23431678604E-01  0.00000000000E+00 0.  1.
     999901    1    3    3    0    0 -0.66948153377E-01  0.70842580796E-01 -0.60774195860E-01  0.88746505812E+00  0.88000000000E+00 0.  1.
        -11    1    4    4    0    0  0.60887469996E-01 -0.82568616143E-01  0.69960586621E-01  0.12417570284E+00  0.51100000000E-03 0.  1.
         11    1    4    4    0    0  0.14083190961E-02 -0.85995238386E-02  0.15033572525E-02  0.88575604404E-02  0.51100000000E-03 0. -1.
</event>
<event>
 8    1  0.1071333E+005  0.1043930E+01  0.7957747E-01            NaN
         13   -1    0    0    0    0  0.00000000000E+00  0.00000000000E+00  0.74505805969E-08  0.10566000000E+00  0.10566000000E+00 0. -1.
     999900   -1    0    0    0    0 -0.00000000000E+00 -0.00000000000E+00 -0.74505805969E-08  0.93827000000E+00  0.93827000000E+00 0.  1.
     999902    2    1    2    0    0  0.31838500308E-02 -0.22835584172E-01  0.41639681382E-02  0.10205005434E+01  0.10202315520E+01 0.  0.
     999903    2    3    3    0    0  0.35377836265E-01  0.12068051344E+00 -0.11048128469E-01  0.12816387437E+00  0.22102939385E-01 0.  0.
         14    1    1    2    0    0 -0.31838500308E-02  0.22835584172E-01 -0.41639681382E-02  0.23429456591E-01  0.00000000000E+00 0. -1.
     999901    1    3    3    0    0 -0.32193986234E-01 -0.14351609761E+00  0.15212096607E-01  0.89233666904E+00  0.88000000000E+00 0. -1.
        -11    1    4    4    0    0  0.66718341462E-02  0.20652196806E-01 -0.10453966539E-01  0.24095085415E-01  0.51100000000E-03 0.  1.
         11    1    4    4    0    0  0.28706002118E-01  0.10002831663E+00 -0.59416192984E-03  0.10406878896E+00  0.51100000000E-03 0. -1.
</event>
<event>
 8    1  0.1071333E+005  0.1043930E+01  0.7957747E-01            NaN
         13   -1    0    0    0    0  0.00000000000E+00  0.00000000000E+00  0.74505805969E-08  0.10566000000E+00  0.10566000000E+00 0.  1.
     999900   -1    0    0    0    0 -0.00000000000E+00 -0.00000000000E+00 -0.74505805969E-08  0.93827000000E+00  0.93827000000E+00 0.  1.
     999902    2    1    2    0    0  0.11422839497E-01  0.10862158199E-01 -0.18069451138E-01  0.10199514094E+01  0.10196695076E+01 0.  0.
     999903    2    3    3    0    0 -0.81323415040E-01  0.99614336396E-01  0.61984596348E-02  0.13030667786E+00  0.20122016364E-01 0.  0.
         14    1    1    2    0    0 -0.11422839497E-01 -0.10862158199E-01  0.18069451138E-01  0.23978590603E-01  0.00000000000E+00 0.  1.
     999901    1    3    3    0    0  0.92746254537E-01 -0.88752178197E-01 -0.24267910772E-01  0.88964473154E+00  0.88000000000E+00 0.  1.
        -11    1    4    4    0    0 -0.12604645197E-01  0.90118106173E-02  0.59062988142E-02  0.16590216932E-01  0.51100000000E-03 0.  1.
         11    1    4    4    0    0 -0.68718769843E-01  0.90602525779E-01  0.29216082053E-03  0.11371646092E+00  0.51100000000E-03 0. -1.
</event>
<event>
 8    1  0.1071333E+005  0.1043930E+01  0.7957747E-01            NaN
         13   -1    0    0    0    0  0.00000000000E+00  0.00000000000E+00  0.74505805969E-08  0.10566000000E+00  0.10566000000E+00 0.  1.
     999900   -1    0    0    0    0 -0.00000000000E+00 -0.00000000000E+00 -0.74505805969E-08  0.93827000000E+00  0.93827000000E+00 0.  1.
     999902    2    1    2    0    0 -0.16342363512E-01 -0.16624091337E-01  0.41946493491E-02  0.10202439632E+01  0.10199689780E+01 0.  0.
     999903    2    3    3    0    0  0.10549620642E+00 -0.15657554482E-01 -0.69248125166E-01  0.12881846855E+00  0.20598213974E-01 0.  0.
         14    1    1    2    0    0  0.16342363512E-01  0.16624091337E-01 -0.41946493491E-02  0.23686036838E-01  0.00000000000E+00 0.  1.
     999901    1    3    3    0    0 -0.12183856993E+00 -0.96653685435E-03  0.73442774515E-01  0.89142549461E+00  0.88000000000E+00 0. -1.
        -11    1    4    4    0    0  0.85601345993E-01 -0.11161353000E-01 -0.45758342682E-01  0.97704929674E-01  0.51100000000E-03 0.  1.
         11    1    4    4    0    0  0.19894860428E-01 -0.44962014818E-02 -0.23489782484E-01  0.31113538876E-01  0.51100000000E-03 0. -1.
</event>
<event>
 8    1  0.1071333E+005  0.1043930E+01  0.7957747E-01            NaN
         13   -1    0    0    0    0  0.00000000000E+00  0.00000000000E+00  0.74505805969E-08  0.10566000000E+00  0.10566000000E+00 0.  1.
     999900   -1    0    0    0    0 -0.00000000000E+00 -0.00000000000E+00 -0.74505805969E-08  0.93827000000E+00  0.93827000000E+00 0. -1.
     999902    2    1    2    0    0 -0.14736131083E-01  0.11469983708E-01  0.14823716327E-01  0.10200876710E+01  0.10198090017E+01 0.  0.
     999903    2    3    3    0    0 -0.26611809659E-01 -0.12261214624E+00 -0.20463971033E-01  0.12915317837E+00  0.22800056020E-01 0.  0.
         14    1    1    2    0    0  0.14736131083E-01 -0.11469983708E-01 -0.14823716327E-01  0.23842328983E-01  0.00000000000E+00 0. -1.
     999901    1    3    3    0    0  0.11875678575E-01  0.13408212994E+00  0.35287687361E-01  0.89093449265E+00  0.88000000000E+00 0. -1.
        -11    1    4    4    0    0 -0.12130069034E-01 -0.24604789627E-01  0.21865259151E-02  0.27524103327E-01  0.51100000000E-03 0.  1.
         11    1    4    4    0    0 -0.14481740625E-01 -0.98007356608E-01 -0.22650496948E-01  0.10162907504E+00  0.51100000000E-03 0. -1.
</event>
<event>
 8    1  0.1071333E+005  0.1043930E+01  0.7957747E-01            NaN
         13   -1    0    0    0    0  0.00000000000E+00  0.00000000000E+00  0.74505805969E-08  0.10566000000E+00  0.10566000000E+00 0.  1.
     999900   -1    0    0    0    0 -0.00000000000E+00 -0.00000000000E+00 -0.74505805969E-08  0.93827000000E+00  0.93827000000E+00 0. -1.
     999902    2    1    2    0    0 -0.26823197128E-02  0.22852405612E-01 -0.85178227142E-02  0.10193947074E+01  0.10190994008E+01 0.  0.
     999903    2    3    3    0    0 -0.15966525874E-01 -0.29679818817E-01  0.12210468326E+00  0.12810443825E+00  0.19114701969E-01 0.  0.
         14    1    1    2    0    0  0.26823197128E-02 -0.22852405612E-01  0.85178227142E-02  0.24535292643E-01  0.00000000000E+00 0.  1.
     999901    1    3    3    0    0  0.13284206161E-01  0.52532224429E-01 -0.13062250598E+00  0.89129026911E+00  0.88000000000E+00 0. -1.
        -11    1    4    4    0    0 -0.83033139823E-02 -0.35372420184E-03  0.30350642061E-01  0.31472094598E-01  0.51100000000E-03 0. -1.
         11    1    4    4    0    0 -0.76632118917E-02 -0.29326094616E-01  0.91754041201E-01  0.96632343652E-01  0.51100000000E-03 0.  1.
</event>
<event>
 8    1  0.1071333E+005  0.1043930E+01  0.7957747E-01            NaN
         13   -1    0    0    0    0  0.00000000000E+00  0.00000000000E+00  0.74505805969E-08  0.10566000000E+00  0.10566000000E+00 0. -1.
     999900   -1    0    0    0    0 -0.00000000000E+00 -0.00000000000E+00 -0.74505805969E-08  0.93827000000E+00  0.93827000000E+00 0. -1.
     999902    2    1    2    0    0  0.72750706410E-02  0.20894518971E-01  0.10243052409E-01  0.10195491120E+01  0.10192575553E+01 0.  0.
     999903    2    3    3    0    0  0.11597400175E+00  0.19677991822E-01 -0.52704644940E-01  0.13062878367E+00  0.21187427417E-01 0.  0.
         14    1    1    2    0    0 -0.72750706410E-02 -0.20894518971E-01 -0.10243052409E-01  0.24380887976E-01  0.00000000000E+00 0.  1.
     999901    1    3    3    0    0 -0.10869893111E+00  0.12165271492E-02  0.62947697348E-01  0.88892032836E+00  0.88000000000E+00 0. -1.
        -11    1    4    4    0    0  0.62738201939E-01  0.15763563406E-01 -0.38920244700E-01  0.75495817647E-01  0.51100000000E-03 0.  1.
         11    1    4    4    0    0  0.53235799810E-01  0.39144284162E-02 -0.13784400240E-01  0.55132966021E-01  0.51100000000E-03 0. -1.
</event>
<event>
 8    1  0.1265851E+005  0.1043930E+01  0.7957747E-01            NaN
         13   -1    0    0    0    0  0.00000000000E+00  0.00000000000E+00  0.74505805969E-08  0.10566000000E+00  0.10566000000E+00 0.  1.
     999900   -1    0    0    0    0 -0.00000000000E+00 -0.00000000000E+00 -0.74505805969E-08  0.93827000000E+00  0.93827000000E+00 0.  1.
     999902    2    1    2    0    0 -0.82795566611E-02 -0.33574588884E-02  0.21124535222E-01  0.10209937933E+01  0.10207361346E+01 0.  0.
     999903    2    3    3    0    0 -0.54585191955E-01  0.55272244347E-01  0.10688215047E+00  0.13367422150E+00  0.20259299775E-01 0.  0.
         14    1    1    2    0    0  0.82795566611E-02  0.33574588884E-02 -0.21124535222E-01  0.22936206684E-01  0.00000000000E+00 0. -1.
     999901    1    3    3    0    0  0.46305635294E-01 -0.58629703235E-01 -0.85757615249E-01  0.88731957182E+00  0.88000000000E+00 0. -1.
        -11    1    4    4    0    0 -0.18778270531E-01  0.19214784648E-01  0.54089025316E-01  0.60396317552E-01  0.51100000000E-03 0. -1.
         11    1    4    4    0    0 -0.35806921424E-01  0.36057459699E-01  0.52793125155E-01  0.73277903945E-01  0.51100000000E-03 0.  1.
</event>
<event>
 8    1  0.1071333E+005  0.1043930E+01  0.7957747E-01            NaN
         13   -1    0    0    0    0  0.00000000000E+00  0.00000000000E+00  0.74505805969E-08  0.10566000000E+00  0.10566000000E+00 0. -1.
     999900   -1    0    0    0    0 -0.00000000000E+00 -0.00000000000E+00 -0.74505805969E-08  0.93827000000E+00  0.93827000000E+00 0.  1.
     999902    2    1    2    0    0 -0.33727278639E-02  0.76653381773E-02 -0.21872861054E-01  0.10205087542E+01  0.10202399535E+01 0.  0.
     999903    2    3    3    0    0 -0.64730505980E-01  0.10415937026E+00 -0.47060000238E-01  0.13275300678E+00  0.19222496393E-01 0.  0.
         14    1    1    2    0    0  0.33727278639E-02 -0.76653381773E-02  0.21872861054E-01  0.23421245767E-01  0.00000000000E+00 0. -1.
     999901    1    3    3    0    0  0.61357778116E-01 -0.96494032085E-01  0.25187139184E-01  0.88775574746E+00  0.88000000000E+00 0.  1.
        -11    1    4    4    0    0 -0.46356665347E-01  0.68853945780E-01 -0.22575548583E-01  0.86021641385E-01  0.51100000000E-03 0.  1.
         11    1    4    4    0    0 -0.18373840633E-01  0.35305424482E-01 -0.24484451655E-01  0.46731365391E-01  0.51100000000E-03 0. -1.
</event>
<event>
 8    1  0.1071333E+005  0.1043930E+01  0.7957747E-01            NaN
         13   -1    0    0    0    0  0.00000000000E+00  0.00000000000E+00  0.74505805969E-08  0.10566000000E+00  0.10566000000E+00 0. -1.
     999900   -1    0    0    0    0 -0.00000000000E+00 -0.00000000000E+00 -0.74505805969E-08  0.93827000000E+00  0.93827000000E+00 0. -1.
     999902    2    1    2    0    0 -0.10641695150E-01  0.18895965441E-01 -0.95819523003E-02  0.10202209934E+01  0.10199454683E+01 0.  0.
     999903    2    3    3    0    0 -0.11542966260E+00  0.29054629572E-01  0.52986840081E-01  0.13173994666E+00  0.19484091371E-01 0.  0.
         14    1    1    2    0    0  0.10641695150E-01 -0.18895965441E-01  0.95819523003E-02  0.23709006632E-01  0.00000000000E+00 0. -1.
     999901    1    3    3    0    0  0.10478796745E+00 -0.10158664131E-01 -0.62568792382E-01  0.88848104671E+00  0.88000000000E+00 0. -1.
        -11    1    4    4    0    0 -0.75006349032E-01  0.17099679953E-01  0.24038617595E-01  0.80600668152E-01  0.51100000000E-03 0.  1.
         11    1    4    4    0    0 -0.40423313568E-01  0.11954949619E-01  0.28948222486E-01  0.51139278508E-01  0.51100000000E-03 0. -1.
</event>
<event>
 8    1  0.1071333E+005  0.1043930E+01  0.7957747E-01            NaN
         13   -1    0    0    0    0  0.00000000000E+00  0.00000000000E+00  0.74505805969E-08  0.10566000000E+00  0.10566000000E+00 0.  1.
     999900   -1    0    0    0    0 -0.00000000000E+00 -0.00000000000E+00 -0.74505805969E-08  0.93827000000E+00  0.93827000000E+00 0. -1.
     999902    2    1    2    0    0 -0.19060210612E-01 -0.13110641430E-01 -0.31016629013E-02  0.10205890304E+01  0.10203220904E+01 0.  0.
     999903    2    3    3    0    0 -0.11907366895E+00 -0.35048314130E-01 -0.45589356783E-01  0.13363403865E+00  0.19306575877E-01 0.  0.
         14    1    1    2    0    0  0.19060210612E-01  0.13110641430E-01  0.31016629013E-02  0.23340969560E-01  0.00000000000E+00 0.  1.
     999901    1    3    3    0    0  0.10001345834E+00  0.21937672701E-01  0.42487693882E-01  0.88695499179E+00  0.88000000000E+00 0. -1.
        -11    1    4    4    0    0 -0.32248187208E-01 -0.86398195062E-02 -0.21585179441E-01  0.39758938011E-01  0.51100000000E-03 0. -1.
         11    1    4    4    0    0 -0.86825481745E-01 -0.26408494624E-01 -0.24004177342E-01  0.93875100636E-01  0.51100000000E-03 0.  1.
</event>
<event>
 8    1  0.1071333E+005  0.1043930E+01  0.7957747E-01            NaN
         13   -1    0    0    0    0  0.00000000000E+00  0.00000000000E+00  0.74505805969E-08  0.10566000000E+00  0.10566000000E+00 0.  1.
     999900   -1    0    0    0    0 -0.00000000000E+00 -0.00000000000E+00 -0.74505805969E-08  0.93827000000E+00  0.93827000000E+00 0.  1.
     999902    2    1    2    0    0  0.99841034999E-02  0.90397578925E-02 -0.19108122085E-01  0.10205522355E+01  0.10202844434E+01 0.  0.
     999903    2    3    3    0    0  0.52957794754E-01  0.11801834979E+00 -0.21187063170E-01  0.13278684211E+00  0.21227220257E-01 0.  0.
         14    1    1    2    0    0 -0.99841034999E-02 -0.90397578925E-02  0.19108122085E-01  0.23377764544E-01  0.00000000000E+00 0.  1.
     999901    1    3    3    0    0 -0.42973691254E-01 -0.10897859189E+00  0.20789410852E-02  0.88776539335E+00  0.88000000000E+00 0. -1.
        -11    1    4    4    0    0  0.26276745684E-01  0.82823864977E-01 -0.15251191154E-01  0.88221992304E-01  0.51100000000E-03 0. -1.
         11    1    4    4    0    0  0.26681049070E-01  0.35194484808E-01 -0.59358720165E-02  0.44564849804E-01  0.51100000000E-03 0.  1.
</event>
<event>
 8    1  0.1071333E+005  0.1043930E+01  0.7957747E-01            NaN
         13   -1    0    0    0    0  0.00000000000E+00  0.00000000000E+00  0.74505805969E-08  0.10566000000E+00  0.10566000000E+00 0. -1.
     999900   -1    0    0    0    0 -0.00000000000E+00 -0.00000000000E+00 -0.74505805969E-08  0.93827000000E+00  0.93827000000E+00 0. -1.
     999902    2    1    2    0    0  0.42500512793E-02  0.22803921475E-01 -0.23963477601E-02  0.10206099603E+01  0.10203435043E+01 0.  0.
     999903    2    3    3    0    0 -0.31765916380E-01 -0.19588918106E-01  0.12299985883E+00  0.12998180475E+00  0.19326280994E-01 0.  0.
         14    1    1    2    0    0 -0.42500512793E-02 -0.22803921475E-01  0.23963477601E-02  0.23320039732E-01  0.00000000000E+00 0. -1.
     999901    1    3    3    0    0  0.36015967659E-01  0.42392839581E-01 -0.12539620659E+00  0.89062815552E+00  0.88000000000E+00 0. -1.
        -11    1    4    4    0    0 -0.24897059531E-01 -0.58871387565E-02  0.61764458700E-01  0.66855302374E-01  0.51100000000E-03 0.  1.
         11    1    4    4    0    0 -0.68688568494E-02 -0.13701779349E-01  0.61235400133E-01  0.63126502375E-01  0.51100000000E-03 0. -1.
</event>
<event>
 8    1  0.1071333E+005  0.1043930E+01  0.7957747E-01            NaN
         13   -1    0    0    0    0  0.00000000000E+00  0.00000000000E+00  0.74505805969E-08  0.10566000000E+00  0.10566000000E+00 0. -1.
     999900   -1    0    0    0    0 -0.00000000000E+00 -0.00000000000E+00 -0.74505805969E-08  0.93827000000E+00  0.93827000000E+00 0.  1.
     999902    2    1    2    0    0  0.11520740180E-01  0.19847308727E-01 -0.60494013004E-02  0.10201973564E+01  0.10199212752E+01 0.  0.
     999903    2    3    3    0    0  0.11971144640E+00 -0.10515176795E-01 -0.50452517738E-01  0.13194134248E+00  0.20534409354E-01 0.  0.
         14    1    1    2    0    0 -0.11520740180E-01 -0.19847308727E-01  0.60494013004E-02  0.23732643639E-01  0.00000000000E+00 0.  1.
     999901    1    3    3    0    0 -0.10819070622E+00  0.30362485522E-01  0.44403116438E-01  0.88825601388E+00  0.88000000000E+00 0. -1.
        -11    1    4    4    0    0  0.88078815056E-01  0.87280645620E-03 -0.39902311111E-01  0.96701060003E-01  0.51100000000E-03 0. -1.
         11    1    4    4    0    0  0.31632631346E-01 -0.11387983251E-01 -0.10550206628E-01  0.35240282481E-01  0.51100000000E-03 0.  1.
</event>
<event>
 8    1  0.1071333E+005  0.1043930E+01  0.7957747E-01            NaN
         13   -1    0    0    0    0  0.00000000000E+00  0.00000000000E+00  0.74505805969E-08  0.10566000000E+00  0.10566000000E+00 0. -1.
     999900   -1    0    0    0    0 -0.00000000000E+00 -0.00000000000E+00 -0.74505805969E-08  0.93827000000E+00  0.93827000000E+00 0.  1.
     999902    2    1    2    0    0 -0.12292056383E-01 -0.11723997824E-01 -0.58963919691E-02  0.10259490597E+01  0.10257914793E+01 0.  0.
     999903    2    3    3    0    0 -0.13401365722E+00 -0.46693631825E-02  0.20552665832E-01  0.13714904361E+00  0.20149064928E-01 0.  0.
         14    1    1    2    0    0  0.12292056383E-01  0.11723997824E-01  0.58963919691E-02  0.17980940280E-01  0.00000000000E+00 0.  1.
     999901    1    3    3    0    0  0.12172160083E+00 -0.70546346416E-02 -0.26449057801E-01  0.88880001611E+00  0.88000000000E+00 0.  1.
        -11    1    4    4    0    0 -0.69730772336E-01 -0.73787784123E-02  0.18594608342E-02  0.70146601465E-01  0.51100000000E-03 0. -1.
         11    1    4    4    0    0 -0.64282884879E-01  0.27094152299E-02  0.18693204998E-01  0.67002442145E-01  0.51100000000E-03 0.  1.
</event>
<event>
 8    1  0.1071333E+005  0.1043930E+01  0.7957747E-01            NaN
         13   -1    0    0    0    0  0.00000000000E+00  0.00000000000E+00  0.74505805969E-08  0.10566000000E+00  0.10566000000E+00 0. -1.
     999900   -1    0    0    0    0 -0.00000000000E+00 -0.00000000000E+00 -0.74505805969E-08  0.93827000000E+00  0.93827000000E+00 0.  1.
     999902    2    1    2    0    0 -0.13443289743E-01  0.18885662599E-01  0.60174317326E-02  0.10199800569E+01  0.10196988363E+01 0.  0.
     999903    2    3    3    0    0  0.10914948036E-01 -0.44315597389E-01  0.11985519687E+00  0.13006615105E+00  0.21654726288E-01 0.  0.
         14    1    1    2    0    0  0.13443289743E-01 -0.18885662599E-01 -0.60174317326E-02  0.23949943122E-01  0.00000000000E+00 0.  1.
     999901    1    3    3    0    0 -0.24358237779E-01  0.63201259988E-01 -0.11383776514E+00  0.88991390583E+00  0.88000000000E+00 0.  1.
        -11    1    4    4    0    0 -0.54913904788E-02 -0.22747458770E-01  0.54506027121E-01  0.59319224231E-01  0.51100000000E-03 0. -1.
         11    1    4    4    0    0  0.16406338515E-01 -0.21568138619E-01  0.65349169747E-01  0.70746926821E-01  0.51100000000E-03 0.  1.
</event>
<event>
 8    1  0.1071333E+005  0.1043930E+01  0.7957747E-01            NaN
         13   -1    0    0    0    0  0.00000000000E+00  0.00000000000E+00  0.74505805969E-08  0.10566000000E+00  0.10566000000E+00 0.  1.
     999900   -1    0    0    0    0 -0.00000000000E+00 -0.00000000000E+00 -0.74505805969E-08  0.93827000000E+00  0.93827000000E+00 0. -1.
     999902    2    1    2    0    0 -0.47002045302E-02  0.22268355847E-01 -0.57198191022E-02  0.10204632592E+01  0.10201934010E+01 0.  0.
     999903    2    3    3    0    0 -0.11314004450E+00 -0.36492014590E-01 -0.50701134828E-01  0.13072436556E+00  0.19644792716E-01 0.  0.
         14    1    1    2    0    0  0.47002045302E-02 -0.22268355847E-01  0.57198191022E-02  0.23466740833E-01  0.00000000000E+00 0. -1.
     999901    1    3    3    0    0  0.10843983997E+00  0.58760370437E-01  0.44981315726E-01  0.88973889360E+00  0.88000000000E+00 0.  1.
        -11    1    4    4    0    0 -0.10139555300E-01  0.67645358203E-04 -0.95445567071E-02  0.13934663301E-01  0.51100000000E-03 0.  1.
         11    1    4    4    0    0 -0.10300048920E+00 -0.36559659948E-01 -0.41156578121E-01  0.11678970226E+00  0.51100000000E-03 0. -1.
</event>
<event>
 8    1  0.1071333E+005  0.1043930E+01  0.7957747E-01            NaN
         13   -1    0    0    0    0  0.00000000000E+00  0.00000000000E+00  0.74505805969E-08  0.10566000000E+00  0.10566000000E+00 0. -1.
     999900   -1    0    0    0    0 -0.00000000000E+00 -0.00000000000E+00 -0.74505805969E-08  0.93827000000E+00  0.93827000000E+00 0.  1.
     999902    2    1    2    0    0 -0.94622664147E-02  0.24513419872E-01  0.11804316911E-01  0.10151240260E+01  0.10147152330E+01 0.  0.
     999903    2    3    3    0    0 -0.10384938512E+00  0.64075952630E-01 -0.32957209903E-01  0.12806274490E+00  0.20578300452E-01 0.  0.
         14    1    1    2    0    0  0.94622664147E-02 -0.24513419872E-01 -0.11804316911E-01  0.28805973985E-01  0.00000000000E+00 0.  1.
     999901    1    3    3    0    0  0.94387118710E-01 -0.39562532759E-01  0.44761526814E-01  0.88706128112E+00  0.88000000000E+00 0. -1.
        -11    1    4    4    0    0 -0.32696731889E-01  0.25871043309E-01 -0.25818852766E-02  0.41776960285E-01  0.51100000000E-03 0.  1.
         11    1    4    4    0    0 -0.71152653236E-01  0.38204909322E-01 -0.30375324626E-01  0.86285784611E-01  0.51100000000E-03 0. -1.
</event>
<event>
 8    1  0.1090289E+005  0.1043930E+01  0.7957747E-01            NaN
         13   -1    0    0    0    0  0.00000000000E+00  0.00000000000E+00  0.74505805969E-08  0.10566000000E+00  0.10566000000E+00 0.  1.
     999900   -1    0    0    0    0 -0.00000000000E+00 -0.00000000000E+00 -0.74505805969E-08  0.93827000000E+00  0.93827000000E+00 0.  1.
     999902    2    1    2    0    0  0.20671326521E-01 -0.51976762208E-02 -0.94901995989E-02  0.10205979734E+01  0.10203312402E+01 0.  0.
     999903    2    3    3    0    0  0.11259695578E-01 -0.75106229777E-01  0.10407046959E+00  0.13050145599E+00  0.20790403563E-01 0.  0.
         14    1    1    2    0    0 -0.20671326521E-01  0.51976762208E-02  0.94901995989E-02  0.23332026630E-01  0.00000000000E+00 0.  1.
     999901    1    3    3    0    0  0.94116309428E-02  0.69908553557E-01 -0.11356066919E+00  0.89009651738E+00  0.88000000000E+00 0.  1.
        -11    1    4    4    0    0 -0.42514843886E-02 -0.38478666461E-01  0.46203910391E-01  0.60280555311E-01  0.51100000000E-03 0. -1.
         11    1    4    4    0    0  0.15511179967E-01 -0.36627563316E-01  0.57866559198E-01  0.70220900684E-01  0.51100000000E-03 0.  1.
</event>
<event>
 8    1  0.1071333E+005  0.1043930E+01  0.7957747E-01            NaN
         13   -1    0    0    0    0  0.00000000000E+00  0.00000000000E+00  0.74505805969E-08  0.10566000000E+00  0.10566000000E+00 0. -1.
     999900   -1    0    0    0    0 -0.00000000000E+00 -0.00000000000E+00 -0.74505805969E-08  0.93827000000E+00  0.93827000000E+00 0. -1.
     999902    2    1    2    0    0  0.74009422581E-02  0.21722807724E-01 -0.54022903756E-02  0.10203537606E+01  0.10200813486E+01 0.  0.
     999903    2    3    3    0    0 -0.10714746328E+00 -0.64649631326E-01  0.19782700654E-01  0.12838076820E+00  0.20739158188E-01 0.  0.
         14    1    1    2    0    0 -0.74009422581E-02 -0.21722807724E-01  0.54022903756E-02  0.23576239374E-01  0.00000000000E+00 0. -1.
     999901    1    3    3    0    0  0.11454840553E+00  0.86372439051E-01 -0.25184991030E-01  0.89197299242E+00  0.88000000000E+00 0. -1.
        -11    1    4    4    0    0 -0.14580841330E-01 -0.11145004639E-01  0.10277629810E-01  0.21040505170E-01  0.51100000000E-03 0. -1.
         11    1    4    4    0    0 -0.92566621945E-01 -0.53504626687E-01  0.95050708442E-02  0.10734026303E+00  0.51100000000E-03 0.  1.
</event>
<event>
 8    1  0.1071333E+005  0.1043930E+01  0.7957747E-01            NaN
         13   -1    0    0    0    0  0.00000000000E+00  0.00000000000E+00  0.74505805969E-08  0.10566000000E+00  0.10566000000E+00 0. -1.
     999900   -1    0    0    0    0 -0.00000000000E+00 -0.00000000000E+00 -0.74505805969E-08  0.93827000000E+00  0.93827000000E+00 0. -1.
     999902    2    1    2    0    0  0.42876418371E-03  0.16040735861E-02  0.23504653767E-01  0.10203667736E+01  0.10200946657E+01 0.  0.
     999903    2    3    3    0    0  0.31480474470E-01  0.76227631010E-01 -0.96612011802E-01  0.12853669033E+00  0.19650138277E-01 0.  0.
         14    1    1    2    0    0 -0.42876418371E-03 -0.16040735861E-02 -0.23504653767E-01  0.23563226424E-01  0.00000000000E+00 0.  1.
     999901    1    3    3    0    0 -0.31051710286E-01 -0.74623557424E-01  0.12011666557E+00  0.89183008325E+00  0.88000000000E+00 0.  1.
        -11    1    4    4    0    0  0.22438079154E-01  0.50207426040E-01 -0.77398043888E-01  0.94947202931E-01  0.51100000000E-03 0. -1.
         11    1    4    4    0    0  0.90423953158E-02  0.26020204970E-01 -0.19213967914E-01  0.33589487399E-01  0.51100000000E-03 0.  1.
</event>
<event>
 8    1  0.1071333E+005  0.1043930E+01  0.7957747E-01            NaN
         13   -1    0    0    0    0  0.00000000000E+00  0.00000000000E+00  0.74505805969E-08  0.10566000000E+00  0.10566000000E+00 0. -1.
     999900   -1    0    0    0    0 -0.00000000000E+00 -0.00000000000E+00 -0.74505805969E-08  0.93827000000E+00  0.93827000000E+00 0.  1.
     999902    2    1    2    0    0  0.13596858334E-02 -0.11931190194E-01 -0.16609863624E-01  0.10234339122E+01  0.10232286563E+01 0.  0.
     999903    2    3    3    0    0  0.58448703947E-01 -0.85621058448E-01 -0.85719812122E-01  0.13581601151E+00  0.18731955272E-01 0.  0.
         14    1    1    2    0    0 -0.13596858334E-02  0.11931190194E-01  0.16609863624E-01  0.20496087788E-01  0.00000000000E+00 0. -1.
     999901    1    3    3    0    0 -0.57089018114E-01  0.73689868254E-01  0.69109948498E-01  0.88761790071E+00  0.88000000000E+00 0. -1.
        -11    1    4    4    0    0  0.28621408593E-01 -0.48908038555E-01 -0.57504134725E-01  0.80735171373E-01  0.51100000000E-03 0.  1.
         11    1    4    4    0    0  0.29827295354E-01 -0.36713019893E-01 -0.28215677397E-01  0.55080840133E-01  0.51100000000E-03 0. -1.
</event>
<event>
 8    1  0.1071333E+005  0.1043930E+01  0.7957747E-01            NaN
         13   -1    0    0    0    0  0.00000000000E+00  0.00000000000E+00  0.74505805969E-08  0.10566000000E+00  0.10566000000E+00 0. -1.
     999900   -1    0    0    0    0 -0.00000000000E+00 -0.00000000000E+00 -0.74505805969E-08  0.93827000000E+00  0.93827000000E+00 0. -1.
     999902    2    1    2    0    0  0.88444189307E-02 -0.17598320596E-01 -0.13479825457E-01  0.10200630704E+01  0.10197838189E+01 0.  0.
     999903    2    3    3    0    0 -0.92612281721E-01 -0.83531271834E-01 -0.36282521930E-01  0.13149085661E+00  0.20467434464E-01 0.  0.
         14    1    1    2    0    0 -0.88444189307E-02  0.17598320596E-01  0.13479825457E-01  0.23866929596E-01  0.00000000000E+00 0. -1.
     999901    1    3    3    0    0  0.10145670065E+00  0.65932951238E-01  0.22802696474E-01  0.88857221380E+00  0.88000000000E+00 0.  1.
        -11    1    4    4    0    0 -0.74886692836E-01 -0.70984658887E-01 -0.37363733463E-01  0.10974127874E+00  0.51100000000E-03 0. -1.
         11    1    4    4    0    0 -0.17725588885E-01 -0.12546612948E-01  0.10812115325E-02  0.21749577862E-01  0.51100000000E-03 0.  1.
</event>
<event>
 8    1  0.1071333E+005  0.1043930E+01  0.7957747E-01            NaN
         13   -1    0    0    0    0  0.00000000000E+00  0.00000000000E+00  0.74505805969E-08  0.10566000000E+00  0.10566000000E+00 0.  1.
     999900   -1    0    0    0    0 -0.00000000000E+00 -0.00000000000E+00 -0.74505805969E-08  0.93827000000E+00  0.93827000000E+00 0. -1.
     999902    2    1    2    0    0 -0.13113295578E-01  0.91957026880E-02  0.17589797635E-01  0.10201409174E+01  0.10198635060E+01 0.  0.
     999903    2    3    3    0    0  0.91865819607E-01  0.73874707942E-01  0.53115026261E-01  0.13083442908E+00  0.19991011286E-01 0.  0.
         14    1    1    2    0    0  0.13113295578E-01 -0.91957026880E-02 -0.17589797635E-01  0.23789082574E-01  0.00000000000E+00 0. -1.
     999901    1    3    3    0    0 -0.10497911519E+00 -0.64679005254E-01 -0.35525228626E-01  0.88930648835E+00  0.88000000000E+00 0.  1.
        -11    1    4    4    0    0  0.70362997045E-01  0.49134795561E-01  0.45669520668E-01  0.97217003281E-01  0.51100000000E-03 0. -1.
         11    1    4    4    0    0  0.21502822563E-01  0.24739912381E-01  0.74455055933E-02  0.33617425799E-01  0.51100000000E-03 0.  1.
</event>
<event>
 8    1  0.1071333E+005  0.1043930E+01  0.7957747E-01            NaN
         13   -1    0    0    0    0  0.00000000000E+00  0.00000000000E+00  0.74505805969E-08  0.10566000000E+00  0.10566000000E+00 0. -1.
     999900   -1    0    0    0    0 -0.00000000000E+00 -0.00000000000E+00 -0.74505805969E-08  0.93827000000E+00  0.93827000000E+00 0. -1.
     999902    2    1    2    0    0  0.26369393849E-02 -0.92349642821E-02  0.21696758713E-01  0.10202026455E+01  0.10199266888E+01 0.  0.
     999903    2    3    3    0    0 -0.97511862138E-01 -0.68262762652E-01  0.52195034660E-01  0.13203362537E+00  0.23241956924E-01 0.  0.
         14    1    1    2    0    0 -0.26369393849E-02  0.92349642821E-02 -0.21696758713E-01  0.23727354535E-01  0.00000000000E+00 0.  1.
     999901    1    3    3    0    0  0.10014880152E+00  0.59027798370E-01 -0.30498275947E-01  0.88816902010E+00  0.88000000000E+00 0.  1.
        -11    1    4    4    0    0 -0.12416674749E-01 -0.19122959143E-01  0.68703800145E-02  0.23818577219E-01  0.51100000000E-03 0.  1.
         11    1    4    4    0    0 -0.85095187390E-01 -0.49139803509E-01  0.45324654646E-01  0.10821504815E+00  0.51100000000E-03 0. -1.
</event>
<event>
 7    1  0.1071333E+005  0.1043930E+01  0.7957747E-01            NaN
         13   -1    0    0    0    0  0.00000000000E+00  0.00000000000E+00  0.74505805969E-08  0.10566000000E+00  0.10566000000E+00 0. -1.
     999900   -1    0    0    0    0 -0.00000000000E+00 -0.00000000000E+00 -0.74505805969E-08  0.93827000000E+00  0.93827000000E+00 0.  1.
     999903    2    1    2    0    0  0.21448530247E-01 -0.10115830540E+00 -0.44976586901E-01  0.11391302262E+00  0.16131991540E-01 0.  0.
         14    1    1    2    0    0  0.36037220837E-01  0.28525770914E-04 -0.17704566879E-01  0.40151385876E-01  0.00000000000E+00 0. -1.
     999901    1    1    2    0    0 -0.57485751084E-01  0.10112977963E+00  0.62681153780E-01  0.88986559151E+00  0.88000000000E+00 0. -1.
        -11    1    3    3    0    0  0.39901776078E-02 -0.57420645930E-01 -0.24562347123E-01  0.62582921900E-01  0.51100000000E-03 0.  1.
         11    1    3    3    0    0  0.17458352639E-01 -0.43737659473E-01 -0.20414239779E-01  0.51330100719E-01  0.51100000000E-03 0. -1.
</event>
<event>
 8    1  0.1071333E+005  0.1043930E+01  0.7957747E-01            NaN
         13   -1    0    0    0    0  0.00000000000E+00  0.00000000000E+00  0.74505805969E-08  0.10566000000E+00  0.10566000000E+00 0. -1.
     999900   -1    0    0    0    0 -0.00000000000E+00 -0.00000000000E+00 -0.74505805969E-08  0.93827000000E+00  0.93827000000E+00 0. -1.
     999902    2    1    2    0    0  0.17287648385E-01 -0.14771815120E-01 -0.87862304791E-02  0.10195524047E+01  0.10192609277E+01 0.  0.
     999903    2    3    3    0    0  0.78930599882E-01  0.94692311385E-01  0.34645626554E-01  0.12957005952E+00  0.19784020073E-01 0.  0.
         14    1    1    2    0    0 -0.17287648385E-01  0.14771815120E-01  0.87862304791E-02  0.24377595342E-01  0.00000000000E+00 0. -1.
     999901    1    3    3    0    0 -0.61642951497E-01 -0.10946412651E+00 -0.43431857034E-01  0.88998234514E+00  0.88000000000E+00 0. -1.
        -11    1    4    4    0    0  0.60423313360E-01  0.83987988880E-01  0.28635839585E-01  0.10735563098E+00  0.51100000000E-03 0. -1.
         11    1    4    4    0    0  0.18507286522E-01  0.10704322505E-01  0.60097869698E-02  0.22214428535E-01  0.51100000000E-03 0.  1.
</event>
<event>
 8    1  0.1071333E+005  0.1043930E+01  0.7957747E-01            NaN
         13   -1    0    0    0    0  0.00000000000E+00  0.00000000000E+00  0.74505805969E-08  0.10566000000E+00  0.10566000000E+00 0. -1.
     999900   -1    0    0    0    0 -0.00000000000E+00 -0.00000000000E+00 -0.74505805969E-08  0.93827000000E+00  0.93827000000E+00 0. -1.
     999902    2    1    2    0    0  0.80071878641E-02  0.13625196334E-01 -0.18333348872E-01  0.10197251923E+01  0.10194378820E+01 0.  0.
     999903    2    3    3    0    0 -0.97267755668E-01 -0.25347188558E-01 -0.80624135767E-01  0.13040983622E+00  0.20074308283E-01 0.  0.
         14    1    1    2    0    0 -0.80071878641E-02 -0.13625196334E-01  0.18333348872E-01  0.24204807652E-01  0.00000000000E+00 0. -1.
     999901    1    3    3    0    0  0.10527494353E+00  0.38972384892E-01  0.62290786895E-01  0.88931535613E+00  0.88000000000E+00 0.  1.
        -11    1    4    4    0    0 -0.65927568656E-01 -0.21586624607E-01 -0.65482387467E-01  0.95397226690E-01  0.51100000000E-03 0.  1.
         11    1    4    4    0    0 -0.31340187012E-01 -0.37605639504E-02 -0.15141748300E-01  0.35012609525E-01  0.51100000000E-03 0. -1.
</event>
<event>
 8    1  0.1071333E+005  0.1043930E+01  0.7957747E-01            NaN
         13   -1    0    0    0    0  0.00000000000E+00  0.00000000000E+00  0.74505805969E-08  0.10566000000E+00  0.10566000000E+00 0.  1.
     999900   -1    0    0    0    0 -0.00000000000E+00 -0.00000000000E+00 -0.74505805969E-08  0.93827000000E+00  0.93827000000E+00 0. -1.
     999902    2    1    2    0    0  0.24157926887E-01 -0.31217890873E-02  0.23029970791E-03  0.10195701142E+01  0.10192790657E+01 0.  0.
     999903    2    3    3    0    0 -0.71117742492E-01  0.55510410060E-01  0.88362999210E-01  0.12812041809E+00  0.21625979310E-01 0.  0.
         14    1    1    2    0    0 -0.24157926887E-01  0.31217890873E-02 -0.23029970791E-03  0.24359885807E-01  0.00000000000E+00 0.  1.
     999901    1    3    3    0    0  0.95275669379E-01 -0.58632199147E-01 -0.88132699502E-01  0.89144969610E+00  0.88000000000E+00 0. -1.
        -11    1    4    4    0    0 -0.50628052504E-01  0.29085846079E-01  0.64707148626E-01  0.87157686677E-01  0.51100000000E-03 0. -1.
         11    1    4    4    0    0 -0.20489689988E-01  0.26424563980E-01  0.23655850584E-01  0.40962731418E-01  0.51100000000E-03 0.  1.
</event>
<event>
 8    1  0.1071333E+005  0.1043930E+01  0.7957747E-01            NaN
         13   -1    0    0    0    0  0.00000000000E+00  0.00000000000E+00  0.74505805969E-08  0.10566000000E+00  0.10566000000E+00 0.  1.
     999900   -1    0    0    0    0 -0.00000000000E+00 -0.00000000000E+00 -0.74505805969E-08  0.93827000000E+00  0.93827000000E+00 0.  1.
     999902    2    1    2    0    0  0.15634000290E-02  0.22760605371E-01  0.24884394543E-02  0.10209804530E+01  0.10207224910E+01 0.  0.
     999903    2    3    3    0    0  0.29095531951E-01 -0.12360409682E+00  0.70980052404E-04  0.12846351286E+00  0.19451127662E-01 0.  0.
         14    1    1    2    0    0 -0.15634000290E-02 -0.22760605371E-01 -0.24884394543E-02  0.22949546998E-01  0.00000000000E+00 0.  1.
     999901    1    3    3    0    0 -0.27532131922E-01  0.14636470219E+00  0.24174594019E-02  0.89251694014E+00  0.88000000000E+00 0.  1.
        -11    1    4    4    0    0  0.16583465474E-01 -0.39779725034E-01 -0.58800134852E-02  0.43500270465E-01  0.51100000000E-03 0. -1.
         11    1    4    4    0    0  0.12512066477E-01 -0.83824371785E-01  0.59509935376E-02  0.84963242392E-01  0.51100000000E-03 0.  1.
</event>
<event>
 8    1  0.1071333E+005  0.1043930E+01  0.7957747E-01            NaN
         13   -1    0    0    0    0  0.00000000000E+00  0.00000000000E+00  0.74505805969E-08  0.10566000000E+00  0.10566000000E+00 0.  1.
     999900   -1    0    0    0    0 -0.00000000000E+00 -0.00000000000E+00 -0.74505805969E-08  0.93827000000E+00  0.93827000000E+00 0.  1.
     999902    2    1    2    0    0 -0.16963979760E-02  0.15652434323E-01  0.16230502159E-01  0.10213179310E+01  0.10210675837E+01 0.  0.
     999903    2    3    3    0    0 -0.11445722675E+00 -0.43415311763E-01  0.44240257761E-01  0.13171771201E+00  0.20174468987E-01 0.  0.
         14    1    1    2    0    0  0.16963979760E-02 -0.15652434323E-01 -0.16230502159E-01  0.22612069049E-01  0.00000000000E+00 0. -1.
     999901    1    3    3    0    0  0.11276082878E+00  0.59067746086E-01 -0.28009755602E-01  0.88960021894E+00  0.88000000000E+00 0.  1.
        -11    1    4    4    0    0 -0.95453873815E-01 -0.27728934804E-01  0.34545697132E-01  0.10523308493E+00  0.51100000000E-03 0. -1.
         11    1    4    4    0    0 -0.19003352936E-01 -0.15686376959E-01  0.96945606293E-02  0.26484627083E-01  0.51100000000E-03 0.  1.
</event>
<event>
 8    1  0.1071333E+005  0.1043930E+01  0.7957747E-01            NaN
         13   -1    0    0    0    0  0.00000000000E+00  0.00000000000E+00  0.74505805969E-08  0.10566000000E+00  0.10566000000E+00 0. -1.
     999900   -1    0    0    0    0 -0.00000000000E+00 -0.00000000000E+00 -0.74505805969E-08  0.93827000000E+00  0.93827000000E+00 0.  1.
     999902    2    1    2    0    0 -0.16844357512E-01  0.14311191793E-01  0.60463892204E-02  0.10210149086E+01  0.10207577294E+01 0.  0.
     999903    2    3    3    0    0 -0.77618312830E-02  0.11232392957E+00 -0.67124120386E-01  0.13250890834E+00  0.19392062114E-01 0.  0.
         14    1    1    2    0    0  0.16844357512E-01 -0.14311191793E-01 -0.60463892204E-02  0.22915091384E-01  0.00000000000E+00 0.  1.
     999901    1    3    3    0    0 -0.90825262286E-02 -0.98012737778E-01  0.73170509606E-01  0.88850600028E+00  0.88000000000E+00 0. -1.
        -11    1    4    4    0    0 -0.24500001208E-02  0.85075252513E-01 -0.59057332166E-01  0.10359454954E+00  0.51100000000E-03 0. -1.
         11    1    4    4    0    0 -0.53118311622E-02  0.27248677058E-01 -0.80667882194E-02  0.28914358802E-01  0.51100000000E-03 0.  1.
</event>
<event>
 8    1  0.1071333E+005  0.1043930E+01  0.7957747E-01            NaN
         13   -1    0    0    0    0  0.00000000000E+00  0.00000000000E+00  0.74505805969E-08  0.10566000000E+00  0.10566000000E+00 0.  1.
     999900   -1    0    0    0    0 -0.00000000000E+00 -0.00000000000E+00 -0.74505805969E-08  0.93827000000E+00  0.93827000000E+00 0.  1.
     999902    2    1    2    0    0  0.22211937918E-01  0.99977740533E-02 -0.21746998185E-02  0.10194748371E+01  0.10191814797E+01 0.  0.
     999903    2    3    3    0    0 -0.36205987207E-01  0.12269701756E+00 -0.12298620786E-01  0.13030878557E+00  0.21533506320E-01 0.  0.
         14    1    1    2    0    0 -0.22211937918E-01 -0.99977740533E-02  0.21746998185E-02  0.24455162878E-01  0.00000000000E+00 0. -1.
     999901    1    3    3    0    0  0.58417925124E-01 -0.11269924351E+00  0.10123920968E-01  0.88916605156E+00  0.88000000000E+00 0. -1.
        -11    1    4    4    0    0 -0.23713329289E-01  0.44310332938E-01 -0.71388138016E-02  0.50763681649E-01  0.51100000000E-03 0. -1.
         11    1    4    4    0    0 -0.12492657917E-01  0.78386684624E-01 -0.51598069846E-02  0.79545103918E-01  0.51100000000E-03 0.  1.
</event>
<event>
 8    1  0.1071333E+005  0.1043930E+01  0.7957747E-01            NaN
         13   -1    0    0    0    0  0.00000000000E+00  0.00000000000E+00  0.74505805969E-08  0.10566000000E+00  0.10566000000E+00 0. -1.
     999900   -1    0    0    0    0 -0.00000000000E+00 -0.00000000000E+00 -0.74505805969E-08  0.93827000000E+00  0.93827000000E+00 0. -1.
     999902    2    1    2    0    0 -0.21512048052E-01  0.23921056920E-02  0.91889304668E-02  0.10204156039E+01  0.10201446357E+01 0.  0.
     999903    2    3    3    0    0 -0.10416298253E+00 -0.46036691347E-01 -0.63974831730E-01  0.13219859131E+00  0.20356438044E-01 0.  0.
         14    1    1    2    0    0  0.21512048052E-01 -0.23921056920E-02 -0.91889304668E-02  0.23514396104E-01  0.00000000000E+00 0. -1.
     999901    1    3    3    0    0  0.82650934474E-01  0.48428797039E-01  0.73163762197E-01  0.88821701259E+00  0.88000000000E+00 0.  1.
        -11    1    4    4    0    0 -0.34864765089E-01 -0.56255635978E-02 -0.16522637367E-01  0.38993043957E-01  0.51100000000E-03 0. -1.
         11    1    4    4    0    0 -0.69298217437E-01 -0.40411127749E-01 -0.47452194364E-01  0.93205547350E-01  0.51100000000E-03 0.  1.
</event>
<event>
 7    1  0.1071333E+005  0.1043930E+01  0.7957747E-01            NaN
         13   -1    0    0    0    0  0.00000000000E+00  0.00000000000E+00  0.74505805969E-08  0.10566000000E+00  0.10566000000E+00 0.  1.
     999900   -1    0    0    0    0 -0.00000000000E+00 -0.00000000000E+00 -0.74505805969E-08  0.93827000000E+00  0.93827000000E+00 0. -1.
     999903    2    1    2    0    0 -0.74121241162E-01 -0.52985517554E-02 -0.71365951280E-01  0.10497829038E+00  0.20132297622E-01 0.  0.
         14    1    1    2    0    0 -0.28648332719E-01 -0.30410399124E-01 -0.22230568701E-01  0.47325654007E-01  0.00000000000E+00 0. -1.
     999901    1    1    2    0    0  0.10276957388E+00  0.35708950880E-01  0.93596519981E-01  0.89162605561E+00  0.88000000000E+00 0.  1.
        -11    1    3    3    0    0 -0.24127312772E-01 -0.89762307948E-02 -0.16122328146E-01  0.30379113330E-01  0.51100000000E-03 0. -1.
         11    1    3    3    0    0 -0.49993928390E-01  0.36776790394E-02 -0.55243623135E-01  0.74599177054E-01  0.51100000000E-03 0.  1.
</event>
<event>
 8    1  0.1071333E+005  0.1043930E+01  0.7957747E-01            NaN
         13   -1    0    0    0    0  0.00000000000E+00  0.00000000000E+00  0.74505805969E-08  0.10566000000E+00  0.10566000000E+00 0. -1.
     999900   -1    0    0    0    0 -0.00000000000E+00 -0.00000000000E+00 -0.74505805969E-08  0.93827000000E+00  0.93827000000E+00 0.  1.
     999902    2    1    2    0    0 -0.19533734381E-01  0.29760272633E-02 -0.11345717516E-01  0.10211451624E+01  0.10208909315E+01 0.  0.
     999903    2    3    3    0    0 -0.75888641055E-01  0.85368910865E-01  0.63626910169E-01  0.13233395769E+00  0.20419497451E-01 0.  0.
         14    1    1    2    0    0  0.19533734381E-01 -0.29760272633E-02  0.11345717516E-01  0.22784837570E-01  0.00000000000E+00 0. -1.
     999901    1    3    3    0    0  0.56354906674E-01 -0.82392883601E-01 -0.74972627685E-01  0.88881120474E+00  0.88000000000E+00 0.  1.
        -11    1    4    4    0    0 -0.13511301847E-01  0.26680254875E-01  0.11346328328E-01  0.31990491795E-01  0.51100000000E-03 0. -1.
         11    1    4    4    0    0 -0.62377339209E-01  0.58688655990E-01  0.52280581841E-01  0.10034346589E+00  0.51100000000E-03 0.  1.
</event>
<event>
 8    1  0.1071333E+005  0.1043930E+01  0.7957747E-01            NaN
         13   -1    0    0    0    0  0.00000000000E+00  0.00000000000E+00  0.74505805969E-08  0.10566000000E+00  0.10566000000E+00 0. -1.
     999900   -1    0    0    0    0 -0.00000000000E+00 -0.00000000000E+00 -0.74505805969E-08  0.93827000000E+00  0.93827000000E+00 0. -1.
     999902    2    1    2    0    0  0.24097216200E-01  0.49631350441E-02  0.38880386763E-02  0.10190216604E+01  0.10187171928E+01 0.  0.
     999903    2    3    3    0    0 -0.65795067699E-01  0.25992624748E-01  0.10520478455E+00  0.12841066497E+00  0.20411876744E-01 0.  0.
         14    1    1    2    0    0 -0.24097216200E-01 -0.49631350441E-02 -0.38880386763E-02  0.24908339623E-01  0.00000000000E+00 0.  1.
     999901    1    3    3    0    0  0.89892283899E-01 -0.21029489704E-01 -0.10131674587E+00  0.89061099540E+00  0.88000000000E+00 0. -1.
        -11    1    4    4    0    0 -0.34367595506E-01  0.26858594594E-02  0.47675936972E-01  0.58835376679E-01  0.51100000000E-03 0.  1.
         11    1    4    4    0    0 -0.31427472193E-01  0.23306765289E-01  0.57528847575E-01  0.69575288292E-01  0.51100000000E-03 0. -1.
</event>
<event>
 8    1  0.1071333E+005  0.1043930E+01  0.7957747E-01            NaN
         13   -1    0    0    0    0  0.00000000000E+00  0.00000000000E+00  0.74505805969E-08  0.10566000000E+00  0.10566000000E+00 0. -1.
     999900   -1    0    0    0    0 -0.00000000000E+00 -0.00000000000E+00 -0.74505805969E-08  0.93827000000E+00  0.93827000000E+00 0. -1.
     999902    2    1    2    0    0  0.12487330375E-04  0.20292016931E-01  0.13103057694E-01  0.10197751614E+01  0.10194890502E+01 0.  0.
     999903    2    3    3    0    0  0.91658885396E-01  0.61141698117E-01  0.70225809445E-01  0.13223318070E+00  0.20354145651E-01 0.  0.
         14    1    1    2    0    0 -0.12487330375E-04 -0.20292016931E-01 -0.13103057694E-01  0.24154838604E-01  0.00000000000E+00 0.  1.
     999901    1    3    3    0    0 -0.91646398066E-01 -0.40849681186E-01 -0.57122751751E-01  0.88754198070E+00  0.88000000000E+00 0. -1.
        -11    1    4    4    0    0  0.40462326838E-01  0.37061812824E-01  0.41370275426E-01  0.68720729571E-01  0.51100000000E-03 0. -1.
         11    1    4    4    0    0  0.51196558558E-01  0.24079885293E-01  0.28855534019E-01  0.63512451129E-01  0.51100000000E-03 0.  1.
</event>
<event>
 8    1  0.1071333E+005  0.1043930E+01  0.7957747E-01            NaN
         13   -1    0    0    0    0  0.00000000000E+00  0.00000000000E+00  0.74505805969E-08  0.10566000000E+00  0.10566000000E+00 0.  1.
     999900   -1    0    0    0    0 -0.00000000000E+00 -0.00000000000E+00 -0.74505805969E-08  0.93827000000E+00  0.93827000000E+00 0.  1.
     999902    2    1    2    0    0  0.21025013770E-01 -0.10997655149E-02  0.95163914282E-03  0.10228547466E+01  0.10226376027E+01 0.  0.
     999903    2    3    3    0    0 -0.45584182623E-01  0.86346174698E-01 -0.86221380513E-01  0.13174155916E+00  0.19701075132E-01 0.  0.
         14    1    1    2    0    0 -0.21025013770E-01  0.10997655149E-02 -0.95163914282E-03  0.21075253385E-01  0.00000000000E+00 0.  1.
     999901    1    3    3    0    0  0.66609196393E-01 -0.87445940213E-01  0.87173019656E-01  0.89111318746E+00  0.88000000000E+00 0. -1.
        -11    1    4    4    0    0 -0.24611231419E-01  0.33107464253E-01 -0.26519340489E-01  0.49044402762E-01  0.51100000000E-03 0. -1.
         11    1    4    4    0    0 -0.20972951204E-01  0.53238710445E-01 -0.59702040023E-01  0.82697156396E-01  0.51100000000E-03 0.  1.
</event>
<event>
 8    1  0.1071333E+005  0.1043930E+01  0.7957747E-01            NaN
         13   -1    0    0    0    0  0.00000000000E+00  0.00000000000E+00  0.74505805969E-08  0.10566000000E+00  0.10566000000E+00 0. -1.
     999900   -1    0    0    0    0 -0.00000000000E+00 -0.00000000000E+00 -0.74505805969E-08  0.93827000000E+00  0.93827000000E+00 0. -1.
     999902    2    1    2    0    0 -0.16719984489E-01  0.40008185277E-02  0.14437398857E-01  0.10214799907E+01  0.10212332586E+01 0.  0.
     999903    2    3    3    0    0  0.18450661771E-01  0.42455320920E-01 -0.11956240620E+00  0.12981207561E+00  0.20325471760E-01 0.  0.
         14    1    1    2    0    0  0.16719984489E-01 -0.40008185277E-02 -0.14437398857E-01  0.22450009264E-01  0.00000000000E+00 0.  1.
     999901    1    3    3    0    0 -0.35170646261E-01 -0.38454502393E-01  0.13399980506E+00  0.89166791513E+00  0.88000000000E+00 0.  1.
        -11    1    4    4    0    0  0.83941842566E-02  0.21915051452E-01 -0.86352204186E-01  0.89485731255E-01  0.51100000000E-03 0.  1.
         11    1    4    4    0    0  0.10056477515E-01  0.20540269468E-01 -0.33210202017E-01  0.40326344353E-01  0.51100000000E-03 0. -1.
</event>
<event>
 8    1  0.1071333E+005  0.1043930E+01  0.7957747E-01            NaN
         13   -1    0    0    0    0  0.00000000000E+00  0.00000000000E+00  0.74505805969E-08  0.10566000000E+00  0.10566000000E+00 0.  1.
     999900   -1    0    0    0    0 -0.00000000000E+00 -0.00000000000E+00 -0.74505805969E-08  0.93827000000E+00  0.93827000000E+00 0.  1.
     999902    2    1    2    0    0  0.22014110104E-01 -0.70114846988E-02  0.52015674648E-02  0.10202479759E+01  0.10199730850E+01 0.  0.
     999903    2    3    3    0    0 -0.31586104866E-01 -0.93993634109E-01 -0.83174825564E-01  0.12993945398E+00  0.11563944803E-01 0.  0.
         14    1    1    2    0    0 -0.22014110104E-01  0.70114846988E-02 -0.52015674648E-02  0.23682024099E-01  0.00000000000E+00 0. -1.
     999901    1    3    3    0    0  0.53600214970E-01  0.86982149410E-01  0.88376393029E-01  0.89030852192E+00  0.88000000000E+00 0.  1.
        -11    1    4    4    0    0 -0.23318503251E-01 -0.70527401286E-01 -0.68518170844E-01  0.10105873432E+00  0.51100000000E-03 0.  1.
         11    1    4    4    0    0 -0.82676016158E-02 -0.23466232822E-01 -0.14656654720E-01  0.28880719657E-01  0.51100000000E-03 0. -1.
</event>
<event>
 8    1  0.1071333E+005  0.1043930E+01  0.7957747E-01            NaN
         13   -1    0    0    0    0  0.00000000000E+00  0.00000000000E+00  0.74505805969E-08  0.10566000000E+00  0.10566000000E+00 0.  1.
     999900   -1    0    0    0    0 -0.00000000000E+00 -0.00000000000E+00 -0.74505805969E-08  0.93827000000E+00  0.93827000000E+00 0. -1.
     999902    2    1    2    0    0 -0.13545109367E-01 -0.14565623861E-01  0.13450871691E-01  0.10199184749E+01  0.10196357890E+01 0.  0.
     999903    2    3    3    0    0 -0.57768012465E-01  0.10084666516E+00 -0.52229691088E-01  0.12885753542E+00  0.19212773520E-01 0.  0.
         14    1    1    2    0    0  0.13545109367E-01  0.14565623861E-01 -0.13450871691E-01  0.24011525055E-01  0.00000000000E+00 0.  1.
     999901    1    3    3    0    0  0.44222903098E-01 -0.11541228902E+00  0.65680562779E-01  0.89106093952E+00  0.88000000000E+00 0.  1.
        -11    1    4    4    0    0 -0.15567815372E-01  0.18093419261E-01 -0.17836204441E-01  0.29801342350E-01  0.51100000000E-03 0.  1.
         11    1    4    4    0    0 -0.42200197093E-01  0.82753245898E-01 -0.34393486647E-01  0.99056193073E-01  0.51100000000E-03 0. -1.
</event>
<event>
 8    1  0.1071333E+005  0.1043930E+01  0.7957747E-01            NaN
         13   -1    0    0    0    0  0.00000000000E+00  0.00000000000E+00  0.74505805969E-08  0.10566000000E+00  0.10566000000E+00 0. -1.
     999900   -1    0    0    0    0 -0.00000000000E+00 -0.00000000000E+00 -0.74505805969E-08  0.93827000000E+00  0.93827000000E+00 0. -1.
     999902    2    1    2    0    0  0.52921095019E-02  0.13584018932E-01 -0.18201382363E-01  0.10206100019E+01  0.10203435468E+01 0.  0.
     999903    2    3    3    0    0 -0.79984354575E-01 -0.57069857324E-02 -0.10336349036E+00  0.13218622751E+00  0.18950486564E-01 0.  0.
         14    1    1    2    0    0 -0.52921095019E-02 -0.13584018932E-01  0.18201382363E-01  0.23319998140E-01  0.00000000000E+00 0. -1.
     999901    1    3    3    0    0  0.85276464077E-01  0.19291004664E-01  0.85162108001E-01  0.88842377435E+00  0.88000000000E+00 0.  1.
        -11    1    4    4    0    0 -0.78146618879E-02 -0.18388988946E-02 -0.21646433604E-01  0.23092849507E-01  0.51100000000E-03 0. -1.
         11    1    4    4    0    0 -0.72169692687E-01 -0.38680868378E-02 -0.81717056760E-01  0.10909337801E+00  0.51100000000E-03 0.  1.
</event>
<event>
 8    1  0.1071333E+005  0.1043930E+01  0.7957747E-01            NaN
         13   -1    0    0    0    0  0.00000000000E+00  0.00000000000E+00  0.74505805969E-08  0.10566000000E+00  0.10566000000E+00 0.  1.
     999900   -1    0    0    0    0 -0.00000000000E+00 -0.00000000000E+00 -0.74505805969E-08  0.93827000000E+00  0.93827000000E+00 0.  1.
     999902    2    1    2    0    0  0.15687663280E-01 -0.12066001619E-01  0.12225561845E-01  0.10206672500E+01  0.10204021167E+01 0.  0.
     999903    2    3    3    0    0  0.13687513441E-01 -0.11054461889E+00 -0.67047275960E-01  0.13163056828E+00  0.20586609782E-01 0.  0.
         14    1    1    2    0    0 -0.15687663280E-01  0.12066001619E-01 -0.12225561845E-01  0.23262749981E-01  0.00000000000E+00 0.  1.
     999901    1    3    3    0    0  0.20001498390E-02  0.98478617274E-01  0.79272837805E-01  0.88903668174E+00  0.88000000000E+00 0. -1.
        -11    1    4    4    0    0  0.18932422406E-01 -0.80803566599E-01 -0.46983210354E-01  0.95369471895E-01  0.51100000000E-03 0. -1.
         11    1    4    4    0    0 -0.52449089652E-02 -0.29741052294E-01 -0.20064065606E-01  0.36261096388E-01  0.51100000000E-03 0.  1.
</event>
<event>
 8    1  0.1071333E+005  0.1043930E+01  0.7957747E-01            NaN
         13   -1    0    0    0    0  0.00000000000E+00  0.00000000000E+00  0.74505805969E-08  0.10566000000E+00  0.10566000000E+00 0.  1.
     999900   -1    0    0    0    0 -0.00000000000E+00 -0.00000000000E+00 -0.74505805969E-08  0.93827000000E+00  0.93827000000E+00 0. -1.
     999902    2    1    2    0    0  0.37777756729E-02  0.20675604820E-01 -0.99078979454E-02  0.10206938500E+01  0.10204293297E+01 0.  0.
     999903    2    3    3    0    0 -0.10971366652E+00 -0.30126534501E-01  0.59160125612E-01  0.12927276172E+00  0.16334924467E-01 0.  0.
         14    1    1    2    0    0 -0.37777756729E-02 -0.20675604820E-01  0.99078979454E-02  0.23236149969E-01  0.00000000000E+00 0.  1.
     999901    1    3    3    0    0  0.11349144219E+00  0.50802139321E-01 -0.69068023557E-01  0.89142108831E+00  0.88000000000E+00 0. -1.
        -11    1    4    4    0    0 -0.98257430171E-01 -0.25657831918E-01  0.46759865507E-01  0.11180157900E+00  0.51100000000E-03 0.  1.
         11    1    4    4    0    0 -0.11456236349E-01 -0.44687025831E-02  0.12400260105E-01  0.17471182723E-01  0.51100000000E-03 0. -1.
</event>
<event>
 8    1  0.1071333E+005  0.1043930E+01  0.7957747E-01            NaN
         13   -1    0    0    0    0  0.00000000000E+00  0.00000000000E+00  0.74505805969E-08  0.10566000000E+00  0.10566000000E+00 0.  1.
     999900   -1    0    0    0    0 -0.00000000000E+00 -0.00000000000E+00 -0.74505805969E-08  0.93827000000E+00  0.93827000000E+00 0.  1.
     999902    2    1    2    0    0 -0.13834910003E-01  0.38019773499E-02 -0.19552553336E-01  0.10196779463E+01  0.10193894997E+01 0.  0.
     999903    2    3    3    0    0  0.11395029207E+00  0.53234452811E-01 -0.21436406294E-01  0.12907355804E+00  0.19541950774E-01 0.  0.
         14    1    1    2    0    0  0.13834910003E-01 -0.38019773499E-02  0.19552553336E-01  0.24252053697E-01  0.00000000000E+00 0.  1.
     999901    1    3    3    0    0 -0.12778520207E+00 -0.49432475461E-01  0.18838529585E-02  0.89060438827E+00  0.88000000000E+00 0. -1.
        -11    1    4    4    0    0  0.26767960725E-01  0.85770281498E-02 -0.12321443081E-01  0.30694758736E-01  0.51100000000E-03 0. -1.
         11    1    4    4    0    0  0.87182331346E-01  0.44657424661E-01 -0.91149632129E-02  0.98378799299E-01  0.51100000000E-03 0.  1.
</event>
<event>
 8    1  0.1071333E+005  0.1043930E+01  0.7957747E-01            NaN
         13   -1    0    0    0    0  0.00000000000E+00  0.00000000000E+00  0.74505805969E-08  0.10566000000E+00  0.10566000000E+00 0. -1.
     999900   -1    0    0    0    0 -0.00000000000E+00 -0.00000000000E+00 -0.74505805969E-08  0.93827000000E+00  0.93827000000E+00 0.  1.
     999902    2    1    2    0    0  0.23435782919E-02 -0.21897189321E-01 -0.93804868084E-02  0.10199931499E+01  0.10197122403E+01 0.  0.
     999903    2    3    3    0    0  0.47936184592E-01 -0.10424848577E+00  0.62467090323E-01  0.13206156690E+00  0.19300142454E-01 0.  0.
         14    1    1    2    0    0 -0.23435782919E-02  0.21897189321E-01  0.93804868084E-02  0.23936850088E-01  0.00000000000E+00 0. -1.
     999901    1    3    3    0    0 -0.45592606300E-01  0.82351296452E-01 -0.71847577131E-01  0.88793158302E+00  0.88000000000E+00 0.  1.
        -11    1    4    4    0    0  0.30270186274E-01 -0.47338970480E-01  0.23794988304E-01  0.61022331097E-01  0.51100000000E-03 0.  1.
         11    1    4    4    0    0  0.17665998317E-01 -0.56909515293E-01  0.38672102018E-01  0.71039235799E-01  0.51100000000E-03 0. -1.
</event>
<event>
 8    1  0.1071333E+005  0.1043930E+01  0.7957747E-01            NaN
         13   -1    0    0    0    0  0.00000000000E+00  0.00000000000E+00  0.74505805969E-08  0.10566000000E+00  0.10566000000E+00 0. -1.
     999900   -1    0    0    0    0 -0.00000000000E+00 -0.00000000000E+00 -0.74505805969E-08  0.93827000000E+00  0.93827000000E+00 0.  1.
     999902    2    1    2    0    0  0.83743084855E-02 -0.41811113414E-02  0.22206207451E-01  0.10198317348E+01  0.10195469783E+01 0.  0.
     999903    2    3    3    0    0 -0.52945020949E-01 -0.11614850052E+00  0.18373498147E-01  0.13061216349E+00  0.20695468154E-01 0.  0.
         14    1    1    2    0    0 -0.83743084855E-02  0.41811113414E-02 -0.22206207451E-01  0.24098265166E-01  0.00000000000E+00 0.  1.
     999901    1    3    3    0    0  0.61319329434E-01  0.11196738917E+00  0.38327093042E-02  0.88921957134E+00  0.88000000000E+00 0. -1.
        -11    1    4    4    0    0 -0.32407076937E-01 -0.46753826533E-01  0.62462936332E-02  0.57231252268E-01  0.51100000000E-03 0.  1.
         11    1    4    4    0    0 -0.20537944012E-01 -0.69394673983E-01  0.12127204514E-01  0.73380911222E-01  0.51100000000E-03 0. -1.
</event>
<event>
 8    1  0.1071333E+005  0.1043930E+01  0.7957747E-01            NaN
         13   -1    0    0    0    0  0.00000000000E+00  0.00000000000E+00  0.74505805969E-08  0.10566000000E+00  0.10566000000E+00 0. -1.
     999900   -1    0    0    0    0 -0.00000000000E+00 -0.00000000000E+00 -0.74505805969E-08  0.93827000000E+00  0.93827000000E+00 0.  1.
     999902    2    1    2    0    0 -0.86349574788E-02  0.74591520106E-03 -0.25444217219E-01  0.10170501363E+01  0.10166948671E+01 0.  0.
     999903    2    3    3    0    0  0.50903429073E-01 -0.95416421583E-01  0.61072598753E-01  0.12560346159E+00  0.18732715920E-01 0.  0.
         14    1    1    2    0    0  0.86349574788E-02 -0.74591520106E-03  0.25444217219E-01  0.26879863654E-01  0.00000000000E+00 0. -1.
     999901    1    3    3    0    0 -0.59538386552E-01  0.96162336784E-01 -0.86516815972E-01  0.89144667476E+00  0.88000000000E+00 0.  1.
        -11    1    4    4    0    0  0.47491876451E-01 -0.74899248512E-01  0.45967464375E-01  0.99893166226E-01  0.51100000000E-03 0. -1.
         11    1    4    4    0    0  0.34115526215E-02 -0.20517173071E-01  0.15105134378E-01  0.25710295364E-01  0.51100000000E-03 0.  1.
</event>
<event>
 8    1  0.1071333E+005  0.1043930E+01  0.7957747E-01            NaN
         13   -1    0    0    0    0  0.00000000000E+00  0.00000000000E+00  0.74505805969E-08  0.10566000000E+00  0.10566000000E+00 0. -1.
     999900   -1    0    0    0    0 -0.00000000000E+00 -0.00000000000E+00 -0.74505805969E-08  0.93827000000E+00  0.93827000000E+00 0.  1.
     999902    2    1    2    0    0  0.18001295019E-01 -0.28679405324E-02 -0.14591501429E-01  0.10205808326E+01  0.10203137028E+01 0.  0.
     999903    2    3    3    0    0  0.87691677860E-01  0.30236500792E-01 -0.93888423774E-01  0.13365318311E+00  0.21072752344E-01 0.  0.
         14    1    1    2    0    0 -0.18001295019E-01  0.28679405324E-02  0.14591501429E-01  0.23349167420E-01  0.00000000000E+00 0.  1.
     999901    1    3    3    0    0 -0.69690382842E-01 -0.33104441324E-01  0.79296922345E-01  0.88692764947E+00  0.88000000000E+00 0. -1.
        -11    1    4    4    0    0  0.62668609213E-01  0.29713461977E-01 -0.61338984417E-01  0.92590369551E-01  0.51100000000E-03 0.  1.
         11    1    4    4    0    0  0.25023068648E-01  0.52303881486E-03 -0.32549439357E-01  0.41062813562E-01  0.51100000000E-03 0. -1.
</event>
<event>
 8    1  0.1071333E+005  0.1043930E+01  0.7957747E-01            NaN
         13   -1    0    0    0    0  0.00000000000E+00  0.00000000000E+00  0.74505805969E-08  0.10566000000E+00  0.10566000000E+00 0.  1.
     999900   -1    0    0    0    0 -0.00000000000E+00 -0.00000000000E+00 -0.74505805969E-08  0.93827000000E+00  0.93827000000E+00 0. -1.
     999902    2    1    2    0    0 -0.10401522532E-01 -0.17140019822E-01  0.11113265829E-01  0.10210067230E+01  0.10207493580E+01 0.  0.
     999903    2    3    3    0    0  0.29104224866E-01  0.94382525405E-01 -0.79608322178E-01  0.12846631009E+00  0.20272909533E-01 0.  0.
         14    1    1    2    0    0  0.10401522532E-01  0.17140019822E-01 -0.11113265829E-01  0.22923276988E-01  0.00000000000E+00 0.  1.
     999901    1    3    3    0    0 -0.39505747398E-01 -0.11152254523E+00  0.90721588007E-01  0.89254041292E+00  0.88000000000E+00 0.  1.
        -11    1    4    4    0    0  0.59453467725E-02  0.22138323162E-01 -0.84076632023E-02  0.24421351769E-01  0.51100000000E-03 0. -1.
         11    1    4    4    0    0  0.23158878094E-01  0.72244202243E-01 -0.71200658976E-01  0.10404495832E+00  0.51100000000E-03 0.  1.
</event>
<event>
 8    1  0.1071333E+005  0.1043930E+01  0.7957747E-01            NaN
         13   -1    0    0    0    0  0.00000000000E+00  0.00000000000E+00  0.74505805969E-08  0.10566000000E+00  0.10566000000E+00 0.  1.
     999900   -1    0    0    0    0 -0.00000000000E+00 -0.00000000000E+00 -0.74505805969E-08  0.93827000000E+00  0.93827000000E+00 0.  1.
     999902    2    1    2    0    0  0.24051400010E-02  0.22396271083E-01 -0.59645805794E-02  0.10206286293E+01  0.10203626047E+01 0.  0.
     999903    2    3    3    0    0  0.10012464770E-01 -0.70166555200E-02  0.12785289603E+00  0.12999396303E+00  0.20064508383E-01 0.  0.
         14    1    1    2    0    0 -0.24051400010E-02 -0.22396271083E-01  0.59645805794E-02  0.23301370739E-01  0.00000000000E+00 0.  1.
     999901    1    3    3    0    0 -0.76073247690E-02  0.29412926603E-01 -0.13381747661E+00  0.89063466623E+00  0.88000000000E+00 0.  1.
        -11    1    4    4    0    0 -0.45450344647E-02 -0.48800805771E-02  0.18851410431E-01  0.20002732838E-01  0.51100000000E-03 0.  1.
         11    1    4    4    0    0  0.14557499235E-01 -0.21365749429E-02  0.10900148560E+00  0.10999123019E+00  0.51100000000E-03 0. -1.
</event>
<event>
 8    1  0.1071333E+005  0.1043930E+01  0.7957747E-01            NaN
         13   -1    0    0    0    0  0.00000000000E+00  0.00000000000E+00  0.74505805969E-08  0.10566000000E+00  0.10566000000E+00 0. -1.
     999900   -1    0    0    0    0 -0.00000000000E+00 -0.00000000000E+00 -0.74505805969E-08  0.93827000000E+00  0.93827000000E+00 0. -1.
     999902    2    1    2    0    0 -0.15656340007E-01 -0.10980767150E-01 -0.17958623251E-01  0.10176962359E+01  0.10173580580E+01 0.  0.
     999903    2    3    3    0    0 -0.65804066101E-01  0.66139237366E-01  0.83307010089E-01  0.12712506074E+00  0.22718919528E-01 0.  0.
         14    1    1    2    0    0  0.15656340007E-01  0.10980767150E-01  0.17958623251E-01  0.26233764096E-01  0.00000000000E+00 0. -1.
     999901    1    3    3    0    0  0.50147726094E-01 -0.77120004516E-01 -0.10126563334E+00  0.89057117516E+00  0.88000000000E+00 0.  1.
        -11    1    4    4    0    0 -0.25088995539E-01  0.24813833434E-01  0.46666001240E-01  0.58507784264E-01  0.51100000000E-03 0.  1.
         11    1    4    4    0    0 -0.40715070562E-01  0.41325403933E-01  0.36641008849E-01  0.68617276480E-01  0.51100000000E-03 0. -1.
</event>
<event>
 8    1  0.1071333E+005  0.1043930E+01  0.7957747E-01            NaN
         13   -1    0    0    0    0  0.00000000000E+00  0.00000000000E+00  0.74505805969E-08  0.10566000000E+00  0.10566000000E+00 0. -1.
     999900   -1    0    0    0    0 -0.00000000000E+00 -0.00000000000E+00 -0.74505805969E-08  0.93827000000E+00  0.93827000000E+00 0.  1.
     999902    2    1    2    0    0  0.67213887897E-02  0.18963609776E-01  0.85430577072E-02  0.10220718345E+01  0.10218380770E+01 0.  0.
     999903    2    3    3    0    0  0.30601856690E-01 -0.93387768667E-01 -0.82610506768E-01  0.12993839086E+00  0.20043468301E-01 0.  0.
         14    1    1    2    0    0 -0.67213887897E-02 -0.18963609776E-01 -0.85430577072E-02  0.21858165476E-01  0.00000000000E+00 0.  1.
     999901    1    3    3    0    0 -0.23880467901E-01  0.11235137844E+00  0.91153564475E-01  0.89213344366E+00  0.88000000000E+00 0. -1.
        -11    1    4    4    0    0  0.13372421214E-01 -0.24541821309E-01 -0.14154659038E-01  0.31332700741E-01  0.51100000000E-03 0.  1.
         11    1    4    4    0    0  0.17229435477E-01 -0.68845947358E-01 -0.68455847730E-01  0.98605690120E-01  0.51100000000E-03 0. -1.
</event>
<event>
 8    1  0.1071333E+005  0.1043930E+01  0.7957747E-01            NaN
         13   -1    0    0    0    0  0.00000000000E+00  0.00000000000E+00  0.74505805969E-08  0.10566000000E+00  0.10566000000E+00 0.  1.
     999900   -1    0    0    0    0 -0.00000000000E+00 -0.00000000000E+00 -0.74505805969E-08  0.93827000000E+00  0.93827000000E+00 0.  1.
     999902    2    1    2    0    0 -0.12505654916E-01 -0.17498469967E-01 -0.12874530931E-01  0.10188632610E+01  0.10185548602E+01 0.  0.
     999903    2    3    3    0    0  0.84610972980E-01  0.48299364602E-01 -0.81309682650E-01  0.12844517696E+00  0.19875955862E-01 0.  0.
         14    1    1    2    0    0  0.12505654916E-01  0.17498469967E-01  0.12874530931E-01  0.25066738973E-01  0.00000000000E+00 0. -1.
     999901    1    3    3    0    0 -0.97116627896E-01 -0.65797834569E-01  0.68435151719E-01  0.89041808407E+00  0.88000000000E+00 0. -1.
        -11    1    4    4    0    0  0.35805276983E-01  0.13719992122E-01 -0.41976416723E-01  0.56855401903E-01  0.51100000000E-03 0.  1.
         11    1    4    4    0    0  0.48805695997E-01  0.34579372480E-01 -0.39333265927E-01  0.71589775054E-01  0.51100000000E-03 0. -1.
</event>
<event>
 8    1  0.1071333E+005  0.1043930E+01  0.7957747E-01            NaN
         13   -1    0    0    0    0  0.00000000000E+00  0.00000000000E+00  0.74505805969E-08  0.10566000000E+00  0.10566000000E+00 0.  1.
     999900   -1    0    0    0    0 -0.00000000000E+00 -0.00000000000E+00 -0.74505805969E-08  0.93827000000E+00  0.93827000000E+00 0. -1.
     999902    2    1    2    0    0  0.14144326237E-01  0.19071431711E-01 -0.20373417708E-03  0.10201850431E+01  0.10199086719E+01 0.  0.
     999903    2    3    3    0    0 -0.49232704413E-01 -0.81681897529E-01  0.83338006445E-01  0.12825057025E+00  0.20179045664E-01 0.  0.
         14    1    1    2    0    0 -0.14144326237E-01 -0.19071431711E-01  0.20373417708E-03  0.23744956935E-01  0.00000000000E+00 0. -1.
     999901    1    3    3    0    0  0.63377030650E-01  0.10075332924E+00 -0.83541740622E-01  0.89193447281E+00  0.88000000000E+00 0.  1.
        -11    1    4    4    0    0 -0.26599991766E-01 -0.28513762617E-01  0.41211515678E-01  0.56738385295E-01  0.51100000000E-03 0. -1.
         11    1    4    4    0    0 -0.22632712647E-01 -0.53168134913E-01  0.42126490767E-01  0.71512184956E-01  0.51100000000E-03 0.  1.
</event>
<event>
 8    1  0.1071333E+005  0.1043930E+01  0.7957747E-01            NaN
         13   -1    0    0    0    0  0.00000000000E+00  0.00000000000E+00  0.74505805969E-08  0.10566000000E+00  0.10566000000E+00 0. -1.
     999900   -1    0    0    0    0 -0.00000000000E+00 -0.00000000000E+00 -0.74505805969E-08  0.93827000000E+00  0.93827000000E+00 0. -1.
     999902    2    1    2    0    0  0.14255314747E-02 -0.18381194011E-01  0.14153754570E-01  0.10206871688E+01  0.10204224945E+01 0.  0.
     999903    2    3    3    0    0 -0.90297316899E-01 -0.57148114115E-01  0.76556595313E-01  0.13287521263E+00  0.19375176361E-01 0.  0.
         14    1    1    2    0    0 -0.14255314747E-02  0.18381194011E-01 -0.14153754570E-01  0.23242831189E-01  0.00000000000E+00 0. -1.
     999901    1    3    3    0    0  0.91722848373E-01  0.38766920104E-01 -0.62402840743E-01  0.88781195618E+00  0.88000000000E+00 0.  1.
        -11    1    4    4    0    0 -0.30146127602E-01 -0.25624553971E-01  0.19192406852E-01  0.43977453057E-01  0.51100000000E-03 0.  1.
         11    1    4    4    0    0 -0.60151189297E-01 -0.31523560144E-01  0.57364188461E-01  0.88897759571E-01  0.51100000000E-03 0. -1.
</event>
<event>
 8    1  0.1071333E+005  0.1043930E+01  0.7957747E-01            NaN
         13   -1    0    0    0    0  0.00000000000E+00  0.00000000000E+00  0.74505805969E-08  0.10566000000E+00  0.10566000000E+00 0. -1.
     999900   -1    0    0    0    0 -0.00000000000E+00 -0.00000000000E+00 -0.74505805969E-08  0.93827000000E+00  0.93827000000E+00 0.  1.
     999902    2    1    2    0    0  0.22743832594E-01 -0.90585127555E-02  0.52653563332E-02  0.10188887829E+01  0.10185810176E+01 0.  0.
     999903    2    3    3    0    0 -0.93681167199E-01 -0.39345613250E-01 -0.73880334680E-01  0.12718472361E+00  0.19834608553E-01 0.  0.
         14    1    1    2    0    0 -0.22743832594E-01  0.90585127555E-02 -0.52653563332E-02  0.25041217057E-01  0.00000000000E+00 0.  1.
     999901    1    3    3    0    0  0.11642499979E+00  0.30287100494E-01  0.79145691013E-01  0.89170405934E+00  0.88000000000E+00 0.  1.
        -11    1    4    4    0    0 -0.43152088503E-01 -0.28287134822E-01 -0.40834398037E-01  0.65802537357E-01  0.51100000000E-03 0.  1.
         11    1    4    4    0    0 -0.50529078696E-01 -0.11058478427E-01 -0.33045936643E-01  0.61382186249E-01  0.51100000000E-03 0. -1.
</event>
<event>
 8    1  0.1071333E+005  0.1043930E+01  0.7957747E-01            NaN
         13   -1    0    0    0    0  0.00000000000E+00  0.00000000000E+00  0.74505805969E-08  0.10566000000E+00  0.10566000000E+00 0.  1.
     999900   -1    0    0    0    0 -0.00000000000E+00 -0.00000000000E+00 -0.74505805969E-08  0.93827000000E+00  0.93827000000E+00 0.  1.
     999902    2    1    2    0    0  0.29271077442E-02 -0.18643927034E-01 -0.14937394234E-01  0.10198615617E+01  0.10195775181E+01 0.  0.
     999903    2    3    3    0    0 -0.40479889630E-01  0.49661318680E-01 -0.11212579674E+00  0.13081974065E+00  0.20898378232E-01 0.  0.
         14    1    1    2    0    0 -0.29271077442E-02  0.18643927034E-01  0.14937394234E-01  0.24068438286E-01  0.00000000000E+00 0.  1.
     999901    1    3    3    0    0  0.43406997374E-01 -0.68305245714E-01  0.97188402505E-01  0.88904182106E+00  0.88000000000E+00 0. -1.
        -11    1    4    4    0    0 -0.18302846757E-01  0.22646364910E-01 -0.31266900524E-01  0.42728587999E-01  0.51100000000E-03 0. -1.
         11    1    4    4    0    0 -0.22177042873E-01  0.27014953770E-01 -0.80858896216E-01  0.88091152654E-01  0.51100000000E-03 0.  1.
</event>
<event>
 8    1  0.1071333E+005  0.1043930E+01  0.7957747E-01            NaN
         13   -1    0    0    0    0  0.00000000000E+00  0.00000000000E+00  0.74505805969E-08  0.10566000000E+00  0.10566000000E+00 0.  1.
     999900   -1    0    0    0    0 -0.00000000000E+00 -0.00000000000E+00 -0.74505805969E-08  0.93827000000E+00  0.93827000000E+00 0. -1.
     999902    2    1    2    0    0 -0.20813050478E-01 -0.56942000583E-02 -0.10049851101E-01  0.10201265025E+01  0.10198487509E+01 0.  0.
     999903    2    3    3    0    0 -0.64123783434E-01 -0.29460284690E-01 -0.11094543506E+00  0.13298470708E+00  0.19906651702E-01 0.  0.
         14    1    1    2    0    0  0.20813050478E-01  0.56942000583E-02  0.10049851101E-01  0.23803497467E-01  0.00000000000E+00 0. -1.
     999901    1    3    3    0    0  0.43310732955E-01  0.23766084631E-01  0.10089558396E+00  0.88714179545E+00  0.88000000000E+00 0.  1.
        -11    1    4    4    0    0 -0.62582731078E-01 -0.25845438413E-01 -0.95695351473E-01  0.11722818062E+00  0.51100000000E-03 0.  1.
         11    1    4    4    0    0 -0.15410523556E-02 -0.36148462763E-02 -0.15250083586E-01  0.15756526469E-01  0.51100000000E-03 0. -1.
</event>
<event>
 8    1  0.1071333E+005  0.1043930E+01  0.7957747E-01            NaN
         13   -1    0    0    0    0  0.00000000000E+00  0.00000000000E+00  0.74505805969E-08  0.10566000000E+00  0.10566000000E+00 0. -1.
     999900   -1    0    0    0    0 -0.00000000000E+00 -0.00000000000E+00 -0.74505805969E-08  0.93827000000E+00  0.93827000000E+00 0.  1.
     999902    2    1    2    0    0  0.85350703186E-02 -0.18679246724E-01  0.11560225242E-01  0.10203630636E+01  0.10200908690E+01 0.  0.
     999903    2    3    3    0    0  0.89604679403E-02  0.12455535948E+00 -0.21429653452E-01  0.12817212805E+00  0.19352953282E-01 0.  0.
         14    1    1    2    0    0 -0.85350703186E-02  0.18679246724E-01 -0.11560225242E-01  0.23566936398E-01  0.00000000000E+00 0.  1.
     999901    1    3    3    0    0 -0.42539762173E-03 -0.14323460621E+00  0.32989878693E-01  0.89219093555E+00  0.88000000000E+00 0. -1.
        -11    1    4    4    0    0  0.43972396623E-02  0.38436160318E-01 -0.15655135875E-01  0.41737495575E-01  0.51100000000E-03 0.  1.
         11    1    4    4    0    0  0.45632282780E-02  0.86119199167E-01 -0.57745175763E-02  0.86434632479E-01  0.51100000000E-03 0. -1.
</event>
<event>
 8    1  0.1071333E+005  0.1043930E+01  0.7957747E-01            NaN
         13   -1    0    0    0    0  0.00000000000E+00  0.00000000000E+00  0.74505805969E-08  0.10566000000E+00  0.10566000000E+00 0.  1.
     999900   -1    0    0    0    0 -0.00000000000E+00 -0.00000000000E+00 -0.74505805969E-08  0.93827000000E+00  0.93827000000E+00 0. -1.
     999902    2    1    2    0    0  0.21062595689E-01  0.50533352633E-02 -0.11917618096E-01  0.10192075657E+01  0.10189076814E+01 0.  0.
     999903    2    3    3    0    0  0.32691216290E-01  0.46117846045E-01 -0.11748753984E+00  0.13187080485E+00  0.19774119635E-01 0.  0.
         14    1    1    2    0    0 -0.21062595689E-01 -0.50533352633E-02  0.11917618096E-01  0.24722434256E-01  0.00000000000E+00 0.  1.
     999901    1    3    3    0    0 -0.11628620601E-01 -0.41064510781E-01  0.10556992174E+00  0.88733676090E+00  0.88000000000E+00 0.  1.
        -11    1    4    4    0    0  0.23081069559E-01  0.35546764729E-01 -0.10362120247E+00  0.11195500425E+00  0.51100000000E-03 0. -1.
         11    1    4    4    0    0  0.96101467308E-02  0.10571081315E-01 -0.13866337373E-01  0.19915800599E-01  0.51100000000E-03 0.  1.
</event>
<event>
 8    1  0.1071333E+005  0.1043930E+01  0.7957747E-01            NaN
         13   -1    0    0    0    0  0.00000000000E+00  0.00000000000E+00  0.74505805969E-08  0.10566000000E+00  0.10566000000E+00 0. -1.
     999900   -1    0    0    0    0 -0.00000000000E+00 -0.00000000000E+00 -0.74505805969E-08  0.93827000000E+00  0.93827000000E+00 0. -1.
     999902    2    1    2    0    0  0.12841693691E-01 -0.20165386721E-01  0.20949798585E-02  0.10199312321E+01  0.10196488501E+01 0.  0.
     999903    2    3    3    0    0  0.37883335458E-01  0.11528355503E+00 -0.38145643902E-01  0.12830754052E+00  0.16801477322E-01 0.  0.
         14    1    1    2    0    0 -0.12841693691E-01  0.20165386721E-01 -0.20949798585E-02  0.23998767866E-01  0.00000000000E+00 0. -1.
     999901    1    3    3    0    0 -0.25041641767E-01 -0.13544894175E+00  0.40240623760E-01  0.89162369161E+00  0.88000000000E+00 0.  1.
        -11    1    4    4    0    0  0.29319282603E-01  0.77880836890E-01 -0.33280017596E-01  0.89626256082E-01  0.51100000000E-03 0. -1.
         11    1    4    4    0    0  0.85640528551E-02  0.37402718140E-01 -0.48656263059E-02  0.38681284440E-01  0.51100000000E-03 0.  1.
</event>
<event>
 8    1  0.1071333E+005  0.1043930E+01  0.7957747E-01            NaN
         13   -1    0    0    0    0  0.00000000000E+00  0.00000000000E+00  0.74505805969E-08  0.10566000000E+00  0.10566000000E+00 0. -1.
     999900   -1    0    0    0    0 -0.00000000000E+00 -0.00000000000E+00 -0.74505805969E-08  0.93827000000E+00  0.93827000000E+00 0. -1.
     999902    2    1    2    0    0  0.57448178539E-02  0.17265911269E-01  0.15684231547E-01  0.10199068915E+01  0.10196239295E+01 0.  0.
     999903    2    3    3    0    0 -0.11840341710E+00 -0.76110590725E-02 -0.45339975251E-01  0.12875280731E+00  0.21077823261E-01 0.  0.
         14    1    1    2    0    0 -0.57448178539E-02 -0.17265911269E-01 -0.15684231547E-01  0.24023108528E-01  0.00000000000E+00 0.  1.
     999901    1    3    3    0    0  0.12414823496E+00  0.24876970341E-01  0.61024206798E-01  0.89115408416E+00  0.88000000000E+00 0.  1.
        -11    1    4    4    0    0 -0.49559974176E-01 -0.86447745519E-02 -0.28685568885E-01  0.57914127384E-01  0.51100000000E-03 0.  1.
         11    1    4    4    0    0 -0.68843442928E-01  0.10337154794E-02 -0.16654406366E-01  0.70838679930E-01  0.51100000000E-03 0. -1.
</event>
<event>
 8    1  0.1071333E+005  0.1043930E+01  0.7957747E-01            NaN
         13   -1    0    0    0    0  0.00000000000E+00  0.00000000000E+00  0.74505805969E-08  0.10566000000E+00  0.10566000000E+00 0. -1.
     999900   -1    0    0    0    0 -0.00000000000E+00 -0.00000000000E+00 -0.74505805969E-08  0.93827000000E+00  0.93827000000E+00 0.  1.
     999902    2    1    2    0    0  0.98342870652E-02 -0.21671841769E-01  0.15520019849E-01  0.10155178029E+01  0.10151202663E+01 0.  0.
     999903    2    3    3    0    0 -0.56253625117E-01  0.18243051766E-01 -0.10680107536E+00  0.12370882044E+00  0.20003081777E-01 0.  0.
         14    1    1    2    0    0 -0.98342870652E-02  0.21671841769E-01 -0.15520019849E-01  0.28412197097E-01  0.00000000000E+00 0.  1.
     999901    1    3    3    0    0  0.66087912182E-01 -0.39914893535E-01  0.12232109521E+00  0.89180898246E+00  0.88000000000E+00 0. -1.
        -11    1    4    4    0    0 -0.35811038861E-01  0.16160964644E-02 -0.56337215849E-01  0.66777131435E-01  0.51100000000E-03 0.  1.
         11    1    4    4    0    0 -0.20442586256E-01  0.16626955302E-01 -0.50463859513E-01  0.56931689008E-01  0.51100000000E-03 0. -1.
</event>
<event>
 8    1  0.1071333E+005  0.1043930E+01  0.7957747E-01            NaN
         13   -1    0    0    0    0  0.00000000000E+00  0.00000000000E+00  0.74505805969E-08  0.10566000000E+00  0.10566000000E+00 0. -1.
     999900   -1    0    0    0    0 -0.00000000000E+00 -0.00000000000E+00 -0.74505805969E-08  0.93827000000E+00  0.93827000000E+00 0.  1.
     999902    2    1    2    0    0 -0.39509848693E-02 -0.14110820456E-01 -0.17118025385E-01  0.10213966397E+01  0.10211480515E+01 0.  0.
     999903    2    3    3    0    0 -0.26853397135E-01 -0.84813033579E-01 -0.98812960253E-01  0.13449338348E+00  0.20251258811E-01 0.  0.
         14    1    1    2    0    0  0.39509848693E-02  0.14110820456E-01  0.17118025385E-01  0.22533360346E-01  0.00000000000E+00 0.  1.
     999901    1    3    3    0    0  0.22902412266E-01  0.70702213124E-01  0.81694934868E-01  0.88690325617E+00  0.88000000000E+00 0. -1.
        -11    1    4    4    0    0 -0.18000259642E-01 -0.50350834265E-01 -0.44535006823E-01  0.69590543985E-01  0.51100000000E-03 0.  1.
         11    1    4    4    0    0 -0.88531374928E-02 -0.34462199314E-01 -0.54277953430E-01  0.64902839496E-01  0.51100000000E-03 0. -1.
</event>
<event>
 8    1  0.1071333E+005  0.1043930E+01  0.7957747E-01            NaN
         13   -1    0    0    0    0  0.00000000000E+00  0.00000000000E+00  0.74505805969E-08  0.10566000000E+00  0.10566000000E+00 0.  1.
     999900   -1    0    0    0    0 -0.00000000000E+00 -0.00000000000E+00 -0.74505805969E-08  0.93827000000E+00  0.93827000000E+00 0.  1.
     999902    2    1    2    0    0 -0.15911188129E-01  0.85945196191E-02 -0.15149010669E-01  0.10203392349E+01  0.10200664831E+01 0.  0.
     999903    2    3    3    0    0  0.56735995940E-01  0.98547340455E-01 -0.62918284438E-01  0.13149108876E+00  0.20016102526E-01 0.  0.
         14    1    1    2    0    0  0.15911188129E-01 -0.85945196191E-02  0.15149010669E-01  0.23590765130E-01  0.00000000000E+00 0.  1.
     999901    1    3    3    0    0 -0.72647184069E-01 -0.89952820835E-01  0.47769273769E-01  0.88884814611E+00  0.88000000000E+00 0.  1.
        -11    1    4    4    0    0  0.14595664112E-01  0.21894546092E-01 -0.24482216257E-01  0.35945021815E-01  0.51100000000E-03 0.  1.
         11    1    4    4    0    0  0.42140331829E-01  0.76652794362E-01 -0.38436068181E-01  0.95546066944E-01  0.51100000000E-03 0. -1.
</event>
<event>
 8    1  0.1071333E+005  0.1043930E+01  0.7957747E-01            NaN
         13   -1    0    0    0    0  0.00000000000E+00  0.00000000000E+00  0.74505805969E-08  0.10566000000E+00  0.10566000000E+00 0.  1.
     999900   -1    0    0    0    0 -0.00000000000E+00 -0.00000000000E+00 -0.74505805969E-08  0.93827000000E+00  0.93827000000E+00 0. -1.
     999902    2    1    2    0    0 -0.25319162769E-01 -0.63263534993E-03  0.61157821761E-02  0.10178750000E+01  0.10175414747E+01 0.  0.
     999903    2    3    3    0    0  0.90223439284E-01  0.56042230757E-01  0.65963436949E-01  0.12650309387E+00  0.19257650974E-01 0.  0.
         14    1    1    2    0    0  0.25319162769E-01  0.63263534993E-03 -0.61157821761E-02  0.26054999950E-01  0.00000000000E+00 0. -1.
     999901    1    3    3    0    0 -0.11554260205E+00 -0.56674866107E-01 -0.59847654773E-01  0.89137190618E+00  0.88000000000E+00 0. -1.
        -11    1    4    4    0    0  0.59452753122E-01  0.27443252468E-01  0.45747977983E-01  0.79880539371E-01  0.51100000000E-03 0. -1.
         11    1    4    4    0    0  0.30770686162E-01  0.28598978290E-01  0.20215458966E-01  0.46622554502E-01  0.51100000000E-03 0.  1.
</event>
<event>
 8    1  0.1071333E+005  0.1043930E+01  0.7957747E-01            NaN
         13   -1    0    0    0    0  0.00000000000E+00  0.00000000000E+00  0.74505805969E-08  0.10566000000E+00  0.10566000000E+00 0. -1.
     999900   -1    0    0    0    0 -0.00000000000E+00 -0.00000000000E+00 -0.74505805969E-08  0.93827000000E+00  0.93827000000E+00 0. -1.
     999902    2    1    2    0    0 -0.70189630816E-02 -0.15237786180E-01  0.16706389844E-01  0.10202538637E+01  0.10199791110E+01 0.  0.
     999903    2    3    3    0    0 -0.95454889786E-01 -0.76323790318E-01  0.48958687640E-01  0.13312781639E+00  0.19725755960E-01 0.  0.
         14    1    1    2    0    0  0.70189630816E-02  0.15237786180E-01 -0.16706389844E-01  0.23676136341E-01  0.00000000000E+00 0.  1.
     999901    1    3    3    0    0  0.88435926705E-01  0.61086004138E-01 -0.32252297796E-01  0.88712604727E+00  0.88000000000E+00 0. -1.
        -11    1    4    4    0    0 -0.75364645669E-01 -0.52899747166E-01  0.29707232957E-01  0.96752229318E-01  0.51100000000E-03 0.  1.
         11    1    4    4    0    0 -0.20090244117E-01 -0.23424043152E-01  0.19251454683E-01  0.36375587070E-01  0.51100000000E-03 0. -1.
</event>
<event>
 8    1  0.1071333E+005  0.1043930E+01  0.7957747E-01            NaN
         13   -1    0    0    0    0  0.00000000000E+00  0.00000000000E+00  0.74505805969E-08  0.10566000000E+00  0.10566000000E+00 0.  1.
     999900   -1    0    0    0    0 -0.00000000000E+00 -0.00000000000E+00 -0.74505805969E-08  0.93827000000E+00  0.93827000000E+00 0.  1.
     999902    2    1    2    0    0 -0.20566654603E-01  0.62255473144E-02 -0.65518330870E-02  0.10214651110E+01  0.10212180481E+01 0.  0.
     999903    2    3    3    0    0  0.72139059370E-01  0.76705513984E-01  0.73830214165E-01  0.13016098298E+00  0.20079870634E-01 0.  0.
         14    1    1    2    0    0  0.20566654603E-01 -0.62255473144E-02  0.65518330870E-02  0.22464888999E-01  0.00000000000E+00 0. -1.
     999901    1    3    3    0    0 -0.92705713973E-01 -0.70479966669E-01 -0.80382047252E-01  0.89130412802E+00  0.88000000000E+00 0. -1.
        -11    1    4    4    0    0  0.82399199750E-02  0.16620015552E-01  0.19824276924E-01  0.27154820469E-01  0.51100000000E-03 0.  1.
         11    1    4    4    0    0  0.63899139395E-01  0.60085498431E-01  0.54005937242E-01  0.10300616251E+00  0.51100000000E-03 0. -1.
</event>
<event>
 8    1  0.1071333E+005  0.1043930E+01  0.7957747E-01            NaN
         13   -1    0    0    0    0  0.00000000000E+00  0.00000000000E+00  0.74505805969E-08  0.10566000000E+00  0.10566000000E+00 0. -1.
     999900   -1    0    0    0    0 -0.00000000000E+00 -0.00000000000E+00 -0.74505805969E-08  0.93827000000E+00  0.93827000000E+00 0.  1.
     999902    2    1    2    0    0 -0.37087873202E-02  0.92692364173E-02 -0.24109698355E-01  0.10178349545E+01  0.10175003897E+01 0.  0.
     999903    2    3    3    0    0  0.33288333651E-01  0.68963220206E-01 -0.10482183973E+00  0.13135505710E+00  0.20062254155E-01 0.  0.
         14    1    1    2    0    0  0.37087873202E-02 -0.92692364173E-02  0.24109698355E-01  0.26095045544E-01  0.00000000000E+00 0. -1.
     999901    1    3    3    0    0 -0.36997120971E-01 -0.59693983788E-01  0.80712141374E-01  0.88647989736E+00  0.88000000000E+00 0. -1.
        -11    1    4    4    0    0  0.15234177129E-01  0.40637062105E-01 -0.43588065081E-01  0.61511230745E-01  0.51100000000E-03 0.  1.
         11    1    4    4    0    0  0.18054156523E-01  0.28326158101E-01 -0.61233774648E-01  0.69843826350E-01  0.51100000000E-03 0. -1.
</event>
<event>
 8    1  0.1071333E+005  0.1043930E+01  0.7957747E-01            NaN
         13   -1    0    0    0    0  0.00000000000E+00  0.00000000000E+00  0.74505805969E-08  0.10566000000E+00  0.10566000000E+00 0.  1.
     999900   -1    0    0    0    0 -0.00000000000E+00 -0.00000000000E+00 -0.74505805969E-08  0.93827000000E+00  0.93827000000E+00 0.  1.
     999902    2    1    2    0    0 -0.13299175696E-01  0.84685534630E-02  0.17488647401E-01  0.10203835085E+01  0.10201117915E+01 0.  0.
     999903    2    3    3    0    0  0.26366083589E-01  0.49523551829E-01  0.11909464793E+00  0.13269965433E+00  0.16670649202E-01 0.  0.
         14    1    1    2    0    0  0.13299175696E-01 -0.84685534630E-02 -0.17488647401E-01  0.23546491455E-01  0.00000000000E+00 0. -1.
     999901    1    3    3    0    0 -0.39665259284E-01 -0.41054998365E-01 -0.10160600053E+00  0.88768385421E+00  0.88000000000E+00 0.  1.
        -11    1    4    4    0    0  0.22225632882E-01  0.25374791476E-01  0.75368136722E-01  0.82574063442E-01  0.51100000000E-03 0.  1.
         11    1    4    4    0    0  0.41404507066E-02  0.24148760353E-01  0.43726511209E-01  0.50125590890E-01  0.51100000000E-03 0. -1.
</event>
<event>
 8    1  0.1071333E+005  0.1043930E+01  0.7957747E-01            NaN
         13   -1    0    0    0    0  0.00000000000E+00  0.00000000000E+00  0.74505805969E-08  0.10566000000E+00  0.10566000000E+00 0.  1.
     999900   -1    0    0    0    0 -0.00000000000E+00 -0.00000000000E+00 -0.74505805969E-08  0.93827000000E+00  0.93827000000E+00 0. -1.
     999902    2    1    2    0    0  0.19529252681E-02 -0.79554594156E-02 -0.22290161580E-01  0.10201822726E+01  0.10199058363E+01 0.  0.
     999903    2    3    3    0    0  0.28932592129E-02 -0.12909113462E+00  0.15214920139E-01  0.13109208194E+00  0.16755541415E-01 0.  0.
         14    1    1    2    0    0 -0.19529252681E-02  0.79554594156E-02  0.22290161580E-01  0.23747727363E-01  0.00000000000E+00 0.  1.
     999901    1    3    3    0    0 -0.94033394480E-03  0.12113567520E+00 -0.37505081720E-01  0.88909019069E+00  0.88000000000E+00 0. -1.
        -11    1    4    4    0    0  0.42926964515E-02 -0.99342633509E-01  0.48515815194E-02  0.99554934782E-01  0.51100000000E-03 0. -1.
         11    1    4    4    0    0 -0.13994372385E-02 -0.29748501107E-01  0.10363338620E-01  0.31537147161E-01  0.51100000000E-03 0.  1.
</event>
<event>
 8    1  0.1071333E+005  0.1043930E+01  0.7957747E-01            NaN
         13   -1    0    0    0    0  0.00000000000E+00  0.00000000000E+00  0.74505805969E-08  0.10566000000E+00  0.10566000000E+00 0.  1.
     999900   -1    0    0    0    0 -0.00000000000E+00 -0.00000000000E+00 -0.74505805969E-08  0.93827000000E+00  0.93827000000E+00 0. -1.
     999902    2    1    2    0    0 -0.47101360901E-02  0.75456966352E-02 -0.22377022665E-01  0.10198498409E+01  0.10195655172E+01 0.  0.
     999903    2    3    3    0    0 -0.12504885505E+00  0.32988302804E-01 -0.89479906626E-03  0.13103590118E+00  0.21075162185E-01 0.  0.
         14    1    1    2    0    0  0.47101360901E-02 -0.75456966352E-02  0.22377022665E-01  0.24080159116E-01  0.00000000000E+00 0.  1.
     999901    1    3    3    0    0  0.12033871896E+00 -0.25442606169E-01 -0.21482223599E-01  0.88881393971E+00  0.88000000000E+00 0.  1.
        -11    1    4    4    0    0 -0.91211570047E-01  0.15770043427E-01  0.45494999266E-02  0.92677957739E-01  0.51100000000E-03 0.  1.
         11    1    4    4    0    0 -0.33837285000E-01  0.17218259377E-01 -0.54442989928E-02  0.38357943437E-01  0.51100000000E-03 0. -1.
</event>
<event>
 8    1  0.1201050E+005  0.1043930E+01  0.7957747E-01            NaN
         13   -1    0    0    0    0  0.00000000000E+00  0.00000000000E+00  0.74505805969E-08  0.10566000000E+00  0.10566000000E+00 0. -1.
     999900   -1    0    0    0    0 -0.00000000000E+00 -0.00000000000E+00 -0.74505805969E-08  0.93827000000E+00  0.93827000000E+00 0. -1.
     999902    2    1    2    0    0  0.20483314244E-01  0.25698481208E-01 -0.31202679905E-02  0.10109191810E+01  0.10103800653E+01 0.  0.
     999903    2    3    3    0    0 -0.88334926304E-01 -0.31006062607E-01  0.71148332934E-01  0.11930679894E+00  0.20188904610E-01 0.  0.
         14    1    1    2    0    0 -0.20483314244E-01 -0.25698481208E-01  0.31202679905E-02  0.33010819001E-01  0.00000000000E+00 0. -1.
     999901    1    3    3    0    0  0.10881824055E+00  0.56704543815E-01 -0.74268600925E-01  0.89161238206E+00  0.88000000000E+00 0. -1.
        -11    1    4    4    0    0 -0.47462258360E-01 -0.20151065942E-01  0.50756410336E-01  0.72354721604E-01  0.51100000000E-03 0.  1.
         11    1    4    4    0    0 -0.40872667944E-01 -0.10854996665E-01  0.20391922598E-01  0.46952077331E-01  0.51100000000E-03 0. -1.
</event>
<event>
 8    1  0.1071333E+005  0.1043930E+01  0.7957747E-01            NaN
         13   -1    0    0    0    0  0.00000000000E+00  0.00000000000E+00  0.74505805969E-08  0.10566000000E+00  0.10566000000E+00 0.  1.
     999900   -1    0    0    0    0 -0.00000000000E+00 -0.00000000000E+00 -0.74505805969E-08  0.93827000000E+00  0.93827000000E+00 0.  1.
     999902    2    1    2    0    0  0.45481517993E-03  0.92033875751E-02 -0.22735935540E-01  0.10193977363E+01  0.10191025035E+01 0.  0.
     999903    2    3    3    0    0  0.78623200452E-02 -0.12578554194E+00  0.13319907991E-01  0.12834391853E+00  0.20271231789E-01 0.  0.
         14    1    1    2    0    0 -0.45481517993E-03 -0.92033875751E-02  0.22735935540E-01  0.24532263748E-01  0.00000000000E+00 0.  1.
     999901    1    3    3    0    0 -0.74075048653E-02  0.13498892951E+00 -0.36055843532E-01  0.89105381772E+00  0.88000000000E+00 0.  1.
        -11    1    4    4    0    0  0.12994412731E-02 -0.10933329033E+00  0.15703218433E-01  0.11046406254E+00  0.51100000000E-03 0.  1.
         11    1    4    4    0    0  0.65628787721E-02 -0.16452251604E-01 -0.23833104414E-02  0.17879855992E-01  0.51100000000E-03 0. -1.
</event>
<event>
 8    1  0.1071333E+005  0.1043930E+01  0.7957747E-01            NaN
         13   -1    0    0    0    0  0.00000000000E+00  0.00000000000E+00  0.74505805969E-08  0.10566000000E+00  0.10566000000E+00 0.  1.
     999900   -1    0    0    0    0 -0.00000000000E+00 -0.00000000000E+00 -0.74505805969E-08  0.93827000000E+00  0.93827000000E+00 0. -1.
     999902    2    1    2    0    0  0.83149545966E-02  0.15863407464E-02  0.21841607276E-01  0.10205054241E+01  0.10202365460E+01 0.  0.
     999903    2    3    3    0    0 -0.46829163959E-01 -0.94326236928E-02  0.12256500302E+00  0.13297655482E+00  0.19458653069E-01 0.  0.
         14    1    1    2    0    0 -0.83149545966E-02 -0.15863407464E-02 -0.21841607276E-01  0.23424575883E-01  0.00000000000E+00 0. -1.
     999901    1    3    3    0    0  0.55144118556E-01  0.11018964439E-01 -0.10072339574E+00  0.88752886930E+00  0.88000000000E+00 0. -1.
        -11    1    4    4    0    0 -0.37334510182E-01 -0.14934150456E-01  0.89099288726E-01  0.97753971136E-01  0.51100000000E-03 0. -1.
         11    1    4    4    0    0 -0.94946537771E-02  0.55015267629E-02  0.33465714294E-01  0.35222583682E-01  0.51100000000E-03 0.  1.
</event>
<event>
 8    1  0.1071333E+005  0.1043930E+01  0.7957747E-01            NaN
         13   -1    0    0    0    0  0.00000000000E+00  0.00000000000E+00  0.74505805969E-08  0.10566000000E+00  0.10566000000E+00 0. -1.
     999900   -1    0    0    0    0 -0.00000000000E+00 -0.00000000000E+00 -0.74505805969E-08  0.93827000000E+00  0.93827000000E+00 0.  1.
     999902    2    1    2    0    0  0.19257604858E-01 -0.14301548972E-01  0.67186149770E-02  0.10190195718E+01  0.10187150525E+01 0.  0.
     999903    2    3    3    0    0  0.34697596305E-01 -0.12324013477E+00  0.25255214578E-01  0.13197413080E+00  0.19679718713E-01 0.  0.
         14    1    1    2    0    0 -0.19257604858E-01  0.14301548972E-01 -0.67186149770E-02  0.24910428239E-01  0.00000000000E+00 0. -1.
     999901    1    3    3    0    0 -0.15439991447E-01  0.10893858580E+00 -0.18536599601E-01  0.88704544096E+00  0.88000000000E+00 0. -1.
        -11    1    4    4    0    0  0.18521768379E-02 -0.39528900006E-01  0.63333441071E-02  0.40079132517E-01  0.51100000000E-03 0. -1.
         11    1    4    4    0    0  0.32845419467E-01 -0.83711234763E-01  0.18921870471E-01  0.91894998279E-01  0.51100000000E-03 0.  1.
</event>
<event>
 8    1  0.1071333E+005  0.1043930E+01  0.7957747E-01            NaN
         13   -1    0    0    0    0  0.00000000000E+00  0.00000000000E+00  0.74505805969E-08  0.10566000000E+00  0.10566000000E+00 0.  1.
     999900   -1    0    0    0    0 -0.00000000000E+00 -0.00000000000E+00 -0.74505805969E-08  0.93827000000E+00  0.93827000000E+00 0. -1.
     999902    2    1    2    0    0  0.41433652518E-02  0.46382396145E-02  0.15830306627E-01  0.10269217858E+01  0.10267809283E+01 0.  0.
     999903    2    3    3    0    0  0.12711328005E+00 -0.26817726172E-01  0.40647013380E-01  0.13746861297E+00  0.19195401831E-01 0.  0.
         14    1    1    2    0    0 -0.41433652518E-02 -0.46382396145E-02 -0.15830306627E-01  0.17008214199E-01  0.00000000000E+00 0. -1.
     999901    1    3    3    0    0 -0.12296991480E+00  0.31455965787E-01 -0.24816706754E-01  0.88945317283E+00  0.88000000000E+00 0.  1.
        -11    1    4    4    0    0  0.57202416710E-01 -0.61869317437E-02  0.10027613276E-01  0.58405554110E-01  0.51100000000E-03 0.  1.
         11    1    4    4    0    0  0.69910863344E-01 -0.20630794429E-01  0.30619400104E-01  0.79063058858E-01  0.51100000000E-03 0. -1.
</event>
<event>
 8    1  0.1071333E+005  0.1043930E+01  0.7957747E-01            NaN
         13   -1    0    0    0    0  0.00000000000E+00  0.00000000000E+00  0.74505805969E-08  0.10566000000E+00  0.10566000000E+00 0.  1.
     999900   -1    0    0    0    0 -0.00000000000E+00 -0.00000000000E+00 -0.74505805969E-08  0.93827000000E+00  0.93827000000E+00 0.  1.
     999902    2    1    2    0    0 -0.23932181503E-01 -0.48152708793E-02 -0.16903931024E-02  0.10194597410E+01  0.10191660169E+01 0.  0.
     999903    2    3    3    0    0  0.41884023726E-01  0.42061761612E-01 -0.11242623522E+00  0.12884666243E+00  0.20936590446E-01 0.  0.
         14    1    1    2    0    0  0.23932181503E-01  0.48152708793E-02  0.16903931024E-02  0.24470258968E-01  0.00000000000E+00 0.  1.
     999901    1    3    3    0    0 -0.65816205229E-01 -0.46877032492E-01  0.11073584212E+00  0.89061307860E+00  0.88000000000E+00 0. -1.
        -11    1    4    4    0    0  0.47066207589E-02  0.16071560938E-01 -0.40253308047E-01  0.43600886226E-01  0.51100000000E-03 0.  1.
         11    1    4    4    0    0  0.37177402968E-01  0.25990200675E-01 -0.72172927176E-01  0.85245776204E-01  0.51100000000E-03 0. -1.
</event>
<event>
 8    1  0.1071333E+005  0.1043930E+01  0.7957747E-01            NaN
         13   -1    0    0    0    0  0.00000000000E+00  0.00000000000E+00  0.74505805969E-08  0.10566000000E+00  0.10566000000E+00 0.  1.
     999900   -1    0    0    0    0 -0.00000000000E+00 -0.00000000000E+00 -0.74505805969E-08  0.93827000000E+00  0.93827000000E+00 0.  1.
     999902    2    1    2    0    0 -0.86182703820E-02 -0.11016259224E-01  0.20178691405E-01  0.10193777671E+01  0.10190820477E+01 0.  0.
     999903    2    3    3    0    0  0.10304093089E+00  0.22651561645E-01  0.73771459491E-01  0.13006708792E+00  0.18565894555E-01 0.  0.
         14    1    1    2    0    0  0.86182703820E-02  0.11016259224E-01 -0.20178691405E-01  0.24552232862E-01  0.00000000000E+00 0. -1.
     999901    1    3    3    0    0 -0.11165920127E+00 -0.33667820869E-01 -0.53592768086E-01  0.88931067922E+00  0.88000000000E+00 0.  1.
        -11    1    4    4    0    0  0.50620741171E-01  0.19063597615E-01  0.43586563424E-01  0.69468912636E-01  0.51100000000E-03 0. -1.
         11    1    4    4    0    0  0.52420189715E-01  0.35879640303E-02  0.30184896067E-01  0.60598175279E-01  0.51100000000E-03 0.  1.
</event>
<event>
 8    1  0.1071333E+005  0.1043930E+01  0.7957747E-01            NaN
         13   -1    0    0    0    0  0.00000000000E+00  0.00000000000E+00  0.74505805969E-08  0.10566000000E+00  0.10566000000E+00 0.  1.
     999900   -1    0    0    0    0 -0.00000000000E+00 -0.00000000000E+00 -0.74505805969E-08  0.93827000000E+00  0.93827000000E+00 0.  1.
     999902    2    1    2    0    0  0.75042245889E-02 -0.18449336607E-01 -0.11713455274E-01  0.10208238008E+01  0.10205622645E+01 0.  0.
     999903    2    3    3    0    0 -0.12618555828E+00  0.11059531753E-01  0.19834530400E-01  0.12967902761E+00  0.19445648471E-01 0.  0.
         14    1    1    2    0    0 -0.75042245889E-02  0.18449336607E-01  0.11713455274E-01  0.23106199220E-01  0.00000000000E+00 0.  1.
     999901    1    3    3    0    0  0.13368978287E+00 -0.29508868360E-01 -0.31547985674E-01  0.89114477317E+00  0.88000000000E+00 0.  1.
        -11    1    4    4    0    0 -0.36503801942E-01 -0.71701589384E-03 -0.22004475258E-02  0.36580660988E-01  0.51100000000E-03 0.  1.
         11    1    4    4    0    0 -0.89681756335E-01  0.11776547647E-01  0.22034977925E-01  0.93098366618E-01  0.51100000000E-03 0. -1.
</event>
<event>
 8    1  0.1071333E+005  0.1043930E+01  0.7957747E-01            NaN
         13   -1    0    0    0    0  0.00000000000E+00  0.00000000000E+00  0.74505805969E-08  0.10566000000E+00  0.10566000000E+00 0. -1.
     999900   -1    0    0    0    0 -0.00000000000E+00 -0.00000000000E+00 -0.74505805969E-08  0.93827000000E+00  0.93827000000E+00 0.  1.
     999902    2    1    2    0    0  0.17386626486E-01  0.12403607008E-01 -0.83654354446E-02  0.10209925904E+01  0.10207349044E+01 0.  0.
     999903    2    3    3    0    0 -0.90619079689E-01 -0.46649736213E-01  0.75620508325E-01  0.12846462524E+00  0.19916906518E-01 0.  0.
         14    1    1    2    0    0 -0.17386626486E-01 -0.12403607008E-01  0.83654354446E-02  0.22937409565E-01  0.00000000000E+00 0. -1.
     999901    1    3    3    0    0  0.10800570618E+00  0.59053343220E-01 -0.83985943770E-01  0.89252796520E+00  0.88000000000E+00 0. -1.
        -11    1    4    4    0    0 -0.19902570047E-01 -0.19461405582E-01  0.24304517342E-01  0.36957127674E-01  0.51100000000E-03 0. -1.
         11    1    4    4    0    0 -0.70716509642E-01 -0.27188330631E-01  0.51315990983E-01  0.91507497562E-01  0.51100000000E-03 0.  1.
</event>
<event>
 8    1  0.1071333E+005  0.1043930E+01  0.7957747E-01            NaN
         13   -1    0    0    0    0  0.00000000000E+00  0.00000000000E+00  0.74505805969E-08  0.10566000000E+00  0.10566000000E+00 0. -1.
     999900   -1    0    0    0    0 -0.00000000000E+00 -0.00000000000E+00 -0.74505805969E-08  0.93827000000E+00  0.93827000000E+00 0.  1.
     999902    2    1    2    0    0 -0.58100610346E-02 -0.15926516124E-01 -0.16744968529E-01  0.10201013472E+01  0.10198230012E+01 0.  0.
     999903    2    3    3    0    0  0.77113298553E-01  0.49633294930E-01  0.86507469279E-01  0.12778109170E+00  0.20845632055E-01 0.  0.
         14    1    1    2    0    0  0.58100610346E-02  0.15926516124E-01  0.16744968529E-01  0.23828652839E-01  0.00000000000E+00 0. -1.
     999901    1    3    3    0    0 -0.82923359587E-01 -0.65559811055E-01 -0.10325243781E+00  0.89232025546E+00  0.88000000000E+00 0. -1.
        -11    1    4    4    0    0  0.13383079292E-01  0.11034109286E-01  0.67087875982E-02  0.18604497604E-01  0.51100000000E-03 0. -1.
         11    1    4    4    0    0  0.63730219261E-01  0.38599185644E-01  0.79798681681E-01  0.10917659410E+00  0.51100000000E-03 0.  1.
</event>
<event>
 8    1  0.1071333E+005  0.1043930E+01  0.7957747E-01            NaN
         13   -1    0    0    0    0  0.00000000000E+00  0.00000000000E+00  0.74505805969E-08  0.10566000000E+00  0.10566000000E+00 0.  1.
     999900   -1    0    0    0    0 -0.00000000000E+00 -0.00000000000E+00 -0.74505805969E-08  0.93827000000E+00  0.93827000000E+00 0. -1.
     999902    2    1    2    0    0 -0.10242314049E-02  0.89402506242E-02  0.21495229134E-01  0.10206271674E+01  0.10203611090E+01 0.  0.
     999903    2    3    3    0    0  0.80135600100E-01 -0.25617199275E-01  0.10077706899E+00  0.13267066750E+00  0.19171152267E-01 0.  0.
         14    1    1    2    0    0  0.10242314049E-02 -0.89402506242E-02 -0.21495229134E-01  0.23302832590E-01  0.00000000000E+00 0. -1.
     999901    1    3    3    0    0 -0.81159831505E-01  0.34557449899E-01 -0.79281839859E-01  0.88795649991E+00  0.88000000000E+00 0. -1.
        -11    1    4    4    0    0  0.28220680084E-01 -0.18332719360E-01  0.43912263024E-01  0.55326696525E-01  0.51100000000E-03 0. -1.
         11    1    4    4    0    0  0.51914920017E-01 -0.72844799143E-02  0.56864805969E-01  0.77343970979E-01  0.51100000000E-03 0.  1.
</event>
<event>
 8    1  0.1338323E+005  0.1043930E+01  0.7957747E-01            NaN
         13   -1    0    0    0    0  0.00000000000E+00  0.00000000000E+00  0.74505805969E-08  0.10566000000E+00  0.10566000000E+00 0. -1.
     999900   -1    0    0    0    0 -0.00000000000E+00 -0.00000000000E+00 -0.74505805969E-08  0.93827000000E+00  0.93827000000E+00 0. -1.
     999902    2    1    2    0    0  0.13695300681E-01 -0.18800243429E-01  0.18537459138E-02  0.10205966165E+01  0.10203298519E+01 0.  0.
     999903    2    3    3    0    0 -0.12402424193E-01  0.72842529087E-02  0.12848517007E+00  0.13076685196E+00  0.19612500528E-01 0.  0.
         14    1    1    2    0    0 -0.13695300681E-01  0.18800243429E-01 -0.18537459138E-02  0.23333383545E-01  0.00000000000E+00 0. -1.
     999901    1    3    3    0    0  0.26097724874E-01 -0.26084496338E-01 -0.12663142416E+00  0.88982976449E+00  0.88000000000E+00 0. -1.
        -11    1    4    4    0    0 -0.10518070887E-01  0.11312031154E-01  0.54570371543E-01  0.56716650425E-01  0.51100000000E-03 0. -1.
         11    1    4    4    0    0 -0.18843533065E-02 -0.40277782454E-02  0.73914798530E-01  0.74050201538E-01  0.51100000000E-03 0.  1.
</event>
<event>
 8    1  0.1071333E+005  0.1043930E+01  0.7957747E-01            NaN
         13   -1    0    0    0    0  0.00000000000E+00  0.00000000000E+00  0.74505805969E-08  0.10566000000E+00  0.10566000000E+00 0. -1.
     999900   -1    0    0    0    0 -0.00000000000E+00 -0.00000000000E+00 -0.74505805969E-08  0.93827000000E+00  0.93827000000E+00 0.  1.
     999902    2    1    2    0    0  0.14292624126E-01 -0.79669052872E-02  0.23495084639E-02  0.10273990934E+01  0.10272660932E+01 0.  0.
     999903    2    3    3    0    0  0.11684404146E+00 -0.48709180538E-01 -0.53058113086E-01  0.13877840335E+00  0.20473582454E-01 0.  0.
         14    1    1    2    0    0 -0.14292624126E-01  0.79669052872E-02 -0.23495084639E-02  0.16530906638E-01  0.00000000000E+00 0.  1.
     999901    1    3    3    0    0 -0.10255141734E+00  0.40742275251E-01  0.55407621550E-01  0.88862069001E+00  0.88000000000E+00 0. -1.
        -11    1    4    4    0    0  0.40147878257E-01 -0.89575316311E-02 -0.10397980636E-01  0.42431929296E-01  0.51100000000E-03 0. -1.
         11    1    4    4    0    0  0.76696163205E-01 -0.39751648907E-01 -0.42660132450E-01  0.96346474055E-01  0.51100000000E-03 0.  1.
</event>
<event>
 8    1  0.1071333E+005  0.1043930E+01  0.7957747E-01            NaN
         13   -1    0    0    0    0  0.00000000000E+00  0.00000000000E+00  0.74505805969E-08  0.10566000000E+00  0.10566000000E+00 0.  1.
     999900   -1    0    0    0    0 -0.00000000000E+00 -0.00000000000E+00 -0.74505805969E-08  0.93827000000E+00  0.93827000000E+00 0. -1.
     999902    2    1    2    0    0  0.11819938237E-01 -0.54713311156E-04  0.20970888429E-01  0.10198573580E+01  0.10195732139E+01 0.  0.
     999903    2    3    3    0    0 -0.10467620640E+00  0.61032034066E-01  0.42077599700E-01  0.12983014732E+00  0.20082962629E-01 0.  0.
         14    1    1    2    0    0 -0.11819938237E-01  0.54713311156E-04 -0.20970888429E-01  0.24072642044E-01  0.00000000000E+00 0. -1.
     999901    1    3    3    0    0  0.11649614463E+00 -0.61086747377E-01 -0.21106711271E-01  0.89002721064E+00  0.88000000000E+00 0. -1.
        -11    1    4    4    0    0 -0.71138083972E-01  0.30406336363E-01  0.28038475206E-01  0.82289668216E-01  0.51100000000E-03 0. -1.
         11    1    4    4    0    0 -0.33538122424E-01  0.30625697703E-01  0.14039124494E-01  0.47540479100E-01  0.51100000000E-03 0.  1.
</event>
<event>
 8    1  0.1071333E+005  0.1043930E+01  0.7957747E-01            NaN
         13   -1    0    0    0    0  0.00000000000E+00  0.00000000000E+00  0.74505805969E-08  0.10566000000E+00  0.10566000000E+00 0. -1.
     999900   -1    0    0    0    0 -0.00000000000E+00 -0.00000000000E+00 -0.74505805969E-08  0.93827000000E+00  0.93827000000E+00 0.  1.
     999902    2    1    2    0    0 -0.23585083022E-01  0.29392971557E-02  0.21602697712E-02  0.10200644940E+01  0.10197852762E+01 0.  0.
     999903    2    3    3    0    0 -0.10526059712E+00 -0.76131357146E-01 -0.16186506660E-01  0.13256257169E+00  0.20857985725E-01 0.  0.
         14    1    1    2    0    0  0.23585083022E-01 -0.29392971557E-02 -0.21602697712E-02  0.23865505953E-01  0.00000000000E+00 0.  1.
     999901    1    3    3    0    0  0.81675514102E-01  0.79070654302E-01  0.18346776432E-01  0.88750192235E+00  0.88000000000E+00 0. -1.
        -11    1    4    4    0    0 -0.10371533715E+00 -0.69785385466E-01 -0.15747979577E-01  0.12599655220E+00  0.51100000000E-03 0. -1.
         11    1    4    4    0    0 -0.15452599699E-02 -0.63459716800E-02 -0.43852708365E-03  0.65660194899E-02  0.51100000000E-03 0.  1.
</event>
<event>
 8    1  0.1071333E+005  0.1043930E+01  0.7957747E-01            NaN
         13   -1    0    0    0    0  0.00000000000E+00  0.00000000000E+00  0.74505805969E-08  0.10566000000E+00  0.10566000000E+00 0.  1.
     999900   -1    0    0    0    0 -0.00000000000E+00 -0.00000000000E+00 -0.74505805969E-08  0.93827000000E+00  0.93827000000E+00 0.  1.
     999902    2    1    2    0    0  0.12430720078E-01  0.87965320901E-02  0.17670603481E-01  0.10206029340E+01  0.10203363156E+01 0.  0.
     999903    2    3    3    0    0 -0.47648278864E-01  0.19113670935E-01  0.12053049942E+00  0.13251730323E+00  0.19938492218E-01 0.  0.
         14    1    1    2    0    0 -0.12430720078E-01 -0.87965320901E-02 -0.17670603481E-01  0.23327065951E-01  0.00000000000E+00 0. -1.
     999901    1    3    3    0    0  0.60078998943E-01 -0.10317138845E-01 -0.10285989593E+00  0.88808563081E+00  0.88000000000E+00 0.  1.
        -11    1    4    4    0    0 -0.59065482189E-02 -0.23360761336E-02  0.28577504450E-01  0.29279334780E-01  0.51100000000E-03 0.  1.
         11    1    4    4    0    0 -0.41741730645E-01  0.21449747068E-01  0.91952994965E-01  0.10323796845E+00  0.51100000000E-03 0. -1.
</event>
<event>
 8    1  0.1071333E+005  0.1043930E+01  0.7957747E-01            NaN
         13   -1    0    0    0    0  0.00000000000E+00  0.00000000000E+00  0.74505805969E-08  0.10566000000E+00  0.10566000000E+00 0.  1.
     999900   -1    0    0    0    0 -0.00000000000E+00 -0.00000000000E+00 -0.74505805969E-08  0.93827000000E+00  0.93827000000E+00 0.  1.
     999902    2    1    2    0    0 -0.13955929923E-01  0.16250470757E-01  0.11262054041E-01  0.10197291810E+01  0.10194419664E+01 0.  0.
     999903    2    3    3    0    0 -0.47908347733E-01  0.41284281554E-01 -0.11216892524E+00  0.13011428396E+00  0.18661656285E-01 0.  0.
         14    1    1    2    0    0  0.13955929923E-01 -0.16250470757E-01 -0.11262054041E-01  0.24200819016E-01  0.00000000000E+00 0. -1.
     999901    1    3    3    0    0  0.33952417810E-01 -0.25033810797E-01  0.12343097928E+00  0.88961489702E+00  0.88000000000E+00 0. -1.
        -11    1    4    4    0    0 -0.27780450914E-01  0.34583317650E-01 -0.69342709940E-01  0.82319085609E-01  0.51100000000E-03 0. -1.
         11    1    4    4    0    0 -0.20127896819E-01  0.67009639037E-02 -0.42826215300E-01  0.47795198352E-01  0.51100000000E-03 0.  1.
</event>
<event>
 7    1  0.1071333E+005  0.1043930E+01  0.7957747E-01            NaN
         13   -1    0    0    0    0  0.00000000000E+00  0.00000000000E+00  0.74505805969E-08  0.10566000000E+00  0.10566000000E+00 0.  1.
     999900   -1    0    0    0    0 -0.00000000000E+00 -0.00000000000E+00 -0.74505805969E-08  0.93827000000E+00  0.93827000000E+00 0.  1.
     999903    2    1    2    0    0  0.79823447766E-01  0.38362277907E-01 -0.67872838426E-01  0.11346050635E+00  0.20569811005E-01 0.  0.
         14    1    1    2    0    0 -0.27868935114E-01  0.90955241028E-02  0.36886352383E-01  0.47116972475E-01  0.00000000000E+00 0.  1.
     999901    1    1    2    0    0 -0.51954512652E-01 -0.47457802010E-01  0.30986486043E-01  0.88335252118E+00  0.88000000000E+00 0. -1.
        -11    1    3    3    0    0  0.46838309033E-01  0.33123070933E-01 -0.39736812347E-01  0.69787107675E-01  0.51100000000E-03 0. -1.
         11    1    3    3    0    0  0.32985138733E-01  0.52392069739E-02 -0.28136026079E-01  0.43673398671E-01  0.51100000000E-03 0.  1.
</event>
<event>
 8    1  0.1071333E+005  0.1043930E+01  0.7957747E-01            NaN
         13   -1    0    0    0    0  0.00000000000E+00  0.00000000000E+00  0.74505805969E-08  0.10566000000E+00  0.10566000000E+00 0.  1.
     999900   -1    0    0    0    0 -0.00000000000E+00 -0.00000000000E+00 -0.74505805969E-08  0.93827000000E+00  0.93827000000E+00 0.  1.
     999902    2    1    2    0    0  0.13458497713E-01 -0.19681562900E-01 -0.24297319961E-02  0.10199633841E+01  0.10196817672E+01 0.  0.
     999903    2    3    3    0    0 -0.10318707050E+00 -0.78424651086E-01 -0.48660912250E-02  0.13032139161E+00  0.12727484124E-01 0.  0.
         14    1    1    2    0    0 -0.13458497713E-01  0.19681562900E-01  0.24297319961E-02  0.23966615874E-01  0.00000000000E+00 0. -1.
     999901    1    3    3    0    0  0.11664556821E+00  0.58743088185E-01  0.24363592289E-02  0.88964199251E+00  0.88000000000E+00 0.  1.
        -11    1    4    4    0    0 -0.35759566257E-01 -0.25486871182E-01  0.42006994299E-02  0.44116144191E-01  0.51100000000E-03 0.  1.
         11    1    4    4    0    0 -0.67427504244E-01 -0.52937779904E-01 -0.90667906549E-02  0.86205247424E-01  0.51100000000E-03 0. -1.
</event>
<event>
 8    1  0.1071333E+005  0.1043930E+01  0.7957747E-01            NaN
         13   -1    0    0    0    0  0.00000000000E+00  0.00000000000E+00  0.74505805969E-08  0.10566000000E+00  0.10566000000E+00 0.  1.
     999900   -1    0    0    0    0 -0.00000000000E+00 -0.00000000000E+00 -0.74505805969E-08  0.93827000000E+00  0.93827000000E+00 0. -1.
     999902    2    1    2    0    0 -0.15358452679E-01  0.51933112671E-02  0.17390953367E-01  0.10201540077E+01  0.10198769051E+01 0.  0.
     999903    2    3    3    0    0 -0.12524247576E+00 -0.37132697179E-01  0.54819792878E-02  0.13223069278E+00  0.19758266171E-01 0.  0.
         14    1    1    2    0    0  0.15358452679E-01 -0.51933112671E-02 -0.17390953367E-01  0.23775992296E-01  0.00000000000E+00 0. -1.
     999901    1    3    3    0    0  0.10988402308E+00  0.42326008446E-01  0.11908974079E-01  0.88792331492E+00  0.88000000000E+00 0.  1.
        -11    1    4    4    0    0 -0.88380522653E-01 -0.20556560531E-01 -0.35603257067E-02  0.90810935494E-01  0.51100000000E-03 0.  1.
         11    1    4    4    0    0 -0.36861953108E-01 -0.16576136648E-01  0.90423049945E-02  0.41419757287E-01  0.51100000000E-03 0. -1.
</event>
<event>
 8    1  0.1071333E+005  0.1043930E+01  0.7957747E-01            NaN
         13   -1    0    0    0    0  0.00000000000E+00  0.00000000000E+00  0.74505805969E-08  0.10566000000E+00  0.10566000000E+00 0.  1.
     999900   -1    0    0    0    0 -0.00000000000E+00 -0.00000000000E+00 -0.74505805969E-08  0.93827000000E+00  0.93827000000E+00 0. -1.
     999902    2    1    2    0    0 -0.21632567633E-01 -0.78928370715E-02 -0.36143651748E-02  0.10206205921E+01  0.10203543819E+01 0.  0.
     999903    2    3    3    0    0  0.79628434835E-01  0.98107097179E-01  0.71773834565E-02  0.12842877502E+00  0.21834497234E-01 0.  0.
         14    1    1    2    0    0  0.21632567633E-01  0.78928370715E-02  0.36143651748E-02  0.23309407866E-01  0.00000000000E+00 0.  1.
     999901    1    3    3    0    0 -0.10126100247E+00 -0.10599993425E+00 -0.10791748631E-01  0.89219181711E+00  0.88000000000E+00 0.  1.
        -11    1    4    4    0    0  0.39646455795E-01  0.52971913354E-01 -0.68449909608E-02  0.66520523778E-01  0.51100000000E-03 0. -1.
         11    1    4    4    0    0  0.39981979040E-01  0.45135183825E-01  0.14022374417E-01  0.61908251244E-01  0.51100000000E-03 0.  1.
</event>
<event>
 8    1  0.1071333E+005  0.1043930E+01  0.7957747E-01            NaN
         13   -1    0    0    0    0  0.00000000000E+00  0.00000000000E+00  0.74505805969E-08  0.10566000000E+00  0.10566000000E+00 0.  1.
     999900   -1    0    0    0    0 -0.00000000000E+00 -0.00000000000E+00 -0.74505805969E-08  0.93827000000E+00  0.93827000000E+00 0.  1.
     999902    2    1    2    0    0 -0.11779144330E-02 -0.18076473662E-02 -0.23648181669E-01  0.10201835988E+01  0.10199071937E+01 0.  0.
     999903    2    3    3    0    0 -0.80066556158E-01 -0.59870059377E-01 -0.84716240420E-01  0.13264544796E+00  0.20564436510E-01 0.  0.
         14    1    1    2    0    0  0.11779144330E-02  0.18076473662E-02  0.23648181669E-01  0.23746401151E-01  0.00000000000E+00 0.  1.
     999901    1    3    3    0    0  0.78888641725E-01  0.58062412011E-01  0.61068058752E-01  0.88753815089E+00  0.88000000000E+00 0. -1.
        -11    1    4    4    0    0 -0.19140083317E-01 -0.43587778385E-02 -0.16924262145E-01  0.25923609004E-01  0.51100000000E-03 0.  1.
         11    1    4    4    0    0 -0.60926472841E-01 -0.55511281539E-01 -0.67791978276E-01  0.10672183896E+00  0.51100000000E-03 0. -1.
</event>
<event>
 8    1  0.1071333E+005  0.1043930E+01  0.7957747E-01            NaN
         13   -1    0    0    0    0  0.00000000000E+00  0.00000000000E+00  0.74505805969E-08  0.10566000000E+00  0.10566000000E+00 0.  1.
     999900   -1    0    0    0    0 -0.00000000000E+00 -0.00000000000E+00 -0.74505805969E-08  0.93827000000E+00  0.93827000000E+00 0.  1.
     999902    2    1    2    0    0  0.15863599637E-01  0.11692413704E-02  0.17838044880E-01  0.10200298585E+01  0.10197498200E+01 0.  0.
     999903    2    3    3    0    0  0.97841846863E-01  0.51271242317E-01  0.71330447796E-01  0.13318597106E+00  0.21182606480E-01 0.  0.
         14    1    1    2    0    0 -0.15863599637E-01 -0.11692413704E-02 -0.17838044880E-01  0.23900141505E-01  0.00000000000E+00 0.  1.
     999901    1    3    3    0    0 -0.81978247226E-01 -0.50102000947E-01 -0.53492402916E-01  0.88684388744E+00  0.88000000000E+00 0.  1.
        -11    1    4    4    0    0  0.78522314728E-01  0.49733863348E-01  0.56466092336E-01  0.10875611145E+00  0.51100000000E-03 0. -1.
         11    1    4    4    0    0  0.19319532135E-01  0.15373789695E-02  0.14864355460E-01  0.24429859604E-01  0.51100000000E-03 0.  1.
</event>
<event>
 8    1  0.1071333E+005  0.1043930E+01  0.7957747E-01            NaN
         13   -1    0    0    0    0  0.00000000000E+00  0.00000000000E+00  0.74505805969E-08  0.10566000000E+00  0.10566000000E+00 0.  1.
     999900   -1    0    0    0    0 -0.00000000000E+00 -0.00000000000E+00 -0.74505805969E-08  0.93827000000E+00  0.93827000000E+00 0.  1.
     999902    2    1    2    0    0  0.86491792401E-02 -0.17943852910E-01 -0.12573077268E-01  0.10203742697E+01  0.10201023369E+01 0.  0.
     999903    2    3    3    0    0 -0.27366982713E-01  0.47400277575E-01 -0.11735802851E+00  0.13102231162E+00  0.19954980056E-01 0.  0.
         14    1    1    2    0    0 -0.86491792401E-02  0.17943852910E-01  0.12573077268E-01  0.23555730317E-01  0.00000000000E+00 0.  1.
     999901    1    3    3    0    0  0.36016161953E-01 -0.65344130485E-01  0.10478495124E+00  0.88935195807E+00  0.88000000000E+00 0.  1.
        -11    1    4    4    0    0 -0.22118111208E-01  0.22610744760E-01 -0.51302549834E-01  0.60271629831E-01  0.51100000000E-03 0.  1.
         11    1    4    4    0    0 -0.52488715051E-02  0.24789532815E-01 -0.66055478674E-01  0.70750681785E-01  0.51100000000E-03 0. -1.
</event>
<event>
 8    1  0.1071333E+005  0.1043930E+01  0.7957747E-01            NaN
         13   -1    0    0    0    0  0.00000000000E+00  0.00000000000E+00  0.74505805969E-08  0.10566000000E+00  0.10566000000E+00 0. -1.
     999900   -1    0    0    0    0 -0.00000000000E+00 -0.00000000000E+00 -0.74505805969E-08  0.93827000000E+00  0.93827000000E+00 0.  1.
     999902    2    1    2    0    0  0.19557762813E-01  0.73625142438E-02 -0.10943832973E-01  0.10203401678E+01  0.10200674379E+01 0.  0.
     999903    2    3    3    0    0  0.10863336994E+00  0.70179021796E-01  0.24391653282E-01  0.13291187551E+00  0.18555585066E-01 0.  0.
         14    1    1    2    0    0 -0.19557762813E-01 -0.73625142438E-02  0.10943832973E-01  0.23589832182E-01  0.00000000000E+00 0.  1.
     999901    1    3    3    0    0 -0.89075607123E-01 -0.62816507552E-01 -0.35335486255E-01  0.88742829231E+00  0.88000000000E+00 0. -1.
        -11    1    4    4    0    0  0.90993474931E-01  0.50017691609E-01  0.20438554301E-01  0.10582805666E+00  0.51100000000E-03 0.  1.
         11    1    4    4    0    0  0.17639895005E-01  0.20161330187E-01  0.39530989809E-02  0.27083818845E-01  0.51100000000E-03 0. -1.
</event>
<event>
 8    1  0.1071333E+005  0.1043930E+01  0.7957747E-01            NaN
         13   -1    0    0    0    0  0.00000000000E+00  0.00000000000E+00  0.74505805969E-08  0.10566000000E+00  0.10566000000E+00 0. -1.
     999900   -1    0    0    0    0 -0.00000000000E+00 -0.00000000000E+00 -0.74505805969E-08  0.93827000000E+00  0.93827000000E+00 0.  1.
     999902    2    1    2    0    0 -0.85054585049E-02  0.71098667336E-02 -0.32639122771E-01  0.10094596451E+01  0.10088709381E+01 0.  0.
     999903    2    3    3    0    0 -0.14865352113E-01 -0.65115264566E-02 -0.12205262774E+00  0.12480108644E+00  0.20373722506E-01 0.  0.
         14    1    1    2    0    0  0.85054585049E-02 -0.71098667336E-02  0.32639122771E-01  0.34470354866E-01  0.00000000000E+00 0. -1.
     999901    1    3    3    0    0  0.63598936081E-02  0.13621393190E-01  0.89413504967E-01  0.88465855869E+00  0.88000000000E+00 0. -1.
        -11    1    4    4    0    0 -0.52280068672E-02 -0.31181788395E-02 -0.10295487062E+00  0.10313593748E+00  0.51100000000E-03 0. -1.
         11    1    4    4    0    0 -0.96373452458E-02 -0.33933476171E-02 -0.19097757122E-01  0.21665148961E-01  0.51100000000E-03 0.  1.
</event>
<event>
 8    1  0.1071333E+005  0.1043930E+01  0.7957747E-01            NaN
         13   -1    0    0    0    0  0.00000000000E+00  0.00000000000E+00  0.74505805969E-08  0.10566000000E+00  0.10566000000E+00 0. -1.
     999900   -1    0    0    0    0 -0.00000000000E+00 -0.00000000000E+00 -0.74505805969E-08  0.93827000000E+00  0.93827000000E+00 0.  1.
     999902    2    1    2    0    0  0.76704284342E-02  0.19633220282E-01  0.10602243782E-01  0.10203353738E+01  0.10200625318E+01 0.  0.
     999903    2    3    3    0    0 -0.59367523504E-01 -0.10228341076E+00  0.46493320383E-01  0.12868189780E+00  0.20273209394E-01 0.  0.
         14    1    1    2    0    0 -0.76704284342E-02 -0.19633220282E-01 -0.10602243782E-01  0.23594626172E-01  0.00000000000E+00 0.  1.
     999901    1    3    3    0    0  0.67037951938E-01  0.12191663104E+00 -0.35891076602E-01  0.89165347602E+00  0.88000000000E+00 0.  1.
        -11    1    4    4    0    0 -0.16467649179E-01 -0.39791331598E-01  0.85260719694E-02  0.43903172597E-01  0.51100000000E-03 0.  1.
         11    1    4    4    0    0 -0.42899874325E-01 -0.62492079160E-01  0.37967248414E-01  0.84778725208E-01  0.51100000000E-03 0. -1.
</event>
<event>
 8    1  0.1071333E+005  0.1043930E+01  0.7957747E-01            NaN
         13   -1    0    0    0    0  0.00000000000E+00  0.00000000000E+00  0.74505805969E-08  0.10566000000E+00  0.10566000000E+00 0.  1.
     999900   -1    0    0    0    0 -0.00000000000E+00 -0.00000000000E+00 -0.74505805969E-08  0.93827000000E+00  0.93827000000E+00 0.  1.
     999902    2    1    2    0    0 -0.89994113621E-02 -0.10522783870E-01 -0.19609345024E-01  0.10199249006E+01  0.10196423677E+01 0.  0.
     999903    2    3    3    0    0  0.56426496156E-01 -0.89512375031E-01  0.71570957161E-01  0.12928818880E+00  0.19915298196E-01 0.  0.
         14    1    1    2    0    0  0.89994113621E-02  0.10522783870E-01  0.19609345024E-01  0.24005099407E-01  0.00000000000E+00 0. -1.
     999901    1    3    3    0    0 -0.65425907518E-01  0.78989591162E-01 -0.91180302185E-01  0.89063671179E+00  0.88000000000E+00 0.  1.
        -11    1    4    4    0    0  0.43432560664E-01 -0.76346797169E-01  0.66288865839E-01  0.11004406217E+00  0.51100000000E-03 0.  1.
         11    1    4    4    0    0  0.12993935492E-01 -0.13165577862E-01  0.52820913218E-02  0.19244126630E-01  0.51100000000E-03 0. -1.
</event>
<event>
 8    1  0.1071333E+005  0.1043930E+01  0.7957747E-01            NaN
         13   -1    0    0    0    0  0.00000000000E+00  0.00000000000E+00  0.74505805969E-08  0.10566000000E+00  0.10566000000E+00 0. -1.
     999900   -1    0    0    0    0 -0.00000000000E+00 -0.00000000000E+00 -0.74505805969E-08  0.93827000000E+00  0.93827000000E+00 0.  1.
     999902    2    1    2    0    0 -0.78727970284E-02  0.46444522386E-02 -0.20532494722E-01  0.10214547868E+01  0.10212074942E+01 0.  0.
     999903    2    3    3    0    0 -0.20697179076E-01  0.12910886448E+00 -0.15934822942E-01  0.13259203401E+00  0.15141228157E-01 0.  0.
         14    1    1    2    0    0  0.78727970284E-02 -0.46444522386E-02  0.20532494722E-01  0.22475213217E-01  0.00000000000E+00 0. -1.
     999901    1    3    3    0    0  0.12824382048E-01 -0.12446441224E+00 -0.45976717804E-02  0.88886275278E+00  0.88000000000E+00 0.  1.
        -11    1    4    4    0    0 -0.13971837006E-01  0.11598329983E+00 -0.15308169950E-01  0.11782164171E+00  0.51100000000E-03 0.  1.
         11    1    4    4    0    0 -0.67253420700E-02  0.13125564655E-01 -0.62665299189E-03  0.14770392292E-01  0.51100000000E-03 0. -1.
</event>
<event>
 8    1  0.1071333E+005  0.1043930E+01  0.7957747E-01            NaN
         13   -1    0    0    0    0  0.00000000000E+00  0.00000000000E+00  0.74505805969E-08  0.10566000000E+00  0.10566000000E+00 0. -1.
     999900   -1    0    0    0    0 -0.00000000000E+00 -0.00000000000E+00 -0.74505805969E-08  0.93827000000E+00  0.93827000000E+00 0. -1.
     999902    2    1    2    0    0 -0.15088848138E-01  0.13890987298E-01  0.48902874502E-02  0.10228456983E+01  0.10226283659E+01 0.  0.
     999903    2    3    3    0    0  0.10054676987E+00 -0.13375414738E-01  0.81404164338E-01  0.13157165169E+00  0.19897409544E-01 0.  0.
         14    1    1    2    0    0  0.15088848138E-01 -0.13890987298E-01 -0.48902874502E-02  0.21084301686E-01  0.00000000000E+00 0.  1.
     999901    1    3    3    0    0 -0.11563561800E+00  0.27266402036E-01 -0.76513876888E-01  0.89127404663E+00  0.88000000000E+00 0. -1.
        -11    1    4    4    0    0  0.89542757683E-01 -0.15790815191E-01  0.77982535790E-01  0.11978644459E+00  0.51100000000E-03 0. -1.
         11    1    4    4    0    0  0.11004012184E-01  0.24154004530E-02  0.34216285483E-02  0.11785207101E-01  0.51100000000E-03 0.  1.
</event>
<event>
 8    1  0.1071333E+005  0.1043930E+01  0.7957747E-01            NaN
         13   -1    0    0    0    0  0.00000000000E+00  0.00000000000E+00  0.74505805969E-08  0.10566000000E+00  0.10566000000E+00 0.  1.
     999900   -1    0    0    0    0 -0.00000000000E+00 -0.00000000000E+00 -0.74505805969E-08  0.93827000000E+00  0.93827000000E+00 0.  1.
     999902    2    1    2    0    0  0.67966839922E-02 -0.21265905761E-01  0.59852102080E-02  0.10208160128E+01  0.10205542982E+01 0.  0.
     999903    2    3    3    0    0  0.77616674172E-01  0.66453382946E-01  0.77806637975E-01  0.13072137624E+00  0.24368116026E-01 0.  0.
         14    1    1    2    0    0 -0.67966839922E-02  0.21265905761E-01 -0.59852102080E-02  0.23113987159E-01  0.00000000000E+00 0. -1.
     999901    1    3    3    0    0 -0.70819990179E-01 -0.87719288707E-01 -0.71821427767E-01  0.89009463660E+00  0.88000000000E+00 0. -1.
        -11    1    4    4    0    0  0.27899548684E-01  0.35434057856E-01  0.23650651728E-01  0.50927121665E-01  0.51100000000E-03 0. -1.
         11    1    4    4    0    0  0.49717125487E-01  0.31019325089E-01  0.54155986247E-01  0.79794254574E-01  0.51100000000E-03 0.  1.
</event>
<event>
 8    1  0.1071333E+005  0.1043930E+01  0.7957747E-01            NaN
         13   -1    0    0    0    0  0.00000000000E+00  0.00000000000E+00  0.74505805969E-08  0.10566000000E+00  0.10566000000E+00 0. -1.
     999900   -1    0    0    0    0 -0.00000000000E+00 -0.00000000000E+00 -0.74505805969E-08  0.93827000000E+00  0.93827000000E+00 0.  1.
     999902    2    1    2    0    0  0.20883207672E-01  0.11443861306E-01  0.16582243305E-02  0.10200590965E+01  0.10197797509E+01 0.  0.
     999903    2    3    3    0    0 -0.93143205572E-01  0.69134797978E-01  0.53515746665E-01  0.12931812986E+00  0.20098918727E-01 0.  0.
         14    1    1    2    0    0 -0.20883207672E-01 -0.11443861306E-01 -0.16582243305E-02  0.23870903464E-01  0.00000000000E+00 0. -1.
     999901    1    3    3    0    0  0.11402641324E+00 -0.57690936672E-01 -0.51857522334E-01  0.89074096668E+00  0.88000000000E+00 0.  1.
        -11    1    4    4    0    0 -0.14330806939E-01  0.15097658027E-01  0.24396369822E-02  0.20964833770E-01  0.51100000000E-03 0.  1.
         11    1    4    4    0    0 -0.78812398633E-01  0.54037139951E-01  0.51076109682E-01  0.10835329609E+00  0.51100000000E-03 0. -1.
</event>
<event>
 8    1  0.1071333E+005  0.1043930E+01  0.7957747E-01            NaN
         13   -1    0    0    0    0  0.00000000000E+00  0.00000000000E+00  0.74505805969E-08  0.10566000000E+00  0.10566000000E+00 0. -1.
     999900   -1    0    0    0    0 -0.00000000000E+00 -0.00000000000E+00 -0.74505805969E-08  0.93827000000E+00  0.93827000000E+00 0. -1.
     999902    2    1    2    0    0  0.94678326573E-02 -0.13892798500E-01  0.18013195877E-01  0.10192900947E+01  0.10189922337E+01 0.  0.
     999903    2    3    3    0    0  0.10497634907E+00 -0.55286013263E-01 -0.50402228662E-01  0.13051793876E+00  0.20444328223E-01 0.  0.
         14    1    1    2    0    0 -0.94678326573E-02  0.13892798500E-01 -0.18013195877E-01  0.24639905257E-01  0.00000000000E+00 0.  1.
     999901    1    3    3    0    0 -0.95508516416E-01  0.41393214763E-01  0.68415424539E-01  0.88877215598E+00  0.88000000000E+00 0. -1.
        -11    1    4    4    0    0  0.46721286472E-01 -0.13940868065E-01 -0.24119183524E-01  0.54398736629E-01  0.51100000000E-03 0. -1.
         11    1    4    4    0    0  0.58255062601E-01 -0.41345145198E-01 -0.26283045139E-01  0.76119202130E-01  0.51100000000E-03 0.  1.
</event>
<event>
 8    1  0.1071333E+005  0.1043930E+01  0.7957747E-01            NaN
         13   -1    0    0    0    0  0.00000000000E+00  0.00000000000E+00  0.74505805969E-08  0.10566000000E+00  0.10566000000E+00 0. -1.
     999900   -1    0    0    0    0 -0.00000000000E+00 -0.00000000000E+00 -0.74505805969E-08  0.93827000000E+00  0.93827000000E+00 0.  1.
     999902    2    1    2    0    0  0.60706786655E-02  0.90131532333E-02  0.26578326621E-01  0.10152159352E+01  0.10148097839E+01 0.  0.
     999903    2    3    3    0    0 -0.42471237891E-01  0.41444677485E-01  0.11312026271E+00  0.12904573253E+00  0.18306826808E-01 0.  0.
         14    1    1    2    0    0 -0.60706786655E-02 -0.90131532333E-02 -0.26578326621E-01  0.28714064788E-01  0.00000000000E+00 0.  1.
     999901    1    3    3    0    0  0.48541916556E-01 -0.32431524252E-01 -0.86541936088E-01  0.88617020269E+00  0.88000000000E+00 0.  1.
        -11    1    4    4    0    0 -0.25580701810E-01  0.16474683831E-01  0.70997634410E-01  0.77244499644E-01  0.51100000000E-03 0. -1.
         11    1    4    4    0    0 -0.16890536080E-01  0.24969993655E-01  0.42122628299E-01  0.51801232881E-01  0.51100000000E-03 0.  1.
</event>
<event>
 8    1  0.1071333E+005  0.1043930E+01  0.7957747E-01            NaN
         13   -1    0    0    0    0  0.00000000000E+00  0.00000000000E+00  0.74505805969E-08  0.10566000000E+00  0.10566000000E+00 0.  1.
     999900   -1    0    0    0    0 -0.00000000000E+00 -0.00000000000E+00 -0.74505805969E-08  0.93827000000E+00  0.93827000000E+00 0.  1.
     999902    2    1    2    0    0  0.16696802038E-01 -0.12333625578E-01 -0.32668813434E-02  0.10229163370E+01  0.10227004735E+01 0.  0.
     999903    2    3    3    0    0 -0.75187286137E-01 -0.98402475773E-01  0.43470604040E-01  0.13272819669E+00  0.19771331453E-01 0.  0.
         14    1    1    2    0    0 -0.16696802038E-01  0.12333625578E-01  0.32668813434E-02  0.21013662982E-01  0.00000000000E+00 0. -1.
     999901    1    3    3    0    0  0.91884088175E-01  0.86068850194E-01 -0.46737485383E-01  0.89018814032E+00  0.88000000000E+00 0. -1.
        -11    1    4    4    0    0 -0.49839558594E-01 -0.49900262790E-01  0.21247416833E-01  0.73659566048E-01  0.51100000000E-03 0.  1.
         11    1    4    4    0    0 -0.25347727543E-01 -0.48502212982E-01  0.22223187207E-01  0.59068630646E-01  0.51100000000E-03 0. -1.
</event>
<event>
 8    1  0.1071333E+005  0.1043930E+01  0.7957747E-01            NaN
         13   -1    0    0    0    0  0.00000000000E+00  0.00000000000E+00  0.74505805969E-08  0.10566000000E+00  0.10566000000E+00 0. -1.
     999900   -1    0    0    0    0 -0.00000000000E+00 -0.00000000000E+00 -0.74505805969E-08  0.93827000000E+00  0.93827000000E+00 0. -1.
     999902    2    1    2    0    0 -0.74581131471E-02 -0.99118055799E-02  0.19091337890E-01  0.10211627752E+01  0.10209089416E+01 0.  0.
     999903    2    3    3    0    0  0.82739308546E-01  0.94452184573E-01  0.27044072270E-01  0.13038184632E+00  0.22383825741E-01 0.  0.
         14    1    1    2    0    0  0.74581131471E-02  0.99118055799E-02 -0.19091337890E-01  0.22767224776E-01  0.00000000000E+00 0. -1.
     999901    1    3    3    0    0 -0.90197421693E-01 -0.10436399015E+00 -0.79527343807E-02  0.89078092891E+00  0.88000000000E+00 0. -1.
        -11    1    4    4    0    0  0.57255265161E-01  0.52707959769E-01  0.94170379651E-02  0.78391556540E-01  0.51100000000E-03 0. -1.
         11    1    4    4    0    0  0.25484043384E-01  0.41744224804E-01  0.17627034305E-01  0.51990289777E-01  0.51100000000E-03 0.  1.
</event>
<event>
 8    1  0.1071333E+005  0.1043930E+01  0.7957747E-01            NaN
         13   -1    0    0    0    0  0.00000000000E+00  0.00000000000E+00  0.74505805969E-08  0.10566000000E+00  0.10566000000E+00 0.  1.
     999900   -1    0    0    0    0 -0.00000000000E+00 -0.00000000000E+00 -0.74505805969E-08  0.93827000000E+00  0.93827000000E+00 0. -1.
     999902    2    1    2    0    0 -0.46638800500E-02  0.22865691635E-01 -0.58985552444E-02  0.10198595911E+01  0.10195755004E+01 0.  0.
     999903    2    3    3    0    0  0.10578771915E+00 -0.79655983107E-02 -0.72246718843E-01  0.12994262698E+00  0.20273274109E-01 0.  0.
         14    1    1    2    0    0  0.46638800500E-02 -0.22865691635E-01  0.58985552444E-02  0.24070408909E-01  0.00000000000E+00 0.  1.
     999901    1    3    3    0    0 -0.11045159920E+00  0.30831289946E-01  0.66348163598E-01  0.88991696411E+00  0.88000000000E+00 0.  1.
        -11    1    4    4    0    0  0.85150848467E-01 -0.80294482339E-02 -0.47926863745E-01  0.98042768337E-01  0.51100000000E-03 0.  1.
         11    1    4    4    0    0  0.20636870681E-01  0.63849923177E-04 -0.24319855097E-01  0.31899858640E-01  0.51100000000E-03 0. -1.
</event>
<event>
 8    1  0.1071333E+005  0.1043930E+01  0.7957747E-01            NaN
         13   -1    0    0    0    0  0.00000000000E+00  0.00000000000E+00  0.74505805969E-08  0.10566000000E+00  0.10566000000E+00 0.  1.
     999900   -1    0    0    0    0 -0.00000000000E+00 -0.00000000000E+00 -0.74505805969E-08  0.93827000000E+00  0.93827000000E+00 0.  1.
     999902    2    1    2    0    0 -0.22509835482E-01 -0.50035313596E-02 -0.24462214633E-02  0.10207413817E+01  0.10204779548E+01 0.  0.
     999903    2    3    3    0    0  0.61830868256E-01  0.73870988496E-01  0.84010802877E-01  0.12899626046E+00  0.17385079849E-01 0.  0.
         14    1    1    2    0    0  0.22509835482E-01  0.50035313596E-02  0.24462214633E-02  0.23188618306E-01  0.00000000000E+00 0.  1.
     999901    1    3    3    0    0 -0.84340703739E-01 -0.78874519856E-01 -0.86457024341E-01  0.89174512124E+00  0.88000000000E+00 0.  1.
        -11    1    4    4    0    0  0.25218008085E-01  0.43208034261E-01  0.40097769751E-01  0.64116880901E-01  0.51100000000E-03 0. -1.
         11    1    4    4    0    0  0.36612860171E-01  0.30662954235E-01  0.43913033126E-01  0.64879379557E-01  0.51100000000E-03 0.  1.
</event>
<event>
 8    1  0.1071333E+005  0.1043930E+01  0.7957747E-01            NaN
         13   -1    0    0    0    0  0.00000000000E+00  0.00000000000E+00  0.74505805969E-08  0.10566000000E+00  0.10566000000E+00 0.  1.
     999900   -1    0    0    0    0 -0.00000000000E+00 -0.00000000000E+00 -0.74505805969E-08  0.93827000000E+00  0.93827000000E+00 0. -1.
     999902    2    1    2    0    0 -0.14465046405E-02  0.19877239802E-01  0.12478080961E-01  0.10204161840E+01  0.10201452294E+01 0.  0.
     999903    2    3    3    0    0 -0.51861843250E-01 -0.11374190833E+00  0.23813082298E-01  0.12883092989E+00  0.20086640104E-01 0.  0.
         14    1    1    2    0    0  0.14465046405E-02 -0.19877239802E-01 -0.12478080961E-01  0.23513815987E-01  0.00000000000E+00 0. -1.
     999901    1    3    3    0    0  0.50415338610E-01  0.13361914814E+00 -0.11335001337E-01  0.89158525412E+00  0.88000000000E+00 0.  1.
        -11    1    4    4    0    0 -0.45903966706E-01 -0.10124139893E+00  0.14429979274E-01  0.11209585380E+00  0.51100000000E-03 0. -1.
         11    1    4    4    0    0 -0.59578765445E-02 -0.12500509403E-01  0.93831030241E-02  0.16735076087E-01  0.51100000000E-03 0.  1.
</event>
<event>
 8    1  0.1071333E+005  0.1043930E+01  0.7957747E-01            NaN
         13   -1    0    0    0    0  0.00000000000E+00  0.00000000000E+00  0.74505805969E-08  0.10566000000E+00  0.10566000000E+00 0.  1.
     999900   -1    0    0    0    0 -0.00000000000E+00 -0.00000000000E+00 -0.74505805969E-08  0.93827000000E+00  0.93827000000E+00 0. -1.
     999902    2    1    2    0    0 -0.47269447543E-02  0.63207132510E-02  0.22765762494E-01  0.10198348684E+01  0.10195501869E+01 0.  0.
     999903    2    3    3    0    0 -0.94371115887E-01  0.47479142302E-02  0.92036385142E-01  0.13257111382E+00  0.13264758770E-01 0.  0.
         14    1    1    2    0    0  0.47269447543E-02 -0.63207132510E-02 -0.22765762494E-01  0.24095131555E-01  0.00000000000E+00 0. -1.
     999901    1    3    3    0    0  0.89644171133E-01  0.15727990208E-02 -0.69270622647E-01  0.88726375463E+00  0.88000000000E+00 0. -1.
        -11    1    4    4    0    0 -0.25480867866E-01  0.62411511338E-02  0.21043622292E-01  0.33635126800E-01  0.51100000000E-03 0.  1.
         11    1    4    4    0    0 -0.68890248021E-01 -0.14932369036E-02  0.70992762850E-01  0.98935987016E-01  0.51100000000E-03 0. -1.
</event>
<event>
 8    1  0.1071333E+005  0.1043930E+01  0.7957747E-01            NaN
         13   -1    0    0    0    0  0.00000000000E+00  0.00000000000E+00  0.74505805969E-08  0.10566000000E+00  0.10566000000E+00 0. -1.
     999900   -1    0    0    0    0 -0.00000000000E+00 -0.00000000000E+00 -0.74505805969E-08  0.93827000000E+00  0.93827000000E+00 0. -1.
     999902    2    1    2    0    0 -0.18237487899E-01 -0.11852115735E-01  0.76857725553E-02  0.10208616296E+01  0.10206009588E+01 0.  0.
     999903    2    3    3    0    0  0.77571998140E-01  0.10028953667E+00 -0.67471457275E-02  0.12846960985E+00  0.19583427111E-01 0.  0.
         14    1    1    2    0    0  0.18237487899E-01  0.11852115735E-01 -0.76857725553E-02  0.23068370381E-01  0.00000000000E+00 0.  1.
     999901    1    3    3    0    0 -0.95809486039E-01 -0.11214165241E+00  0.14432918283E-01  0.89239201977E+00  0.88000000000E+00 0.  1.
        -11    1    4    4    0    0  0.64464828182E-01  0.72029499205E-01 -0.98176053427E-02  0.97162798045E-01  0.51100000000E-03 0.  1.
         11    1    4    4    0    0  0.13107169959E-01  0.28260037469E-01  0.30704596152E-02  0.31306811803E-01  0.51100000000E-03 0. -1.
</event>
<event>
 8    1  0.1071333E+005  0.1043930E+01  0.7957747E-01            NaN
         13   -1    0    0    0    0  0.00000000000E+00  0.00000000000E+00  0.74505805969E-08  0.10566000000E+00  0.10566000000E+00 0. -1.
     999900   -1    0    0    0    0 -0.00000000000E+00 -0.00000000000E+00 -0.74505805969E-08  0.93827000000E+00  0.93827000000E+00 0.  1.
     999902    2    1    2    0    0 -0.18390692747E-01  0.72123984191E-02 -0.14680283701E-01  0.10193180720E+01  0.10190208952E+01 0.  0.
     999903    2    3    3    0    0 -0.11231523258E+00 -0.45041944351E-01  0.45335458391E-01  0.13074943378E+00  0.19915381630E-01 0.  0.
         14    1    1    2    0    0  0.18390692747E-01 -0.72123984191E-02  0.14680283701E-01  0.24611928007E-01  0.00000000000E+00 0. -1.
     999901    1    3    3    0    0  0.93924539832E-01  0.52254342770E-01 -0.60015742092E-01  0.88856863822E+00  0.88000000000E+00 0.  1.
        -11    1    4    4    0    0 -0.30419591329E-01 -0.37931054477E-02  0.75809068953E-02  0.31582755673E-01  0.51100000000E-03 0. -1.
         11    1    4    4    0    0 -0.81895641250E-01 -0.41248838903E-01  0.37754551495E-01  0.99166678104E-01  0.51100000000E-03 0.  1.
</event>
<event>
 8    1  0.1071333E+005  0.1043930E+01  0.7957747E-01            NaN
         13   -1    0    0    0    0  0.00000000000E+00  0.00000000000E+00  0.74505805969E-08  0.10566000000E+00  0.10566000000E+00 0.  1.
     999900   -1    0    0    0    0 -0.00000000000E+00 -0.00000000000E+00 -0.74505805969E-08  0.93827000000E+00  0.93827000000E+00 0.  1.
     999902    2    1    2    0    0 -0.56352434398E-02  0.98049534695E-02  0.23221688853E-01  0.10181009482E+01  0.10177732561E+01 0.  0.
     999903    2    3    3    0    0  0.89993695892E-01  0.90089545741E-01  0.91994828396E-02  0.12917624275E+00  0.19669256550E-01 0.  0.
         14    1    1    2    0    0  0.56352434398E-02 -0.98049534695E-02 -0.23221688853E-01  0.25829051751E-01  0.00000000000E+00 0. -1.
     999901    1    3    3    0    0 -0.95628939332E-01 -0.80284592271E-01  0.14022206013E-01  0.88892470550E+00  0.88000000000E+00 0. -1.
        -11    1    4    4    0    0  0.75833842517E-01  0.75006609266E-01  0.14930298486E-01  0.10770300849E+00  0.51100000000E-03 0. -1.
         11    1    4    4    0    0  0.14159853375E-01  0.15082936475E-01 -0.57308156465E-02  0.21473234253E-01  0.51100000000E-03 0.  1.
</event>
<event>
 8    1  0.1071333E+005  0.1043930E+01  0.7957747E-01            NaN
         13   -1    0    0    0    0  0.00000000000E+00  0.00000000000E+00  0.74505805969E-08  0.10566000000E+00  0.10566000000E+00 0. -1.
     999900   -1    0    0    0    0 -0.00000000000E+00 -0.00000000000E+00 -0.74505805969E-08  0.93827000000E+00  0.93827000000E+00 0. -1.
     999902    2    1    2    0    0  0.90690611408E-02  0.15785436124E-01  0.10398977629E-01  0.10229641564E+01  0.10227492843E+01 0.  0.
     999903    2    3    3    0    0  0.94856093022E-01  0.45202037950E-01 -0.80092273710E-01  0.13368724906E+00  0.20410919482E-01 0.  0.
         14    1    1    2    0    0 -0.90690611408E-02 -0.15785436124E-01 -0.10398977629E-01  0.20965843635E-01  0.00000000000E+00 0. -1.
     999901    1    3    3    0    0 -0.85787031882E-01 -0.29416601826E-01  0.90491251339E-01  0.88927690731E+00  0.88000000000E+00 0.  1.
        -11    1    4    4    0    0  0.56833958398E-01  0.35002405645E-01 -0.58656904046E-01  0.88860344032E-01  0.51100000000E-03 0. -1.
         11    1    4    4    0    0  0.38022134624E-01  0.10199632305E-01 -0.21435369664E-01  0.44826905025E-01  0.51100000000E-03 0.  1.
</event>
<event>
 8    1  0.1071333E+005  0.1043930E+01  0.7957747E-01            NaN
         13   -1    0    0    0    0  0.00000000000E+00  0.00000000000E+00  0.74505805969E-08  0.10566000000E+00  0.10566000000E+00 0.  1.
     999900   -1    0    0    0    0 -0.00000000000E+00 -0.00000000000E+00 -0.74505805969E-08  0.93827000000E+00  0.93827000000E+00 0. -1.
     999902    2    1    2    0    0  0.11979350935E-01 -0.62489168522E-02  0.20205302522E-01  0.10196234564E+01  0.10193336965E+01 0.  0.
     999903    2    3    3    0    0 -0.23716779352E-01 -0.31925456868E-01  0.12448874436E+00  0.13237572627E+00  0.21075222758E-01 0.  0.
         14    1    1    2    0    0 -0.11979350935E-01  0.62489168522E-02 -0.20205302522E-01  0.24306543577E-01  0.00000000000E+00 0. -1.
     999901    1    3    3    0    0  0.35696130287E-01  0.25676540016E-01 -0.10428344183E+00  0.88724773016E+00  0.88000000000E+00 0. -1.
        -11    1    4    4    0    0 -0.20284164063E-01 -0.17090857218E-01  0.52849222551E-01  0.59134136990E-01  0.51100000000E-03 0. -1.
         11    1    4    4    0    0 -0.34326152884E-02 -0.14834599650E-01  0.71639521805E-01  0.73241589278E-01  0.51100000000E-03 0.  1.
</event>
<event>
 8    1  0.1071333E+005  0.1043930E+01  0.7957747E-01            NaN
         13   -1    0    0    0    0  0.00000000000E+00  0.00000000000E+00  0.74505805969E-08  0.10566000000E+00  0.10566000000E+00 0.  1.
     999900   -1    0    0    0    0 -0.00000000000E+00 -0.00000000000E+00 -0.74505805969E-08  0.93827000000E+00  0.93827000000E+00 0.  1.
     999902    2    1    2    0    0  0.52204517964E-02  0.11358596515E-01  0.19730549546E-01  0.10205726582E+01  0.10203053392E+01 0.  0.
     999903    2    3    3    0    0 -0.40988273736E-01  0.10343277507E+00 -0.65159188330E-01  0.13050571223E+00  0.20190184691E-01 0.  0.
         14    1    1    2    0    0 -0.52204517964E-02 -0.11358596515E-01 -0.19730549546E-01  0.23357341826E-01  0.00000000000E+00 0. -1.
     999901    1    3    3    0    0  0.46208725532E-01 -0.92074178552E-01  0.84889737877E-01  0.89006694595E+00  0.88000000000E+00 0. -1.
        -11    1    4    4    0    0 -0.39098422719E-01  0.87412686019E-01 -0.61947268153E-01  0.11404994296E+00  0.51100000000E-03 0. -1.
         11    1    4    4    0    0 -0.18898510169E-02  0.16020089049E-01 -0.32119201779E-02  0.16455769269E-01  0.51100000000E-03 0.  1.
</event>
<event>
 8    1  0.1071333E+005  0.1043930E+01  0.7957747E-01            NaN
         13   -1    0    0    0    0  0.00000000000E+00  0.00000000000E+00  0.74505805969E-08  0.10566000000E+00  0.10566000000E+00 0.  1.
     999900   -1    0    0    0    0 -0.00000000000E+00 -0.00000000000E+00 -0.74505805969E-08  0.93827000000E+00  0.93827000000E+00 0.  1.
     999902    2    1    2    0    0  0.94904750780E-02 -0.22868651238E-01  0.11671354324E-01  0.10165572976E+01  0.10161887002E+01 0.  0.
     999903    2    3    3    0    0 -0.11683744809E+00  0.32529096448E-01 -0.23298307462E-01  0.12512556610E+00  0.20111309490E-01 0.  0.
         14    1    1    2    0    0 -0.94904750780E-02  0.22868651238E-01 -0.11671354324E-01  0.27372702431E-01  0.00000000000E+00 0. -1.
     999901    1    3    3    0    0  0.12632792317E+00 -0.55397747685E-01  0.34969661786E-01  0.89143173147E+00  0.88000000000E+00 0. -1.
        -11    1    4    4    0    0 -0.33357906176E-01  0.17974299371E-01 -0.11267884701E-01  0.39535448511E-01  0.51100000000E-03 0.  1.
         11    1    4    4    0    0 -0.83479541916E-01  0.14554797077E-01 -0.12030422761E-01  0.85590117591E-01  0.51100000000E-03 0. -1.
</event>
<event>
 8    1  0.1071333E+005  0.1043930E+01  0.7957747E-01            NaN
         13   -1    0    0    0    0  0.00000000000E+00  0.00000000000E+00  0.74505805969E-08  0.10566000000E+00  0.10566000000E+00 0.  1.
     999900   -1    0    0    0    0 -0.00000000000E+00 -0.00000000000E+00 -0.74505805969E-08  0.93827000000E+00  0.93827000000E+00 0. -1.
     999902    2    1    2    0    0 -0.20092064762E-01 -0.12040828143E-01  0.44672541336E-02  0.10200840576E+01  0.10198053028E+01 0.  0.
     999903    2    3    3    0    0 -0.99287251854E-01 -0.46466751145E-01 -0.71659198199E-01  0.13258630631E+00  0.20663266697E-01 0.  0.
         14    1    1    2    0    0  0.20092064762E-01  0.12040828143E-01 -0.44672541336E-02  0.23845942385E-01  0.00000000000E+00 0.  1.
     999901    1    3    3    0    0  0.79195187092E-01  0.34425923003E-01  0.76126452333E-01  0.88749775131E+00  0.88000000000E+00 0.  1.
        -11    1    4    4    0    0 -0.79272478162E-01 -0.36081088610E-01 -0.66142771045E-01  0.10936680498E+00  0.51100000000E-03 0. -1.
         11    1    4    4    0    0 -0.20014773692E-01 -0.10385662536E-01 -0.55164271544E-02  0.23219501325E-01  0.51100000000E-03 0.  1.
</event>
<event>
 8    1  0.1071333E+005  0.1043930E+01  0.7957747E-01            NaN
         13   -1    0    0    0    0  0.00000000000E+00  0.00000000000E+00  0.74505805969E-08  0.10566000000E+00  0.10566000000E+00 0. -1.
     999900   -1    0    0    0    0 -0.00000000000E+00 -0.00000000000E+00 -0.74505805969E-08  0.93827000000E+00  0.93827000000E+00 0.  1.
     999902    2    1    2    0    0  0.84078844907E-02 -0.67454491758E-02  0.18981946445E-01  0.10221009392E+01  0.10218678104E+01 0.  0.
     999903    2    3    3    0    0  0.20227539134E-01 -0.12847483994E+00  0.19649725850E-01  0.13364261446E+00  0.23649499690E-01 0.  0.
         14    1    1    2    0    0 -0.84078844907E-02  0.67454491758E-02 -0.18981946445E-01  0.21829060837E-01  0.00000000000E+00 0.  1.
     999901    1    3    3    0    0 -0.11819654644E-01  0.12172939076E+00 -0.66777940429E-03  0.88845832471E+00  0.88000000000E+00 0. -1.
        -11    1    4    4    0    0  0.14819948300E-01 -0.11870648589E+00  0.12286789814E-01  0.12025841753E+00  0.51100000000E-03 0. -1.
         11    1    4    4    0    0  0.54075908345E-02 -0.97683540465E-02  0.73629360352E-02  0.13384196930E-01  0.51100000000E-03 0.  1.
</event>
<event>
 8    1  0.1071333E+005  0.1043930E+01  0.7957747E-01            NaN
         13   -1    0    0    0    0  0.00000000000E+00  0.00000000000E+00  0.74505805969E-08  0.10566000000E+00  0.10566000000E+00 0.  1.
     999900   -1    0    0    0    0 -0.00000000000E+00 -0.00000000000E+00 -0.74505805969E-08  0.93827000000E+00  0.93827000000E+00 0. -1.
     999902    2    1    2    0    0 -0.74512651671E-02 -0.21013297188E-01  0.61985208227E-02  0.10207890909E+01  0.10205267593E+01 0.  0.
     999903    2    3    3    0    0  0.76431733200E-01  0.82960255695E-01  0.59486360858E-01  0.12911288794E+00  0.20181596560E-01 0.  0.
         14    1    1    2    0    0  0.74512651671E-02  0.21013297188E-01 -0.61985208227E-02  0.23140909050E-01  0.00000000000E+00 0.  1.
     999901    1    3    3    0    0 -0.83882998367E-01 -0.10397355288E+00 -0.53287840035E-01  0.89167620301E+00  0.88000000000E+00 0. -1.
        -11    1    4    4    0    0  0.54681332293E-01  0.55021457435E-01  0.30510937157E-01  0.83358186682E-01  0.51100000000E-03 0. -1.
         11    1    4    4    0    0  0.21750400907E-01  0.27938798260E-01  0.28975423700E-01  0.45754701260E-01  0.51100000000E-03 0.  1.
</event>
<event>
 8    1  0.1071333E+005  0.1043930E+01  0.7957747E-01            NaN
         13   -1    0    0    0    0  0.00000000000E+00  0.00000000000E+00  0.74505805969E-08  0.10566000000E+00  0.10566000000E+00 0.  1.
     999900   -1    0    0    0    0 -0.00000000000E+00 -0.00000000000E+00 -0.74505805969E-08  0.93827000000E+00  0.93827000000E+00 0. -1.
     999902    2    1    2    0    0  0.21389168913E-01  0.11401919828E-01  0.85573225442E-03  0.10196764930E+01  0.10193880114E+01 0.  0.
     999903    2    3    3    0    0 -0.11514828431E-01 -0.39766659818E-01 -0.12090516996E+00  0.12921222430E+00  0.19072500553E-01 0.  0.
         14    1    1    2    0    0 -0.21389168913E-01 -0.11401919828E-01 -0.85573225442E-03  0.24253506968E-01  0.00000000000E+00 0. -1.
     999901    1    3    3    0    0  0.32903997344E-01  0.51168579647E-01  0.12176090222E+00  0.89046426873E+00  0.88000000000E+00 0.  1.
        -11    1    4    4    0    0 -0.10798530652E-01 -0.11415337441E-01 -0.60003236625E-01  0.62028765259E-01  0.51100000000E-03 0.  1.
         11    1    4    4    0    0 -0.71629777861E-03 -0.28351322378E-01 -0.60901933338E-01  0.67183459038E-01  0.51100000000E-03 0. -1.
</event>
<event>
 8    1  0.1071333E+005  0.1043930E+01  0.7957747E-01            NaN
         13   -1    0    0    0    0  0.00000000000E+00  0.00000000000E+00  0.74505805969E-08  0.10566000000E+00  0.10566000000E+00 0. -1.
     999900   -1    0    0    0    0 -0.00000000000E+00 -0.00000000000E+00 -0.74505805969E-08  0.93827000000E+00  0.93827000000E+00 0. -1.
     999902    2    1    2    0    0  0.15889571390E-01  0.74480126525E-02  0.18842121802E-01  0.10181816617E+01  0.10178560406E+01 0.  0.
     999903    2    3    3    0    0 -0.42477803053E-01  0.11967036712E+00  0.15457409338E-01  0.12913044634E+00  0.17617609138E-01 0.  0.
         14    1    1    2    0    0 -0.15889571390E-01 -0.74480126525E-02 -0.18842121802E-01  0.25748338304E-01  0.00000000000E+00 0.  1.
     999901    1    3    3    0    0  0.58367374443E-01 -0.11222235446E+00  0.33847124639E-02  0.88905121535E+00  0.88000000000E+00 0.  1.
        -11    1    4    4    0    0 -0.22849054295E-01  0.51889696359E-01 -0.83729422077E-03  0.56706102432E-01  0.51100000000E-03 0.  1.
         11    1    4    4    0    0 -0.19628748758E-01  0.67780670757E-01  0.16294703558E-01  0.72424343912E-01  0.51100000000E-03 0. -1.
</event>
<event>
 8    1  0.1071333E+005  0.1043930E+01  0.7957747E-01            NaN
         13   -1    0    0    0    0  0.00000000000E+00  0.00000000000E+00  0.74505805969E-08  0.10566000000E+00  0.10566000000E+00 0. -1.
     999900   -1    0    0    0    0 -0.00000000000E+00 -0.00000000000E+00 -0.74505805969E-08  0.93827000000E+00  0.93827000000E+00 0.  1.
     999902    2    1    2    0    0  0.15102403097E-01  0.18535336999E-01  0.34120101402E-02  0.10197787452E+01  0.10194927199E+01 0.  0.
     999903    2    3    3    0    0 -0.27974575843E-01  0.12545418091E+00 -0.21709980256E-01  0.13190579271E+00  0.20161510531E-01 0.  0.
         14    1    1    2    0    0 -0.15102403097E-01 -0.18535336999E-01 -0.34120101402E-02  0.24151254837E-01  0.00000000000E+00 0.  1.
     999901    1    3    3    0    0  0.43076978940E-01 -0.10691884391E+00  0.25121990397E-01  0.88787295245E+00  0.88000000000E+00 0.  1.
        -11    1    4    4    0    0 -0.20302269197E-01  0.46740462705E-01 -0.10409380343E-01  0.52014126048E-01  0.51100000000E-03 0. -1.
         11    1    4    4    0    0 -0.76723066453E-02  0.78713718203E-01 -0.11300599913E-01  0.79891666662E-01  0.51100000000E-03 0.  1.
</event>
<event>
 8    1  0.1071333E+005  0.1043930E+01  0.7957747E-01            NaN
         13   -1    0    0    0    0  0.00000000000E+00  0.00000000000E+00  0.74505805969E-08  0.10566000000E+00  0.10566000000E+00 0. -1.
     999900   -1    0    0    0    0 -0.00000000000E+00 -0.00000000000E+00 -0.74505805969E-08  0.93827000000E+00  0.93827000000E+00 0. -1.
     999902    2    1    2    0    0  0.16437905291E-01  0.14565325185E-01  0.83605207898E-02  0.10204299631E+01  0.10201593296E+01 0.  0.
     999903    2    3    3    0    0 -0.11157018482E+00  0.55155817342E-01  0.31046409080E-01  0.12995351267E+00  0.20831841232E-01 0.  0.
         14    1    1    2    0    0 -0.16437905291E-01 -0.14565325185E-01 -0.83605207898E-02  0.23500036935E-01  0.00000000000E+00 0.  1.
     999901    1    3    3    0    0  0.12800809011E+00 -0.40590492157E-01 -0.22685888290E-01  0.89047645040E+00  0.88000000000E+00 0.  1.
        -11    1    4    4    0    0 -0.55004904662E-01  0.38295277403E-01  0.19546375966E-01  0.69816829939E-01  0.51100000000E-03 0. -1.
         11    1    4    4    0    0 -0.56565280161E-01  0.16860539938E-01  0.11500033114E-01  0.60136682727E-01  0.51100000000E-03 0.  1.
</event>
<event>
 8    1  0.1071333E+005  0.1043930E+01  0.7957747E-01            NaN
         13   -1    0    0    0    0  0.00000000000E+00  0.00000000000E+00  0.74505805969E-08  0.10566000000E+00  0.10566000000E+00 0. -1.
     999900   -1    0    0    0    0 -0.00000000000E+00 -0.00000000000E+00 -0.74505805969E-08  0.93827000000E+00  0.93827000000E+00 0.  1.
     999902    2    1    2    0    0 -0.52673734068E-02 -0.91080460423E-02  0.22583968189E-01  0.10190153990E+01  0.10187107764E+01 0.  0.
     999903    2    3    3    0    0 -0.50271838156E-01  0.94432569567E-01  0.71863298057E-01  0.13043534446E+00  0.20106654844E-01 0.  0.
         14    1    1    2    0    0  0.52673734068E-02  0.91080460423E-02 -0.22583968189E-01  0.24914601030E-01  0.00000000000E+00 0.  1.
     999901    1    3    3    0    0  0.45004464750E-01 -0.10354061561E+00 -0.49279329868E-01  0.88858005451E+00  0.88000000000E+00 0.  1.
        -11    1    4    4    0    0 -0.33804442559E-01  0.44107851091E-01  0.41837083008E-01  0.69561810645E-01  0.51100000000E-03 0.  1.
         11    1    4    4    0    0 -0.16467395597E-01  0.50324718476E-01  0.30026215050E-01  0.60873533811E-01  0.51100000000E-03 0. -1.
</event>
<event>
 8    1  0.1071333E+005  0.1043930E+01  0.7957747E-01            NaN
         13   -1    0    0    0    0  0.00000000000E+00  0.00000000000E+00  0.74505805969E-08  0.10566000000E+00  0.10566000000E+00 0. -1.
     999900   -1    0    0    0    0 -0.00000000000E+00 -0.00000000000E+00 -0.74505805969E-08  0.93827000000E+00  0.93827000000E+00 0. -1.
     999902    2    1    2    0    0 -0.63787532405E-02  0.21606096747E-01  0.53421764185E-03  0.10213956418E+01  0.10211470315E+01 0.  0.
     999903    2    3    3    0    0  0.88692806767E-01  0.73360004618E-01 -0.61762673338E-01  0.13257734143E+00  0.22671995797E-01 0.  0.
         14    1    1    2    0    0  0.63787532405E-02 -0.21606096747E-01 -0.53421764185E-03  0.22534358168E-01  0.00000000000E+00 0.  1.
     999901    1    3    3    0    0 -0.95071560008E-01 -0.51753907871E-01  0.62296890979E-01  0.88881830040E+00  0.88000000000E+00 0.  1.
        -11    1    4    4    0    0  0.35422126910E-01  0.43982686008E-01 -0.29550330999E-01  0.63739210275E-01  0.51100000000E-03 0.  1.
         11    1    4    4    0    0  0.53270679857E-01  0.29377318609E-01 -0.32212342338E-01  0.68838131156E-01  0.51100000000E-03 0. -1.
</event>
<event>
 8    1  0.1071333E+005  0.1043930E+01  0.7957747E-01            NaN
         13   -1    0    0    0    0  0.00000000000E+00  0.00000000000E+00  0.74505805969E-08  0.10566000000E+00  0.10566000000E+00 0. -1.
     999900   -1    0    0    0    0 -0.00000000000E+00 -0.00000000000E+00 -0.74505805969E-08  0.93827000000E+00  0.93827000000E+00 0. -1.
     999902    2    1    2    0    0  0.84780119898E-02  0.16604626708E-01  0.15027437044E-01  0.10199839319E+01  0.10197028033E+01 0.  0.
     999903    2    3    3    0    0 -0.14776482079E-01 -0.89574953902E-01 -0.86982492026E-01  0.12744771385E+00  0.20855432292E-01 0.  0.
         14    1    1    2    0    0 -0.84780119898E-02 -0.16604626708E-01 -0.15027437044E-01  0.23946068144E-01  0.00000000000E+00 0. -1.
     999901    1    3    3    0    0  0.23254494069E-01  0.10617958061E+00  0.10200992907E+00  0.89253621801E+00  0.88000000000E+00 0.  1.
        -11    1    4    4    0    0 -0.16565190518E-01 -0.44454361426E-01 -0.51452118280E-01  0.69986980098E-01  0.51100000000E-03 0.  1.
         11    1    4    4    0    0  0.17887084387E-02 -0.45120592476E-01 -0.35530373746E-01  0.57460733748E-01  0.51100000000E-03 0. -1.
</event>
<event>
 8    1  0.1071333E+005  0.1043930E+01  0.7957747E-01            NaN
         13   -1    0    0    0    0  0.00000000000E+00  0.00000000000E+00  0.74505805969E-08  0.10566000000E+00  0.10566000000E+00 0.  1.
     999900   -1    0    0    0    0 -0.00000000000E+00 -0.00000000000E+00 -0.74505805969E-08  0.93827000000E+00  0.93827000000E+00 0.  1.
     999902    2    1    2    0    0  0.83933131686E-02 -0.20121629884E-01 -0.73359361200E-02  0.10209268773E+01  0.10206676957E+01 0.  0.
     999903    2    3    3    0    0  0.72128677880E-01 -0.67437781372E-01  0.85928898475E-01  0.13244539506E+00  0.20189268225E-01 0.  0.
         14    1    1    2    0    0 -0.83933131686E-02  0.20121629884E-01  0.73359361200E-02  0.23003122699E-01  0.00000000000E+00 0.  1.
     999901    1    3    3    0    0 -0.63735364711E-01  0.47316151487E-01 -0.93264834595E-01  0.88848148224E+00  0.88000000000E+00 0.  1.
        -11    1    4    4    0    0  0.27071251355E-01 -0.18417372650E-01  0.18180956993E-01  0.37454780515E-01  0.51100000000E-03 0.  1.
         11    1    4    4    0    0  0.45057426525E-01 -0.49020408722E-01  0.67747941482E-01  0.94990614549E-01  0.51100000000E-03 0. -1.
</event>
<event>
 8    1  0.1071333E+005  0.1043930E+01  0.7957747E-01            NaN
         13   -1    0    0    0    0  0.00000000000E+00  0.00000000000E+00  0.74505805969E-08  0.10566000000E+00  0.10566000000E+00 0. -1.
     999900   -1    0    0    0    0 -0.00000000000E+00 -0.00000000000E+00 -0.74505805969E-08  0.93827000000E+00  0.93827000000E+00 0.  1.
     999902    2    1    2    0    0 -0.16218155378E-02 -0.22358322827E-01 -0.12805868478E-02  0.10214763859E+01  0.10212295736E+01 0.  0.
     999903    2    3    3    0    0  0.85314660091E-01  0.94336067012E-01  0.12375328218E-01  0.12942144617E+00  0.20466490017E-01 0.  0.
         14    1    1    2    0    0  0.16218155378E-02  0.22358322827E-01  0.12805868478E-02  0.22453614140E-01  0.00000000000E+00 0. -1.
     999901    1    3    3    0    0 -0.86936475629E-01 -0.11669438984E+00 -0.13655915066E-01  0.89205493969E+00  0.88000000000E+00 0.  1.
        -11    1    4    4    0    0  0.13693065253E-01  0.78006369012E-02  0.61290006175E-02  0.16916729639E-01  0.51100000000E-03 0.  1.
         11    1    4    4    0    0  0.71621594838E-01  0.86535430111E-01  0.62463276003E-02  0.11250471653E+00  0.51100000000E-03 0. -1.
</event>
<event>
 8    1  0.1071333E+005  0.1043930E+01  0.7957747E-01            NaN
         13   -1    0    0    0    0  0.00000000000E+00  0.00000000000E+00  0.74505805969E-08  0.10566000000E+00  0.10566000000E+00 0.  1.
     999900   -1    0    0    0    0 -0.00000000000E+00 -0.00000000000E+00 -0.74505805969E-08  0.93827000000E+00  0.93827000000E+00 0. -1.
     999902    2    1    2    0    0 -0.22223771460E-01 -0.69844850415E-02  0.85082784090E-03  0.10206189949E+01  0.10203527478E+01 0.  0.
     999903    2    3    3    0    0 -0.22384757410E-01 -0.56494187122E-01 -0.11516185922E+00  0.13162508040E+00  0.19241554722E-01 0.  0.
         14    1    1    2    0    0  0.22223771460E-01  0.69844850415E-02 -0.85082784090E-03  0.23311005067E-01  0.00000000000E+00 0. -1.
     999901    1    3    3    0    0  0.16098594966E-03  0.49509702080E-01  0.11601268706E+00  0.88899391453E+00  0.88000000000E+00 0.  1.
        -11    1    4    4    0    0 -0.92708044922E-02 -0.29777950203E-01 -0.39582248224E-01  0.50395333412E-01  0.51100000000E-03 0.  1.
         11    1    4    4    0    0 -0.13113952918E-01 -0.26716236919E-01 -0.75579610998E-01  0.81229746988E-01  0.51100000000E-03 0. -1.
</event>
<event>
 8    1  0.1071333E+005  0.1043930E+01  0.7957747E-01            NaN
         13   -1    0    0    0    0  0.00000000000E+00  0.00000000000E+00  0.74505805969E-08  0.10566000000E+00  0.10566000000E+00 0. -1.
     999900   -1    0    0    0    0 -0.00000000000E+00 -0.00000000000E+00 -0.74505805969E-08  0.93827000000E+00  0.93827000000E+00 0. -1.
     999902    2    1    2    0    0  0.23697159220E-01  0.35139861033E-02 -0.11945347149E-02  0.10199439548E+01  0.10196618756E+01 0.  0.
     999903    2    3    3    0    0 -0.54321536131E-01 -0.96031944278E-01 -0.63132796282E-01  0.12874663803E+00  0.20420167220E-01 0.  0.
         14    1    1    2    0    0 -0.23697159220E-01 -0.35139861033E-02  0.11945347149E-02  0.23986045248E-01  0.00000000000E+00 0. -1.
     999901    1    3    3    0    0  0.78018695351E-01  0.99545930381E-01  0.61938261567E-01  0.89119731672E+00  0.88000000000E+00 0.  1.
        -11    1    4    4    0    0 -0.38596405657E-01 -0.83843736081E-01 -0.51782778983E-01  0.10583558915E+00  0.51100000000E-03 0. -1.
         11    1    4    4    0    0 -0.15725130474E-01 -0.12188208197E-01 -0.11350017300E-01  0.22911048889E-01  0.51100000000E-03 0.  1.
</event>
<event>
 8    1  0.1071333E+005  0.1043930E+01  0.7957747E-01            NaN
         13   -1    0    0    0    0  0.00000000000E+00  0.00000000000E+00  0.74505805969E-08  0.10566000000E+00  0.10566000000E+00 0. -1.
     999900   -1    0    0    0    0 -0.00000000000E+00 -0.00000000000E+00 -0.74505805969E-08  0.93827000000E+00  0.93827000000E+00 0.  1.
     999902    2    1    2    0    0  0.33591093891E-02 -0.14099460573E-01 -0.18102955692E-01  0.10207395837E+01  0.10204761155E+01 0.  0.
     999903    2    3    3    0    0 -0.35785440502E-01 -0.12342357691E+00 -0.28115996571E-01  0.13305477521E+00  0.19977158327E-01 0.  0.
         14    1    1    2    0    0 -0.33591093891E-02  0.14099460573E-01  0.18102955692E-01  0.23190416321E-01  0.00000000000E+00 0. -1.
     999901    1    3    3    0    0  0.39144549891E-01  0.10932411633E+00  0.10013040879E-01  0.88768480847E+00  0.88000000000E+00 0.  1.
        -11    1    4    4    0    0 -0.10655282019E-01 -0.55574841819E-01 -0.20961971505E-01  0.60347025184E-01  0.51100000000E-03 0.  1.
         11    1    4    4    0    0 -0.25130158483E-01 -0.67848735088E-01 -0.71540250657E-02  0.72707750027E-01  0.51100000000E-03 0. -1.
</event>
<event>
 8    1  0.1071333E+005  0.1043930E+01  0.7957747E-01            NaN
         13   -1    0    0    0    0  0.00000000000E+00  0.00000000000E+00  0.74505805969E-08  0.10566000000E+00  0.10566000000E+00 0.  1.
     999900   -1    0    0    0    0 -0.00000000000E+00 -0.00000000000E+00 -0.74505805969E-08  0.93827000000E+00  0.93827000000E+00 0.  1.
     999902    2    1    2    0    0  0.14604225464E-01 -0.66203715894E-02  0.12293890514E-01  0.10237247416E+01  0.10235253266E+01 0.  0.
     999903    2    3    3    0    0 -0.27452177477E-01 -0.11043950161E-01  0.13009615032E+00  0.13486835195E+00  0.19719866804E-01 0.  0.
         14    1    1    2    0    0 -0.14604225464E-01  0.66203715894E-02 -0.12293890514E-01  0.20205258359E-01  0.00000000000E+00 0. -1.
     999901    1    3    3    0    0  0.42056402940E-01  0.44235785717E-02 -0.11780225981E+00  0.88885638969E+00  0.88000000000E+00 0.  1.
        -11    1    4    4    0    0 -0.28428253616E-01 -0.63756366068E-02  0.92858522891E-01  0.97323074038E-01  0.51100000000E-03 0.  1.
         11    1    4    4    0    0  0.97607613901E-03 -0.46683135543E-02  0.37237627429E-01  0.37545277913E-01  0.51100000000E-03 0. -1.
</event>
<event>
 8    1  0.1071333E+005  0.1043930E+01  0.7957747E-01            NaN
         13   -1    0    0    0    0  0.00000000000E+00  0.00000000000E+00  0.74505805969E-08  0.10566000000E+00  0.10566000000E+00 0. -1.
     999900   -1    0    0    0    0 -0.00000000000E+00 -0.00000000000E+00 -0.74505805969E-08  0.93827000000E+00  0.93827000000E+00 0. -1.
     999902    2    1    2    0    0 -0.22825110516E-01 -0.81976712272E-02  0.24640908558E-02  0.10195525673E+01  0.10192610942E+01 0.  0.
     999903    2    3    3    0    0  0.88923637729E-01  0.86882941733E-01 -0.13268071602E-01  0.12726583832E+00  0.23759060753E-01 0.  0.
         14    1    1    2    0    0  0.22825110516E-01  0.81976712272E-02 -0.24640908558E-02  0.24377432747E-01  0.00000000000E+00 0.  1.
     999901    1    3    3    0    0 -0.11174874825E+00 -0.95080612960E-01  0.15732162458E-01  0.89228672893E+00  0.88000000000E+00 0.  1.
        -11    1    4    4    0    0  0.67566797402E-01  0.75323614571E-01 -0.39997720078E-02  0.10126785433E+00  0.51100000000E-03 0. -1.
         11    1    4    4    0    0  0.21356840328E-01  0.11559327162E-01 -0.92682995945E-02  0.25997983991E-01  0.51100000000E-03 0.  1.
</event>
<event>
 8    1  0.1071333E+005  0.1043930E+01  0.7957747E-01            NaN
         13   -1    0    0    0    0  0.00000000000E+00  0.00000000000E+00  0.74505805969E-08  0.10566000000E+00  0.10566000000E+00 0. -1.
     999900   -1    0    0    0    0 -0.00000000000E+00 -0.00000000000E+00 -0.74505805969E-08  0.93827000000E+00  0.93827000000E+00 0.  1.
     999902    2    1    2    0    0  0.12859087653E-01 -0.12538087962E-01 -0.19486421212E-01  0.10174294265E+01  0.10170842431E+01 0.  0.
     999903    2    3    3    0    0  0.10247553682E-02 -0.12607127199E+00  0.23401090441E-01  0.12902120165E+00  0.14277384077E-01 0.  0.
         14    1    1    2    0    0 -0.12859087653E-01  0.12538087962E-01  0.19486421212E-01  0.26500573516E-01  0.00000000000E+00 0. -1.
     999901    1    3    3    0    0  0.11834332285E-01  0.11353318403E+00 -0.42887511653E-01  0.88840822483E+00  0.88000000000E+00 0.  1.
        -11    1    4    4    0    0 -0.24367158986E-02 -0.68225959122E-01  0.19191268666E-01  0.70917451988E-01  0.51100000000E-03 0. -1.
         11    1    4    4    0    0  0.34614712667E-02 -0.57845312870E-01  0.42098217752E-02  0.58103749662E-01  0.51100000000E-03 0.  1.
</event>
<event>
 8    1  0.1071333E+005  0.1043930E+01  0.7957747E-01            NaN
         13   -1    0    0    0    0  0.00000000000E+00  0.00000000000E+00  0.74505805969E-08  0.10566000000E+00  0.10566000000E+00 0. -1.
     999900   -1    0    0    0    0 -0.00000000000E+00 -0.00000000000E+00 -0.74505805969E-08  0.93827000000E+00  0.93827000000E+00 0. -1.
     999902    2    1    2    0    0  0.15775219662E-01  0.80186139170E-02 -0.14046346582E-01  0.10213367360E+01  0.10210868096E+01 0.  0.
     999903    2    3    3    0    0 -0.10409842839E+00 -0.21638676838E-01  0.69761166562E-01  0.12877136271E+00  0.20266434425E-01 0.  0.
         14    1    1    2    0    0 -0.15775219662E-01 -0.80186139170E-02  0.14046346582E-01  0.22593263971E-01  0.00000000000E+00 0. -1.
     999901    1    3    3    0    0  0.11987364806E+00  0.29657290755E-01 -0.83807513144E-01  0.89256537332E+00  0.88000000000E+00 0. -1.
        -11    1    4    4    0    0 -0.15735814826E-01 -0.80845687776E-02  0.50311799217E-02  0.18399728611E-01  0.51100000000E-03 0. -1.
         11    1    4    4    0    0 -0.88362613567E-01 -0.13554108061E-01  0.64729986640E-01  0.11037163410E+00  0.51100000000E-03 0.  1.
</event>
<event>
 8    1  0.1071333E+005  0.1043930E+01  0.7957747E-01            NaN
         13   -1    0    0    0    0  0.00000000000E+00  0.00000000000E+00  0.74505805969E-08  0.10566000000E+00  0.10566000000E+00 0.  1.
     999900   -1    0    0    0    0 -0.00000000000E+00 -0.00000000000E+00 -0.74505805969E-08  0.93827000000E+00  0.93827000000E+00 0. -1.
     999902    2    1    2    0    0 -0.41096056728E-02 -0.64029784718E-02  0.22044403013E-01  0.10206095648E+01  0.10203430997E+01 0.  0.
     999903    2    3    3    0    0 -0.99447376812E-01  0.47184568658E-01  0.71073947885E-01  0.13248524241E+00  0.19612983305E-01 0.  0.
         14    1    1    2    0    0  0.41096056728E-02  0.64029784718E-02 -0.22044403013E-01  0.23320435165E-01  0.00000000000E+00 0. -1.
     999901    1    3    3    0    0  0.95337771139E-01 -0.53587547130E-01 -0.49029544872E-01  0.88812432243E+00  0.88000000000E+00 0. -1.
        -11    1    4    4    0    0 -0.23016177169E-01  0.16850273375E-01  0.26553403811E-01  0.38974613523E-01  0.51100000000E-03 0.  1.
         11    1    4    4    0    0 -0.76431199643E-01  0.30334295283E-01  0.44520544074E-01  0.93510628887E-01  0.51100000000E-03 0. -1.
</event>
<event>
 8    1  0.1071333E+005  0.1043930E+01  0.7957747E-01            NaN
         13   -1    0    0    0    0  0.00000000000E+00  0.00000000000E+00  0.74505805969E-08  0.10566000000E+00  0.10566000000E+00 0.  1.
     999900   -1    0    0    0    0 -0.00000000000E+00 -0.00000000000E+00 -0.74505805969E-08  0.93827000000E+00  0.93827000000E+00 0.  1.
     999902    2    1    2    0    0  0.17822288267E-01 -0.12357574169E-01  0.10383209196E-01  0.10198851537E+01  0.10196016733E+01 0.  0.
     999903    2    3    3    0    0  0.30705206033E-01 -0.50443832852E-01  0.11672401874E+00  0.13257184918E+00  0.21526929510E-01 0.  0.
         14    1    1    2    0    0 -0.17822288267E-01  0.12357574169E-01 -0.10383209196E-01  0.24044846259E-01  0.00000000000E+00 0. -1.
     999901    1    3    3    0    0 -0.12882917767E-01  0.38086258683E-01 -0.10634080955E+00  0.88731330456E+00  0.88000000000E+00 0.  1.
        -11    1    4    4    0    0  0.28095190042E-01 -0.31788875176E-01  0.93414732219E-01  0.10259846785E+00  0.51100000000E-03 0.  1.
         11    1    4    4    0    0  0.26100159919E-02 -0.18654957676E-01  0.23309286522E-01  0.29973381333E-01  0.51100000000E-03 0. -1.
</event>
<event>
 8    1  0.1071333E+005  0.1043930E+01  0.7957747E-01            NaN
         13   -1    0    0    0    0  0.00000000000E+00  0.00000000000E+00  0.74505805969E-08  0.10566000000E+00  0.10566000000E+00 0. -1.
     999900   -1    0    0    0    0 -0.00000000000E+00 -0.00000000000E+00 -0.74505805969E-08  0.93827000000E+00  0.93827000000E+00 0.  1.
     999902    2    1    2    0    0  0.19048547100E-01  0.64478744344E-03 -0.14670337479E-01  0.10198783535E+01  0.10195947108E+01 0.  0.
     999903    2    3    3    0    0  0.11499781296E+00  0.26014851954E-01 -0.57868498735E-01  0.13324653424E+00  0.22463442133E-01 0.  0.
         14    1    1    2    0    0 -0.19048547100E-01 -0.64478744344E-03  0.14670337479E-01  0.24051646497E-01  0.00000000000E+00 0. -1.
     999901    1    3    3    0    0 -0.95949265865E-01 -0.25370064510E-01  0.43198161255E-01  0.88663181926E+00  0.88000000000E+00 0.  1.
        -11    1    4    4    0    0  0.77290977678E-01  0.21031714954E-01 -0.27905218477E-01  0.84824469368E-01  0.51100000000E-03 0. -1.
         11    1    4    4    0    0  0.37706835286E-01  0.49831369995E-02 -0.29963280258E-01  0.48422064872E-01  0.51100000000E-03 0.  1.
</event>
<event>
 8    1  0.1071333E+005  0.1043930E+01  0.7957747E-01            NaN
         13   -1    0    0    0    0  0.00000000000E+00  0.00000000000E+00  0.74505805969E-08  0.10566000000E+00  0.10566000000E+00 0. -1.
     999900   -1    0    0    0    0 -0.00000000000E+00 -0.00000000000E+00 -0.74505805969E-08  0.93827000000E+00  0.93827000000E+00 0.  1.
     999902    2    1    2    0    0 -0.80577921288E-02 -0.14571953031E-01 -0.15320702328E-01  0.10213027211E+01  0.10210520332E+01 0.  0.
     999903    2    3    3    0    0 -0.43649018885E-02 -0.99892266115E-01  0.83333416798E-01  0.13168154980E+00  0.19951315857E-01 0.  0.
         14    1    1    2    0    0  0.80577921288E-02  0.14571953031E-01  0.15320702328E-01  0.22627278868E-01  0.00000000000E+00 0. -1.
     999901    1    3    3    0    0 -0.36928902402E-02  0.85320313084E-01 -0.98654119126E-01  0.88962117133E+00  0.88000000000E+00 0.  1.
        -11    1    4    4    0    0  0.62720611223E-02 -0.53062058625E-01  0.50362917227E-01  0.73427551838E-01  0.51100000000E-03 0.  1.
         11    1    4    4    0    0 -0.10636963011E-01 -0.46830207489E-01  0.32970499570E-01  0.58253997962E-01  0.51100000000E-03 0. -1.
</event>
<event>
 8    1  0.1071333E+005  0.1043930E+01  0.7957747E-01            NaN
         13   -1    0    0    0    0  0.00000000000E+00  0.00000000000E+00  0.74505805969E-08  0.10566000000E+00  0.10566000000E+00 0.  1.
     999900   -1    0    0    0    0 -0.00000000000E+00 -0.00000000000E+00 -0.74505805969E-08  0.93827000000E+00  0.93827000000E+00 0.  1.
     999902    2    1    2    0    0 -0.88227737869E-02 -0.20626851116E-01 -0.76510725649E-02  0.10202266830E+01  0.10199512917E+01 0.  0.
     999903    2    3    3    0    0  0.12170290073E+00  0.29373257941E-01 -0.23528487768E-01  0.12905382946E+00  0.20661965881E-01 0.  0.
         14    1    1    2    0    0  0.88227737869E-02  0.20626851116E-01  0.76510725649E-02  0.23703316975E-01  0.00000000000E+00 0.  1.
     999901    1    3    3    0    0 -0.13052567452E+00 -0.50000109057E-01  0.15877415203E-01  0.89117285356E+00  0.88000000000E+00 0. -1.
        -11    1    4    4    0    0  0.90538864947E-01  0.22224174548E-01 -0.26547129963E-01  0.96934056092E-01  0.51100000000E-03 0.  1.
         11    1    4    4    0    0  0.31164035783E-01  0.71490833934E-02  0.30186421948E-02  0.32119773370E-01  0.51100000000E-03 0. -1.
</event>
<event>
 8    1  0.1071333E+005  0.1043930E+01  0.7957747E-01            NaN
         13   -1    0    0    0    0  0.00000000000E+00  0.00000000000E+00  0.74505805969E-08  0.10566000000E+00  0.10566000000E+00 0.  1.
     999900   -1    0    0    0    0 -0.00000000000E+00 -0.00000000000E+00 -0.74505805969E-08  0.93827000000E+00  0.93827000000E+00 0. -1.
     999902    2    1    2    0    0  0.17369787054E-01  0.14611050205E-01  0.57184154828E-02  0.10205228950E+01  0.10202544225E+01 0.  0.
     999903    2    3    3    0    0  0.11603880240E+00  0.47178988284E-01 -0.40547955329E-01  0.13320287251E+00  0.20199207055E-01 0.  0.
         14    1    1    2    0    0 -0.17369787054E-01 -0.14611050205E-01 -0.57184154828E-02  0.23407105033E-01  0.00000000000E+00 0. -1.
     999901    1    3    3    0    0 -0.98669015349E-01 -0.32567938079E-01  0.46266370812E-01  0.88732002245E+00  0.88000000000E+00 0.  1.
        -11    1    4    4    0    0  0.57695539520E-01  0.26408805542E-01 -0.10322234710E-01  0.64288489958E-01  0.51100000000E-03 0. -1.
         11    1    4    4    0    0  0.58343262883E-01  0.20770182742E-01 -0.30225720619E-01  0.68914382555E-01  0.51100000000E-03 0.  1.
</event>
<event>
 7    1  0.1071333E+005  0.1043930E+01  0.7957747E-01            NaN
         13   -1    0    0    0    0  0.00000000000E+00  0.00000000000E+00  0.74505805969E-08  0.10566000000E+00  0.10566000000E+00 0.  1.
     999900   -1    0    0    0    0 -0.00000000000E+00 -0.00000000000E+00 -0.74505805969E-08  0.93827000000E+00  0.93827000000E+00 0.  1.
     999903    2    1    2    0    0  0.23946876468E-01 -0.98805205591E-01 -0.45421140616E-01  0.11317674273E+00  0.20247803213E-01 0.  0.
         14    1    1    2    0    0 -0.34871279753E-01 -0.92659588891E-03  0.28246979596E-01  0.44886040011E-01  0.00000000000E+00 0.  1.
     999901    1    1    2    0    0  0.10924403285E-01  0.99731801480E-01  0.17174161020E-01  0.88586721726E+00  0.88000000000E+00 0.  1.
        -11    1    3    3    0    0  0.12872096663E-01 -0.64047707823E-01 -0.18697253940E-01  0.67953279360E-01  0.51100000000E-03 0.  1.
         11    1    3    3    0    0  0.11074779804E-01 -0.34757497768E-01 -0.26723886676E-01  0.45223463367E-01  0.51100000000E-03 0. -1.
</event>
<event>
 8    1  0.1071333E+005  0.1043930E+01  0.7957747E-01            NaN
         13   -1    0    0    0    0  0.00000000000E+00  0.00000000000E+00  0.74505805969E-08  0.10566000000E+00  0.10566000000E+00 0. -1.
     999900   -1    0    0    0    0 -0.00000000000E+00 -0.00000000000E+00 -0.74505805969E-08  0.93827000000E+00  0.93827000000E+00 0. -1.
     999902    2    1    2    0    0  0.99352796339E-02 -0.40638230037E-03 -0.21885739747E-01  0.10198912702E+01  0.10196079356E+01 0.  0.
     999903    2    3    3    0    0  0.70638807436E-01  0.81482519471E-01  0.64364217582E-01  0.12981837109E+00  0.32875749003E-01 0.  0.
         14    1    1    2    0    0 -0.99352796339E-02  0.40638230037E-03  0.21885739747E-01  0.24038729839E-01  0.00000000000E+00 0. -1.
     999901    1    3    3    0    0 -0.60703527802E-01 -0.81888901771E-01 -0.86249957329E-01  0.89007289907E+00  0.88000000000E+00 0. -1.
        -11    1    4    4    0    0  0.23487102138E-01  0.50586346324E-01  0.25386772181E-01  0.61281087816E-01  0.51100000000E-03 0.  1.
         11    1    4    4    0    0  0.47151705298E-01  0.30896173147E-01  0.38977445401E-01  0.68537283274E-01  0.51100000000E-03 0. -1.
</event>
<event>
 8    1  0.1071333E+005  0.1043930E+01  0.7957747E-01            NaN
         13   -1    0    0    0    0  0.00000000000E+00  0.00000000000E+00  0.74505805969E-08  0.10566000000E+00  0.10566000000E+00 0.  1.
     999900   -1    0    0    0    0 -0.00000000000E+00 -0.00000000000E+00 -0.74505805969E-08  0.93827000000E+00  0.93827000000E+00 0. -1.
     999902    2    1    2    0    0  0.16958531974E-01  0.11860517902E-01  0.11723488007E-01  0.10201454701E+01  0.10198681661E+01 0.  0.
     999903    2    3    3    0    0 -0.15988083958E-02  0.10239979260E+00  0.81495788161E-01  0.13255890586E+00  0.21024422039E-01 0.  0.
         14    1    1    2    0    0 -0.16958531974E-01 -0.11860517902E-01 -0.11723488007E-01  0.23784529902E-01  0.00000000000E+00 0. -1.
     999901    1    3    3    0    0  0.18557340370E-01 -0.90539274699E-01 -0.69772300154E-01  0.88758656424E+00  0.88000000000E+00 0.  1.
        -11    1    4    4    0    0 -0.10915945235E-01  0.49903991841E-01  0.36415087456E-01  0.62736639832E-01  0.51100000000E-03 0.  1.
         11    1    4    4    0    0  0.93171368388E-02  0.52495800759E-01  0.45080700706E-01  0.69822266029E-01  0.51100000000E-03 0. -1.
</event>
<event>
 8    1  0.1071333E+005  0.1043930E+01  0.7957747E-01            NaN
         13   -1    0    0    0    0  0.00000000000E+00  0.00000000000E+00  0.74505805969E-08  0.10566000000E+00  0.10566000000E+00 0.  1.
     999900   -1    0    0    0    0 -0.00000000000E+00 -0.00000000000E+00 -0.74505805969E-08  0.93827000000E+00  0.93827000000E+00 0.  1.
     999902    2    1    2    0    0 -0.18197887971E-02 -0.83782860437E-02  0.23350279586E-01  0.10190554575E+01  0.10187518258E+01 0.  0.
     999903    2    3    3    0    0  0.96286030227E-01 -0.15928356339E-01  0.85651608072E-01  0.13138253866E+00  0.20011530377E-01 0.  0.
         14    1    1    2    0    0  0.18197887971E-02  0.83782860437E-02 -0.23350279586E-01  0.24874542509E-01  0.00000000000E+00 0. -1.
     999901    1    3    3    0    0 -0.98105819024E-01  0.75500702956E-02 -0.62301328485E-01  0.88767291883E+00  0.88000000000E+00 0.  1.
        -11    1    4    4    0    0  0.34446136974E-01 -0.38159030177E-02  0.18483702381E-01  0.39281113057E-01  0.51100000000E-03 0.  1.
         11    1    4    4    0    0  0.61839893253E-01 -0.12112453322E-01  0.67167905691E-01  0.92101425607E-01  0.51100000000E-03 0. -1.
</event>
<event>
 8    1  0.1071333E+005  0.1043930E+01  0.7957747E-01            NaN
         13   -1    0    0    0    0  0.00000000000E+00  0.00000000000E+00  0.74505805969E-08  0.10566000000E+00  0.10566000000E+00 0.  1.
     999900   -1    0    0    0    0 -0.00000000000E+00 -0.00000000000E+00 -0.74505805969E-08  0.93827000000E+00  0.93827000000E+00 0. -1.
     999902    2    1    2    0    0 -0.36175450368E-02 -0.23476584026E-01  0.61796663819E-02  0.10193856543E+01  0.10190901272E+01 0.  0.
     999903    2    3    3    0    0 -0.12738707904E+00 -0.19785823119E-01 -0.51200538706E-02  0.13064485803E+00  0.20564952601E-01 0.  0.
         14    1    1    2    0    0  0.36175450368E-02  0.23476584026E-01 -0.61796663819E-02  0.24544345707E-01  0.00000000000E+00 0. -1.
     999901    1    3    3    0    0  0.12376953400E+00 -0.36907609068E-02  0.11299720252E-01  0.88874079626E+00  0.88000000000E+00 0. -1.
        -11    1    4    4    0    0 -0.33118494268E-01  0.37736933251E-02  0.74237863616E-04  0.33336797329E-01  0.51100000000E-03 0.  1.
         11    1    4    4    0    0 -0.94268584772E-01 -0.23559516444E-01 -0.51942917342E-02  0.97308060702E-01  0.51100000000E-03 0. -1.
</event>
<event>
 8    1  0.1071333E+005  0.1043930E+01  0.7957747E-01            NaN
         13   -1    0    0    0    0  0.00000000000E+00  0.00000000000E+00  0.74505805969E-08  0.10566000000E+00  0.10566000000E+00 0. -1.
     999900   -1    0    0    0    0 -0.00000000000E+00 -0.00000000000E+00 -0.74505805969E-08  0.93827000000E+00  0.93827000000E+00 0. -1.
     999902    2    1    2    0    0  0.89516903722E-02 -0.22235728874E-01  0.35053466409E-02  0.10197050572E+01  0.10194172629E+01 0.  0.
     999903    2    3    3    0    0 -0.12269832566E+00 -0.30629504949E-01 -0.19773971593E-01  0.12956792795E+00  0.20094584055E-01 0.  0.
         14    1    1    2    0    0 -0.89516903722E-02  0.22235728874E-01 -0.35053466409E-02  0.24224942810E-01  0.00000000000E+00 0. -1.
     999901    1    3    3    0    0  0.13165001603E+00  0.83937760750E-02  0.23279318234E-01  0.89013712924E+00  0.88000000000E+00 0. -1.
        -11    1    4    4    0    0 -0.58653777130E-01 -0.87096066857E-02 -0.95427026712E-03  0.59306783532E-01  0.51100000000E-03 0.  1.
         11    1    4    4    0    0 -0.64044548525E-01 -0.21919898263E-01 -0.18819701326E-01  0.70261144416E-01  0.51100000000E-03 0. -1.
</event>
<event>
 8    1  0.1071333E+005  0.1043930E+01  0.7957747E-01            NaN
         13   -1    0    0    0    0  0.00000000000E+00  0.00000000000E+00  0.74505805969E-08  0.10566000000E+00  0.10566000000E+00 0. -1.
     999900   -1    0    0    0    0 -0.00000000000E+00 -0.00000000000E+00 -0.74505805969E-08  0.93827000000E+00  0.93827000000E+00 0.  1.
     999902    2    1    2    0    0  0.13477833654E-01  0.20293811558E-01  0.31417916766E-02  0.10193665792E+01  0.10190705869E+01 0.  0.
     999903    2    3    3    0    0  0.41519278107E-01 -0.10890788970E+00 -0.48681357508E-01  0.12798280043E+00  0.20614163670E-01 0.  0.
         14    1    1    2    0    0 -0.13477833654E-01 -0.20293811558E-01 -0.31417916766E-02  0.24563420823E-01  0.00000000000E+00 0. -1.
     999901    1    3    3    0    0 -0.28041444453E-01  0.12920170126E+00  0.51823149185E-01  0.89138377874E+00  0.88000000000E+00 0. -1.
        -11    1    4    4    0    0  0.15215939253E-01 -0.59491549460E-01 -0.33618190003E-01  0.70008664354E-01  0.51100000000E-03 0.  1.
         11    1    4    4    0    0  0.26303338854E-01 -0.49416340243E-01 -0.15063167505E-01  0.57974136080E-01  0.51100000000E-03 0. -1.
</event>
<event>
 8    1  0.1071333E+005  0.1043930E+01  0.7957747E-01            NaN
         13   -1    0    0    0    0  0.00000000000E+00  0.00000000000E+00  0.74505805969E-08  0.10566000000E+00  0.10566000000E+00 0. -1.
     999900   -1    0    0    0    0 -0.00000000000E+00 -0.00000000000E+00 -0.74505805969E-08  0.93827000000E+00  0.93827000000E+00 0.  1.
     999902    2    1    2    0    0  0.12428171610E-01 -0.15279266501E-01 -0.13011175697E-01  0.10203247860E+01  0.10200516962E+01 0.  0.
     999903    2    3    3    0    0 -0.46285685453E-01  0.40029578694E-01  0.11027746235E+00  0.12807679714E+00  0.22311777522E-01 0.  0.
         14    1    1    2    0    0 -0.12428171610E-01  0.15279266501E-01  0.13011175697E-01  0.23605213988E-01  0.00000000000E+00 0. -1.
     999901    1    3    3    0    0  0.58713857063E-01 -0.55308845195E-01 -0.12328863805E+00  0.89224798887E+00  0.88000000000E+00 0.  1.
        -11    1    4    4    0    0 -0.85866138614E-02  0.18535525902E-02  0.31912151916E-01  0.33103053571E-01  0.51100000000E-03 0. -1.
         11    1    4    4    0    0 -0.37699071592E-01  0.38176026104E-01  0.78365310433E-01  0.94973743573E-01  0.51100000000E-03 0.  1.
</event>
<event>
 8    1  0.1071333E+005  0.1043930E+01  0.7957747E-01            NaN
         13   -1    0    0    0    0  0.00000000000E+00  0.00000000000E+00  0.74505805969E-08  0.10566000000E+00  0.10566000000E+00 0.  1.
     999900   -1    0    0    0    0 -0.00000000000E+00 -0.00000000000E+00 -0.74505805969E-08  0.93827000000E+00  0.93827000000E+00 0.  1.
     999902    2    1    2    0    0 -0.14307973177E-01 -0.10244849881E-01 -0.15804899781E-01  0.10202768839E+01  0.10200026715E+01 0.  0.
     999903    2    3    3    0    0 -0.17634559110E-01  0.11778350915E+00  0.44729451773E-01  0.12894824941E+00  0.21047433758E-01 0.  0.
         14    1    1    2    0    0  0.14307973177E-01  0.10244849881E-01  0.15804899781E-01  0.23653116129E-01  0.00000000000E+00 0. -1.
     999901    1    3    3    0    0  0.33265859335E-02 -0.12802835903E+00 -0.60534351554E-01  0.89132863446E+00  0.88000000000E+00 0.  1.
        -11    1    4    4    0    0 -0.53202630416E-02  0.32086894546E-01  0.25137090123E-02  0.32625969019E-01  0.51100000000E-03 0. -1.
         11    1    4    4    0    0 -0.12314296069E-01  0.85696614603E-01  0.42215742761E-01  0.96322280392E-01  0.51100000000E-03 0.  1.
</event>
<event>
 8    1  0.1071333E+005  0.1043930E+01  0.7957747E-01            NaN
         13   -1    0    0    0    0  0.00000000000E+00  0.00000000000E+00  0.74505805969E-08  0.10566000000E+00  0.10566000000E+00 0. -1.
     999900   -1    0    0    0    0 -0.00000000000E+00 -0.00000000000E+00 -0.74505805969E-08  0.93827000000E+00  0.93827000000E+00 0.  1.
     999902    2    1    2    0    0 -0.20707756198E-01  0.14782355090E-01  0.38214941609E-02  0.10182019413E+01  0.10178768394E+01 0.  0.
     999903    2    3    3    0    0 -0.36477775107E-01 -0.54542827019E-01  0.10937087085E+00  0.12904765471E+00  0.19640818232E-01 0.  0.
         14    1    1    2    0    0  0.20707756198E-01 -0.14782355090E-01 -0.38214941609E-02  0.25728058737E-01  0.00000000000E+00 0. -1.
     999901    1    3    3    0    0  0.15770018909E-01  0.69325182108E-01 -0.10554937669E+00  0.88915428655E+00  0.88000000000E+00 0. -1.
        -11    1    4    4    0    0 -0.67782192848E-02 -0.16166868691E-01  0.15637977557E-01  0.23497220325E-01  0.51100000000E-03 0.  1.
         11    1    4    4    0    0 -0.29699555822E-01 -0.38375958327E-01  0.93732893292E-01  0.10555043439E+00  0.51100000000E-03 0. -1.
</event>
<event>
 8    1  0.1071333E+005  0.1043930E+01  0.7957747E-01            NaN
         13   -1    0    0    0    0  0.00000000000E+00  0.00000000000E+00  0.74505805969E-08  0.10566000000E+00  0.10566000000E+00 0. -1.
     999900   -1    0    0    0    0 -0.00000000000E+00 -0.00000000000E+00 -0.74505805969E-08  0.93827000000E+00  0.93827000000E+00 0.  1.
     999902    2    1    2    0    0  0.11746902914E-01 -0.19143169944E-01 -0.67174194648E-02  0.10204869966E+01  0.10202176904E+01 0.  0.
     999903    2    3    3    0    0  0.11137468784E+00  0.58116454306E-01 -0.32263768853E-01  0.13113478234E+00  0.19327105438E-01 0.  0.
         14    1    1    2    0    0 -0.11746902914E-01  0.19143169944E-01  0.67174194648E-02  0.23443003388E-01  0.00000000000E+00 0. -1.
     999901    1    3    3    0    0 -0.99627784930E-01 -0.77259624249E-01  0.25546349388E-01  0.88935221428E+00  0.88000000000E+00 0.  1.
        -11    1    4    4    0    0  0.49606421446E-01  0.15260851340E-01 -0.12048138169E-01  0.53283293692E-01  0.51100000000E-03 0. -1.
         11    1    4    4    0    0  0.61768266398E-01  0.42855602966E-01 -0.20215630683E-01  0.77851488645E-01  0.51100000000E-03 0.  1.
</event>
<event>
 8    1  0.1071333E+005  0.1043930E+01  0.7957747E-01            NaN
         13   -1    0    0    0    0  0.00000000000E+00  0.00000000000E+00  0.74505805969E-08  0.10566000000E+00  0.10566000000E+00 0.  1.
     999900   -1    0    0    0    0 -0.00000000000E+00 -0.00000000000E+00 -0.74505805969E-08  0.93827000000E+00  0.93827000000E+00 0. -1.
     999902    2    1    2    0    0 -0.14178291704E-01  0.85636578290E-02 -0.16813948964E-01  0.10203276893E+01  0.10200546674E+01 0.  0.
     999903    2    3    3    0    0 -0.52464879518E-01 -0.11767365969E+00 -0.18548671095E-02  0.13036954574E+00  0.19827358796E-01 0.  0.
         14    1    1    2    0    0  0.14178291704E-01 -0.85636578290E-02  0.16813948964E-01  0.23602310709E-01  0.00000000000E+00 0. -1.
     999901    1    3    3    0    0  0.38286587814E-01  0.12623731752E+00 -0.14959081854E-01  0.88995814355E+00  0.88000000000E+00 0. -1.
        -11    1    4    4    0    0 -0.27047462331E-01 -0.74650729132E-01 -0.89163809694E-02  0.79900310069E-01  0.51100000000E-03 0. -1.
         11    1    4    4    0    0 -0.25417417188E-01 -0.43022930558E-01  0.70615138600E-02  0.50469235672E-01  0.51100000000E-03 0.  1.
</event>
<event>
 8    1  0.1071333E+005  0.1043930E+01  0.7957747E-01            NaN
         13   -1    0    0    0    0  0.00000000000E+00  0.00000000000E+00  0.74505805969E-08  0.10566000000E+00  0.10566000000E+00 0.  1.
     999900   -1    0    0    0    0 -0.00000000000E+00 -0.00000000000E+00 -0.74505805969E-08  0.93827000000E+00  0.93827000000E+00 0.  1.
     999902    2    1    2    0    0 -0.41179037403E-02  0.16866249343E-01  0.16013290912E-01  0.10203110884E+01  0.10200376778E+01 0.  0.
     999903    2    3    3    0    0  0.42186120894E-01 -0.10978130413E+00  0.50085206616E-01  0.12938765685E+00  0.20025840576E-01 0.  0.
         14    1    1    2    0    0  0.41179037403E-02 -0.16866249343E-01 -0.16013290912E-01  0.23618911574E-01  0.00000000000E+00 0. -1.
     999901    1    3    3    0    0 -0.46304024634E-01  0.12664755347E+00 -0.34071915704E-01  0.89092343158E+00  0.88000000000E+00 0.  1.
        -11    1    4    4    0    0  0.30957133591E-01 -0.93458257956E-01  0.47780674713E-01  0.10943511364E+00  0.51100000000E-03 0.  1.
         11    1    4    4    0    0  0.11228987303E-01 -0.16323046170E-01  0.23045319028E-02  0.19952543207E-01  0.51100000000E-03 0. -1.
</event>
<event>
 8    1  0.1071333E+005  0.1043930E+01  0.7957747E-01            NaN
         13   -1    0    0    0    0  0.00000000000E+00  0.00000000000E+00  0.74505805969E-08  0.10566000000E+00  0.10566000000E+00 0. -1.
     999900   -1    0    0    0    0 -0.00000000000E+00 -0.00000000000E+00 -0.74505805969E-08  0.93827000000E+00  0.93827000000E+00 0. -1.
     999902    2    1    2    0    0  0.14319526217E-01  0.11607852103E-01 -0.14421175134E-01  0.10205256980E+01  0.10202572905E+01 0.  0.
     999903    2    3    3    0    0 -0.68092114893E-01 -0.92108159391E-01  0.54261473225E-01  0.12796421783E+00  0.17609214401E-01 0.  0.
         14    1    1    2    0    0 -0.14319526217E-01 -0.11607852103E-01  0.14421175134E-01  0.23404302036E-01  0.00000000000E+00 0. -1.
     999901    1    3    3    0    0  0.82411641109E-01  0.10371601149E+00 -0.68682648360E-01  0.89256148013E+00  0.88000000000E+00 0. -1.
        -11    1    4    4    0    0 -0.22975401321E-01 -0.29500419200E-01  0.26979590204E-01  0.46111855389E-01  0.51100000000E-03 0. -1.
         11    1    4    4    0    0 -0.45116713571E-01 -0.62607740191E-01  0.27281883022E-01  0.81852362443E-01  0.51100000000E-03 0.  1.
</event>
<event>
 8    1  0.1071333E+005  0.1043930E+01  0.7957747E-01            NaN
         13   -1    0    0    0    0  0.00000000000E+00  0.00000000000E+00  0.74505805969E-08  0.10566000000E+00  0.10566000000E+00 0. -1.
     999900   -1    0    0    0    0 -0.00000000000E+00 -0.00000000000E+00 -0.74505805969E-08  0.93827000000E+00  0.93827000000E+00 0. -1.
     999902    2    1    2    0    0  0.11031160933E-01  0.15888219742E-01 -0.11040083018E-01  0.10216588197E+01  0.10214160457E+01 0.  0.
     999903    2    3    3    0    0 -0.34030702620E-02  0.10175282888E+00 -0.85085498882E-01  0.13426724789E+00  0.20565326741E-01 0.  0.
         14    1    1    2    0    0 -0.11031160933E-01 -0.15888219742E-01  0.11040083018E-01  0.22271180282E-01  0.00000000000E+00 0. -1.
     999901    1    3    3    0    0  0.14434231195E-01 -0.85864609142E-01  0.74045415864E-01  0.88739157182E+00  0.88000000000E+00 0. -1.
        -11    1    4    4    0    0 -0.11972331511E-02  0.31107299652E-01 -0.14392567940E-01  0.34300212708E-01  0.51100000000E-03 0. -1.
         11    1    4    4    0    0 -0.22058371109E-02  0.70645529231E-01 -0.70692930943E-01  0.99967035187E-01  0.51100000000E-03 0.  1.
</event>
<event>
 8    1  0.1071333E+005  0.1043930E+01  0.7957747E-01            NaN
         13   -1    0    0    0    0  0.00000000000E+00  0.00000000000E+00  0.74505805969E-08  0.10566000000E+00  0.10566000000E+00 0. -1.
     999900   -1    0    0    0    0 -0.00000000000E+00 -0.00000000000E+00 -0.74505805969E-08  0.93827000000E+00  0.93827000000E+00 0. -1.
     999902    2    1    2    0    0  0.19254954751E-01  0.13296485127E-01 -0.99914326342E-03  0.10205088966E+01  0.10202400991E+01 0.  0.
     999903    2    3    3    0    0  0.12445267499E+00  0.35870505058E-01 -0.25950886909E-01  0.13360487907E+00  0.20041300742E-01 0.  0.
         14    1    1    2    0    0 -0.19254954751E-01 -0.13296485127E-01  0.99914326342E-03  0.23421103442E-01  0.00000000000E+00 0. -1.
     999901    1    3    3    0    0 -0.10519772024E+00 -0.22574019931E-01  0.24951743646E-01  0.88690401748E+00  0.88000000000E+00 0.  1.
        -11    1    4    4    0    0  0.42918937869E-01  0.26122518478E-02 -0.82192468648E-02  0.43779860981E-01  0.51100000000E-03 0. -1.
         11    1    4    4    0    0  0.81533737121E-01  0.33258253210E-01 -0.17731640045E-01  0.89825018092E-01  0.51100000000E-03 0.  1.
</event>
<event>
 8    1  0.1071333E+005  0.1043930E+01  0.7957747E-01            NaN
         13   -1    0    0    0    0  0.00000000000E+00  0.00000000000E+00  0.74505805969E-08  0.10566000000E+00  0.10566000000E+00 0.  1.
     999900   -1    0    0    0    0 -0.00000000000E+00 -0.00000000000E+00 -0.74505805969E-08  0.93827000000E+00  0.93827000000E+00 0. -1.
     999902    2    1    2    0    0 -0.14672576802E-01  0.43121595556E-02 -0.18668915349E-01  0.10197968769E+01  0.10195112861E+01 0.  0.
     999903    2    3    3    0    0  0.11066011993E+00  0.15095233702E-01  0.58443785378E-01  0.12751276959E+00  0.19243236074E-01 0.  0.
         14    1    1    2    0    0  0.14672576802E-01 -0.43121595556E-02  0.18668915349E-01  0.24133123095E-01  0.00000000000E+00 0.  1.
     999901    1    3    3    0    0 -0.12533269673E+00 -0.10783074146E-01 -0.77112700726E-01  0.89228410732E+00  0.88000000000E+00 0. -1.
        -11    1    4    4    0    0  0.35635626420E-01  0.13946698565E-01  0.18487965078E-01  0.42502638093E-01  0.51100000000E-03 0.  1.
         11    1    4    4    0    0  0.75024493512E-01  0.11485351373E-02  0.39955820299E-01  0.85010131493E-01  0.51100000000E-03 0. -1.
</event>
<event>
 8    1  0.1071333E+005  0.1043930E+01  0.7957747E-01            NaN
         13   -1    0    0    0    0  0.00000000000E+00  0.00000000000E+00  0.74505805969E-08  0.10566000000E+00  0.10566000000E+00 0. -1.
     999900   -1    0    0    0    0 -0.00000000000E+00 -0.00000000000E+00 -0.74505805969E-08  0.93827000000E+00  0.93827000000E+00 0. -1.
     999902    2    1    2    0    0  0.17087003138E-01  0.46300634409E-02  0.15454890652E-01  0.10204298551E+01  0.10201592192E+01 0.  0.
     999903    2    3    3    0    0  0.10681310060E-01  0.23163698024E-01  0.12914128385E+00  0.13290006717E+00  0.18284128875E-01 0.  0.
         14    1    1    2    0    0 -0.17087003138E-01 -0.46300634409E-02 -0.15454890652E-01  0.23500144867E-01  0.00000000000E+00 0.  1.
     999901    1    3    3    0    0  0.64056930784E-02 -0.18533634583E-01 -0.11368639320E+00  0.88752978796E+00  0.88000000000E+00 0. -1.
        -11    1    4    4    0    0 -0.33035260312E-02  0.13921645682E-01  0.50492533625E-01  0.52483164688E-01  0.51100000000E-03 0. -1.
         11    1    4    4    0    0  0.13984836091E-01  0.92420523413E-02  0.78648750229E-01  0.80416902486E-01  0.51100000000E-03 0.  1.
</event>
<event>
 8    1  0.1071333E+005  0.1043930E+01  0.7957747E-01            NaN
         13   -1    0    0    0    0  0.00000000000E+00  0.00000000000E+00  0.74505805969E-08  0.10566000000E+00  0.10566000000E+00 0. -1.
     999900   -1    0    0    0    0 -0.00000000000E+00 -0.00000000000E+00 -0.74505805969E-08  0.93827000000E+00  0.93827000000E+00 0. -1.
     999902    2    1    2    0    0  0.10839687742E-01 -0.21174694681E-01 -0.24957223058E-02  0.10200114893E+01  0.10197310151E+01 0.  0.
     999903    2    3    3    0    0 -0.12439728278E+00  0.23347956293E-01 -0.10621921607E-01  0.12853106899E+00  0.19687545573E-01 0.  0.
         14    1    1    2    0    0 -0.10839687742E-01  0.21174694681E-01  0.24957223058E-02  0.23918510719E-01  0.00000000000E+00 0. -1.
     999901    1    3    3    0    0  0.13523697052E+00 -0.44522650973E-01  0.81261993013E-02  0.89148042029E+00  0.88000000000E+00 0. -1.
        -11    1    4    4    0    0 -0.10236833479E+00  0.12283781672E-01 -0.49065278938E-02  0.10322064908E+00  0.51100000000E-03 0. -1.
         11    1    4    4    0    0 -0.22028947989E-01  0.11064174620E-01 -0.57153937133E-02  0.25310419906E-01  0.51100000000E-03 0.  1.
</event>
<event>
 8    1  0.1071333E+005  0.1043930E+01  0.7957747E-01            NaN
         13   -1    0    0    0    0  0.00000000000E+00  0.00000000000E+00  0.74505805969E-08  0.10566000000E+00  0.10566000000E+00 0.  1.
     999900   -1    0    0    0    0 -0.00000000000E+00 -0.00000000000E+00 -0.74505805969E-08  0.93827000000E+00  0.93827000000E+00 0. -1.
     999902    2    1    2    0    0  0.14217868417E-01  0.10977483641E-01 -0.15073676259E-01  0.10204807219E+01  0.10202112698E+01 0.  0.
     999903    2    3    3    0    0 -0.11911988647E+00  0.40164647083E-01 -0.25995199103E-01  0.12989095825E+00  0.19828374387E-01 0.  0.
         14    1    1    2    0    0 -0.14217868417E-01 -0.10977483641E-01  0.15073676259E-01  0.23449278142E-01  0.00000000000E+00 0.  1.
     999901    1    3    3    0    0  0.13333775488E+00 -0.29187163442E-01  0.10921522844E-01  0.89058976361E+00  0.88000000000E+00 0.  1.
        -11    1    4    4    0    0 -0.61779189907E-01  0.18776405197E-01 -0.23242322659E-01  0.68627169410E-01  0.51100000000E-03 0. -1.
         11    1    4    4    0    0 -0.57340696560E-01  0.21388241886E-01 -0.27528764436E-02  0.61263788837E-01  0.51100000000E-03 0.  1.
</event>
<event>
 8    1  0.1071333E+005  0.1043930E+01  0.7957747E-01            NaN
         13   -1    0    0    0    0  0.00000000000E+00  0.00000000000E+00  0.74505805969E-08  0.10566000000E+00  0.10566000000E+00 0.  1.
     999900   -1    0    0    0    0 -0.00000000000E+00 -0.00000000000E+00 -0.74505805969E-08  0.93827000000E+00  0.93827000000E+00 0. -1.
     999902    2    1    2    0    0  0.20546776001E-01  0.98986788399E-02  0.10823777537E-01  0.10186850400E+01  0.10183721828E+01 0.  0.
     999903    2    3    3    0    0  0.98805589642E-01  0.29648625286E-02  0.85195843279E-01  0.13206013400E+00  0.20253699066E-01 0.  0.
         14    1    1    2    0    0 -0.20546776001E-01 -0.98986788399E-02 -0.10823777537E-01  0.25244960031E-01  0.00000000000E+00 0. -1.
     999901    1    3    3    0    0 -0.78258813641E-01  0.69338163113E-02 -0.74372065742E-01  0.88662490597E+00  0.88000000000E+00 0. -1.
        -11    1    4    4    0    0  0.58585349702E-01  0.11488257452E-01  0.47794787190E-01  0.76477618050E-01  0.51100000000E-03 0. -1.
         11    1    4    4    0    0  0.40220239940E-01 -0.85233949233E-02  0.37401056089E-01  0.55582515951E-01  0.51100000000E-03 0.  1.
</event>
<event>
 8    1  0.1071333E+005  0.1043930E+01  0.7957747E-01            NaN
         13   -1    0    0    0    0  0.00000000000E+00  0.00000000000E+00  0.74505805969E-08  0.10566000000E+00  0.10566000000E+00 0.  1.
     999900   -1    0    0    0    0 -0.00000000000E+00 -0.00000000000E+00 -0.74505805969E-08  0.93827000000E+00  0.93827000000E+00 0. -1.
     999902    2    1    2    0    0 -0.14502211023E-01  0.70967995117E-02  0.16942505193E-01  0.10205264283E+01  0.10202580378E+01 0.  0.
     999903    2    3    3    0    0  0.85892268629E-01  0.78623775257E-01  0.54719118331E-01  0.13113212184E+00  0.25343078349E-01 0.  0.
         14    1    1    2    0    0  0.14502211023E-01 -0.70967995117E-02 -0.16942505193E-01  0.23403571738E-01  0.00000000000E+00 0. -1.
     999901    1    3    3    0    0 -0.10039447965E+00 -0.71526975746E-01 -0.37776613138E-01  0.88939430643E+00  0.88000000000E+00 0. -1.
        -11    1    4    4    0    0  0.20618871663E-01  0.30097111298E-01  0.80723801552E-02  0.37368414731E-01  0.51100000000E-03 0. -1.
         11    1    4    4    0    0  0.65273396966E-01  0.48526663959E-01  0.46646738176E-01  0.93763707104E-01  0.51100000000E-03 0.  1.
</event>
<event>
 8    1  0.1071333E+005  0.1043930E+01  0.7957747E-01            NaN
         13   -1    0    0    0    0  0.00000000000E+00  0.00000000000E+00  0.74505805969E-08  0.10566000000E+00  0.10566000000E+00 0.  1.
     999900   -1    0    0    0    0 -0.00000000000E+00 -0.00000000000E+00 -0.74505805969E-08  0.93827000000E+00  0.93827000000E+00 0.  1.
     999902    2    1    2    0    0 -0.84650494231E-02 -0.14828595498E-01  0.52212642207E-02  0.10260748633E+01  0.10259194994E+01 0.  0.
     999903    2    3    3    0    0  0.11276471193E+00  0.69075972207E-01  0.17521461983E-02  0.13380323073E+00  0.20319063608E-01 0.  0.
         14    1    1    2    0    0  0.84650494231E-02  0.14828595498E-01 -0.52212642207E-02  0.17855136691E-01  0.00000000000E+00 0. -1.
     999901    1    3    3    0    0 -0.12122976135E+00 -0.83904567705E-01  0.34691180224E-02  0.89227163258E+00  0.88000000000E+00 0.  1.
        -11    1    4    4    0    0  0.10180474294E+00  0.60125160715E-01 -0.45091370435E-02  0.11832089450E+00  0.51100000000E-03 0.  1.
         11    1    4    4    0    0  0.10959968987E-01  0.89508114923E-02  0.62612832419E-02  0.15482336239E-01  0.51100000000E-03 0. -1.
</event>
<event>
 8    1  0.1071333E+005  0.1043930E+01  0.7957747E-01            NaN
         13   -1    0    0    0    0  0.00000000000E+00  0.00000000000E+00  0.74505805969E-08  0.10566000000E+00  0.10566000000E+00 0.  1.
     999900   -1    0    0    0    0 -0.00000000000E+00 -0.00000000000E+00 -0.74505805969E-08  0.93827000000E+00  0.93827000000E+00 0.  1.
     999902    2    1    2    0    0  0.12456462078E-01  0.18309742261E-01  0.96260224896E-02  0.10197831489E+01  0.10194972292E+01 0.  0.
     999903    2    3    3    0    0 -0.12156643099E+00  0.21080055157E-01  0.31563171727E-01  0.12936131122E+00  0.22701303095E-01 0.  0.
         14    1    1    2    0    0 -0.12456462078E-01 -0.18309742261E-01 -0.96260224896E-02  0.24146851101E-01  0.00000000000E+00 0.  1.
     999901    1    3    3    0    0  0.13402289307E+00 -0.27703128966E-02 -0.21937149238E-01  0.89042183768E+00  0.88000000000E+00 0.  1.
        -11    1    4    4    0    0 -0.75282693485E-01  0.10963106696E-01  0.30515860277E-01  0.81970436720E-01  0.51100000000E-03 0.  1.
         11    1    4    4    0    0 -0.46283737504E-01  0.10116948461E-01  0.10473114509E-02  0.47390874499E-01  0.51100000000E-03 0. -1.
</event>
<event>
 8    1  0.1071333E+005  0.1043930E+01  0.7957747E-01            NaN
         13   -1    0    0    0    0  0.00000000000E+00  0.00000000000E+00  0.74505805969E-08  0.10566000000E+00  0.10566000000E+00 0.  1.
     999900   -1    0    0    0    0 -0.00000000000E+00 -0.00000000000E+00 -0.74505805969E-08  0.93827000000E+00  0.93827000000E+00 0. -1.
     999902    2    1    2    0    0  0.41795505379E-02  0.23381885771E-01 -0.17555939557E-02  0.10201127093E+01  0.10198346319E+01 0.  0.
     999903    2    3    3    0    0  0.47986377137E-01 -0.20795233781E-02 -0.12001841728E+00  0.13075709047E+00  0.19646358801E-01 0.  0.
         14    1    1    2    0    0 -0.41795505379E-02 -0.23381885771E-01  0.17555939557E-02  0.23817290674E-01  0.00000000000E+00 0.  1.
     999901    1    3    3    0    0 -0.43806826599E-01  0.25461409150E-01  0.11826282332E+00  0.88935561886E+00  0.88000000000E+00 0.  1.
        -11    1    4    4    0    0  0.21297016262E-01  0.86701168173E-02 -0.48986335829E-01  0.54117058736E-01  0.51100000000E-03 0. -1.
         11    1    4    4    0    0  0.26689360874E-01 -0.10749640195E-01 -0.71032081448E-01  0.76640031733E-01  0.51100000000E-03 0.  1.
</event>
<event>
 8    1  0.1071333E+005  0.1043930E+01  0.7957747E-01            NaN
         13   -1    0    0    0    0  0.00000000000E+00  0.00000000000E+00  0.74505805969E-08  0.10566000000E+00  0.10566000000E+00 0. -1.
     999900   -1    0    0    0    0 -0.00000000000E+00 -0.00000000000E+00 -0.74505805969E-08  0.93827000000E+00  0.93827000000E+00 0. -1.
     999902    2    1    2    0    0 -0.89075289792E-02  0.22059673155E-01  0.41535595538E-03  0.10201361820E+01  0.10198586589E+01 0.  0.
     999903    2    3    3    0    0  0.50518969194E-01  0.67661616068E-01 -0.98699917325E-01  0.13140963058E+00  0.19913733760E-01 0.  0.
         14    1    1    2    0    0  0.89075289792E-02 -0.22059673155E-01 -0.41535595538E-03  0.23793817953E-01  0.00000000000E+00 0. -1.
     999901    1    3    3    0    0 -0.59426498173E-01 -0.45601942913E-01  0.99115273280E-01  0.88872655147E+00  0.88000000000E+00 0. -1.
        -11    1    4    4    0    0  0.13095900728E-01  0.14323729629E-01 -0.36431280575E-01  0.41281608153E-01  0.51100000000E-03 0.  1.
         11    1    4    4    0    0  0.37423068466E-01  0.53337886439E-01 -0.62268636750E-01  0.90128022428E-01  0.51100000000E-03 0. -1.
</event>
<event>
 8    1  0.1071333E+005  0.1043930E+01  0.7957747E-01            NaN
         13   -1    0    0    0    0  0.00000000000E+00  0.00000000000E+00  0.74505805969E-08  0.10566000000E+00  0.10566000000E+00 0. -1.
     999900   -1    0    0    0    0 -0.00000000000E+00 -0.00000000000E+00 -0.74505805969E-08  0.93827000000E+00  0.93827000000E+00 0. -1.
     999902    2    1    2    0    0  0.77713911220E-03 -0.39253808783E-02  0.23811737325E-01  0.10197843711E+01  0.10194984807E+01 0.  0.
     999903    2    3    3    0    0  0.17523890456E-01 -0.12812972724E+00 -0.84752341174E-03  0.13056265945E+00  0.17932540522E-01 0.  0.
         14    1    1    2    0    0 -0.77713911220E-03  0.39253808783E-02 -0.23811737325E-01  0.24145628893E-01  0.00000000000E+00 0.  1.
     999901    1    3    3    0    0 -0.16746751344E-01  0.12420434636E+00  0.24659260736E-01  0.88922171165E+00  0.88000000000E+00 0. -1.
        -11    1    4    4    0    0  0.34634864704E-02 -0.25582874865E-01  0.70140048378E-02  0.26756991792E-01  0.51100000000E-03 0.  1.
         11    1    4    4    0    0  0.14060403986E-01 -0.10254685237E+00 -0.78615282495E-02  0.10380566766E+00  0.51100000000E-03 0. -1.
</event>
<event>
 8    1  0.1071333E+005  0.1043930E+01  0.7957747E-01            NaN
         13   -1    0    0    0    0  0.00000000000E+00  0.00000000000E+00  0.74505805969E-08  0.10566000000E+00  0.10566000000E+00 0. -1.
     999900   -1    0    0    0    0 -0.00000000000E+00 -0.00000000000E+00 -0.74505805969E-08  0.93827000000E+00  0.93827000000E+00 0. -1.
     999902    2    1    2    0    0 -0.14665864427E-01 -0.15987127640E-01 -0.12741696019E-01  0.10187699792E+01  0.10184592500E+01 0.  0.
     999903    2    3    3    0    0  0.54302141350E-02  0.66406955513E-01 -0.10908988917E+00  0.12945810384E+00  0.20479886838E-01 0.  0.
         14    1    1    2    0    0  0.14665864427E-01  0.15987127640E-01  0.12741696019E-01  0.25160020807E-01  0.00000000000E+00 0. -1.
     999901    1    3    3    0    0 -0.20096078562E-01 -0.82394083152E-01  0.96348193156E-01  0.88931187535E+00  0.88000000000E+00 0. -1.
        -11    1    4    4    0    0  0.29342261061E-02  0.25207267000E-01 -0.24228316898E-01  0.35089720050E-01  0.51100000000E-03 0.  1.
         11    1    4    4    0    0  0.24959880289E-02  0.41199688512E-01 -0.84861572277E-01  0.94368383795E-01  0.51100000000E-03 0. -1.
</event>
<event>
 8    1  0.1071333E+005  0.1043930E+01  0.7957747E-01            NaN
         13   -1    0    0    0    0  0.00000000000E+00  0.00000000000E+00  0.74505805969E-08  0.10566000000E+00  0.10566000000E+00 0. -1.
     999900   -1    0    0    0    0 -0.00000000000E+00 -0.00000000000E+00 -0.74505805969E-08  0.93827000000E+00  0.93827000000E+00 0.  1.
     999902    2    1    2    0    0 -0.14342486443E-01 -0.14123088162E-01 -0.94840929003E-02  0.10216787853E+01  0.10214364512E+01 0.  0.
     999903    2    3    3    0    0 -0.12645652999E+00 -0.14508326525E-01 -0.37240937132E-01  0.13413151921E+00  0.20065680456E-01 0.  0.
         14    1    1    2    0    0  0.14342486443E-01  0.14123088162E-01  0.94840929003E-02  0.22251214680E-01  0.00000000000E+00 0. -1.
     999901    1    3    3    0    0  0.11211404355E+00  0.38523836303E-03  0.27756844232E-01  0.88754726611E+00  0.88000000000E+00 0. -1.
        -11    1    4    4    0    0 -0.82316290679E-01 -0.10301206240E-01 -0.14223854402E-01  0.84170456314E-01  0.51100000000E-03 0.  1.
         11    1    4    4    0    0 -0.44140239313E-01 -0.42071202850E-02 -0.23017082730E-01  0.49961062900E-01  0.51100000000E-03 0. -1.
</event>
<event>
 8    1  0.1071333E+005  0.1043930E+01  0.7957747E-01            NaN
         13   -1    0    0    0    0  0.00000000000E+00  0.00000000000E+00  0.74505805969E-08  0.10566000000E+00  0.10566000000E+00 0.  1.
     999900   -1    0    0    0    0 -0.00000000000E+00 -0.00000000000E+00 -0.74505805969E-08  0.93827000000E+00  0.93827000000E+00 0. -1.
     999902    2    1    2    0    0 -0.21821829759E-01 -0.59177479752E-02  0.60416304960E-02  0.10205267247E+01  0.10202583411E+01 0.  0.
     999903    2    3    3    0    0 -0.95553178693E-01  0.70219264265E-01  0.57301833478E-01  0.13268621828E+00  0.16154794024E-01 0.  0.
         14    1    1    2    0    0  0.21821829759E-01  0.59177479752E-02 -0.60416304960E-02  0.23403275287E-01  0.00000000000E+00 0.  1.
     999901    1    3    3    0    0  0.73731348934E-01 -0.76137012240E-01 -0.51260202982E-01  0.88784050643E+00  0.88000000000E+00 0. -1.
        -11    1    4    4    0    0 -0.38357679531E-01  0.35616111000E-01  0.19306089600E-01  0.55792518839E-01  0.51100000000E-03 0. -1.
         11    1    4    4    0    0 -0.57195499162E-01  0.34603153265E-01  0.37995743878E-01  0.76893699444E-01  0.51100000000E-03 0.  1.
</event>
<event>
 8    1  0.1071333E+005  0.1043930E+01  0.7957747E-01            NaN
         13   -1    0    0    0    0  0.00000000000E+00  0.00000000000E+00  0.74505805969E-08  0.10566000000E+00  0.10566000000E+00 0. -1.
     999900   -1    0    0    0    0 -0.00000000000E+00 -0.00000000000E+00 -0.74505805969E-08  0.93827000000E+00  0.93827000000E+00 0.  1.
     999902    2    1    2    0    0 -0.81395348801E-02  0.85048482001E-02 -0.20573430946E-01  0.10202266135E+01  0.10199512206E+01 0.  0.
     999903    2    3    3    0    0 -0.95738802642E-02 -0.81680445058E-01  0.95801403042E-01  0.12799427466E+00  0.21006456956E-01 0.  0.
         14    1    1    2    0    0  0.81395348801E-02 -0.85048482001E-02  0.20573430946E-01  0.23703386506E-01  0.00000000000E+00 0. -1.
     999901    1    3    3    0    0  0.14343453841E-02  0.90185293258E-01 -0.11637483399E+00  0.89223233883E+00  0.88000000000E+00 0.  1.
        -11    1    4    4    0    0  0.28567213326E-02 -0.43871550751E-01  0.39919004061E-01  0.59385703905E-01  0.51100000000E-03 0.  1.
         11    1    4    4    0    0 -0.12430601597E-01 -0.37808894307E-01  0.55882398981E-01  0.68608570760E-01  0.51100000000E-03 0. -1.
</event>
<event>
 8    1  0.1071333E+005  0.1043930E+01  0.7957747E-01            NaN
         13   -1    0    0    0    0  0.00000000000E+00  0.00000000000E+00  0.74505805969E-08  0.10566000000E+00  0.10566000000E+00 0. -1.
     999900   -1    0    0    0    0 -0.00000000000E+00 -0.00000000000E+00 -0.74505805969E-08  0.93827000000E+00  0.93827000000E+00 0.  1.
     999902    2    1    2    0    0  0.20994234178E-01 -0.76674820858E-02 -0.76172159148E-02  0.10203170771E+01  0.10200438067E+01 0.  0.
     999903    2    3    3    0    0 -0.12446035365E+00  0.31131002966E-02  0.21196521102E-01  0.12784663527E+00  0.19884632702E-01 0.  0.
         14    1    1    2    0    0 -0.20994234178E-01  0.76674820858E-02  0.76172159148E-02  0.23612922914E-01  0.00000000000E+00 0.  1.
     999901    1    3    3    0    0  0.14545458783E+00 -0.10780582382E-01 -0.28813737016E-01  0.89247044182E+00  0.88000000000E+00 0. -1.
        -11    1    4    4    0    0 -0.88153039371E-01 -0.65484909962E-02  0.12474062639E-01  0.89273201155E-01  0.51100000000E-03 0.  1.
         11    1    4    4    0    0 -0.36307314281E-01  0.96615912928E-02  0.87224584627E-02  0.38573434113E-01  0.51100000000E-03 0. -1.
</event>
<event>
 8    1  0.1071333E+005  0.1043930E+01  0.7957747E-01            NaN
         13   -1    0    0    0    0  0.00000000000E+00  0.00000000000E+00  0.74505805969E-08  0.10566000000E+00  0.10566000000E+00 0. -1.
     999900   -1    0    0    0    0 -0.00000000000E+00 -0.00000000000E+00 -0.74505805969E-08  0.93827000000E+00  0.93827000000E+00 0. -1.
     999902    2    1    2    0    0 -0.11035970732E-01 -0.83073586907E-02  0.20150666214E-01  0.10194994002E+01  0.10192066389E+01 0.  0.
     999903    2    3    3    0    0 -0.23053119044E-01 -0.45489355352E-01  0.12111654059E+00  0.13286474007E+00  0.19572812831E-01 0.  0.
         14    1    1    2    0    0  0.11035970732E-01  0.83073586907E-02 -0.20150666214E-01  0.24430599814E-01  0.00000000000E+00 0.  1.
     999901    1    3    3    0    0  0.12017148311E-01  0.37181996662E-01 -0.10096587437E+00  0.88663466012E+00  0.88000000000E+00 0. -1.
        -11    1    4    4    0    0 -0.20674388394E-01 -0.29231906071E-01  0.99225245781E-01  0.10548860218E+00  0.51100000000E-03 0. -1.
         11    1    4    4    0    0 -0.23787306499E-02 -0.16257449282E-01  0.21891294807E-01  0.27376137894E-01  0.51100000000E-03 0.  1.
</event>
<event>
 8    1  0.1071333E+005  0.1043930E+01  0.7957747E-01            NaN
         13   -1    0    0    0    0  0.00000000000E+00  0.00000000000E+00  0.74505805969E-08  0.10566000000E+00  0.10566000000E+00 0. -1.
     999900   -1    0    0    0    0 -0.00000000000E+00 -0.00000000000E+00 -0.74505805969E-08  0.93827000000E+00  0.93827000000E+00 0. -1.
     999902    2    1    2    0    0 -0.11620766517E-01 -0.10711922736E-01  0.17355822663E-01  0.10204563534E+01  0.10201863345E+01 0.  0.
     999903    2    3    3    0    0 -0.12622074562E+00  0.30017219008E-01  0.13834177322E-01  0.13208457304E+00  0.20548477118E-01 0.  0.
         14    1    1    2    0    0  0.11620766517E-01  0.10711922736E-01 -0.17355822663E-01  0.23473646574E-01  0.00000000000E+00 0.  1.
     999901    1    3    3    0    0  0.11459997910E+00 -0.40729141743E-01  0.35216453410E-02  0.88837178038E+00  0.88000000000E+00 0.  1.
        -11    1    4    4    0    0 -0.66769946574E-01  0.18281374127E-01  0.17390269448E-01  0.71380088245E-01  0.51100000000E-03 0. -1.
         11    1    4    4    0    0 -0.59450799046E-01  0.11735844880E-01 -0.35560921259E-02  0.60704484797E-01  0.51100000000E-03 0.  1.
</event>
<event>
 8    1  0.1071333E+005  0.1043930E+01  0.7957747E-01            NaN
         13   -1    0    0    0    0  0.00000000000E+00  0.00000000000E+00  0.74505805969E-08  0.10566000000E+00  0.10566000000E+00 0.  1.
     999900   -1    0    0    0    0 -0.00000000000E+00 -0.00000000000E+00 -0.74505805969E-08  0.93827000000E+00  0.93827000000E+00 0. -1.
     999902    2    1    2    0    0  0.22369944808E-01 -0.11535914205E-01  0.15626819337E-01  0.10143041797E+01  0.10138714315E+01 0.  0.
     999903    2    3    3    0    0  0.73395931784E-01 -0.10104493028E+00  0.21158177891E-01  0.12827590065E+00  0.20248393972E-01 0.  0.
         14    1    1    2    0    0 -0.22369944808E-01  0.11535914205E-01 -0.15626819337E-01  0.29625820324E-01  0.00000000000E+00 0.  1.
     999901    1    3    3    0    0 -0.51025986976E-01  0.89509016075E-01 -0.55313585540E-02  0.88602827903E+00  0.88000000000E+00 0.  1.
        -11    1    4    4    0    0  0.25759713535E-01 -0.36171073596E-01  0.17416981997E-01  0.47702429596E-01  0.51100000000E-03 0. -1.
         11    1    4    4    0    0  0.47636218249E-01 -0.64873856684E-01  0.37411958941E-02  0.80573471055E-01  0.51100000000E-03 0.  1.
</event>
<event>
 8    1  0.1071333E+005  0.1043930E+01  0.7957747E-01            NaN
         13   -1    0    0    0    0  0.00000000000E+00  0.00000000000E+00  0.74505805969E-08  0.10566000000E+00  0.10566000000E+00 0.  1.
     999900   -1    0    0    0    0 -0.00000000000E+00 -0.00000000000E+00 -0.74505805969E-08  0.93827000000E+00  0.93827000000E+00 0. -1.
     999902    2    1    2    0    0 -0.10455185542E-02 -0.12803447568E-01 -0.26983558728E-01  0.10140446554E+01  0.10136041779E+01 0.  0.
     999903    2    3    3    0    0  0.61925659218E-01 -0.27003131066E-01  0.10047255628E+00  0.12252232733E+00  0.18789086520E-01 0.  0.
         14    1    1    2    0    0  0.10455185542E-02  0.12803447568E-01  0.26983558728E-01  0.29885344574E-01  0.00000000000E+00 0.  1.
     999901    1    3    3    0    0 -0.62971177772E-01  0.14199683499E-01 -0.12745611501E+00  0.89152232810E+00  0.88000000000E+00 0. -1.
        -11    1    4    4    0    0  0.41652270550E-01 -0.98042418181E-02  0.70339642564E-01  0.82334447448E-01  0.51100000000E-03 0. -1.
         11    1    4    4    0    0  0.20273388668E-01 -0.17198889248E-01  0.30132913714E-01  0.40187879882E-01  0.51100000000E-03 0.  1.
</event>
<event>
 8    1  0.1071333E+005  0.1043930E+01  0.7957747E-01            NaN
         13   -1    0    0    0    0  0.00000000000E+00  0.00000000000E+00  0.74505805969E-08  0.10566000000E+00  0.10566000000E+00 0. -1.
     999900   -1    0    0    0    0 -0.00000000000E+00 -0.00000000000E+00 -0.74505805969E-08  0.93827000000E+00  0.93827000000E+00 0. -1.
     999902    2    1    2    0    0 -0.98096957733E-02 -0.21245006992E-01  0.97437676775E-03  0.10205092856E+01  0.10202404972E+01 0.  0.
     999903    2    3    3    0    0  0.72724623078E-02  0.10699638015E+00 -0.69807632425E-01  0.12823816854E+00  0.84147640381E-02 0.  0.
         14    1    1    2    0    0  0.98096957733E-02  0.21245006992E-01 -0.97437676775E-03  0.23420714407E-01  0.00000000000E+00 0. -1.
     999901    1    3    3    0    0 -0.17082158081E-01 -0.12824138714E+00  0.70782009193E-01  0.89227111705E+00  0.88000000000E+00 0.  1.
        -11    1    4    4    0    0 -0.12937528211E-02  0.40321472595E-01 -0.26608429942E-01  0.48329748743E-01  0.51100000000E-03 0.  1.
         11    1    4    4    0    0  0.85662151288E-02  0.66674907550E-01 -0.43199202483E-01  0.79908419798E-01  0.51100000000E-03 0. -1.
</event>
<event>
 8    1  0.1071333E+005  0.1043930E+01  0.7957747E-01            NaN
         13   -1    0    0    0    0  0.00000000000E+00  0.00000000000E+00  0.74505805969E-08  0.10566000000E+00  0.10566000000E+00 0.  1.
     999900   -1    0    0    0    0 -0.00000000000E+00 -0.00000000000E+00 -0.74505805969E-08  0.93827000000E+00  0.93827000000E+00 0. -1.
     999902    2    1    2    0    0 -0.20339660446E-01 -0.79794737347E-02  0.19941765678E-01  0.10143487930E+01  0.10139173665E+01 0.  0.
     999903    2    3    3    0    0 -0.68923080496E-01  0.48361745049E-01  0.95504513371E-01  0.12798294842E+00  0.13010518890E-01 0.  0.
         14    1    1    2    0    0  0.20339660446E-01  0.79794737347E-02 -0.19941765678E-01  0.29581206982E-01  0.00000000000E+00 0. -1.
     999901    1    3    3    0    0  0.48583420050E-01 -0.56341218784E-01 -0.75562747694E-01  0.88636584460E+00  0.88000000000E+00 0. -1.
        -11    1    4    4    0    0 -0.41663123701E-01  0.28529675029E-01  0.47539837648E-01  0.69354563789E-01  0.51100000000E-03 0.  1.
         11    1    4    4    0    0 -0.27259956795E-01  0.19832070020E-01  0.47964675723E-01  0.58628384627E-01  0.51100000000E-03 0. -1.
</event>
<event>
 8    1  0.1071333E+005  0.1043930E+01  0.7957747E-01            NaN
         13   -1    0    0    0    0  0.00000000000E+00  0.00000000000E+00  0.74505805969E-08  0.10566000000E+00  0.10566000000E+00 0. -1.
     999900   -1    0    0    0    0 -0.00000000000E+00 -0.00000000000E+00 -0.74505805969E-08  0.93827000000E+00  0.93827000000E+00 0. -1.
     999902    2    1    2    0    0  0.18484100335E-01 -0.11965911246E-01 -0.10734572287E-01  0.10194335505E+01  0.10191391896E+01 0.  0.
     999903    2    3    3    0    0 -0.10478572292E+00  0.33814208394E-01 -0.61991224308E-01  0.12818806630E+00  0.21582864388E-01 0.  0.
         14    1    1    2    0    0 -0.18484100335E-01  0.11965911246E-01  0.10734572287E-01  0.24496449525E-01  0.00000000000E+00 0.  1.
     999901    1    3    3    0    0  0.12326982325E+00 -0.45780119641E-01  0.51256652021E-01  0.89124548417E+00  0.88000000000E+00 0. -1.
        -11    1    4    4    0    0 -0.45764226162E-01  0.16741761187E-01 -0.15501920937E-01  0.51139237749E-01  0.51100000000E-03 0.  1.
         11    1    4    4    0    0 -0.59021496755E-01  0.17072447207E-01 -0.46489303371E-01  0.77048828555E-01  0.51100000000E-03 0. -1.
</event>
<event>
 8    1  0.1071333E+005  0.1043930E+01  0.7957747E-01            NaN
         13   -1    0    0    0    0  0.00000000000E+00  0.00000000000E+00  0.74505805969E-08  0.10566000000E+00  0.10566000000E+00 0. -1.
     999900   -1    0    0    0    0 -0.00000000000E+00 -0.00000000000E+00 -0.74505805969E-08  0.93827000000E+00  0.93827000000E+00 0.  1.
     999902    2    1    2    0    0  0.11451102729E-01  0.19971231797E-01  0.16738264668E-01  0.10154669124E+01  0.10150679301E+01 0.  0.
     999903    2    3    3    0    0  0.29728527939E-01  0.98128114768E-01  0.77057739974E-01  0.12975759113E+00  0.19652605056E-01 0.  0.
         14    1    1    2    0    0 -0.11451102729E-01 -0.19971231797E-01 -0.16738264668E-01  0.28463087628E-01  0.00000000000E+00 0.  1.
     999901    1    3    3    0    0 -0.18277425211E-01 -0.78156882971E-01 -0.60319475306E-01  0.88570932124E+00  0.88000000000E+00 0. -1.
        -11    1    4    4    0    0  0.24570485204E-01  0.61488015410E-01  0.39863251020E-01  0.77290521315E-01  0.51100000000E-03 0. -1.
         11    1    4    4    0    0  0.51580427355E-02  0.36640099358E-01  0.37194488954E-01  0.52467069819E-01  0.51100000000E-03 0.  1.
</event>
<event>
 8    1  0.1071333E+005  0.1043930E+01  0.7957747E-01            NaN
         13   -1    0    0    0    0  0.00000000000E+00  0.00000000000E+00  0.74505805969E-08  0.10566000000E+00  0.10566000000E+00 0.  1.
     999900   -1    0    0    0    0 -0.00000000000E+00 -0.00000000000E+00 -0.74505805969E-08  0.93827000000E+00  0.93827000000E+00 0. -1.
     999902    2    1    2    0    0 -0.18776204198E-01  0.13669442113E-01 -0.72817432601E-02  0.10195902532E+01  0.10192996915E+01 0.  0.
     999903    2    3    3    0    0  0.10041280144E+00 -0.29500542866E-01 -0.71256606580E-01  0.12820792788E+00  0.20168194442E-01 0.  0.
         14    1    1    2    0    0  0.18776204198E-01 -0.13669442113E-01  0.72817432601E-02  0.24339746849E-01  0.00000000000E+00 0.  1.
     999901    1    3    3    0    0 -0.11918900564E+00  0.43169984979E-01  0.63974863320E-01  0.89138232527E+00  0.88000000000E+00 0.  1.
        -11    1    4    4    0    0  0.52470975096E-01 -0.84311755472E-02 -0.26842227796E-01  0.59540358268E-01  0.51100000000E-03 0. -1.
         11    1    4    4    0    0  0.47941826347E-01 -0.21069367319E-01 -0.44414378784E-01  0.68667569612E-01  0.51100000000E-03 0.  1.
</event>
<event>
 8    1  0.1071333E+005  0.1043930E+01  0.7957747E-01            NaN
         13   -1    0    0    0    0  0.00000000000E+00  0.00000000000E+00  0.74505805969E-08  0.10566000000E+00  0.10566000000E+00 0. -1.
     999900   -1    0    0    0    0 -0.00000000000E+00 -0.00000000000E+00 -0.74505805969E-08  0.93827000000E+00  0.93827000000E+00 0.  1.
     999902    2    1    2    0    0 -0.13445768248E-01  0.29420425697E-02 -0.19764269365E-01  0.10198453443E+01  0.10195609131E+01 0.  0.
     999903    2    3    3    0    0 -0.11631178262E+00 -0.34911839227E-01 -0.49051183328E-01  0.13256181765E+00  0.20478027660E-01 0.  0.
         14    1    1    2    0    0  0.13445768248E-01 -0.29420425697E-02  0.19764269365E-01  0.24084655733E-01  0.00000000000E+00 0. -1.
     999901    1    3    3    0    0  0.10286601438E+00  0.37853881797E-01  0.29286913963E-01  0.88728352662E+00  0.88000000000E+00 0.  1.
        -11    1    4    4    0    0 -0.88229385172E-01 -0.22169057355E-01 -0.27870498689E-01  0.95146819863E-01  0.51100000000E-03 0.  1.
         11    1    4    4    0    0 -0.28082397452E-01 -0.12742781872E-01 -0.21180684638E-01  0.37414997785E-01  0.51100000000E-03 0. -1.
</event>
<event>
 8    1  0.1071333E+005  0.1043930E+01  0.7957747E-01            NaN
         13   -1    0    0    0    0  0.00000000000E+00  0.00000000000E+00  0.74505805969E-08  0.10566000000E+00  0.10566000000E+00 0.  1.
     999900   -1    0    0    0    0 -0.00000000000E+00 -0.00000000000E+00 -0.74505805969E-08  0.93827000000E+00  0.93827000000E+00 0.  1.
     999902    2    1    2    0    0  0.43891687353E-02  0.22384137986E-01 -0.60398315916E-02  0.10203335172E+01  0.10200606317E+01 0.  0.
     999903    2    3    3    0    0  0.12568912755E+00  0.29569363412E-01  0.16444889994E-01  0.13169924473E+00  0.20053743252E-01 0.  0.
         14    1    1    2    0    0 -0.43891687353E-02 -0.22384137986E-01  0.60398315916E-02  0.23596482815E-01  0.00000000000E+00 0. -1.
     999901    1    3    3    0    0 -0.12129995882E+00 -0.71852254262E-02 -0.22484721586E-01  0.88863427245E+00  0.88000000000E+00 0. -1.
        -11    1    4    4    0    0  0.54622483652E-02  0.59562406068E-02  0.18667407731E-02  0.83101625425E-02  0.51100000000E-03 0.  1.
         11    1    4    4    0    0  0.12022687919E+00  0.23613122805E-01  0.14578149221E-01  0.12338908219E+00  0.51100000000E-03 0. -1.
</event>
<event>
 8    1  0.1295622E+005  0.1043930E+01  0.7957747E-01            NaN
         13   -1    0    0    0    0  0.00000000000E+00  0.00000000000E+00  0.74505805969E-08  0.10566000000E+00  0.10566000000E+00 0. -1.
     999900   -1    0    0    0    0 -0.00000000000E+00 -0.00000000000E+00 -0.74505805969E-08  0.93827000000E+00  0.93827000000E+00 0.  1.
     999902    2    1    2    0    0  0.35341607366E-02  0.10088186239E-01 -0.20631691416E-01  0.10206936387E+01  0.10204291135E+01 0.  0.
     999903    2    3    3    0    0  0.65361323048E-01  0.11301852983E+00  0.21684244221E-02  0.13224718627E+00  0.20960094871E-01 0.  0.
         14    1    1    2    0    0 -0.35341607366E-02 -0.10088186239E-01  0.20631691416E-01  0.23236361256E-01  0.00000000000E+00 0.  1.
     999901    1    3    3    0    0 -0.61827162311E-01 -0.10293034359E+00 -0.22800115838E-01  0.88844645247E+00  0.88000000000E+00 0.  1.
        -11    1    4    4    0    0  0.23569317896E-01  0.60594182305E-01  0.43683469211E-02  0.65165261076E-01  0.51100000000E-03 0. -1.
         11    1    4    4    0    0  0.41792005151E-01  0.52424347524E-01 -0.21999224990E-02  0.67081925195E-01  0.51100000000E-03 0.  1.
</event>
<event>
 8    1  0.1071333E+005  0.1043930E+01  0.7957747E-01            NaN
         13   -1    0    0    0    0  0.00000000000E+00  0.00000000000E+00  0.74505805969E-08  0.10566000000E+00  0.10566000000E+00 0. -1.
     999900   -1    0    0    0    0 -0.00000000000E+00 -0.00000000000E+00 -0.74505805969E-08  0.93827000000E+00  0.93827000000E+00 0. -1.
     999902    2    1    2    0    0 -0.59156831629E-02 -0.21875558945E-01  0.94423696142E-02  0.10193801786E+01  0.10190845180E+01 0.  0.
     999903    2    3    3    0    0 -0.48976127911E-01  0.10507625533E+00 -0.48911308189E-01  0.12731733510E+00  0.19434690866E-01 0.  0.
         14    1    1    2    0    0  0.59156831629E-02  0.21875558945E-01 -0.94423696142E-02  0.24549821391E-01  0.00000000000E+00 0. -1.
     999901    1    3    3    0    0  0.43060444748E-01 -0.12695181428E+00  0.58353677803E-01  0.89206284351E+00  0.88000000000E+00 0.  1.
        -11    1    4    4    0    0 -0.18128674666E-01  0.52893003404E-01 -0.31807387335E-01  0.64329539594E-01  0.51100000000E-03 0. -1.
         11    1    4    4    0    0 -0.30847453245E-01  0.52183251928E-01 -0.17103920854E-01  0.62987795509E-01  0.51100000000E-03 0.  1.
</event>
<event>
 8    1  0.1071333E+005  0.1043930E+01  0.7957747E-01            NaN
         13   -1    0    0    0    0  0.00000000000E+00  0.00000000000E+00  0.74505805969E-08  0.10566000000E+00  0.10566000000E+00 0. -1.
     999900   -1    0    0    0    0 -0.00000000000E+00 -0.00000000000E+00 -0.74505805969E-08  0.93827000000E+00  0.93827000000E+00 0.  1.
     999902    2    1    2    0    0  0.18252423007E-01  0.11726589050E-01 -0.82366066860E-02  0.10207242782E+01  0.10204604581E+01 0.  0.
     999903    2    3    3    0    0 -0.96799705653E-01  0.77620452109E-01  0.32287311465E-01  0.12987009175E+00  0.20703928380E-01 0.  0.
         14    1    1    2    0    0 -0.18252423007E-01 -0.11726589050E-01  0.82366066860E-02  0.23205721839E-01  0.00000000000E+00 0. -1.
     999901    1    3    3    0    0  0.11505212866E+00 -0.65893863059E-01 -0.40523918151E-01  0.89085418641E+00  0.88000000000E+00 0.  1.
        -11    1    4    4    0    0 -0.71545786721E-01  0.65793275035E-01  0.30704853905E-01  0.10193431126E+00  0.51100000000E-03 0.  1.
         11    1    4    4    0    0 -0.25253918931E-01  0.11827177074E-01  0.15824575599E-02  0.27935780495E-01  0.51100000000E-03 0. -1.
</event>
<event>
 8    1  0.1071333E+005  0.1043930E+01  0.7957747E-01            NaN
         13   -1    0    0    0    0  0.00000000000E+00  0.00000000000E+00  0.74505805969E-08  0.10566000000E+00  0.10566000000E+00 0. -1.
     999900   -1    0    0    0    0 -0.00000000000E+00 -0.00000000000E+00 -0.74505805969E-08  0.93827000000E+00  0.93827000000E+00 0.  1.
     999902    2    1    2    0    0  0.93561048344E-02  0.12275105663E-01  0.17735077074E-01  0.10204194093E+01  0.10201485299E+01 0.  0.
     999903    2    3    3    0    0  0.31652462699E-01  0.12362898017E+00  0.31554641558E-01  0.13301431955E+00  0.20275864192E-01 0.  0.
         14    1    1    2    0    0 -0.93561048344E-02 -0.12275105663E-01 -0.17735077074E-01  0.23510590710E-01  0.00000000000E+00 0.  1.
     999901    1    3    3    0    0 -0.22296357864E-01 -0.11135387450E+00 -0.13819564484E-01  0.88740508974E+00  0.88000000000E+00 0. -1.
        -11    1    4    4    0    0  0.25214623419E-02  0.38179452183E-02 -0.23027659839E-02  0.51476528834E-02  0.51100000000E-03 0.  1.
         11    1    4    4    0    0  0.29131000357E-01  0.11981103495E+00  0.33857407542E-01  0.12786666666E+00  0.51100000000E-03 0. -1.
</event>
<event>
 8    1  0.1071333E+005  0.1043930E+01  0.7957747E-01            NaN
         13   -1    0    0    0    0  0.00000000000E+00  0.00000000000E+00  0.74505805969E-08  0.10566000000E+00  0.10566000000E+00 0.  1.
     999900   -1    0    0    0    0 -0.00000000000E+00 -0.00000000000E+00 -0.74505805969E-08  0.93827000000E+00  0.93827000000E+00 0.  1.
     999902    2    1    2    0    0 -0.17287194219E-03 -0.23086535073E-01  0.49112255225E-02  0.10203262265E+01  0.10200531704E+01 0.  0.
     999903    2    3    3    0    0 -0.44610001752E-01 -0.97078026916E-01 -0.75656984326E-01  0.13244074077E+00  0.20059286412E-01 0.  0.
         14    1    1    2    0    0  0.17287194219E-03  0.23086535073E-01 -0.49112255225E-02  0.23603773481E-01  0.00000000000E+00 0. -1.
     999901    1    3    3    0    0  0.44437129810E-01  0.73991491843E-01  0.80568209849E-01  0.88788548575E+00  0.88000000000E+00 0. -1.
        -11    1    4    4    0    0 -0.42728761709E-01 -0.73307193359E-01 -0.59277393168E-01  0.10350730475E+00  0.51100000000E-03 0.  1.
         11    1    4    4    0    0 -0.18812400432E-02 -0.23770833557E-01 -0.16379591158E-01  0.28933436014E-01  0.51100000000E-03 0. -1.
</event>
<event>
 8    1  0.1071333E+005  0.1043930E+01  0.7957747E-01            NaN
         13   -1    0    0    0    0  0.00000000000E+00  0.00000000000E+00  0.74505805969E-08  0.10566000000E+00  0.10566000000E+00 0.  1.
     999900   -1    0    0    0    0 -0.00000000000E+00 -0.00000000000E+00 -0.74505805969E-08  0.93827000000E+00  0.93827000000E+00 0.  1.
     999902    2    1    2    0    0 -0.91913848051E-02  0.52951012149E-04  0.21881120476E-01  0.10201967366E+01  0.10199206408E+01 0.  0.
     999903    2    3    3    0    0  0.73864529253E-01  0.10486080490E+00 -0.12620295350E-01  0.12942554331E+00  0.11829721885E-01 0.  0.
         14    1    1    2    0    0  0.91913848051E-02 -0.52951012149E-04 -0.21881120476E-01  0.23733263403E-01  0.00000000000E+00 0. -1.
     999901    1    3    3    0    0 -0.83055914058E-01 -0.10480785389E+00  0.34501415827E-01  0.89077119329E+00  0.88000000000E+00 0. -1.
        -11    1    4    4    0    0  0.24890130670E-01  0.44331020531E-01 -0.75166391214E-02  0.51395709653E-01  0.51100000000E-03 0. -1.
         11    1    4    4    0    0  0.48974398583E-01  0.60529784371E-01 -0.51036562286E-02  0.78029833656E-01  0.51100000000E-03 0.  1.
</event>
<event>
 8    1  0.1071333E+005  0.1043930E+01  0.7957747E-01            NaN
         13   -1    0    0    0    0  0.00000000000E+00  0.00000000000E+00  0.74505805969E-08  0.10566000000E+00  0.10566000000E+00 0. -1.
     999900   -1    0    0    0    0 -0.00000000000E+00 -0.00000000000E+00 -0.74505805969E-08  0.93827000000E+00  0.93827000000E+00 0.  1.
     999902    2    1    2    0    0 -0.25511379102E-01 -0.70434298674E-03 -0.19437162232E-02  0.10183349889E+01  0.10180132833E+01 0.  0.
     999903    2    3    3    0    0  0.54295819352E-01  0.11317946494E+00 -0.11265814383E-01  0.12736607125E+00  0.18373084861E-01 0.  0.
         14    1    1    2    0    0  0.25511379102E-01  0.70434298674E-03  0.19437162232E-02  0.25595011144E-01  0.00000000000E+00 0. -1.
     999901    1    3    3    0    0 -0.79807198454E-01 -0.11388380793E+00  0.93220981594E-02  0.89096891761E+00  0.88000000000E+00 0.  1.
        -11    1    4    4    0    0  0.20891674155E-01  0.60562752691E-01 -0.11204770179E-01  0.65039350076E-01  0.51100000000E-03 0. -1.
         11    1    4    4    0    0  0.33404145196E-01  0.52616712250E-01 -0.61044203147E-04  0.62326721169E-01  0.51100000000E-03 0.  1.
</event>
<event>
 8    1  0.1071333E+005  0.1043930E+01  0.7957747E-01            NaN
         13   -1    0    0    0    0  0.00000000000E+00  0.00000000000E+00  0.74505805969E-08  0.10566000000E+00  0.10566000000E+00 0.  1.
     999900   -1    0    0    0    0 -0.00000000000E+00 -0.00000000000E+00 -0.74505805969E-08  0.93827000000E+00  0.93827000000E+00 0. -1.
     999902    2    1    2    0    0 -0.55522897314E-02  0.81069162476E-02 -0.23320511476E-01  0.10186239480E+01  0.10183095557E+01 0.  0.
     999903    2    3    3    0    0 -0.12008704936E+00 -0.40450926656E-02 -0.47931638974E-01  0.13077734521E+00  0.19183581707E-01 0.  0.
         14    1    1    2    0    0  0.55522897314E-02 -0.81069162476E-02  0.23320511476E-01  0.25306051999E-01  0.00000000000E+00 0.  1.
     999901    1    3    3    0    0  0.11453475963E+00  0.12152008913E-01  0.24611127498E-01  0.88784660279E+00  0.88000000000E+00 0.  1.
        -11    1    4    4    0    0 -0.46743958046E-01  0.44181485346E-02 -0.11010288749E-01  0.48228676424E-01  0.51100000000E-03 0.  1.
         11    1    4    4    0    0 -0.73343091316E-01 -0.84632412002E-02 -0.36921350225E-01  0.82548668789E-01  0.51100000000E-03 0. -1.
</event>
<event>
 8    1  0.1071333E+005  0.1043930E+01  0.7957747E-01            NaN
         13   -1    0    0    0    0  0.00000000000E+00  0.00000000000E+00  0.74505805969E-08  0.10566000000E+00  0.10566000000E+00 0. -1.
     999900   -1    0    0    0    0 -0.00000000000E+00 -0.00000000000E+00 -0.74505805969E-08  0.93827000000E+00  0.93827000000E+00 0. -1.
     999902    2    1    2    0    0  0.17678077796E-01  0.13397685134E-01 -0.59918671048E-02  0.10209536018E+01  0.10206950290E+01 0.  0.
     999903    2    3    3    0    0  0.17535245708E-01  0.58592922261E-01  0.11479569625E+00  0.13155365505E+00  0.19690020285E-01 0.  0.
         14    1    1    2    0    0 -0.17678077796E-01 -0.13397685134E-01  0.59918671048E-02  0.22976398171E-01  0.00000000000E+00 0.  1.
     999901    1    3    3    0    0  0.14283208799E-03 -0.45195237126E-01 -0.12078756336E+00  0.88939994677E+00  0.88000000000E+00 0. -1.
        -11    1    4    4    0    0 -0.29867581577E-02  0.19719883264E-01  0.29794170713E-01  0.35857331882E-01  0.51100000000E-03 0.  1.
         11    1    4    4    0    0  0.20522003865E-01  0.38873038997E-01  0.85001525541E-01  0.95696323173E-01  0.51100000000E-03 0. -1.
</event>
<event>
 8    1  0.1071333E+005  0.1043930E+01  0.7957747E-01            NaN
         13   -1    0    0    0    0  0.00000000000E+00  0.00000000000E+00  0.74505805969E-08  0.10566000000E+00  0.10566000000E+00 0.  1.
     999900   -1    0    0    0    0 -0.00000000000E+00 -0.00000000000E+00 -0.74505805969E-08  0.93827000000E+00  0.93827000000E+00 0.  1.
     999902    2    1    2    0    0  0.20523319269E-01 -0.92871991330E-03  0.13162706671E-01  0.10195306967E+01  0.10192386941E+01 0.  0.
     999903    2    3    3    0    0  0.63944778202E-01 -0.46712906563E-02 -0.11110400452E+00  0.12973204226E+00  0.19379044192E-01 0.  0.
         14    1    1    2    0    0 -0.20523319269E-01  0.92871991330E-03 -0.13162706671E-01  0.24399303297E-01  0.00000000000E+00 0. -1.
     999901    1    3    3    0    0 -0.43421458933E-01  0.37425707430E-02  0.12426671119E+00  0.88979865444E+00  0.88000000000E+00 0. -1.
        -11    1    4    4    0    0  0.47568186680E-02 -0.60515315250E-02 -0.11136901001E-01  0.13547695101E-01  0.51100000000E-03 0.  1.
         11    1    4    4    0    0  0.59187959534E-01  0.13802408688E-02 -0.99967103519E-01  0.11618434716E+00  0.51100000000E-03 0. -1.
</event>
<event>
 8    1  0.1071333E+005  0.1043930E+01  0.7957747E-01            NaN
         13   -1    0    0    0    0  0.00000000000E+00  0.00000000000E+00  0.74505805969E-08  0.10566000000E+00  0.10566000000E+00 0.  1.
     999900   -1    0    0    0    0 -0.00000000000E+00 -0.00000000000E+00 -0.74505805969E-08  0.93827000000E+00  0.93827000000E+00 0. -1.
     999902    2    1    2    0    0  0.16445568860E-01 -0.40894872725E-02  0.12957698048E-01  0.10225973354E+01  0.10223747981E+01 0.  0.
     999903    2    3    3    0    0  0.12473637966E+00 -0.18372116139E-01 -0.41341835719E-01  0.13418339325E+00  0.19983407669E-01 0.  0.
         14    1    1    2    0    0 -0.16445568860E-01  0.40894872725E-02 -0.12957698048E-01  0.21332664625E-01  0.00000000000E+00 0. -1.
     999901    1    3    3    0    0 -0.10829081080E+00  0.14282628867E-01  0.54299533768E-01  0.88841394212E+00  0.88000000000E+00 0.  1.
        -11    1    4    4    0    0  0.50992949818E-01 -0.32435881620E-02 -0.26086715231E-01  0.57372289721E-01  0.51100000000E-03 0.  1.
         11    1    4    4    0    0  0.73743429841E-01 -0.15128527977E-01 -0.15255120488E-01  0.76811103531E-01  0.51100000000E-03 0. -1.
</event>
<event>
 8    1  0.1071333E+005  0.1043930E+01  0.7957747E-01            NaN
         13   -1    0    0    0    0  0.00000000000E+00  0.00000000000E+00  0.74505805969E-08  0.10566000000E+00  0.10566000000E+00 0.  1.
     999900   -1    0    0    0    0 -0.00000000000E+00 -0.00000000000E+00 -0.74505805969E-08  0.93827000000E+00  0.93827000000E+00 0.  1.
     999902    2    1    2    0    0 -0.10557194053E-01 -0.18385412873E-01  0.16304217996E-01  0.10171848083E+01  0.10168331373E+01 0.  0.
     999903    2    3    3    0    0 -0.85604383203E-01 -0.91929926081E-01  0.30610437028E-01  0.13081832435E+00  0.19930213210E-01 0.  0.
         14    1    1    2    0    0  0.10557194053E-01  0.18385412873E-01 -0.16304217996E-01  0.26745191666E-01  0.00000000000E+00 0. -1.
     999901    1    3    3    0    0  0.75047189150E-01  0.73544513208E-01 -0.14306219033E-01  0.88636648398E+00  0.88000000000E+00 0.  1.
        -11    1    4    4    0    0 -0.18293848817E-01 -0.15251185653E-01 -0.14518786052E-02  0.23866978042E-01  0.51100000000E-03 0. -1.
         11    1    4    4    0    0 -0.67310534385E-01 -0.76678740428E-01  0.32062315634E-01  0.10695134631E+00  0.51100000000E-03 0.  1.
</event>
<event>
 8    1  0.1071333E+005  0.1043930E+01  0.7957747E-01            NaN
         13   -1    0    0    0    0  0.00000000000E+00  0.00000000000E+00  0.74505805969E-08  0.10566000000E+00  0.10566000000E+00 0. -1.
     999900   -1    0    0    0    0 -0.00000000000E+00 -0.00000000000E+00 -0.74505805969E-08  0.93827000000E+00  0.93827000000E+00 0. -1.
     999902    2    1    2    0    0  0.56220185923E-04  0.12121818605E-01  0.20091456126E-01  0.10204649567E+01  0.10201951380E+01 0.  0.
     999903    2    3    3    0    0 -0.57533209783E-01 -0.59903292773E-01 -0.95525107641E-01  0.12812457943E+00  0.19808759484E-01 0.  0.
         14    1    1    2    0    0 -0.56220185923E-04 -0.12121818605E-01 -0.20091456126E-01  0.23465043283E-01  0.00000000000E+00 0.  1.
     999901    1    3    3    0    0  0.57589429969E-01  0.72025111378E-01  0.11561656377E+00  0.89234037728E+00  0.88000000000E+00 0.  1.
        -11    1    4    4    0    0 -0.16894994806E-01 -0.31208411903E-01 -0.43468850272E-01  0.56117803663E-01  0.51100000000E-03 0. -1.
         11    1    4    4    0    0 -0.40638214977E-01 -0.28694880871E-01 -0.52056257369E-01  0.72006775771E-01  0.51100000000E-03 0.  1.
</event>
<event>
 8    1  0.1071333E+005  0.1043930E+01  0.7957747E-01            NaN
         13   -1    0    0    0    0  0.00000000000E+00  0.00000000000E+00  0.74505805969E-08  0.10566000000E+00  0.10566000000E+00 0. -1.
     999900   -1    0    0    0    0 -0.00000000000E+00 -0.00000000000E+00 -0.74505805969E-08  0.93827000000E+00  0.93827000000E+00 0. -1.
     999902    2    1    2    0    0 -0.43145485578E-02 -0.17727233070E-01  0.13384801470E-01  0.10213020741E+01  0.10210513716E+01 0.  0.
     999903    2    3    3    0    0  0.50985649077E-01 -0.12127702099E+00  0.10469286261E-01  0.13350188784E+00  0.20136928032E-01 0.  0.
         14    1    1    2    0    0  0.43145485578E-02  0.17727233070E-01 -0.13384801470E-01  0.22627925932E-01  0.00000000000E+00 0.  1.
     999901    1    3    3    0    0 -0.55300197635E-01  0.10354978792E+00  0.29155152086E-02  0.88780018623E+00  0.88000000000E+00 0.  1.
        -11    1    4    4    0    0  0.15963330160E-01 -0.54369890676E-01  0.12181347771E-01  0.57961705258E-01  0.51100000000E-03 0. -1.
         11    1    4    4    0    0  0.35022318918E-01 -0.66907130313E-01 -0.17120615097E-02  0.75540182583E-01  0.51100000000E-03 0.  1.
</event>
<event>
 8    1  0.1178297E+005  0.1043930E+01  0.7957747E-01            NaN
         13   -1    0    0    0    0  0.00000000000E+00  0.00000000000E+00  0.74505805969E-08  0.10566000000E+00  0.10566000000E+00 0. -1.
     999900   -1    0    0    0    0 -0.00000000000E+00 -0.00000000000E+00 -0.74505805969E-08  0.93827000000E+00  0.93827000000E+00 0.  1.
     999902    2    1    2    0    0 -0.11337564047E-01  0.17709694936E-01 -0.86040428886E-02  0.10212098942E+01  0.10209571219E+01 0.  0.
     999903    2    3    3    0    0  0.97466810924E-01  0.11291797055E-01 -0.84996213417E-01  0.13120127338E+00  0.19029816841E-01 0.  0.
         14    1    1    2    0    0  0.11337564047E-01 -0.17709694936E-01  0.86040428886E-02  0.22720105794E-01  0.00000000000E+00 0. -1.
     999901    1    3    3    0    0 -0.10880437497E+00  0.64178978805E-02  0.76392170528E-01  0.89000862083E+00  0.88000000000E+00 0. -1.
        -11    1    4    4    0    0  0.61374174679E-01  0.71545877038E-02 -0.41066713869E-01  0.74193756824E-01  0.51100000000E-03 0.  1.
         11    1    4    4    0    0  0.36092636245E-01  0.41372093515E-02 -0.43929499548E-01  0.57007516556E-01  0.51100000000E-03 0. -1.
</event>
<event>
 8    1  0.1071333E+005  0.1043930E+01  0.7957747E-01            NaN
         13   -1    0    0    0    0  0.00000000000E+00  0.00000000000E+00  0.74505805969E-08  0.10566000000E+00  0.10566000000E+00 0.  1.
     999900   -1    0    0    0    0 -0.00000000000E+00 -0.00000000000E+00 -0.74505805969E-08  0.93827000000E+00  0.93827000000E+00 0. -1.
     999902    2    1    2    0    0  0.12043156950E-01 -0.17185407659E-01 -0.81965336315E-03  0.10229288644E+01  0.10227132608E+01 0.  0.
     999903    2    3    3    0    0  0.83869884233E-01  0.71284900768E-01 -0.71399170452E-01  0.13277857232E+00  0.20411104002E-01 0.  0.
         14    1    1    2    0    0 -0.12043156950E-01  0.17185407659E-01  0.81965336315E-03  0.21001135621E-01  0.00000000000E+00 0.  1.
     999901    1    3    3    0    0 -0.71826727283E-01 -0.88470308427E-01  0.70579517088E-01  0.89015029206E+00  0.88000000000E+00 0.  1.
        -11    1    4    4    0    0  0.29431940628E-01  0.17630135581E-01 -0.31387916493E-01  0.46502937891E-01  0.51100000000E-03 0. -1.
         11    1    4    4    0    0  0.54437943606E-01  0.53654765187E-01 -0.40011253958E-01  0.86275634426E-01  0.51100000000E-03 0.  1.
</event>
<event>
 8    1  0.1071333E+005  0.1043930E+01  0.7957747E-01            NaN
         13   -1    0    0    0    0  0.00000000000E+00  0.00000000000E+00  0.74505805969E-08  0.10566000000E+00  0.10566000000E+00 0.  1.
     999900   -1    0    0    0    0 -0.00000000000E+00 -0.00000000000E+00 -0.74505805969E-08  0.93827000000E+00  0.93827000000E+00 0. -1.
     999902    2    1    2    0    0 -0.86774724148E-02  0.21406186826E-01 -0.73162042697E-02  0.10197008810E+01  0.10194129862E+01 0.  0.
     999903    2    3    3    0    0 -0.79696704365E-01  0.28011893772E-01 -0.99820092797E-01  0.13198226790E+00  0.17861613458E-01 0.  0.
         14    1    1    2    0    0  0.86774724148E-02 -0.21406186826E-01  0.73162042697E-02  0.24229118987E-01  0.00000000000E+00 0.  1.
     999901    1    3    3    0    0  0.71019231951E-01 -0.66057069455E-02  0.92503888527E-01  0.88771861311E+00  0.88000000000E+00 0.  1.
        -11    1    4    4    0    0 -0.15044025258E-01  0.98954142812E-02 -0.30860099822E-01  0.35733021168E-01  0.51100000000E-03 0.  1.
         11    1    4    4    0    0 -0.64652679107E-01  0.18116479490E-01 -0.68959992974E-01  0.96249246734E-01  0.51100000000E-03 0. -1.
</event>
<event>
 8    1  0.1071333E+005  0.1043930E+01  0.7957747E-01            NaN
         13   -1    0    0    0    0  0.00000000000E+00  0.00000000000E+00  0.74505805969E-08  0.10566000000E+00  0.10566000000E+00 0.  1.
     999900   -1    0    0    0    0 -0.00000000000E+00 -0.00000000000E+00 -0.74505805969E-08  0.93827000000E+00  0.93827000000E+00 0. -1.
     999902    2    1    2    0    0  0.44811010349E-02  0.22928781523E-01 -0.28817361607E-02  0.10203903804E+01  0.10201188238E+01 0.  0.
     999903    2    3    3    0    0 -0.10065192752E+00 -0.38347509280E-01  0.68431056173E-01  0.12915906817E+00  0.19947768313E-01 0.  0.
         14    1    1    2    0    0 -0.44811010349E-02 -0.22928781523E-01  0.28817361607E-02  0.23539619621E-01  0.00000000000E+00 0. -1.
     999901    1    3    3    0    0  0.10513302855E+00  0.61276290803E-01 -0.71312792334E-01  0.89123131221E+00  0.88000000000E+00 0. -1.
        -11    1    4    4    0    0 -0.22936893305E-01 -0.14624796684E-03  0.14342564440E-01  0.27057212323E-01  0.51100000000E-03 0. -1.
         11    1    4    4    0    0 -0.77715034215E-01 -0.38201261313E-01  0.54088491733E-01  0.10210185585E+00  0.51100000000E-03 0.  1.
</event>
<event>
 8    1  0.1071333E+005  0.1043930E+01  0.7957747E-01            NaN
         13   -1    0    0    0    0  0.00000000000E+00  0.00000000000E+00  0.74505805969E-08  0.10566000000E+00  0.10566000000E+00 0.  1.
     999900   -1    0    0    0    0 -0.00000000000E+00 -0.00000000000E+00 -0.74505805969E-08  0.93827000000E+00  0.93827000000E+00 0.  1.
     999902    2    1    2    0    0  0.45555074036E-02  0.50976586678E-02 -0.23067168953E-01  0.10198710504E+01  0.10195872334E+01 0.  0.
     999903    2    3    3    0    0 -0.63596283855E-02  0.65221425334E-01  0.10813967058E+00  0.12804750159E+00  0.20191461426E-01 0.  0.
         14    1    1    2    0    0 -0.45555074036E-02 -0.50976586678E-02  0.23067168953E-01  0.24058949585E-01  0.00000000000E+00 0.  1.
     999901    1    3    3    0    0  0.10915135789E-01 -0.60123766666E-01 -0.13120683953E+00  0.89182354883E+00  0.88000000000E+00 0.  1.
        -11    1    4    4    0    0 -0.10519923662E-01  0.21091785113E-01  0.29371808792E-01  0.37662932252E-01  0.51100000000E-03 0.  1.
         11    1    4    4    0    0  0.41602952760E-02  0.44129640221E-01  0.78767861783E-01  0.90384569334E-01  0.51100000000E-03 0. -1.
</event>
<event>
 8    1  0.1071333E+005  0.1043930E+01  0.7957747E-01            NaN
         13   -1    0    0    0    0  0.00000000000E+00  0.00000000000E+00  0.74505805969E-08  0.10566000000E+00  0.10566000000E+00 0.  1.
     999900   -1    0    0    0    0 -0.00000000000E+00 -0.00000000000E+00 -0.74505805969E-08  0.93827000000E+00  0.93827000000E+00 0.  1.
     999902    2    1    2    0    0  0.78195634906E-02 -0.20899885843E-01  0.60804371682E-02  0.10208016080E+01  0.10205395633E+01 0.  0.
     999903    2    3    3    0    0  0.59184797598E-02  0.94753383412E-01  0.85939412180E-01  0.12964688028E+00  0.20236079890E-01 0.  0.
         14    1    1    2    0    0 -0.78195634906E-02  0.20899885843E-01 -0.60804371682E-02  0.23128392024E-01  0.00000000000E+00 0.  1.
     999901    1    3    3    0    0  0.19010837308E-02 -0.11565326926E+00 -0.79858975012E-01  0.89115472770E+00  0.88000000000E+00 0.  1.
        -11    1    4    4    0    0  0.81148660360E-02  0.87789722535E-01  0.71714117121E-01  0.11364885459E+00  0.51100000000E-03 0. -1.
         11    1    4    4    0    0 -0.21963862763E-02  0.69636608772E-02  0.14225295060E-01  0.15998025691E-01  0.51100000000E-03 0.  1.
</event>
<event>
 8    1  0.1071333E+005  0.1043930E+01  0.7957747E-01            NaN
         13   -1    0    0    0    0  0.00000000000E+00  0.00000000000E+00  0.74505805969E-08  0.10566000000E+00  0.10566000000E+00 0.  1.
     999900   -1    0    0    0    0 -0.00000000000E+00 -0.00000000000E+00 -0.74505805969E-08  0.93827000000E+00  0.93827000000E+00 0. -1.
     999902    2    1    2    0    0  0.23104655737E-01  0.88777382730E-02  0.71661949710E-02  0.10181619247E+01  0.10178357978E+01 0.  0.
     999903    2    3    3    0    0  0.10171012730E+00 -0.12184916487E-01 -0.77682098637E-01  0.13034342496E+00  0.21482034237E-01 0.  0.
         14    1    1    2    0    0 -0.23104655737E-01 -0.88777382730E-02 -0.71661949710E-02  0.25768075286E-01  0.00000000000E+00 0. -1.
     999901    1    3    3    0    0 -0.78605471564E-01  0.21062654760E-01  0.84848293608E-01  0.88781849976E+00  0.88000000000E+00 0.  1.
        -11    1    4    4    0    0  0.48382934319E-01  0.29054056294E-02 -0.44150540507E-01  0.65565852876E-01  0.51100000000E-03 0.  1.
         11    1    4    4    0    0  0.53327192982E-01 -0.15090322117E-01 -0.33531558130E-01  0.64777572080E-01  0.51100000000E-03 0. -1.
</event>
<event>
 8    1  0.1071333E+005  0.1043930E+01  0.7957747E-01            NaN
         13   -1    0    0    0    0  0.00000000000E+00  0.00000000000E+00  0.74505805969E-08  0.10566000000E+00  0.10566000000E+00 0.  1.
     999900   -1    0    0    0    0 -0.00000000000E+00 -0.00000000000E+00 -0.74505805969E-08  0.93827000000E+00  0.93827000000E+00 0.  1.
     999902    2    1    2    0    0 -0.18043390099E-01 -0.24809381646E-02 -0.13887547786E-01  0.10210262238E+01  0.10207693014E+01 0.  0.
     999903    2    3    3    0    0 -0.10323708122E+00 -0.33756972476E-01  0.72796226883E-01  0.13212227392E+00  0.18962502164E-01 0.  0.
         14    1    1    2    0    0  0.18043390099E-01  0.24809381646E-02  0.13887547786E-01  0.22903776194E-01  0.00000000000E+00 0. -1.
     999901    1    3    3    0    0  0.85193691122E-01  0.31276034311E-01 -0.86683774669E-01  0.88890394988E+00  0.88000000000E+00 0.  1.
        -11    1    4    4    0    0 -0.40979725073E-01 -0.83082962234E-02  0.18700446194E-01  0.45807569921E-01  0.51100000000E-03 0. -1.
         11    1    4    4    0    0 -0.62257356147E-01 -0.25448676252E-01  0.54095780689E-01  0.86314704001E-01  0.51100000000E-03 0.  1.
</event>
<event>
 8    1  0.1071333E+005  0.1043930E+01  0.7957747E-01            NaN
         13   -1    0    0    0    0  0.00000000000E+00  0.00000000000E+00  0.74505805969E-08  0.10566000000E+00  0.10566000000E+00 0.  1.
     999900   -1    0    0    0    0 -0.00000000000E+00 -0.00000000000E+00 -0.74505805969E-08  0.93827000000E+00  0.93827000000E+00 0. -1.
     999902    2    1    2    0    0  0.13570198837E-01 -0.19797469148E-01 -0.85242899955E-03  0.10199129911E+01  0.10196301745E+01 0.  0.
     999903    2    3    3    0    0 -0.80372704253E-01  0.49290930297E-01 -0.84615889722E-01  0.12827697045E+00  0.20143608300E-01 0.  0.
         14    1    1    2    0    0 -0.13570198837E-01  0.19797469148E-01  0.85242899955E-03  0.24017008896E-01  0.00000000000E+00 0. -1.
     999901    1    3    3    0    0  0.93942903089E-01 -0.69088399445E-01  0.83763460722E-01  0.89163602066E+00  0.88000000000E+00 0.  1.
        -11    1    4    4    0    0 -0.16666445761E-01  0.20195604075E-01 -0.19576080119E-01  0.32697352677E-01  0.51100000000E-03 0. -1.
         11    1    4    4    0    0 -0.63706258492E-01  0.29095326222E-01 -0.65039809602E-01  0.95579617770E-01  0.51100000000E-03 0.  1.
</event>
<event>
 8    1  0.1071333E+005  0.1043930E+01  0.7957747E-01            NaN
         13   -1    0    0    0    0  0.00000000000E+00  0.00000000000E+00  0.74505805969E-08  0.10566000000E+00  0.10566000000E+00 0.  1.
     999900   -1    0    0    0    0 -0.00000000000E+00 -0.00000000000E+00 -0.74505805969E-08  0.93827000000E+00  0.93827000000E+00 0.  1.
     999902    2    1    2    0    0 -0.10337704983E-01 -0.88811608730E-02 -0.19803747382E-01  0.10198897926E+01  0.10196064228E+01 0.  0.
     999903    2    3    3    0    0  0.92127471925E-02  0.73367514771E-01  0.10216365011E+00  0.12746438343E+00  0.18495694241E-01 0.  0.
         14    1    1    2    0    0  0.10337704983E-01  0.88811608730E-02  0.19803747382E-01  0.24040207427E-01  0.00000000000E+00 0.  1.
     999901    1    3    3    0    0 -0.19550452176E-01 -0.82248675644E-01 -0.12196739749E+00  0.89242540914E+00  0.88000000000E+00 0.  1.
        -11    1    4    4    0    0  0.98741976599E-02  0.34056222077E-01  0.60855509472E-01  0.70434226025E-01  0.51100000000E-03 0. -1.
         11    1    4    4    0    0 -0.66145046736E-03  0.39311292693E-01  0.41308140640E-01  0.57030157409E-01  0.51100000000E-03 0.  1.
</event>
<event>
 8    1  0.1071333E+005  0.1043930E+01  0.7957747E-01            NaN
         13   -1    0    0    0    0  0.00000000000E+00  0.00000000000E+00  0.74505805969E-08  0.10566000000E+00  0.10566000000E+00 0. -1.
     999900   -1    0    0    0    0 -0.00000000000E+00 -0.00000000000E+00 -0.74505805969E-08  0.93827000000E+00  0.93827000000E+00 0. -1.
     999902    2    1    2    0    0  0.11711277720E-01 -0.90644103370E-02 -0.20911099243E-01  0.10183059560E+01  0.10179835108E+01 0.  0.
     999903    2    3    3    0    0 -0.74337965053E-01  0.19060744741E-02 -0.10461274179E+00  0.13008819626E+00  0.21197803948E-01 0.  0.
         14    1    1    2    0    0 -0.11711277720E-01  0.90644103370E-02  0.20911099243E-01  0.25624044024E-01  0.00000000000E+00 0. -1.
     999901    1    3    3    0    0  0.86049242773E-01 -0.10970484811E-01  0.83701642547E-01  0.88821775972E+00  0.88000000000E+00 0. -1.
        -11    1    4    4    0    0 -0.30393207749E-01 -0.88972862115E-02 -0.36694824286E-01  0.48473498218E-01  0.51100000000E-03 0.  1.
         11    1    4    4    0    0 -0.43944757304E-01  0.10803360686E-01 -0.67917917504E-01  0.81614698037E-01  0.51100000000E-03 0. -1.
</event>
<event>
 8    1  0.1071333E+005  0.1043930E+01  0.7957747E-01            NaN
         13   -1    0    0    0    0  0.00000000000E+00  0.00000000000E+00  0.74505805969E-08  0.10566000000E+00  0.10566000000E+00 0.  1.
     999900   -1    0    0    0    0 -0.00000000000E+00 -0.00000000000E+00 -0.74505805969E-08  0.93827000000E+00  0.93827000000E+00 0. -1.
     999902    2    1    2    0    0 -0.93688079495E-02 -0.38569366281E-02  0.21464839479E-01  0.10201941651E+01  0.10199180088E+01 0.  0.
     999903    2    3    3    0    0  0.56001474417E-01 -0.11611452520E+00  0.39183840419E-02  0.13048470801E+00  0.19802959175E-01 0.  0.
         14    1    1    2    0    0  0.93688079495E-02  0.38569366281E-02 -0.21464839479E-01  0.23735834858E-01  0.00000000000E+00 0. -1.
     999901    1    3    3    0    0 -0.65370282367E-01  0.11225758857E+00  0.17546455437E-01  0.88970945713E+00  0.88000000000E+00 0.  1.
        -11    1    4    4    0    0  0.10840951155E-01 -0.40601582937E-01 -0.35694214193E-02  0.42178390785E-01  0.51100000000E-03 0. -1.
         11    1    4    4    0    0  0.45160523263E-01 -0.75512942263E-01  0.74878054612E-02  0.88306317227E-01  0.51100000000E-03 0.  1.
</event>
<event>
 8    1  0.1071333E+005  0.1043930E+01  0.7957747E-01            NaN
         13   -1    0    0    0    0  0.00000000000E+00  0.00000000000E+00  0.74505805969E-08  0.10566000000E+00  0.10566000000E+00 0. -1.
     999900   -1    0    0    0    0 -0.00000000000E+00 -0.00000000000E+00 -0.74505805969E-08  0.93827000000E+00  0.93827000000E+00 0. -1.
     999902    2    1    2    0    0 -0.10517466223E-01  0.17503532603E-01 -0.12261387197E-01  0.10201112602E+01  0.10198331485E+01 0.  0.
     999903    2    3    3    0    0 -0.98354988144E-01 -0.42981854892E-01 -0.73170153611E-01  0.13158225664E+00  0.20949351772E-01 0.  0.
         14    1    1    2    0    0  0.10517466223E-01 -0.17503532603E-01  0.12261387197E-01  0.23818739793E-01  0.00000000000E+00 0. -1.
     999901    1    3    3    0    0  0.87837521922E-01  0.60485387495E-01  0.60908766415E-01  0.88852900357E+00  0.88000000000E+00 0.  1.
        -11    1    4    4    0    0 -0.36819658037E-01 -0.12488712521E-01 -0.38220761811E-01  0.54522865963E-01  0.51100000000E-03 0. -1.
         11    1    4    4    0    0 -0.61535330107E-01 -0.30493142371E-01 -0.34949391801E-01  0.77059390675E-01  0.51100000000E-03 0.  1.
</event>
<event>
 8    1  0.1071333E+005  0.1043930E+01  0.7957747E-01            NaN
         13   -1    0    0    0    0  0.00000000000E+00  0.00000000000E+00  0.74505805969E-08  0.10566000000E+00  0.10566000000E+00 0. -1.
     999900   -1    0    0    0    0 -0.00000000000E+00 -0.00000000000E+00 -0.74505805969E-08  0.93827000000E+00  0.93827000000E+00 0. -1.
     999902    2    1    2    0    0 -0.50347083038E-02 -0.23512512431E-01 -0.38148350190E-02  0.10195837581E+01  0.10192930395E+01 0.  0.
     999903    2    3    3    0    0 -0.36015741087E-01  0.88933935254E-01  0.81858376731E-01  0.12776318915E+00  0.20402456094E-01 0.  0.
         14    1    1    2    0    0  0.50347083038E-02  0.23512512431E-01  0.38148350190E-02  0.24346241902E-01  0.00000000000E+00 0.  1.
     999901    1    3    3    0    0  0.30981032783E-01 -0.11244644769E+00 -0.85673211750E-01  0.89182056895E+00  0.88000000000E+00 0. -1.
        -11    1    4    4    0    0 -0.21639744924E-01  0.47232274881E-01  0.57008838875E-01  0.77132581843E-01  0.51100000000E-03 0.  1.
         11    1    4    4    0    0 -0.14375996163E-01  0.41701660373E-01  0.24849537855E-01  0.50630607306E-01  0.51100000000E-03 0. -1.
</event>
<event>
 8    1  0.1071333E+005  0.1043930E+01  0.7957747E-01            NaN
         13   -1    0    0    0    0  0.00000000000E+00  0.00000000000E+00  0.74505805969E-08  0.10566000000E+00  0.10566000000E+00 0.  1.
     999900   -1    0    0    0    0 -0.00000000000E+00 -0.00000000000E+00 -0.74505805969E-08  0.93827000000E+00  0.93827000000E+00 0. -1.
     999902    2    1    2    0    0 -0.38652557650E-02  0.11089738262E-01  0.21315883604E-01  0.10195930037E+01  0.10193025084E+01 0.  0.
     999903    2    3    3    0    0  0.12214314862E+00 -0.60371878274E-03 -0.35365814892E-01  0.12873517558E+00  0.20067170663E-01 0.  0.
         14    1    1    2    0    0  0.38652557650E-02 -0.11089738262E-01 -0.21315883604E-01  0.24336996336E-01  0.00000000000E+00 0. -1.
     999901    1    3    3    0    0 -0.12600840438E+00  0.11693457045E-01  0.56681698496E-01  0.89085782808E+00  0.88000000000E+00 0.  1.
        -11    1    4    4    0    0  0.50990708177E-01  0.27849753500E-02 -0.24620945405E-01  0.56694448420E-01  0.51100000000E-03 0. -1.
         11    1    4    4    0    0  0.71152440440E-01 -0.33886941327E-02 -0.10744869488E-01  0.72040727161E-01  0.51100000000E-03 0.  1.
</event>
<event>
 8    1  0.1071333E+005  0.1043930E+01  0.7957747E-01            NaN
         13   -1    0    0    0    0  0.00000000000E+00  0.00000000000E+00  0.74505805969E-08  0.10566000000E+00  0.10566000000E+00 0.  1.
     999900   -1    0    0    0    0 -0.00000000000E+00 -0.00000000000E+00 -0.74505805969E-08  0.93827000000E+00  0.93827000000E+00 0. -1.
     999902    2    1    2    0    0 -0.61390486843E-02  0.16109751494E-01 -0.87127898867E-02  0.10246135635E+01  0.10244314666E+01 0.  0.
     999903    2    3    3    0    0 -0.38099708999E-01 -0.60489633679E-01 -0.11211410351E+00  0.13468054282E+00  0.21417114625E-01 0.  0.
         14    1    1    2    0    0  0.61390486843E-02 -0.16109751494E-01  0.87127898867E-02  0.19316436513E-01  0.00000000000E+00 0.  1.
     999901    1    3    3    0    0  0.31960660314E-01  0.76599385173E-01  0.10340131363E+00  0.88993302067E+00  0.88000000000E+00 0.  1.
        -11    1    4    4    0    0 -0.29528720588E-01 -0.58734425351E-01 -0.10127540028E+00  0.12074206344E+00  0.51100000000E-03 0.  1.
         11    1    4    4    0    0 -0.85709884106E-02 -0.17552083278E-02 -0.10838703238E-01  0.13938479382E-01  0.51100000000E-03 0. -1.
</event>
<event>
 8    1  0.1071333E+005  0.1043930E+01  0.7957747E-01            NaN
         13   -1    0    0    0    0  0.00000000000E+00  0.00000000000E+00  0.74505805969E-08  0.10566000000E+00  0.10566000000E+00 0.  1.
     999900   -1    0    0    0    0 -0.00000000000E+00 -0.00000000000E+00 -0.74505805969E-08  0.93827000000E+00  0.93827000000E+00 0.  1.
     999902    2    1    2    0    0 -0.23786411816E-01 -0.53844098759E-02 -0.90343096711E-03  0.10195250529E+01  0.10192329135E+01 0.  0.
     999903    2    3    3    0    0  0.11322457411E-01  0.12851661116E-01 -0.12758208142E+00  0.12957411745E+00  0.14795309290E-01 0.  0.
         14    1    1    2    0    0  0.23786411816E-01  0.53844098759E-02  0.90343096711E-03  0.24404947128E-01  0.00000000000E+00 0. -1.
     999901    1    3    3    0    0 -0.35108869227E-01 -0.18236070991E-01  0.12667865045E+00  0.88995093543E+00  0.88000000000E+00 0. -1.
        -11    1    4    4    0    0  0.14952123105E-01  0.10243343184E-01 -0.10137625674E+00  0.10298494364E+00  0.51100000000E-03 0.  1.
         11    1    4    4    0    0 -0.36296656937E-02  0.26083179311E-02 -0.26205824679E-01  0.26589173805E-01  0.51100000000E-03 0. -1.
</event>
<event>
 8    1  0.1071333E+005  0.1043930E+01  0.7957747E-01            NaN
         13   -1    0    0    0    0  0.00000000000E+00  0.00000000000E+00  0.74505805969E-08  0.10566000000E+00  0.10566000000E+00 0.  1.
     999900   -1    0    0    0    0 -0.00000000000E+00 -0.00000000000E+00 -0.74505805969E-08  0.93827000000E+00  0.93827000000E+00 0.  1.
     999902    2    1    2    0    0  0.19256928329E-01  0.13232715435E-01 -0.51542636643E-02  0.10200030177E+01  0.10197223425E+01 0.  0.
     999903    2    3    3    0    0 -0.27185263953E-01 -0.12215042015E+00 -0.20095130626E-01  0.12831433881E+00  0.20024773416E-01 0.  0.
         14    1    1    2    0    0 -0.19256928329E-01 -0.13232715435E-01  0.51542636643E-02  0.23926982266E-01  0.00000000000E+00 0.  1.
     999901    1    3    3    0    0  0.46442192282E-01  0.13538313558E+00  0.14940866962E-01  0.89168867893E+00  0.88000000000E+00 0.  1.
        -11    1    4    4    0    0 -0.71485235763E-03 -0.22692030873E-01 -0.10273792380E-01  0.24924911432E-01  0.51100000000E-03 0.  1.
         11    1    4    4    0    0 -0.26470411595E-01 -0.99458389272E-01 -0.98213382461E-02  0.10338942737E+00  0.51100000000E-03 0. -1.
</event>
<event>
 8    1  0.1071333E+005  0.1043930E+01  0.7957747E-01            NaN
         13   -1    0    0    0    0  0.00000000000E+00  0.00000000000E+00  0.74505805969E-08  0.10566000000E+00  0.10566000000E+00 0. -1.
     999900   -1    0    0    0    0 -0.00000000000E+00 -0.00000000000E+00 -0.74505805969E-08  0.93827000000E+00  0.93827000000E+00 0.  1.
     999902    2    1    2    0    0  0.11324742913E-02  0.25189637596E-02 -0.23821638515E-01  0.10199487962E+01  0.10196668322E+01 0.  0.
     999903    2    3    3    0    0 -0.10193832866E+00  0.63856268898E-01 -0.49192211917E-01  0.13145033165E+00  0.19755253727E-01 0.  0.
         14    1    1    2    0    0 -0.11324742913E-02 -0.25189637596E-02  0.23821638515E-01  0.23981203848E-01  0.00000000000E+00 0. -1.
     999901    1    3    3    0    0  0.10307080296E+00 -0.61337305138E-01  0.25370573402E-01  0.88849846450E+00  0.88000000000E+00 0.  1.
        -11    1    4    4    0    0 -0.71186705087E-01  0.36543641676E-01 -0.25514838486E-01  0.83989599547E-01  0.51100000000E-03 0. -1.
         11    1    4    4    0    0 -0.30751623577E-01  0.27312627222E-01 -0.23677373431E-01  0.47460732106E-01  0.51100000000E-03 0.  1.
</event>
<event>
 8    1  0.1071333E+005  0.1043930E+01  0.7957747E-01            NaN
         13   -1    0    0    0    0  0.00000000000E+00  0.00000000000E+00  0.74505805969E-08  0.10566000000E+00  0.10566000000E+00 0. -1.
     999900   -1    0    0    0    0 -0.00000000000E+00 -0.00000000000E+00 -0.74505805969E-08  0.93827000000E+00  0.93827000000E+00 0. -1.
     999902    2    1    2    0    0  0.94563370253E-02  0.16951799779E-01  0.13795018933E-01  0.10201163826E+01  0.10198383920E+01 0.  0.
     999903    2    3    3    0    0  0.62238868817E-01 -0.31202264021E-01  0.11033623835E+00  0.13195816666E+00  0.19789244146E-01 0.  0.
         14    1    1    2    0    0 -0.94563370253E-02 -0.16951799779E-01 -0.13795018933E-01  0.23813617387E-01  0.00000000000E+00 0.  1.
     999901    1    3    3    0    0 -0.52782531792E-01  0.48154063801E-01 -0.96541219413E-01  0.88815821596E+00  0.88000000000E+00 0. -1.
        -11    1    4    4    0    0  0.24163472211E-01 -0.40417359692E-02  0.49370931853E-01  0.55117683659E-01  0.51100000000E-03 0. -1.
         11    1    4    4    0    0  0.38075396606E-01 -0.27160528052E-01  0.60965306493E-01  0.76840482999E-01  0.51100000000E-03 0.  1.
</event>
<event>
 8    1  0.1071333E+005  0.1043930E+01  0.7957747E-01            NaN
         13   -1    0    0    0    0  0.00000000000E+00  0.00000000000E+00  0.74505805969E-08  0.10566000000E+00  0.10566000000E+00 0.  1.
     999900   -1    0    0    0    0 -0.00000000000E+00 -0.00000000000E+00 -0.74505805969E-08  0.93827000000E+00  0.93827000000E+00 0. -1.
     999902    2    1    2    0    0  0.55734450789E-02 -0.19184573809E-01 -0.13968788629E-01  0.10195529982E+01  0.10192615356E+01 0.  0.
     999903    2    3    3    0    0  0.74643325678E-01 -0.10302055733E+00  0.28567901391E-01  0.13185457498E+00  0.19612308716E-01 0.  0.
         14    1    1    2    0    0 -0.55734450789E-02  0.19184573809E-01  0.13968788629E-01  0.24377001826E-01  0.00000000000E+00 0.  1.
     999901    1    3    3    0    0 -0.69069880600E-01  0.83835983521E-01 -0.42536690020E-01  0.88769842319E+00  0.88000000000E+00 0. -1.
        -11    1    4    4    0    0  0.67584729075E-02 -0.21961967445E-01  0.45667215483E-02  0.23433331747E-01  0.51100000000E-03 0. -1.
         11    1    4    4    0    0  0.67884852771E-01 -0.81058589884E-01  0.24001179843E-01  0.10842124324E+00  0.51100000000E-03 0.  1.
</event>
<event>
 8    1  0.1071333E+005  0.1043930E+01  0.7957747E-01            NaN
         13   -1    0    0    0    0  0.00000000000E+00  0.00000000000E+00  0.74505805969E-08  0.10566000000E+00  0.10566000000E+00 0.  1.
     999900   -1    0    0    0    0 -0.00000000000E+00 -0.00000000000E+00 -0.74505805969E-08  0.93827000000E+00  0.93827000000E+00 0.  1.
     999902    2    1    2    0    0  0.12952167048E-01 -0.12361288755E-01  0.17650064467E-01  0.10187887020E+01  0.10184784408E+01 0.  0.
     999903    2    3    3    0    0 -0.95104265079E-01 -0.64256930552E-01 -0.52697809381E-01  0.12788007954E+00  0.20061935851E-01 0.  0.
         14    1    1    2    0    0 -0.12952167048E-01  0.12361288755E-01 -0.17650064467E-01  0.25141298030E-01  0.00000000000E+00 0. -1.
     999901    1    3    3    0    0  0.10805643213E+00  0.51895641797E-01  0.70347873848E-01  0.89090862243E+00  0.88000000000E+00 0. -1.
        -11    1    4    4    0    0 -0.35991882348E-01 -0.26099146366E-01 -0.99817029617E-02  0.45568372266E-01  0.51100000000E-03 0.  1.
         11    1    4    4    0    0 -0.59112382731E-01 -0.38157784186E-01 -0.42716106419E-01  0.82311707276E-01  0.51100000000E-03 0. -1.
</event>
<event>
 8    1  0.1071333E+005  0.1043930E+01  0.7957747E-01            NaN
         13   -1    0    0    0    0  0.00000000000E+00  0.00000000000E+00  0.74505805969E-08  0.10566000000E+00  0.10566000000E+00 0. -1.
     999900   -1    0    0    0    0 -0.00000000000E+00 -0.00000000000E+00 -0.74505805969E-08  0.93827000000E+00  0.93827000000E+00 0.  1.
     999902    2    1    2    0    0  0.13596196500E-01 -0.19610820586E-01 -0.63992412652E-03  0.10200584616E+01  0.10197791009E+01 0.  0.
     999903    2    3    3    0    0 -0.11910651745E+00 -0.42784551305E-01  0.18825806600E-01  0.12959456745E+00  0.20578158083E-01 0.  0.
         14    1    1    2    0    0 -0.13596196500E-01  0.19610820586E-01  0.63992412652E-03  0.23871538413E-01  0.00000000000E+00 0. -1.
     999901    1    3    3    0    0  0.13270271395E+00  0.23173730719E-01 -0.19465730727E-01  0.89046389413E+00  0.88000000000E+00 0. -1.
        -11    1    4    4    0    0 -0.49571765344E-01 -0.24828434090E-01  0.37849842361E-03  0.55445607948E-01  0.51100000000E-03 0.  1.
         11    1    4    4    0    0 -0.69534752104E-01 -0.17956117215E-01  0.18447308177E-01  0.74148959504E-01  0.51100000000E-03 0. -1.
</event>
<event>
 8    1  0.1071333E+005  0.1043930E+01  0.7957747E-01            NaN
         13   -1    0    0    0    0  0.00000000000E+00  0.00000000000E+00  0.74505805969E-08  0.10566000000E+00  0.10566000000E+00 0.  1.
     999900   -1    0    0    0    0 -0.00000000000E+00 -0.00000000000E+00 -0.74505805969E-08  0.93827000000E+00  0.93827000000E+00 0.  1.
     999902    2    1    2    0    0  0.22013274894E-01  0.84037859748E-02 -0.16655673158E-02  0.10203083573E+01  0.10200348827E+01 0.  0.
     999903    2    3    3    0    0 -0.42193587210E-01 -0.39830268241E-01  0.11361840008E+00  0.12916334200E+00  0.20181154819E-01 0.  0.
         14    1    1    2    0    0 -0.22013274894E-01 -0.84037859748E-02  0.16655673158E-02  0.23621642719E-01  0.00000000000E+00 0.  1.
     999901    1    3    3    0    0  0.64206862104E-01  0.48234054216E-01 -0.11528396739E+00  0.89114501528E+00  0.88000000000E+00 0.  1.
        -11    1    4    4    0    0 -0.85314946058E-02 -0.18642874132E-02  0.30963492797E-01  0.32175471635E-01  0.51100000000E-03 0.  1.
         11    1    4    4    0    0 -0.33662092604E-01 -0.37965980828E-01  0.82654907281E-01  0.96987870361E-01  0.51100000000E-03 0. -1.
</event>
<event>
 8    1  0.1071333E+005  0.1043930E+01  0.7957747E-01            NaN
         13   -1    0    0    0    0  0.00000000000E+00  0.00000000000E+00  0.74505805969E-08  0.10566000000E+00  0.10566000000E+00 0.  1.
     999900   -1    0    0    0    0 -0.00000000000E+00 -0.00000000000E+00 -0.74505805969E-08  0.93827000000E+00  0.93827000000E+00 0.  1.
     999902    2    1    2    0    0 -0.15116455755E-01  0.14346234223E-01  0.10874350259E-01  0.10204231252E+01  0.10201523324E+01 0.  0.
     999903    2    3    3    0    0 -0.36083088623E-01  0.74918816784E-01 -0.99457919851E-01  0.13122019710E+00  0.20298864822E-01 0.  0.
         14    1    1    2    0    0  0.15116455755E-01 -0.14346234223E-01 -0.10874350259E-01  0.23506874835E-01  0.00000000000E+00 0. -1.
     999901    1    3    3    0    0  0.20966632869E-01 -0.60572582561E-01  0.11033227011E+00  0.88920292807E+00  0.88000000000E+00 0. -1.
        -11    1    4    4    0    0 -0.33196929177E-01  0.47323601498E-01 -0.69018279313E-01  0.90029680472E-01  0.51100000000E-03 0.  1.
         11    1    4    4    0    0 -0.28861594459E-02  0.27595215286E-01 -0.30439640538E-01  0.41190516628E-01  0.51100000000E-03 0. -1.
</event>
<event>
 8    1  0.1071333E+005  0.1043930E+01  0.7957747E-01            NaN
         13   -1    0    0    0    0  0.00000000000E+00  0.00000000000E+00  0.74505805969E-08  0.10566000000E+00  0.10566000000E+00 0. -1.
     999900   -1    0    0    0    0 -0.00000000000E+00 -0.00000000000E+00 -0.74505805969E-08  0.93827000000E+00  0.93827000000E+00 0. -1.
     999902    2    1    2    0    0 -0.16262635982E-01  0.87732514458E-02 -0.16353120850E-01  0.10192547527E+01  0.10189560260E+01 0.  0.
     999903    2    3    3    0    0  0.11088602643E+00 -0.26856876450E-01  0.52015652730E-01  0.12678033982E+00  0.18724950363E-01 0.  0.
         14    1    1    2    0    0  0.16262635982E-01 -0.87732514458E-02  0.16353120850E-01  0.24675247345E-01  0.00000000000E+00 0. -1.
     999901    1    3    3    0    0 -0.12714866241E+00  0.35630127896E-01 -0.68368773580E-01  0.89247441284E+00  0.88000000000E+00 0. -1.
        -11    1    4    4    0    0  0.78518249042E-01 -0.27111111965E-01  0.40545923489E-01  0.92435712023E-01  0.51100000000E-03 0.  1.
         11    1    4    4    0    0  0.32367777386E-01  0.25423551475E-03  0.11469729240E-01  0.34344627796E-01  0.51100000000E-03 0. -1.
</event>
<event>
 8    1  0.1071333E+005  0.1043930E+01  0.7957747E-01            NaN
         13   -1    0    0    0    0  0.00000000000E+00  0.00000000000E+00  0.74505805969E-08  0.10566000000E+00  0.10566000000E+00 0.  1.
     999900   -1    0    0    0    0 -0.00000000000E+00 -0.00000000000E+00 -0.74505805969E-08  0.93827000000E+00  0.93827000000E+00 0.  1.
     999902    2    1    2    0    0 -0.12200967581E-01  0.20063064170E-01  0.20609270977E-02  0.10203580341E+01  0.10200857220E+01 0.  0.
     999903    2    3    3    0    0  0.10418271068E+00  0.64491568457E-03 -0.74533888334E-01  0.12918521656E+00  0.16705285001E-01 0.  0.
         14    1    1    2    0    0  0.12200967581E-01 -0.20063064170E-01 -0.20609270977E-02  0.23571965856E-01  0.00000000000E+00 0. -1.
     999901    1    3    3    0    0 -0.11638367826E+00  0.19418148486E-01  0.76594815431E-01  0.89117281759E+00  0.88000000000E+00 0. -1.
        -11    1    4    4    0    0  0.55027260570E-01 -0.73106599625E-02 -0.35266252579E-01  0.65767886137E-01  0.51100000000E-03 0.  1.
         11    1    4    4    0    0  0.49155450105E-01  0.79555756471E-02 -0.39267635755E-01  0.63417330420E-01  0.51100000000E-03 0. -1.
</event>
<event>
 8    1  0.1071333E+005  0.1043930E+01  0.7957747E-01            NaN
         13   -1    0    0    0    0  0.00000000000E+00  0.00000000000E+00  0.74505805969E-08  0.10566000000E+00  0.10566000000E+00 0.  1.
     999900   -1    0    0    0    0 -0.00000000000E+00 -0.00000000000E+00 -0.74505805969E-08  0.93827000000E+00  0.93827000000E+00 0. -1.
     999902    2    1    2    0    0 -0.17506687008E-01  0.43868596853E-02  0.14622786809E-01  0.10207016871E+01  0.10204373471E+01 0.  0.
     999903    2    3    3    0    0 -0.22191803706E-01 -0.11483001005E+00 -0.53219395982E-01  0.13006305433E+00  0.20141664130E-01 0.  0.
         14    1    1    2    0    0  0.17506687008E-01 -0.43868596853E-02 -0.14622786809E-01  0.23228312938E-01  0.00000000000E+00 0. -1.
     999901    1    3    3    0    0  0.46851166981E-02  0.11921686973E+00  0.67842182791E-01  0.89063863273E+00  0.88000000000E+00 0.  1.
        -11    1    4    4    0    0 -0.14116389580E-01 -0.69560620523E-01 -0.42883624737E-01  0.82928998390E-01  0.51100000000E-03 0. -1.
         11    1    4    4    0    0 -0.80754141264E-02 -0.45269389524E-01 -0.10335771245E-01  0.47134055941E-01  0.51100000000E-03 0.  1.
</event>
<event>
 8    1  0.1071333E+005  0.1043930E+01  0.7957747E-01            NaN
         13   -1    0    0    0    0  0.00000000000E+00  0.00000000000E+00  0.74505805969E-08  0.10566000000E+00  0.10566000000E+00 0.  1.
     999900   -1    0    0    0    0 -0.00000000000E+00 -0.00000000000E+00 -0.74505805969E-08  0.93827000000E+00  0.93827000000E+00 0.  1.
     999902    2    1    2    0    0  0.64318282773E-02 -0.11025748660E-01  0.20825227597E-01  0.10195040783E+01  0.10192114304E+01 0.  0.
     999903    2    3    3    0    0  0.11063254032E+00  0.31629023610E-01  0.60330861816E-01  0.13145120082E+00  0.19991278039E-01 0.  0.
         14    1    1    2    0    0 -0.64318282773E-02  0.11025748660E-01 -0.20825227597E-01  0.24425921742E-01  0.00000000000E+00 0. -1.
     999901    1    3    3    0    0 -0.10420071204E+00 -0.42654772269E-01 -0.39505634219E-01  0.88805287744E+00  0.88000000000E+00 0.  1.
        -11    1    4    4    0    0  0.12467048025E-01  0.85501763853E-02  0.13460069556E-01  0.20247651620E-01  0.51100000000E-03 0. -1.
         11    1    4    4    0    0  0.98165492296E-01  0.23078847224E-01  0.46870792260E-01  0.11120354920E+00  0.51100000000E-03 0.  1.
</event>
<event>
 8    1  0.1071333E+005  0.1043930E+01  0.7957747E-01            NaN
         13   -1    0    0    0    0  0.00000000000E+00  0.00000000000E+00  0.74505805969E-08  0.10566000000E+00  0.10566000000E+00 0. -1.
     999900   -1    0    0    0    0 -0.00000000000E+00 -0.00000000000E+00 -0.74505805969E-08  0.93827000000E+00  0.93827000000E+00 0. -1.
     999902    2    1    2    0    0  0.15426201381E-01  0.42828961504E-03 -0.18489489889E-01  0.10198465543E+01  0.10195621521E+01 0.  0.
     999903    2    3    3    0    0  0.73131972673E-02  0.41830775859E-01  0.11917460918E+00  0.12814515198E+00  0.20378808606E-01 0.  0.
         14    1    1    2    0    0 -0.15426201381E-01 -0.42828961504E-03  0.18489489889E-01  0.24083445713E-01  0.00000000000E+00 0. -1.
     999901    1    3    3    0    0  0.81130041137E-02 -0.41402486244E-01 -0.13766409907E+00  0.89170140231E+00  0.88000000000E+00 0. -1.
        -11    1    4    4    0    0 -0.32398391542E-03  0.31003890798E-02  0.35327698068E-01  0.35468644601E-01  0.51100000000E-03 0.  1.
         11    1    4    4    0    0  0.76371811828E-02  0.38730386779E-01  0.83846911110E-01  0.92676507380E-01  0.51100000000E-03 0. -1.
</event>
<event>
 8    1  0.1071333E+005  0.1043930E+01  0.7957747E-01            NaN
         13   -1    0    0    0    0  0.00000000000E+00  0.00000000000E+00  0.74505805969E-08  0.10566000000E+00  0.10566000000E+00 0. -1.
     999900   -1    0    0    0    0 -0.00000000000E+00 -0.00000000000E+00 -0.74505805969E-08  0.93827000000E+00  0.93827000000E+00 0.  1.
     999902    2    1    2    0    0  0.24755421418E-01 -0.91897032266E-02 -0.12689871915E-01  0.10146329970E+01  0.10142099409E+01 0.  0.
     999903    2    3    3    0    0  0.90543323875E-01  0.83076264779E-01 -0.25833611587E-01  0.12726959070E+00  0.20746420456E-01 0.  0.
         14    1    1    2    0    0 -0.24755421418E-01  0.91897032266E-02  0.12689871915E-01  0.29297002990E-01  0.00000000000E+00 0. -1.
     999901    1    3    3    0    0 -0.65787902457E-01 -0.92265968006E-01  0.13143739673E-01  0.88736340631E+00  0.88000000000E+00 0.  1.
        -11    1    4    4    0    0  0.74917223473E-01  0.57051836530E-01 -0.17429392299E-01  0.95768195458E-01  0.51100000000E-03 0.  1.
         11    1    4    4    0    0  0.15626100402E-01  0.26024428249E-01 -0.84042192882E-02  0.31501395244E-01  0.51100000000E-03 0. -1.
</event>
<event>
 8    1  0.1071333E+005  0.1043930E+01  0.7957747E-01            NaN
         13   -1    0    0    0    0  0.00000000000E+00  0.00000000000E+00  0.74505805969E-08  0.10566000000E+00  0.10566000000E+00 0. -1.
     999900   -1    0    0    0    0 -0.00000000000E+00 -0.00000000000E+00 -0.74505805969E-08  0.93827000000E+00  0.93827000000E+00 0. -1.
     999902    2    1    2    0    0 -0.79993148180E-02  0.22405418612E-01 -0.60398923761E-02  0.10193846925E+01  0.10190891419E+01 0.  0.
     999903    2    3    3    0    0  0.17094882639E-01  0.92346152966E-01  0.87848064537E-01  0.13127638067E+00  0.26384819496E-01 0.  0.
         14    1    1    2    0    0  0.79993148180E-02 -0.22405418612E-01  0.60398923761E-02  0.24545307508E-01  0.00000000000E+00 0. -1.
     999901    1    3    3    0    0 -0.25094197457E-01 -0.69940734354E-01 -0.93887956913E-01  0.88810831182E+00  0.88000000000E+00 0. -1.
        -11    1    4    4    0    0 -0.63295796166E-02  0.14011628260E-01  0.97855025256E-02  0.18232018135E-01  0.51100000000E-03 0. -1.
         11    1    4    4    0    0  0.23424462255E-01  0.78334524706E-01  0.78062562011E-01  0.11304436254E+00  0.51100000000E-03 0.  1.
</event>
<event>
 8    1  0.1071333E+005  0.1043930E+01  0.7957747E-01            NaN
         13   -1    0    0    0    0  0.00000000000E+00  0.00000000000E+00  0.74505805969E-08  0.10566000000E+00  0.10566000000E+00 0.  1.
     999900   -1    0    0    0    0 -0.00000000000E+00 -0.00000000000E+00 -0.74505805969E-08  0.93827000000E+00  0.93827000000E+00 0.  1.
     999902    2    1    2    0    0  0.13691201834E-01 -0.12857290110E-01  0.18566927760E-01  0.10175199693E+01  0.10171771715E+01 0.  0.
     999903    2    3    3    0    0  0.10516562033E-01  0.56343615510E-01 -0.10984794078E+00  0.12550583141E+00  0.19998563453E-01 0.  0.
         14    1    1    2    0    0 -0.13691201834E-01  0.12857290110E-01 -0.18566927760E-01  0.26410030729E-01  0.00000000000E+00 0. -1.
     999901    1    3    3    0    0  0.31746398012E-02 -0.69200905620E-01  0.12841486854E+00  0.89201413786E+00  0.88000000000E+00 0.  1.
        -11    1    4    4    0    0 -0.15029024941E-02  0.35695780260E-01 -0.76985682499E-01  0.84873458013E-01  0.51100000000E-03 0. -1.
         11    1    4    4    0    0  0.12019464527E-01  0.20647835250E-01 -0.32862258278E-01  0.40632373400E-01  0.51100000000E-03 0.  1.
</event>
<event>
 8    1  0.1071333E+005  0.1043930E+01  0.7957747E-01            NaN
         13   -1    0    0    0    0  0.00000000000E+00  0.00000000000E+00  0.74505805969E-08  0.10566000000E+00  0.10566000000E+00 0.  1.
     999900   -1    0    0    0    0 -0.00000000000E+00 -0.00000000000E+00 -0.74505805969E-08  0.93827000000E+00  0.93827000000E+00 0. -1.
     999902    2    1    2    0    0 -0.56753884893E-02 -0.17770473282E-01  0.14322092461E-01  0.10204114523E+01  0.10201403873E+01 0.  0.
     999903    2    3    3    0    0 -0.64730484068E-01  0.15745782319E-01 -0.10882828704E+00  0.12924544098E+00  0.20562653644E-01 0.  0.
         14    1    1    2    0    0  0.56753884893E-02  0.17770473282E-01 -0.14322092461E-01  0.23518547736E-01  0.00000000000E+00 0. -1.
     999901    1    3    3    0    0  0.59055095578E-01 -0.33516255601E-01  0.12315037950E+00  0.89116601129E+00  0.88000000000E+00 0.  1.
        -11    1    4    4    0    0 -0.34173533841E-01  0.15814458219E-01 -0.46574438590E-01  0.59894632105E-01  0.51100000000E-03 0. -1.
         11    1    4    4    0    0 -0.30556950227E-01 -0.68675899344E-04 -0.62253848448E-01  0.69350808871E-01  0.51100000000E-03 0.  1.
</event>
<event>
 8    1  0.1071333E+005  0.1043930E+01  0.7957747E-01            NaN
         13   -1    0    0    0    0  0.00000000000E+00  0.00000000000E+00  0.74505805969E-08  0.10566000000E+00  0.10566000000E+00 0. -1.
     999900   -1    0    0    0    0 -0.00000000000E+00 -0.00000000000E+00 -0.74505805969E-08  0.93827000000E+00  0.93827000000E+00 0.  1.
     999902    2    1    2    0    0  0.66192475651E-02  0.22203288215E-01  0.40253477395E-02  0.10204139657E+01  0.10201429593E+01 0.  0.
     999903    2    3    3    0    0 -0.10258658479E+00 -0.72944719138E-01 -0.52167359076E-02  0.12852581505E+00  0.25430913692E-01 0.  0.
         14    1    1    2    0    0 -0.66192475651E-02 -0.22203288215E-01 -0.40253477395E-02  0.23516034323E-01  0.00000000000E+00 0. -1.
     999901    1    3    3    0    0  0.10920583235E+00  0.95148007352E-01  0.92420836471E-02  0.89188815063E+00  0.88000000000E+00 0. -1.
        -11    1    4    4    0    0 -0.56527529206E-01 -0.27450099951E-01 -0.98913665463E-02  0.63615798341E-01  0.51100000000E-03 0.  1.
         11    1    4    4    0    0 -0.46059055583E-01 -0.45494619187E-01  0.46746306387E-02  0.64910016706E-01  0.51100000000E-03 0. -1.
</event>
<event>
 8    1  0.1090869E+005  0.1043930E+01  0.7957747E-01            NaN
         13   -1    0    0    0    0  0.00000000000E+00  0.00000000000E+00  0.74505805969E-08  0.10566000000E+00  0.10566000000E+00 0. -1.
     999900   -1    0    0    0    0 -0.00000000000E+00 -0.00000000000E+00 -0.74505805969E-08  0.93827000000E+00  0.93827000000E+00 0.  1.
     999902    2    1    2    0    0 -0.16559021261E-01 -0.14396613041E-01 -0.60453763246E-02  0.10211701620E+01  0.10209164949E+01 0.  0.
     999903    2    3    3    0    0  0.93412316544E-02 -0.12051516062E+00 -0.52180013258E-01  0.13321724995E+00  0.20320417120E-01 0.  0.
         14    1    1    2    0    0  0.16559021261E-01  0.14396613041E-01  0.60453763246E-02  0.22759838029E-01  0.00000000000E+00 0. -1.
     999901    1    3    3    0    0 -0.25900252916E-01  0.10611854758E+00  0.46134636934E-01  0.88795291202E+00  0.88000000000E+00 0. -1.
        -11    1    4    4    0    0  0.14719165024E-01 -0.61787874585E-01 -0.24673321180E-01  0.68142711744E-01  0.51100000000E-03 0.  1.
         11    1    4    4    0    0 -0.53779333701E-02 -0.58727286038E-01 -0.27506692078E-01  0.65074538206E-01  0.51100000000E-03 0. -1.
</event>
<event>
 8    1  0.1071333E+005  0.1043930E+01  0.7957747E-01            NaN
         13   -1    0    0    0    0  0.00000000000E+00  0.00000000000E+00  0.74505805969E-08  0.10566000000E+00  0.10566000000E+00 0.  1.
     999900   -1    0    0    0    0 -0.00000000000E+00 -0.00000000000E+00 -0.74505805969E-08  0.93827000000E+00  0.93827000000E+00 0. -1.
     999902    2    1    2    0    0  0.12661568589E-01 -0.35207622124E-02  0.14480047116E-01  0.10243753880E+01  0.10241887290E+01 0.  0.
     999903    2    3    3    0    0 -0.66824331877E-01  0.87645844549E-01  0.73722663029E-01  0.13412876706E+00  0.20204200365E-01 0.  0.
         14    1    1    2    0    0 -0.12661568589E-01  0.35207622124E-02 -0.14480047116E-01  0.19554611993E-01  0.00000000000E+00 0. -1.
     999901    1    3    3    0    0  0.79485900466E-01 -0.91166606762E-01 -0.59242615913E-01  0.89024662094E+00  0.88000000000E+00 0.  1.
        -11    1    4    4    0    0 -0.59015747605E-01  0.79973276237E-01  0.58365391164E-01  0.11526215070E+00  0.51100000000E-03 0. -1.
         11    1    4    4    0    0 -0.78085842722E-02  0.76725683118E-02  0.15357271865E-01  0.18866616363E-01  0.51100000000E-03 0.  1.
</event>
<event>
 8    1  0.1071333E+005  0.1043930E+01  0.7957747E-01            NaN
         13   -1    0    0    0    0  0.00000000000E+00  0.00000000000E+00  0.74505805969E-08  0.10566000000E+00  0.10566000000E+00 0. -1.
     999900   -1    0    0    0    0 -0.00000000000E+00 -0.00000000000E+00 -0.74505805969E-08  0.93827000000E+00  0.93827000000E+00 0.  1.
     999902    2    1    2    0    0 -0.12608521086E-01  0.20043452857E-01 -0.18886964746E-02  0.10201753798E+01  0.10198987810E+01 0.  0.
     999903    2    3    3    0    0  0.61607259506E-01 -0.51611980043E-01  0.98292375628E-01  0.12850350609E+00  0.19811841510E-01 0.  0.
         14    1    1    2    0    0  0.12608521086E-01 -0.20043452857E-01  0.18886964746E-02  0.23754620199E-01  0.00000000000E+00 0.  1.
     999901    1    3    3    0    0 -0.74215780592E-01  0.71655432900E-01 -0.10018107210E+00  0.89167187371E+00  0.88000000000E+00 0.  1.
        -11    1    4    4    0    0  0.25501114865E-01 -0.24329673930E-01  0.58197070051E-01  0.68039694124E-01  0.51100000000E-03 0. -1.
         11    1    4    4    0    0  0.36106144641E-01 -0.27282306112E-01  0.40095305577E-01  0.60463811970E-01  0.51100000000E-03 0.  1.
</event>
<event>
 8    1  0.1071333E+005  0.1043930E+01  0.7957747E-01            NaN
         13   -1    0    0    0    0  0.00000000000E+00  0.00000000000E+00  0.74505805969E-08  0.10566000000E+00  0.10566000000E+00 0.  1.
     999900   -1    0    0    0    0 -0.00000000000E+00 -0.00000000000E+00 -0.74505805969E-08  0.93827000000E+00  0.93827000000E+00 0.  1.
     999902    2    1    2    0    0  0.22984397217E-01 -0.64241692870E-02  0.11222637851E-02  0.10200383290E+01  0.10197584914E+01 0.  0.
     999903    2    3    3    0    0  0.21562534552E-01 -0.34403336767E-01  0.12295464305E+00  0.13120314511E+00  0.21163377865E-01 0.  0.
         14    1    1    2    0    0 -0.22984397217E-01  0.64241692870E-02 -0.11222637851E-02  0.23891670985E-01  0.00000000000E+00 0.  1.
     999901    1    3    3    0    0  0.14218626647E-02  0.27979167480E-01 -0.12183237927E+00  0.88883518390E+00  0.88000000000E+00 0.  1.
        -11    1    4    4    0    0  0.12790462489E-01 -0.66954850174E-02  0.23475787319E-01  0.27564454675E-01  0.51100000000E-03 0.  1.
         11    1    4    4    0    0  0.87720720632E-02 -0.27707851750E-01  0.99478855731E-01  0.10363869044E+00  0.51100000000E-03 0. -1.
</event>
<event>
 8    1  0.1071333E+005  0.1043930E+01  0.7957747E-01            NaN
         13   -1    0    0    0    0  0.00000000000E+00  0.00000000000E+00  0.74505805969E-08  0.10566000000E+00  0.10566000000E+00 0.  1.
     999900   -1    0    0    0    0 -0.00000000000E+00 -0.00000000000E+00 -0.74505805969E-08  0.93827000000E+00  0.93827000000E+00 0.  1.
     999902    2    1    2    0    0  0.23715415614E-02  0.52687811942E-02  0.25334520408E-01  0.10179449622E+01  0.10176132487E+01 0.  0.
     999903    2    3    3    0    0 -0.76489199085E-01  0.94418788127E-01 -0.34539529913E-01  0.12791595029E+00  0.20099902605E-01 0.  0.
         14    1    1    2    0    0 -0.23715415614E-02 -0.52687811942E-02 -0.25334520408E-01  0.25985037790E-01  0.00000000000E+00 0. -1.
     999901    1    3    3    0    0  0.78860740646E-01 -0.89150006933E-01  0.59874050321E-01  0.89002901192E+00  0.88000000000E+00 0. -1.
        -11    1    4    4    0    0 -0.54237540182E-01  0.79266209545E-01 -0.23996875080E-01  0.98999767046E-01  0.51100000000E-03 0.  1.
         11    1    4    4    0    0 -0.22251658903E-01  0.15152578582E-01 -0.10542654834E-01  0.28916183247E-01  0.51100000000E-03 0. -1.
</event>
<event>
 8    1  0.1071333E+005  0.1043930E+01  0.7957747E-01            NaN
         13   -1    0    0    0    0  0.00000000000E+00  0.00000000000E+00  0.74505805969E-08  0.10566000000E+00  0.10566000000E+00 0. -1.
     999900   -1    0    0    0    0 -0.00000000000E+00 -0.00000000000E+00 -0.74505805969E-08  0.93827000000E+00  0.93827000000E+00 0.  1.
     999902    2    1    2    0    0 -0.12437241949E-01 -0.40012597093E-02 -0.19982286755E-01  0.10200556026E+01  0.10197761743E+01 0.  0.
     999903    2    3    3    0    0  0.69303001671E-01 -0.10245379043E+00 -0.37269608967E-01  0.13063263251E+00  0.19395249673E-01 0.  0.
         14    1    1    2    0    0  0.12437241949E-01  0.40012597093E-02  0.19982286755E-01  0.23874397386E-01  0.00000000000E+00 0. -1.
     999901    1    3    3    0    0 -0.81740243621E-01  0.98452530725E-01  0.17287322211E-01  0.88942297010E+00  0.88000000000E+00 0.  1.
        -11    1    4    4    0    0  0.22967765883E-01 -0.19302646966E-01 -0.94829253931E-02  0.31468991794E-01  0.51100000000E-03 0.  1.
         11    1    4    4    0    0  0.46335235789E-01 -0.83151143468E-01 -0.27786683574E-01  0.99163640719E-01  0.51100000000E-03 0. -1.
</event>
<event>
 8    1  0.1071333E+005  0.1043930E+01  0.7957747E-01            NaN
         13   -1    0    0    0    0  0.00000000000E+00  0.00000000000E+00  0.74505805969E-08  0.10566000000E+00  0.10566000000E+00 0.  1.
     999900   -1    0    0    0    0 -0.00000000000E+00 -0.00000000000E+00 -0.74505805969E-08  0.93827000000E+00  0.93827000000E+00 0. -1.
     999902    2    1    2    0    0 -0.21045862139E-01 -0.23397317993E-02  0.10733477988E-01  0.10201895239E+01  0.10199132583E+01 0.  0.
     999903    2    3    3    0    0 -0.36769002185E-01  0.43602229836E-01 -0.11523874519E+00  0.12989357194E+00  0.18418948658E-01 0.  0.
         14    1    1    2    0    0  0.21045862139E-01  0.23397317993E-02 -0.10733477988E-01  0.23740476149E-01  0.00000000000E+00 0. -1.
     999901    1    3    3    0    0  0.15723140047E-01 -0.45941961635E-01  0.12597222318E+00  0.89029595191E+00  0.88000000000E+00 0. -1.
        -11    1    4    4    0    0 -0.21317296323E-01  0.12115759527E-01 -0.54272133607E-01  0.59556228547E-01  0.51100000000E-03 0. -1.
         11    1    4    4    0    0 -0.15451705862E-01  0.31486470308E-01 -0.60966611587E-01  0.70337343396E-01  0.51100000000E-03 0.  1.
</event>
<event>
 8    1  0.1071333E+005  0.1043930E+01  0.7957747E-01            NaN
         13   -1    0    0    0    0  0.00000000000E+00  0.00000000000E+00  0.74505805969E-08  0.10566000000E+00  0.10566000000E+00 0.  1.
     999900   -1    0    0    0    0 -0.00000000000E+00 -0.00000000000E+00 -0.74505805969E-08  0.93827000000E+00  0.93827000000E+00 0. -1.
     999902    2    1    2    0    0  0.12852966619E-01 -0.88470993449E-02  0.17066335853E-01  0.10208057760E+01  0.10205438268E+01 0.  0.
     999903    2    3    3    0    0 -0.86975518445E-01  0.53988417233E-01 -0.74285266646E-01  0.12824813421E+00  0.21208325821E-01 0.  0.
         14    1    1    2    0    0 -0.12852966619E-01  0.88470993449E-02 -0.17066335853E-01  0.23124224034E-01  0.00000000000E+00 0. -1.
     999901    1    3    3    0    0  0.99828485064E-01 -0.62835516577E-01  0.91351602499E-01  0.89255764175E+00  0.88000000000E+00 0.  1.
        -11    1    4    4    0    0 -0.21026950769E-01  0.13402705187E-01 -0.76514119496E-02  0.26087744072E-01  0.51100000000E-03 0.  1.
         11    1    4    4    0    0 -0.65948567676E-01  0.40585712046E-01 -0.66633854696E-01  0.10216039014E+00  0.51100000000E-03 0. -1.
</event>
<event>
 8    1  0.1071333E+005  0.1043930E+01  0.7957747E-01            NaN
         13   -1    0    0    0    0  0.00000000000E+00  0.00000000000E+00  0.74505805969E-08  0.10566000000E+00  0.10566000000E+00 0. -1.
     999900   -1    0    0    0    0 -0.00000000000E+00 -0.00000000000E+00 -0.74505805969E-08  0.93827000000E+00  0.93827000000E+00 0.  1.
     999902    2    1    2    0    0  0.75970140591E-02  0.13205073610E-01  0.15716471056E-01  0.10220417371E+01  0.10218073283E+01 0.  0.
     999903    2    3    3    0    0  0.31093123362E-01 -0.92098858437E-01  0.87953324516E-01  0.13251425112E+00  0.19371561923E-01 0.  0.
         14    1    1    2    0    0 -0.75970140591E-02 -0.13205073610E-01 -0.15716471056E-01  0.21888262931E-01  0.00000000000E+00 0.  1.
     999901    1    3    3    0    0 -0.23496109303E-01  0.10530393205E+00 -0.72236853460E-01  0.88952748595E+00  0.88000000000E+00 0. -1.
        -11    1    4    4    0    0  0.18736741697E-01 -0.64919316740E-01  0.71675349525E-01  0.98504822349E-01  0.51100000000E-03 0. -1.
         11    1    4    4    0    0  0.12356381665E-01 -0.27179541697E-01  0.16277974991E-01  0.34009428774E-01  0.51100000000E-03 0.  1.
</event>
<event>
 8    1  0.1071333E+005  0.1043930E+01  0.7957747E-01            NaN
         13   -1    0    0    0    0  0.00000000000E+00  0.00000000000E+00  0.74505805969E-08  0.10566000000E+00  0.10566000000E+00 0.  1.
     999900   -1    0    0    0    0 -0.00000000000E+00 -0.00000000000E+00 -0.74505805969E-08  0.93827000000E+00  0.93827000000E+00 0.  1.
     999902    2    1    2    0    0  0.21763490069E-01  0.48805852966E-02 -0.90717842621E-02  0.10198516512E+01  0.10195673708E+01 0.  0.
     999903    2    3    3    0    0 -0.77320910049E-02 -0.13753712529E-01 -0.12866620941E+00  0.13107718434E+00  0.19423824845E-01 0.  0.
         14    1    1    2    0    0 -0.21763490069E-01 -0.48805852966E-02  0.90717842621E-02  0.24078348832E-01  0.00000000000E+00 0.  1.
     999901    1    3    3    0    0  0.29495581073E-01  0.18634297825E-01  0.11959442515E+00  0.88877446683E+00  0.88000000000E+00 0. -1.
        -11    1    4    4    0    0 -0.52425485626E-02  0.33140525592E-02 -0.17369266362E-01  0.18450468687E-01  0.51100000000E-03 0.  1.
         11    1    4    4    0    0 -0.24895424423E-02 -0.17067765088E-01 -0.11129694305E+00  0.11262671565E+00  0.51100000000E-03 0. -1.
</event>
<event>
 8    1  0.1071333E+005  0.1043930E+01  0.7957747E-01            NaN
         13   -1    0    0    0    0  0.00000000000E+00  0.00000000000E+00  0.74505805969E-08  0.10566000000E+00  0.10566000000E+00 0. -1.
     999900   -1    0    0    0    0 -0.00000000000E+00 -0.00000000000E+00 -0.74505805969E-08  0.93827000000E+00  0.93827000000E+00 0.  1.
     999902    2    1    2    0    0 -0.17246761726E-04  0.22679595493E-01  0.84354665603E-02  0.10197324496E+01  0.10194453136E+01 0.  0.
     999903    2    3    3    0    0  0.11047752652E+00  0.66185262068E-01 -0.17685679407E-01  0.13137207666E+00  0.18975418008E-01 0.  0.
         14    1    1    2    0    0  0.17246761726E-04 -0.22679595493E-01 -0.84354665603E-02  0.24197550398E-01  0.00000000000E+00 0.  1.
     999901    1    3    3    0    0 -0.11049477328E+00 -0.43505666575E-01  0.26121145968E-01  0.88836037294E+00  0.88000000000E+00 0. -1.
        -11    1    4    4    0    0  0.76842085438E-01  0.50123112738E-01 -0.20433201434E-01  0.93993666631E-01  0.51100000000E-03 0. -1.
         11    1    4    4    0    0  0.33635441083E-01  0.16062149330E-01  0.27475220267E-02  0.37378410028E-01  0.51100000000E-03 0.  1.
</event>
<event>
 8    1  0.1071333E+005  0.1043930E+01  0.7957747E-01            NaN
         13   -1    0    0    0    0  0.00000000000E+00  0.00000000000E+00  0.74505805969E-08  0.10566000000E+00  0.10566000000E+00 0.  1.
     999900   -1    0    0    0    0 -0.00000000000E+00 -0.00000000000E+00 -0.74505805969E-08  0.93827000000E+00  0.93827000000E+00 0.  1.
     999902    2    1    2    0    0 -0.45432143872E-02 -0.14772042269E-01  0.16711044614E-01  0.10211679034E+01  0.10209141854E+01 0.  0.
     999903    2    3    3    0    0  0.81584371716E-01 -0.64816180151E-02 -0.97548758443E-01  0.12957270667E+00  0.23985515641E-01 0.  0.
         14    1    1    2    0    0  0.45432143872E-02  0.14772042269E-01 -0.16711044614E-01  0.22762096605E-01  0.00000000000E+00 0. -1.
     999901    1    3    3    0    0 -0.86127586103E-01 -0.82904242535E-02  0.11425980306E+00  0.89159519672E+00  0.88000000000E+00 0. -1.
        -11    1    4    4    0    0  0.77039642976E-01 -0.92006318889E-02 -0.97015130926E-01  0.12422541997E+00  0.51100000000E-03 0. -1.
         11    1    4    4    0    0  0.45447287398E-02  0.27190138738E-02 -0.53362751654E-03  0.53472867036E-02  0.51100000000E-03 0.  1.
</event>
<event>
 8    1  0.1071333E+005  0.1043930E+01  0.7957747E-01            NaN
         13   -1    0    0    0    0  0.00000000000E+00  0.00000000000E+00  0.74505805969E-08  0.10566000000E+00  0.10566000000E+00 0.  1.
     999900   -1    0    0    0    0 -0.00000000000E+00 -0.00000000000E+00 -0.74505805969E-08  0.93827000000E+00  0.93827000000E+00 0. -1.
     999902    2    1    2    0    0 -0.12107993642E-01  0.20478050662E-01 -0.36904351509E-03  0.10201373486E+01  0.10198598530E+01 0.  0.
     999903    2    3    3    0    0 -0.31968240974E-01 -0.10721768491E+00  0.60102202121E-01  0.12864567623E+00  0.20489873664E-01 0.  0.
         14    1    1    2    0    0  0.12107993642E-01 -0.20478050662E-01  0.36904351509E-03  0.23792651430E-01  0.00000000000E+00 0. -1.
     999901    1    3    3    0    0  0.19860247332E-01  0.12769573558E+00 -0.60471245636E-01  0.89149167234E+00  0.88000000000E+00 0. -1.
        -11    1    4    4    0    0 -0.15766126970E-01 -0.23564614358E-01  0.18157251263E-01  0.33672076026E-01  0.51100000000E-03 0. -1.
         11    1    4    4    0    0 -0.16202114004E-01 -0.83653070555E-01  0.41944950858E-01  0.94973600200E-01  0.51100000000E-03 0.  1.
</event>
<event>
 8    1  0.1071333E+005  0.1043930E+01  0.7957747E-01            NaN
         13   -1    0    0    0    0  0.00000000000E+00  0.00000000000E+00  0.74505805969E-08  0.10566000000E+00  0.10566000000E+00 0.  1.
     999900   -1    0    0    0    0 -0.00000000000E+00 -0.00000000000E+00 -0.74505805969E-08  0.93827000000E+00  0.93827000000E+00 0. -1.
     999902    2    1    2    0    0 -0.22448991256E-01  0.48560560918E-02 -0.57436584343E-02  0.10202545253E+01  0.10199797882E+01 0.  0.
     999903    2    3    3    0    0 -0.32984489092E-01 -0.12111825370E+00  0.29920031917E-01  0.13050600902E+00  0.19467978344E-01 0.  0.
         14    1    1    2    0    0  0.22448991256E-01 -0.48560560918E-02  0.57436584343E-02  0.23675474681E-01  0.00000000000E+00 0. -1.
     999901    1    3    3    0    0  0.10535497836E-01  0.12597430979E+00 -0.35663690351E-01  0.88974851630E+00  0.88000000000E+00 0.  1.
        -11    1    4    4    0    0 -0.19147241852E-01 -0.47432261608E-01  0.19793139240E-01  0.54849483076E-01  0.51100000000E-03 0.  1.
         11    1    4    4    0    0 -0.13837247240E-01 -0.73685992093E-01  0.10126892677E-01  0.75656525946E-01  0.51100000000E-03 0. -1.
</event>
<event>
 8    1  0.1071333E+005  0.1043930E+01  0.7957747E-01            NaN
         13   -1    0    0    0    0  0.00000000000E+00  0.00000000000E+00  0.74505805969E-08  0.10566000000E+00  0.10566000000E+00 0.  1.
     999900   -1    0    0    0    0 -0.00000000000E+00 -0.00000000000E+00 -0.74505805969E-08  0.93827000000E+00  0.93827000000E+00 0. -1.
     999902    2    1    2    0    0 -0.21687985011E-01 -0.12152455011E-02  0.90405452126E-02  0.10204017835E+01  0.10201304930E+01 0.  0.
     999903    2    3    3    0    0 -0.25127906702E-01  0.12342860943E+00  0.24130404496E-01  0.13148354905E+00  0.28976092361E-01 0.  0.
         14    1    1    2    0    0  0.21687985011E-01  0.12152455011E-02 -0.90405452126E-02  0.23528216532E-01  0.00000000000E+00 0.  1.
     999901    1    3    3    0    0  0.34399216913E-02 -0.12464385493E+00 -0.15089859284E-01  0.88891823442E+00  0.88000000000E+00 0. -1.
        -11    1    4    4    0    0 -0.25777292953E-01  0.57443196441E-01  0.16227715091E-01  0.65021454209E-01  0.51100000000E-03 0.  1.
         11    1    4    4    0    0  0.64938625092E-03  0.65985412986E-01  0.79026894052E-02  0.66462094838E-01  0.51100000000E-03 0. -1.
</event>
<event>
 8    1  0.1071333E+005  0.1043930E+01  0.7957747E-01            NaN
         13   -1    0    0    0    0  0.00000000000E+00  0.00000000000E+00  0.74505805969E-08  0.10566000000E+00  0.10566000000E+00 0.  1.
     999900   -1    0    0    0    0 -0.00000000000E+00 -0.00000000000E+00 -0.74505805969E-08  0.93827000000E+00  0.93827000000E+00 0.  1.
     999902    2    1    2    0    0 -0.59451526400E-02 -0.14962158416E-01  0.11669019813E-01  0.10240459097E+01  0.10238528449E+01 0.  0.
     999903    2    3    3    0    0  0.92218056022E-01  0.37386142764E-01 -0.84047984204E-01  0.13189227660E+00  0.20727166944E-01 0.  0.
         14    1    1    2    0    0  0.59451526400E-02  0.14962158416E-01 -0.11669019813E-01  0.19884090318E-01  0.00000000000E+00 0. -1.
     999901    1    3    3    0    0 -0.98163208662E-01 -0.52348301180E-01  0.95717004017E-01  0.89215363309E+00  0.88000000000E+00 0. -1.
        -11    1    4    4    0    0  0.35801056182E-01  0.13362400330E-01 -0.19664513830E-01  0.42979339123E-01  0.51100000000E-03 0.  1.
         11    1    4    4    0    0  0.56416999840E-01  0.24023742434E-01 -0.64383470374E-01  0.88912937472E-01  0.51100000000E-03 0. -1.
</event>
<event>
 8    1  0.1071333E+005  0.1043930E+01  0.7957747E-01            NaN
         13   -1    0    0    0    0  0.00000000000E+00  0.00000000000E+00  0.74505805969E-08  0.10566000000E+00  0.10566000000E+00 0.  1.
     999900   -1    0    0    0    0 -0.00000000000E+00 -0.00000000000E+00 -0.74505805969E-08  0.93827000000E+00  0.93827000000E+00 0. -1.
     999902    2    1    2    0    0 -0.27445542052E-02  0.18961981055E-01 -0.13039666848E-01  0.10207541027E+01  0.10204909681E+01 0.  0.
     999903    2    3    3    0    0  0.85288739079E-01 -0.25086274897E-01  0.91446277975E-01  0.12912221553E+00  0.20165182542E-01 0.  0.
         14    1    1    2    0    0  0.27445542052E-02 -0.18961981055E-01  0.13039666848E-01  0.23175897281E-01  0.00000000000E+00 0.  1.
     999901    1    3    3    0    0 -0.88033293284E-01  0.44048255952E-01 -0.10448594482E+00  0.89163188718E+00  0.88000000000E+00 0. -1.
        -11    1    4    4    0    0  0.63402721018E-01 -0.11381143969E-01  0.73145288134E-01  0.97467583163E-01  0.51100000000E-03 0. -1.
         11    1    4    4    0    0  0.21886018061E-01 -0.13705130929E-01  0.18300989841E-01  0.31654632370E-01  0.51100000000E-03 0.  1.
</event>
<event>
 8    1  0.1071333E+005  0.1043930E+01  0.7957747E-01            NaN
         13   -1    0    0    0    0  0.00000000000E+00  0.00000000000E+00  0.74505805969E-08  0.10566000000E+00  0.10566000000E+00 0. -1.
     999900   -1    0    0    0    0 -0.00000000000E+00 -0.00000000000E+00 -0.74505805969E-08  0.93827000000E+00  0.93827000000E+00 0.  1.
     999902    2    1    2    0    0 -0.14250958372E-01  0.18464627282E-01 -0.39867640526E-02  0.10202672326E+01  0.10199927937E+01 0.  0.
     999903    2    3    3    0    0 -0.57465692896E-01  0.91371067090E-01  0.74597821589E-01  0.13270968550E+00  0.19900951704E-01 0.  0.
         14    1    1    2    0    0  0.14250958372E-01 -0.18464627282E-01  0.39867640526E-02  0.23662767438E-01  0.00000000000E+00 0. -1.
     999901    1    3    3    0    0  0.43214734523E-01 -0.72906439808E-01 -0.78584585641E-01  0.88755754706E+00  0.88000000000E+00 0.  1.
        -11    1    4    4    0    0 -0.15108864129E-01  0.15849438032E-01  0.74528462414E-02  0.23136302628E-01  0.51100000000E-03 0.  1.
         11    1    4    4    0    0 -0.42356828767E-01  0.75521629059E-01  0.67144975347E-01  0.10957338287E+00  0.51100000000E-03 0. -1.
</event>
<event>
 8    1  0.1071333E+005  0.1043930E+01  0.7957747E-01            NaN
         13   -1    0    0    0    0  0.00000000000E+00  0.00000000000E+00  0.74505805969E-08  0.10566000000E+00  0.10566000000E+00 0. -1.
     999900   -1    0    0    0    0 -0.00000000000E+00 -0.00000000000E+00 -0.74505805969E-08  0.93827000000E+00  0.93827000000E+00 0.  1.
     999902    2    1    2    0    0 -0.19855379423E-01 -0.64359915777E-02 -0.38323999662E-02  0.10227086577E+01  0.10224884611E+01 0.  0.
     999903    2    3    3    0    0  0.26038561938E-01  0.90929714455E-01 -0.89900143936E-01  0.13198199305E+00  0.19773490601E-01 0.  0.
         14    1    1    2    0    0  0.19855379423E-01  0.64359915777E-02  0.38323999662E-02  0.21221342303E-01  0.00000000000E+00 0.  1.
     999901    1    3    3    0    0 -0.45893941361E-01 -0.97365706033E-01  0.86067743970E-01  0.89072666465E+00  0.88000000000E+00 0.  1.
        -11    1    4    4    0    0  0.23584762275E-01  0.76226346089E-01 -0.84232062169E-01  0.11602585172E+00  0.51100000000E-03 0.  1.
         11    1    4    4    0    0  0.24537996623E-02  0.14703368366E-01 -0.56680817673E-02  0.15956141326E-01  0.51100000000E-03 0. -1.
</event>
<event>
 8    1  0.1071333E+005  0.1043930E+01  0.7957747E-01            NaN
         13   -1    0    0    0    0  0.00000000000E+00  0.00000000000E+00  0.74505805969E-08  0.10566000000E+00  0.10566000000E+00 0. -1.
     999900   -1    0    0    0    0 -0.00000000000E+00 -0.00000000000E+00 -0.74505805969E-08  0.93827000000E+00  0.93827000000E+00 0. -1.
     999902    2    1    2    0    0 -0.16997228479E-01  0.51465844282E-02  0.14252241439E-01  0.10211589769E+01  0.10209050576E+01 0.  0.
     999903    2    3    3    0    0 -0.13711182133E-01  0.12222448798E+00 -0.41764977193E-01  0.13163328172E+00  0.21358500834E-01 0.  0.
         14    1    1    2    0    0  0.16997228479E-01 -0.51465844282E-02 -0.14252241439E-01  0.22771023106E-01  0.00000000000E+00 0.  1.
     999901    1    3    3    0    0 -0.32860463455E-02 -0.11707790355E+00  0.56017218632E-01  0.88952569518E+00  0.88000000000E+00 0.  1.
        -11    1    4    4    0    0 -0.34040724171E-02  0.60568240662E-01 -0.99064191490E-02  0.61469486311E-01  0.51100000000E-03 0. -1.
         11    1    4    4    0    0 -0.10307109716E-01  0.61656247317E-01 -0.31858558044E-01  0.70163795405E-01  0.51100000000E-03 0.  1.
</event>
<event>
 8    1  0.1071333E+005  0.1043930E+01  0.7957747E-01            NaN
         13   -1    0    0    0    0  0.00000000000E+00  0.00000000000E+00  0.74505805969E-08  0.10566000000E+00  0.10566000000E+00 0. -1.
     999900   -1    0    0    0    0 -0.00000000000E+00 -0.00000000000E+00 -0.74505805969E-08  0.93827000000E+00  0.93827000000E+00 0.  1.
     999902    2    1    2    0    0  0.17566857096E-01 -0.90411606432E-02  0.12184539217E-01  0.10207179331E+01  0.10204539671E+01 0.  0.
     999903    2    3    3    0    0  0.28407888519E-02  0.17759282702E-01 -0.12650584457E+00  0.12933129229E+00  0.19984800531E-01 0.  0.
         14    1    1    2    0    0 -0.17566857096E-01  0.90411606432E-02 -0.12184539217E-01  0.23212066904E-01  0.00000000000E+00 0.  1.
     999901    1    3    3    0    0  0.14726068244E-01 -0.26800443346E-01  0.13869038379E+00  0.89138664080E+00  0.88000000000E+00 0. -1.
        -11    1    4    4    0    0 -0.30838611386E-02  0.31730840265E-02 -0.81987201035E-01  0.82108105058E-01  0.51100000000E-03 0.  1.
         11    1    4    4    0    0  0.59246499905E-02  0.14586198676E-01 -0.44518643535E-01  0.47223187234E-01  0.51100000000E-03 0. -1.
</event>
<event>
 8    1  0.1071333E+005  0.1043930E+01  0.7957747E-01            NaN
         13   -1    0    0    0    0  0.00000000000E+00  0.00000000000E+00  0.74505805969E-08  0.10566000000E+00  0.10566000000E+00 0. -1.
     999900   -1    0    0    0    0 -0.00000000000E+00 -0.00000000000E+00 -0.74505805969E-08  0.93827000000E+00  0.93827000000E+00 0.  1.
     999902    2    1    2    0    0  0.30347573644E-02 -0.15045970194E-01 -0.18871298848E-01  0.10196047684E+01  0.10193145574E+01 0.  0.
     999903    2    3    3    0    0  0.40319947299E-01 -0.85892956989E-01 -0.90946348238E-01  0.13303593653E+00  0.20591841603E-01 0.  0.
         14    1    1    2    0    0 -0.30347573644E-02  0.15045970194E-01  0.18871298848E-01  0.24325231583E-01  0.00000000000E+00 0. -1.
     999901    1    3    3    0    0 -0.37285189934E-01  0.70846986795E-01  0.72075049389E-01  0.88656883189E+00  0.88000000000E+00 0. -1.
        -11    1    4    4    0    0  0.12310542682E-01 -0.41130530707E-01 -0.29910118739E-01  0.52327300153E-01  0.51100000000E-03 0. -1.
         11    1    4    4    0    0  0.28009404617E-01 -0.44762426282E-01 -0.61036229498E-01  0.80708636378E-01  0.51100000000E-03 0.  1.
</event>
<event>
 8    1  0.1071333E+005  0.1043930E+01  0.7957747E-01            NaN
         13   -1    0    0    0    0  0.00000000000E+00  0.00000000000E+00  0.74505805969E-08  0.10566000000E+00  0.10566000000E+00 0. -1.
     999900   -1    0    0    0    0 -0.00000000000E+00 -0.00000000000E+00 -0.74505805969E-08  0.93827000000E+00  0.93827000000E+00 0. -1.
     999902    2    1    2    0    0 -0.21819386195E-01 -0.22537493181E-02  0.81591288676E-02  0.10205262314E+01  0.10202578363E+01 0.  0.
     999903    2    3    3    0    0 -0.65023482163E-01 -0.38009884811E-01 -0.10573158982E+00  0.13141645702E+00  0.20452665190E-01 0.  0.
         14    1    1    2    0    0  0.21819386195E-01  0.22537493181E-02 -0.81591288676E-02  0.23403768581E-01  0.00000000000E+00 0.  1.
     999901    1    3    3    0    0  0.43204095968E-01  0.35756135493E-01  0.11389071869E+00  0.88910977440E+00  0.88000000000E+00 0.  1.
        -11    1    4    4    0    0 -0.45402461780E-01 -0.22345805160E-01 -0.54566031558E-01  0.74420638703E-01  0.51100000000E-03 0.  1.
         11    1    4    4    0    0 -0.19621020383E-01 -0.15664079651E-01 -0.51165558261E-01  0.56995818314E-01  0.51100000000E-03 0. -1.
</event>
<event>
 8    1  0.1071333E+005  0.1043930E+01  0.7957747E-01            NaN
         13   -1    0    0    0    0  0.00000000000E+00  0.00000000000E+00  0.74505805969E-08  0.10566000000E+00  0.10566000000E+00 0.  1.
     999900   -1    0    0    0    0 -0.00000000000E+00 -0.00000000000E+00 -0.74505805969E-08  0.93827000000E+00  0.93827000000E+00 0.  1.
     999902    2    1    2    0    0  0.20439221367E-01 -0.11312018535E-01 -0.12207637874E-03  0.10205689547E+01  0.10203015500E+01 0.  0.
     999903    2    3    3    0    0  0.15234397845E-02 -0.15063481656E-01  0.12860622378E+00  0.13099441849E+00  0.19767335004E-01 0.  0.
         14    1    1    2    0    0 -0.20439221367E-01  0.11312018535E-01  0.12207637874E-03  0.23361045269E-01  0.00000000000E+00 0.  1.
     999901    1    3    3    0    0  0.18915781582E-01  0.37514631215E-02 -0.12872830015E+00  0.88957453624E+00  0.88000000000E+00 0.  1.
        -11    1    4    4    0    0  0.68831346679E-02 -0.16730192524E-01  0.77836738112E-01  0.79913051535E-01  0.51100000000E-03 0.  1.
         11    1    4    4    0    0 -0.53596948834E-02  0.16667108678E-02  0.50769485664E-01  0.51081366955E-01  0.51100000000E-03 0. -1.
</event>
<event>
 8    1  0.1071333E+005  0.1043930E+01  0.7957747E-01            NaN
         13   -1    0    0    0    0  0.00000000000E+00  0.00000000000E+00  0.74505805969E-08  0.10566000000E+00  0.10566000000E+00 0.  1.
     999900   -1    0    0    0    0 -0.00000000000E+00 -0.00000000000E+00 -0.74505805969E-08  0.93827000000E+00  0.93827000000E+00 0.  1.
     999902    2    1    2    0    0  0.79961313502E-02 -0.15429519666E-01  0.11154472786E-01  0.10232798073E+01  0.10230714216E+01 0.  0.
     999903    2    3    3    0    0  0.67072811345E-01 -0.63685434892E-02  0.11539802756E+00  0.13511379013E+00  0.19992777482E-01 0.  0.
         14    1    1    2    0    0 -0.79961313502E-02  0.15429519666E-01 -0.11154472786E-01  0.20650192658E-01  0.00000000000E+00 0. -1.
     999901    1    3    3    0    0 -0.59076679995E-01 -0.90609761767E-02 -0.10424355478E+00  0.88816601721E+00  0.88000000000E+00 0.  1.
        -11    1    4    4    0    0  0.41364309250E-01 -0.13210999718E-01  0.65996371326E-01  0.79002017331E-01  0.51100000000E-03 0. -1.
         11    1    4    4    0    0  0.25708502095E-01  0.68424562292E-02  0.49401656237E-01  0.56111772803E-01  0.51100000000E-03 0.  1.
</event>
<event>
 7    1  0.1071333E+005  0.1043930E+01  0.7957747E-01            NaN
         13   -1    0    0    0    0  0.00000000000E+00  0.00000000000E+00  0.74505805969E-08  0.10566000000E+00  0.10566000000E+00 0.  1.
     999900   -1    0    0    0    0 -0.00000000000E+00 -0.00000000000E+00 -0.74505805969E-08  0.93827000000E+00  0.93827000000E+00 0. -1.
     999903    2    1    2    0    0  0.61226110020E-01 -0.93872442639E-01  0.26098088974E-01  0.11671594533E+00  0.19514856143E-01 0.  0.
         14    1    1    2    0    0 -0.19838358969E-01 -0.79100804280E-02 -0.34227162542E-01  0.40343878280E-01  0.00000000000E+00 0. -1.
     999901    1    1    2    0    0 -0.41387751052E-01  0.10178252307E+00  0.81290735684E-02  0.88687017639E+00  0.88000000000E+00 0.  1.
        -11    1    3    3    0    0  0.45018655029E-01 -0.51832609957E-01  0.14120592057E-01  0.70092446074E-01  0.51100000000E-03 0. -1.
         11    1    3    3    0    0  0.16207454991E-01 -0.42039832682E-01  0.11977496917E-01  0.46623499253E-01  0.51100000000E-03 0.  1.
</event>
<event>
 8    1  0.1071333E+005  0.1043930E+01  0.7957747E-01            NaN
         13   -1    0    0    0    0  0.00000000000E+00  0.00000000000E+00  0.74505805969E-08  0.10566000000E+00  0.10566000000E+00 0.  1.
     999900   -1    0    0    0    0 -0.00000000000E+00 -0.00000000000E+00 -0.74505805969E-08  0.93827000000E+00  0.93827000000E+00 0.  1.
     999902    2    1    2    0    0  0.13978605476E-01 -0.76944316834E-02  0.17777078314E-01  0.10200421327E+01  0.10197623852E+01 0.  0.
     999903    2    3    3    0    0  0.82864469288E-02  0.44695604823E-01 -0.11809047897E+00  0.12805720587E+00  0.19670395532E-01 0.  0.
         14    1    1    2    0    0 -0.13978605476E-01  0.76944316834E-02 -0.17777078314E-01  0.23887867284E-01  0.00000000000E+00 0. -1.
     999901    1    3    3    0    0  0.56921585476E-02 -0.52390036507E-01  0.13586755728E+00  0.89198492684E+00  0.88000000000E+00 0. -1.
        -11    1    4    4    0    0  0.24898290001E-02  0.42999436625E-01 -0.97454605040E-01  0.10654957514E+00  0.51100000000E-03 0. -1.
         11    1    4    4    0    0  0.57966179287E-02  0.16961681987E-02 -0.20635873926E-01  0.21507630731E-01  0.51100000000E-03 0.  1.
</event>
<event>
 8    1  0.1071333E+005  0.1043930E+01  0.7957747E-01            NaN
         13   -1    0    0    0    0  0.00000000000E+00  0.00000000000E+00  0.74505805969E-08  0.10566000000E+00  0.10566000000E+00 0. -1.
     999900   -1    0    0    0    0 -0.00000000000E+00 -0.00000000000E+00 -0.74505805969E-08  0.93827000000E+00  0.93827000000E+00 0. -1.
     999902    2    1    2    0    0 -0.13191159202E-02 -0.54444480247E-02  0.23130417371E-01  0.10201308763E+01  0.10198532279E+01 0.  0.
     999903    2    3    3    0    0  0.98578941616E-01  0.15500020172E-01  0.84098114209E-01  0.13213574529E+00  0.20719652831E-01 0.  0.
         14    1    1    2    0    0  0.13191159202E-02  0.54444480247E-02 -0.23130417371E-01  0.23799123699E-01  0.00000000000E+00 0.  1.
     999901    1    3    3    0    0 -0.99898057536E-01 -0.20944468197E-01 -0.60967696838E-01  0.88799513101E+00  0.88000000000E+00 0.  1.
        -11    1    4    4    0    0  0.14175397796E-01  0.46443278239E-02  0.22824585844E-01  0.27271496541E-01  0.51100000000E-03 0. -1.
         11    1    4    4    0    0  0.84403543820E-01  0.10855692348E-01  0.61273528365E-01  0.10486424875E+00  0.51100000000E-03 0.  1.
</event>
<event>
 8    1  0.1071333E+005  0.1043930E+01  0.7957747E-01            NaN
         13   -1    0    0    0    0  0.00000000000E+00  0.00000000000E+00  0.74505805969E-08  0.10566000000E+00  0.10566000000E+00 0.  1.
     999900   -1    0    0    0    0 -0.00000000000E+00 -0.00000000000E+00 -0.74505805969E-08  0.93827000000E+00  0.93827000000E+00 0. -1.
     999902    2    1    2    0    0 -0.20874940081E-01 -0.12135091503E-01  0.34914036087E-02  0.10195330029E+01  0.10192410561E+01 0.  0.
     999903    2    3    3    0    0 -0.10894747942E+00  0.69660884324E-01 -0.16681010032E-01  0.13113316040E+00  0.13980614559E-01 0.  0.
         14    1    1    2    0    0  0.20874940081E-01  0.12135091503E-01 -0.34914036087E-02  0.24396997117E-01  0.00000000000E+00 0.  1.
     999901    1    3    3    0    0  0.88072539344E-01 -0.81795975827E-01  0.20172413640E-01  0.88839984248E+00  0.88000000000E+00 0.  1.
        -11    1    4    4    0    0 -0.63586128735E-01  0.44558220865E-01 -0.39491873784E-02  0.77746305481E-01  0.51100000000E-03 0. -1.
         11    1    4    4    0    0 -0.45361350690E-01  0.25102663459E-01 -0.12731822653E-01  0.53386854920E-01  0.51100000000E-03 0.  1.
</event>
<event>
 8    1  0.1071333E+005  0.1043930E+01  0.7957747E-01            NaN
         13   -1    0    0    0    0  0.00000000000E+00  0.00000000000E+00  0.74505805969E-08  0.10566000000E+00  0.10566000000E+00 0. -1.
     999900   -1    0    0    0    0 -0.00000000000E+00 -0.00000000000E+00 -0.74505805969E-08  0.93827000000E+00  0.93827000000E+00 0.  1.
     999902    2    1    2    0    0  0.17431565714E-01 -0.11133106593E-01 -0.11192542988E-01  0.10204123776E+01  0.10201413342E+01 0.  0.
     999903    2    3    3    0    0  0.76720499544E-01  0.98693875934E-01  0.31994199993E-01  0.13055719918E+00  0.19875543429E-01 0.  0.
         14    1    1    2    0    0 -0.17431565714E-01  0.11133106593E-01  0.11192542988E-01  0.23517622418E-01  0.00000000000E+00 0. -1.
     999901    1    3    3    0    0 -0.59288933830E-01 -0.10982698253E+00 -0.43186742981E-01  0.88985517841E+00  0.88000000000E+00 0.  1.
        -11    1    4    4    0    0  0.30758857568E-01  0.25899685952E-01  0.14189902455E-01  0.42644055904E-01  0.51100000000E-03 0.  1.
         11    1    4    4    0    0  0.45961641976E-01  0.72794189982E-01  0.17804297538E-01  0.87913143273E-01  0.51100000000E-03 0. -1.
</event>
<event>
 8    1  0.1071333E+005  0.1043930E+01  0.7957747E-01            NaN
         13   -1    0    0    0    0  0.00000000000E+00  0.00000000000E+00  0.74505805969E-08  0.10566000000E+00  0.10566000000E+00 0. -1.
     999900   -1    0    0    0    0 -0.00000000000E+00 -0.00000000000E+00 -0.74505805969E-08  0.93827000000E+00  0.93827000000E+00 0.  1.
     999902    2    1    2    0    0  0.11809761254E-02 -0.12343974006E-01 -0.19975121812E-01  0.10204188560E+01  0.10201479637E+01 0.  0.
     999903    2    3    3    0    0 -0.89268898541E-01 -0.26944608277E-01 -0.92242284753E-01  0.13271569553E+00  0.20245211302E-01 0.  0.
         14    1    1    2    0    0 -0.11809761254E-02  0.12343974006E-01  0.19975121812E-01  0.23511143959E-01  0.00000000000E+00 0. -1.
     999901    1    3    3    0    0  0.90449874666E-01  0.14600634271E-01  0.72267162941E-01  0.88770316051E+00  0.88000000000E+00 0. -1.
        -11    1    4    4    0    0 -0.52766698964E-01 -0.25899239267E-01 -0.53685469007E-01  0.79608327565E-01  0.51100000000E-03 0.  1.
         11    1    4    4    0    0 -0.36502199576E-01 -0.10453690101E-02 -0.38556815746E-01  0.53107367961E-01  0.51100000000E-03 0. -1.
</event>
<event>
 8    1  0.1071333E+005  0.1043930E+01  0.7957747E-01            NaN
         13   -1    0    0    0    0  0.00000000000E+00  0.00000000000E+00  0.74505805969E-08  0.10566000000E+00  0.10566000000E+00 0. -1.
     999900   -1    0    0    0    0 -0.00000000000E+00 -0.00000000000E+00 -0.74505805969E-08  0.93827000000E+00  0.93827000000E+00 0.  1.
     999902    2    1    2    0    0 -0.88816714851E-02  0.55523970664E-02  0.22049702300E-01  0.10195188842E+01  0.10192265954E+01 0.  0.
     999903    2    3    3    0    0 -0.70828161023E-01  0.96223458513E-01 -0.47194597333E-01  0.12999463949E+00  0.19892056626E-01 0.  0.
         14    1    1    2    0    0  0.88816714851E-02 -0.55523970664E-02 -0.22049702300E-01  0.24411115769E-01  0.00000000000E+00 0.  1.
     999901    1    3    3    0    0  0.61946489538E-01 -0.90671061447E-01  0.69244299633E-01  0.88952424474E+00  0.88000000000E+00 0.  1.
        -11    1    4    4    0    0 -0.29929825984E-01  0.47798876251E-01 -0.12626070569E-01  0.57794513869E-01  0.51100000000E-03 0. -1.
         11    1    4    4    0    0 -0.40898335039E-01  0.48424582262E-01 -0.34568526764E-01  0.72200125622E-01  0.51100000000E-03 0.  1.
</event>
<event>
 8    1  0.1071333E+005  0.1043930E+01  0.7957747E-01            NaN
         13   -1    0    0    0    0  0.00000000000E+00  0.00000000000E+00  0.74505805969E-08  0.10566000000E+00  0.10566000000E+00 0. -1.
     999900   -1    0    0    0    0 -0.00000000000E+00 -0.00000000000E+00 -0.74505805969E-08  0.93827000000E+00  0.93827000000E+00 0.  1.
     999902    2    1    2    0    0  0.25417212728E-01 -0.52426307078E-02 -0.58329161528E-02  0.10173303235E+01  0.10169825192E+01 0.  0.
     999903    2    3    3    0    0  0.31891461415E-01 -0.12022323589E+00  0.28921128692E-01  0.12914661552E+00  0.19280167458E-01 0.  0.
         14    1    1    2    0    0 -0.25417212728E-01  0.52426307078E-02  0.58329161528E-02  0.26599676510E-01  0.00000000000E+00 0.  1.
     999901    1    3    3    0    0 -0.64742486873E-02  0.11498060518E+00 -0.34754044845E-01  0.88818370797E+00  0.88000000000E+00 0.  1.
        -11    1    4    4    0    0  0.36670611962E-02 -0.22161433407E-01  0.12735311567E-01  0.25826841660E-01  0.51100000000E-03 0.  1.
         11    1    4    4    0    0  0.28224400219E-01 -0.98061802483E-01  0.16185817126E-01  0.10331977386E+00  0.51100000000E-03 0. -1.
</event>
<event>
 8    1  0.1071333E+005  0.1043930E+01  0.7957747E-01            NaN
         13   -1    0    0    0    0  0.00000000000E+00  0.00000000000E+00  0.74505805969E-08  0.10566000000E+00  0.10566000000E+00 0.  1.
     999900   -1    0    0    0    0 -0.00000000000E+00 -0.00000000000E+00 -0.74505805969E-08  0.93827000000E+00  0.93827000000E+00 0. -1.
     999902    2    1    2    0    0 -0.19885748616E-01  0.42976453554E-02  0.11164921598E-01  0.10207229272E+01  0.10204590760E+01 0.  0.
     999903    2    3    3    0    0 -0.98722770328E-01 -0.52084484350E-01 -0.63063293514E-01  0.13229507506E+00  0.32650099618E-01 0.  0.
         14    1    1    2    0    0  0.19885748616E-01 -0.42976453554E-02 -0.11164921598E-01  0.23207072799E-01  0.00000000000E+00 0.  1.
     999901    1    3    3    0    0  0.78837021712E-01  0.56382129705E-01  0.74228215112E-01  0.88842785214E+00  0.88000000000E+00 0.  1.
        -11    1    4    4    0    0 -0.26126762902E-01 -0.24038291246E-01 -0.65290047633E-02  0.36101748018E-01  0.51100000000E-03 0. -1.
         11    1    4    4    0    0 -0.72596007425E-01 -0.28046193104E-01 -0.56534288750E-01  0.96193327041E-01  0.51100000000E-03 0.  1.
</event>
<event>
 8    1  0.1071333E+005  0.1043930E+01  0.7957747E-01            NaN
         13   -1    0    0    0    0  0.00000000000E+00  0.00000000000E+00  0.74505805969E-08  0.10566000000E+00  0.10566000000E+00 0. -1.
     999900   -1    0    0    0    0 -0.00000000000E+00 -0.00000000000E+00 -0.74505805969E-08  0.93827000000E+00  0.93827000000E+00 0. -1.
     999902    2    1    2    0    0 -0.13709404725E-01  0.18113957773E-01  0.34601344557E-02  0.10209509710E+01  0.10206923383E+01 0.  0.
     999903    2    3    3    0    0  0.74464144069E-01 -0.68505634075E-01 -0.76821576302E-01  0.12869389957E+00  0.20558077487E-01 0.  0.
         14    1    1    2    0    0  0.13709404725E-01 -0.18113957773E-01 -0.34601344557E-02  0.22979029017E-01  0.00000000000E+00 0.  1.
     999901    1    3    3    0    0 -0.88173548794E-01  0.86619591848E-01  0.80281710758E-01  0.89225707141E+00  0.88000000000E+00 0.  1.
        -11    1    4    4    0    0  0.12010537704E-01 -0.20425438662E-01 -0.11589326639E-01  0.26382289010E-01  0.51100000000E-03 0.  1.
         11    1    4    4    0    0  0.62453606366E-01 -0.48080195412E-01 -0.65232249663E-01  0.10231161056E+00  0.51100000000E-03 0. -1.
</event>
<event>
 8    1  0.1071333E+005  0.1043930E+01  0.7957747E-01            NaN
         13   -1    0    0    0    0  0.00000000000E+00  0.00000000000E+00  0.74505805969E-08  0.10566000000E+00  0.10566000000E+00 0. -1.
     999900   -1    0    0    0    0 -0.00000000000E+00 -0.00000000000E+00 -0.74505805969E-08  0.93827000000E+00  0.93827000000E+00 0. -1.
     999902    2    1    2    0    0 -0.41213624500E-02  0.17634636044E-01  0.15261048213E-01  0.10202473986E+01  0.10199724941E+01 0.  0.
     999903    2    3    3    0    0 -0.81495406895E-01 -0.69103125730E-01  0.71878018023E-01  0.13080056862E+00  0.22925879411E-01 0.  0.
         14    1    1    2    0    0  0.41213624500E-02 -0.17634636044E-01 -0.15261048213E-01  0.23682601407E-01  0.00000000000E+00 0. -1.
     999901    1    3    3    0    0  0.77374044445E-01  0.86737761774E-01 -0.56616969809E-01  0.88944682997E+00  0.88000000000E+00 0.  1.
        -11    1    4    4    0    0 -0.46511011971E-01 -0.42525406203E-01  0.55279896063E-01  0.83832048985E-01  0.51100000000E-03 0. -1.
         11    1    4    4    0    0 -0.34984394924E-01 -0.26577719527E-01  0.16598121960E-01  0.46968519639E-01  0.51100000000E-03 0.  1.
</event>
<event>
 8    1  0.1071333E+005  0.1043930E+01  0.7957747E-01            NaN
         13   -1    0    0    0    0  0.00000000000E+00  0.00000000000E+00  0.74505805969E-08  0.10566000000E+00  0.10566000000E+00 0.  1.
     999900   -1    0    0    0    0 -0.00000000000E+00 -0.00000000000E+00 -0.74505805969E-08  0.93827000000E+00  0.93827000000E+00 0.  1.
     999902    2    1    2    0    0  0.81183691886E-02  0.22045293760E-01  0.22486529226E-02  0.10203300141E+01  0.10200570466E+01 0.  0.
     999903    2    3    3    0    0 -0.56169277655E-01 -0.80946854644E-01  0.80339339065E-01  0.12856858891E+00  0.19185714047E-01 0.  0.
         14    1    1    2    0    0 -0.81183691886E-02 -0.22045293760E-01 -0.22486529226E-02  0.23599985915E-01  0.00000000000E+00 0.  1.
     999901    1    3    3    0    0  0.64287646843E-01  0.10299214840E+00 -0.78090686143E-01  0.89176142518E+00  0.88000000000E+00 0.  1.
        -11    1    4    4    0    0 -0.43583409920E-01 -0.73281303083E-01  0.72197865509E-01  0.11172491176E+00  0.51100000000E-03 0.  1.
         11    1    4    4    0    0 -0.12585867734E-01 -0.76655515617E-02  0.81414735561E-02  0.16843677153E-01  0.51100000000E-03 0. -1.
</event>
<event>
 8    1  0.1071333E+005  0.1043930E+01  0.7957747E-01            NaN
         13   -1    0    0    0    0  0.00000000000E+00  0.00000000000E+00  0.74505805969E-08  0.10566000000E+00  0.10566000000E+00 0.  1.
     999900   -1    0    0    0    0 -0.00000000000E+00 -0.00000000000E+00 -0.74505805969E-08  0.93827000000E+00  0.93827000000E+00 0.  1.
     999902    2    1    2    0    0  0.22318490369E-01 -0.64243784869E-03  0.54886947369E-02  0.10209375337E+01  0.10206785949E+01 0.  0.
     999903    2    3    3    0    0  0.30464401102E-01  0.11529943217E+00  0.53761591507E-01  0.13198357216E+00  0.17530425153E-01 0.  0.
         14    1    1    2    0    0 -0.22318490369E-01  0.64243784869E-03 -0.54886947369E-02  0.22992466346E-01  0.00000000000E+00 0.  1.
     999901    1    3    3    0    0 -0.81459107332E-02 -0.11594187002E+00 -0.48272896770E-01  0.88895396149E+00  0.88000000000E+00 0.  1.
        -11    1    4    4    0    0  0.16649049153E-01  0.48108981423E-01  0.14459499522E-01  0.52924504520E-01  0.51100000000E-03 0.  1.
         11    1    4    4    0    0  0.13815351949E-01  0.67190450750E-01  0.39302091985E-01  0.79059067645E-01  0.51100000000E-03 0. -1.
</event>
<event>
 8    1  0.1071333E+005  0.1043930E+01  0.7957747E-01            NaN
         13   -1    0    0    0    0  0.00000000000E+00  0.00000000000E+00  0.74505805969E-08  0.10566000000E+00  0.10566000000E+00 0.  1.
     999900   -1    0    0    0    0 -0.00000000000E+00 -0.00000000000E+00 -0.74505805969E-08  0.93827000000E+00  0.93827000000E+00 0. -1.
     999902    2    1    2    0    0  0.16619956683E-01 -0.20820113430E-02 -0.22102789835E-01  0.10161975091E+01  0.10158190225E+01 0.  0.
     999903    2    3    3    0    0  0.11038855497E+00 -0.62193821236E-01 -0.15188168757E-01  0.12914971352E+00  0.19881236443E-01 0.  0.
         14    1    1    2    0    0 -0.16619956683E-01  0.20820113430E-02  0.22102789835E-01  0.27732490870E-01  0.00000000000E+00 0.  1.
     999901    1    3    3    0    0 -0.93768598291E-01  0.60111809893E-01 -0.69146210783E-02  0.88704779561E+00  0.88000000000E+00 0. -1.
        -11    1    4    4    0    0  0.28738753001E-01 -0.14311718498E-01 -0.12498832369E-01  0.34456104568E-01  0.51100000000E-03 0.  1.
         11    1    4    4    0    0  0.81649801973E-01 -0.47882102739E-01 -0.26893363881E-02  0.94693608951E-01  0.51100000000E-03 0. -1.
</event>
<event>
 8    1  0.1071333E+005  0.1043930E+01  0.7957747E-01            NaN
         13   -1    0    0    0    0  0.00000000000E+00  0.00000000000E+00  0.74505805969E-08  0.10566000000E+00  0.10566000000E+00 0.  1.
     999900   -1    0    0    0    0 -0.00000000000E+00 -0.00000000000E+00 -0.74505805969E-08  0.93827000000E+00  0.93827000000E+00 0. -1.
     999902    2    1    2    0    0 -0.71814597791E-02  0.21629907059E-02 -0.22931148385E-01  0.10198034698E+01  0.10195180369E+01 0.  0.
     999903    2    3    3    0    0 -0.85812248210E-01 -0.36434684020E-01  0.86639942376E-01  0.12869269929E+00  0.19081485613E-01 0.  0.
         14    1    1    2    0    0  0.71814597791E-02 -0.21629907059E-02  0.22931148385E-01  0.24126530203E-01  0.00000000000E+00 0.  1.
     999901    1    3    3    0    0  0.78630788430E-01  0.38597674726E-01 -0.10957109076E+00  0.89111077051E+00  0.88000000000E+00 0. -1.
        -11    1    4    4    0    0 -0.68271276868E-01 -0.22795505608E-01  0.73496203705E-01  0.10287154806E+00  0.51100000000E-03 0.  1.
         11    1    4    4    0    0 -0.17540971341E-01 -0.13639178412E-01  0.13143738670E-01  0.25821151225E-01  0.51100000000E-03 0. -1.
</event>
<event>
 8    1  0.1071333E+005  0.1043930E+01  0.7957747E-01            NaN
         13   -1    0    0    0    0  0.00000000000E+00  0.00000000000E+00  0.74505805969E-08  0.10566000000E+00  0.10566000000E+00 0.  1.
     999900   -1    0    0    0    0 -0.00000000000E+00 -0.00000000000E+00 -0.74505805969E-08  0.93827000000E+00  0.93827000000E+00 0.  1.
     999902    2    1    2    0    0 -0.15803553018E-01  0.15905801242E-01  0.75435172655E-02  0.10202730464E+01  0.10199987440E+01 0.  0.
     999903    2    3    3    0    0  0.22275861439E-01  0.12282519225E+00  0.39812252933E-01  0.13239745304E+00  0.19021783131E-01 0.  0.
         14    1    1    2    0    0  0.15803553018E-01 -0.15905801242E-01 -0.75435172655E-02  0.23656953605E-01  0.00000000000E+00 0.  1.
     999901    1    3    3    0    0 -0.38079414457E-01 -0.10691939101E+00 -0.32268735667E-01  0.88787559336E+00  0.88000000000E+00 0.  1.
        -11    1    4    4    0    0  0.18886578322E-01  0.11409890885E+00  0.31494418364E-01  0.11986418711E+00  0.51100000000E-03 0.  1.
         11    1    4    4    0    0  0.33892831176E-02  0.87262833983E-02  0.83178345685E-02  0.12533265931E-01  0.51100000000E-03 0. -1.
</event>
<event>
 8    1  0.1071333E+005  0.1043930E+01  0.7957747E-01            NaN
         13   -1    0    0    0    0  0.00000000000E+00  0.00000000000E+00  0.74505805969E-08  0.10566000000E+00  0.10566000000E+00 0. -1.
     999900   -1    0    0    0    0 -0.00000000000E+00 -0.00000000000E+00 -0.74505805969E-08  0.93827000000E+00  0.93827000000E+00 0.  1.
     999902    2    1    2    0    0  0.18927074844E-01 -0.12942441335E-01 -0.60870610715E-02  0.10202067358E+01  0.10199308754E+01 0.  0.
     999903    2    3    3    0    0  0.35466217276E-01  0.12301673709E+00 -0.11824848914E-02  0.12959879949E+00  0.20086821202E-01 0.  0.
         14    1    1    2    0    0 -0.18927074844E-01  0.12942441335E-01  0.60870610715E-02  0.23723264159E-01  0.00000000000E+00 0. -1.
     999901    1    3    3    0    0 -0.16539142431E-01 -0.13595917842E+00 -0.49045761801E-02  0.89060793635E+00  0.88000000000E+00 0.  1.
        -11    1    4    4    0    0  0.23499515781E-01  0.77518744138E-01 -0.10360277718E-01  0.81663819468E-01  0.51100000000E-03 0. -1.
         11    1    4    4    0    0  0.11966701495E-01  0.45497992951E-01  0.91777928270E-02  0.47934980018E-01  0.51100000000E-03 0.  1.
</event>
<event>
 8    1  0.1071333E+005  0.1043930E+01  0.7957747E-01            NaN
         13   -1    0    0    0    0  0.00000000000E+00  0.00000000000E+00  0.74505805969E-08  0.10566000000E+00  0.10566000000E+00 0. -1.
     999900   -1    0    0    0    0 -0.00000000000E+00 -0.00000000000E+00 -0.74505805969E-08  0.93827000000E+00  0.93827000000E+00 0.  1.
     999902    2    1    2    0    0  0.50523459211E-02 -0.17138208662E-01 -0.10932070347E-02  0.10260291761E+01  0.10258730090E+01 0.  0.
     999903    2    3    3    0    0  0.31143395567E-01  0.94221314189E-01 -0.88417669275E-01  0.13434131146E+00  0.19553429113E-01 0.  0.
         14    1    1    2    0    0 -0.50523459211E-02  0.17138208662E-01  0.10932070347E-02  0.17900823921E-01  0.00000000000E+00 0.  1.
     999901    1    3    3    0    0 -0.26091049646E-01 -0.11135952285E+00  0.87324462240E-01  0.89168786462E+00  0.88000000000E+00 0. -1.
        -11    1    4    4    0    0  0.17656368873E-01  0.38756991170E-01 -0.26683029016E-01  0.50260291333E-01  0.51100000000E-03 0.  1.
         11    1    4    4    0    0  0.13487026694E-01  0.55464323019E-01 -0.61734640259E-01  0.84081020129E-01  0.51100000000E-03 0. -1.
</event>
<event>
 8    1  0.1071333E+005  0.1043930E+01  0.7957747E-01            NaN
         13   -1    0    0    0    0  0.00000000000E+00  0.00000000000E+00  0.74505805969E-08  0.10566000000E+00  0.10566000000E+00 0.  1.
     999900   -1    0    0    0    0 -0.00000000000E+00 -0.00000000000E+00 -0.74505805969E-08  0.93827000000E+00  0.93827000000E+00 0. -1.
     999902    2    1    2    0    0 -0.12504570840E-01 -0.20415541963E-01  0.17100667020E-02  0.10199282714E+01  0.10196458189E+01 0.  0.
     999903    2    3    3    0    0 -0.91592255062E-01  0.87102897409E-01 -0.20703092648E-01  0.12958147030E+00  0.19664268989E-01 0.  0.
         14    1    1    2    0    0  0.12504570840E-01  0.20415541963E-01 -0.17100667020E-02  0.24001728556E-01  0.00000000000E+00 0.  1.
     999901    1    3    3    0    0  0.79087684222E-01 -0.10751843937E+00  0.22413159350E-01  0.89034680115E+00  0.88000000000E+00 0. -1.
        -11    1    4    4    0    0 -0.62887537123E-01  0.47362803972E-01 -0.95823896656E-02  0.79310534220E-01  0.51100000000E-03 0. -1.
         11    1    4    4    0    0 -0.28704717939E-01  0.39740093436E-01 -0.11120702982E-01  0.50270936078E-01  0.51100000000E-03 0.  1.
</event>
<event>
 8    1  0.1071333E+005  0.1043930E+01  0.7957747E-01            NaN
         13   -1    0    0    0    0  0.00000000000E+00  0.00000000000E+00  0.74505805969E-08  0.10566000000E+00  0.10566000000E+00 0. -1.
     999900   -1    0    0    0    0 -0.00000000000E+00 -0.00000000000E+00 -0.74505805969E-08  0.93827000000E+00  0.93827000000E+00 0. -1.
     999902    2    1    2    0    0  0.17070919317E-01  0.10689844978E-01 -0.11549402586E-01  0.10207119516E+01  0.10204478479E+01 0.  0.
     999903    2    3    3    0    0 -0.10647599560E+00  0.68679665411E-01  0.18803406193E-01  0.12967438085E+00  0.20195120323E-01 0.  0.
         14    1    1    2    0    0 -0.17070919317E-01 -0.10689844978E-01  0.11549402586E-01  0.23218048412E-01  0.00000000000E+00 0. -1.
     999901    1    3    3    0    0  0.12354691492E+00 -0.57989820433E-01 -0.30352808779E-01  0.89103757073E+00  0.88000000000E+00 0.  1.
        -11    1    4    4    0    0 -0.77189220430E-01  0.40148197638E-01  0.17579457792E-01  0.88765713997E-01  0.51100000000E-03 0.  1.
         11    1    4    4    0    0 -0.29286775172E-01  0.28531467773E-01  0.12239484001E-02  0.40908666856E-01  0.51100000000E-03 0. -1.
</event>
<event>
 8    1  0.1071333E+005  0.1043930E+01  0.7957747E-01            NaN
         13   -1    0    0    0    0  0.00000000000E+00  0.00000000000E+00  0.74505805969E-08  0.10566000000E+00  0.10566000000E+00 0. -1.
     999900   -1    0    0    0    0 -0.00000000000E+00 -0.00000000000E+00 -0.74505805969E-08  0.93827000000E+00  0.93827000000E+00 0.  1.
     999902    2    1    2    0    0 -0.17317768880E-02 -0.16366089987E-01  0.16563188121E-01  0.10205807569E+01  0.10203136254E+01 0.  0.
     999903    2    3    3    0    0 -0.59410971874E-01  0.97688159128E-01 -0.54473466077E-01  0.12851491431E+00  0.21819364809E-01 0.  0.
         14    1    1    2    0    0  0.17317768880E-02  0.16366089987E-01 -0.16563188121E-01  0.23349243101E-01  0.00000000000E+00 0.  1.
     999901    1    3    3    0    0  0.57679194986E-01 -0.11405424912E+00  0.71036654198E-01  0.89206584259E+00  0.88000000000E+00 0. -1.
        -11    1    4    4    0    0 -0.46179504749E-01  0.56214437325E-01 -0.36778085435E-01  0.81519925858E-01  0.51100000000E-03 0.  1.
         11    1    4    4    0    0 -0.13231467125E-01  0.41473721803E-01 -0.17695380642E-01  0.46994988451E-01  0.51100000000E-03 0. -1.
</event>
<event>
 8    1  0.1071333E+005  0.1043930E+01  0.7957747E-01            NaN
         13   -1    0    0    0    0  0.00000000000E+00  0.00000000000E+00  0.74505805969E-08  0.10566000000E+00  0.10566000000E+00 0.  1.
     999900   -1    0    0    0    0 -0.00000000000E+00 -0.00000000000E+00 -0.74505805969E-08  0.93827000000E+00  0.93827000000E+00 0. -1.
     999902    2    1    2    0    0  0.14880511475E-01  0.18490569367E-01  0.22866072741E-02  0.10200855174E+01  0.10198067971E+01 0.  0.
     999903    2    3    3    0    0  0.93661963709E-01  0.65822295353E-01 -0.64412050456E-01  0.13278876860E+00  0.19462959973E-01 0.  0.
         14    1    1    2    0    0 -0.14880511475E-01 -0.18490569367E-01 -0.22866072741E-02  0.23844482592E-01  0.00000000000E+00 0. -1.
     999901    1    3    3    0    0 -0.78781452235E-01 -0.47331725986E-01  0.66698657731E-01  0.88729674881E+00  0.88000000000E+00 0.  1.
        -11    1    4    4    0    0  0.25894630952E-01  0.23108101310E-01 -0.10626580674E-01  0.36300159726E-01  0.51100000000E-03 0. -1.
         11    1    4    4    0    0  0.67767332757E-01  0.42714194043E-01 -0.53785469782E-01  0.96488608874E-01  0.51100000000E-03 0.  1.
</event>
<event>
 8    1  0.1071333E+005  0.1043930E+01  0.7957747E-01            NaN
         13   -1    0    0    0    0  0.00000000000E+00  0.00000000000E+00  0.74505805969E-08  0.10566000000E+00  0.10566000000E+00 0. -1.
     999900   -1    0    0    0    0 -0.00000000000E+00 -0.00000000000E+00 -0.74505805969E-08  0.93827000000E+00  0.93827000000E+00 0. -1.
     999902    2    1    2    0    0  0.19060188293E-01  0.11328255887E-01 -0.28298255055E-02  0.10215776383E+01  0.10213330716E+01 0.  0.
     999903    2    3    3    0    0 -0.11034493335E-01 -0.11769857369E+00 -0.50274304109E-01  0.13039606809E+00  0.22381122142E-01 0.  0.
         14    1    1    2    0    0 -0.19060188293E-01 -0.11328255887E-01  0.28298255055E-02  0.22352361656E-01  0.00000000000E+00 0.  1.
     999901    1    3    3    0    0  0.30094681627E-01  0.12902682957E+00  0.47444478603E-01  0.89118157026E+00  0.88000000000E+00 0. -1.
        -11    1    4    4    0    0  0.68847229125E-02 -0.27650288014E-01 -0.12028715089E-01  0.30933621587E-01  0.51100000000E-03 0.  1.
         11    1    4    4    0    0 -0.17919216247E-01 -0.90048285673E-01 -0.38245589020E-01  0.99462446502E-01  0.51100000000E-03 0. -1.
</event>
<event>
 8    1  0.1071333E+005  0.1043930E+01  0.7957747E-01            NaN
         13   -1    0    0    0    0  0.00000000000E+00  0.00000000000E+00  0.74505805969E-08  0.10566000000E+00  0.10566000000E+00 0. -1.
     999900   -1    0    0    0    0 -0.00000000000E+00 -0.00000000000E+00 -0.74505805969E-08  0.93827000000E+00  0.93827000000E+00 0. -1.
     999902    2    1    2    0    0  0.15339542606E-01 -0.16576399222E-01 -0.48960965659E-02  0.10208204708E+01  0.10205588583E+01 0.  0.
     999903    2    3    3    0    0 -0.32949950637E-01  0.11856692352E+00  0.30834518537E-01  0.12847957758E+00  0.20308119642E-01 0.  0.
         14    1    1    2    0    0 -0.15339542606E-01  0.16576399222E-01  0.48960965659E-02  0.23109529206E-01  0.00000000000E+00 0.  1.
     999901    1    3    3    0    0  0.48289493243E-01 -0.13514332274E+00 -0.35730615103E-01  0.89234089321E+00  0.88000000000E+00 0. -1.
        -11    1    4    4    0    0 -0.11792356626E-01  0.36545658800E-01  0.19328076462E-01  0.42993959025E-01  0.51100000000E-03 0.  1.
         11    1    4    4    0    0 -0.21157594011E-01  0.82021264718E-01  0.11506442075E-01  0.85485618560E-01  0.51100000000E-03 0. -1.
</event>
<event>
 8    1  0.1071333E+005  0.1043930E+01  0.7957747E-01            NaN
         13   -1    0    0    0    0  0.00000000000E+00  0.00000000000E+00  0.74505805969E-08  0.10566000000E+00  0.10566000000E+00 0.  1.
     999900   -1    0    0    0    0 -0.00000000000E+00 -0.00000000000E+00 -0.74505805969E-08  0.93827000000E+00  0.93827000000E+00 0. -1.
     999902    2    1    2    0    0 -0.29313642422E-01  0.33337316119E-02 -0.17358814603E-02  0.10143763761E+01  0.10139457657E+01 0.  0.
     999903    2    3    3    0    0  0.11266908108E+00 -0.37220026825E-01  0.18309093139E-01  0.12184878436E+00  0.20790650022E-01 0.  0.
         14    1    1    2    0    0  0.29313642422E-01 -0.33337316119E-02  0.17358814603E-02  0.29553623854E-01  0.00000000000E+00 0.  1.
     999901    1    3    3    0    0 -0.14198272351E+00  0.40553758437E-01 -0.20044974600E-01  0.89252759179E+00  0.88000000000E+00 0.  1.
        -11    1    4    4    0    0  0.46505103371E-01 -0.65656792990E-02  0.12993881097E-01  0.48733303307E-01  0.51100000000E-03 0.  1.
         11    1    4    4    0    0  0.66163977714E-01 -0.30654347526E-01  0.53152120418E-02  0.73115481050E-01  0.51100000000E-03 0. -1.
</event>
<event>
 8    1  0.1071333E+005  0.1043930E+01  0.7957747E-01            NaN
         13   -1    0    0    0    0  0.00000000000E+00  0.00000000000E+00  0.74505805969E-08  0.10566000000E+00  0.10566000000E+00 0. -1.
     999900   -1    0    0    0    0 -0.00000000000E+00 -0.00000000000E+00 -0.74505805969E-08  0.93827000000E+00  0.93827000000E+00 0. -1.
     999902    2    1    2    0    0  0.22827931536E-01 -0.25513692035E-02  0.14494987005E-02  0.10209142448E+01  0.10206547752E+01 0.  0.
     999903    2    3    3    0    0  0.81922579590E-01  0.96707612494E-01  0.35883537540E-01  0.13269680183E+00  0.16035635000E-01 0.  0.
         14    1    1    2    0    0 -0.22827931536E-01  0.25513692035E-02 -0.14494987005E-02  0.23015755245E-01  0.00000000000E+00 0. -1.
     999901    1    3    3    0    0 -0.59094648054E-01 -0.99258981697E-01 -0.34434038839E-01  0.88821744292E+00  0.88000000000E+00 0. -1.
        -11    1    4    4    0    0  0.31633850560E-01  0.27673142423E-01  0.75237457923E-02  0.42700950628E-01  0.51100000000E-03 0. -1.
         11    1    4    4    0    0  0.50288729031E-01  0.69034470070E-01  0.28359791748E-01  0.89995851206E-01  0.51100000000E-03 0.  1.
</event>
<event>
 8    1  0.1071333E+005  0.1043930E+01  0.7957747E-01            NaN
         13   -1    0    0    0    0  0.00000000000E+00  0.00000000000E+00  0.74505805969E-08  0.10566000000E+00  0.10566000000E+00 0. -1.
     999900   -1    0    0    0    0 -0.00000000000E+00 -0.00000000000E+00 -0.74505805969E-08  0.93827000000E+00  0.93827000000E+00 0.  1.
     999902    2    1    2    0    0 -0.16463908360E-01 -0.16441826436E-01 -0.38182165990E-02  0.10203509264E+01  0.10200784481E+01 0.  0.
     999903    2    3    3    0    0 -0.83387563875E-01  0.80804255663E-01 -0.56805173895E-01  0.13088862037E+00  0.20547253342E-01 0.  0.
         14    1    1    2    0    0  0.16463908360E-01  0.16441826436E-01  0.38182165990E-02  0.23579073626E-01  0.00000000000E+00 0. -1.
     999901    1    3    3    0    0  0.66923655515E-01 -0.97246082099E-01  0.52986957297E-01  0.88946230600E+00  0.88000000000E+00 0.  1.
        -11    1    4    4    0    0 -0.34378992096E-01  0.39623449755E-01 -0.35810840590E-01  0.63518582264E-01  0.51100000000E-03 0. -1.
         11    1    4    4    0    0 -0.49008571779E-01  0.41180805908E-01 -0.20994333305E-01  0.67370038110E-01  0.51100000000E-03 0.  1.
</event>
<event>
 8    1  0.1071333E+005  0.1043930E+01  0.7957747E-01            NaN
         13   -1    0    0    0    0  0.00000000000E+00  0.00000000000E+00  0.74505805969E-08  0.10566000000E+00  0.10566000000E+00 0. -1.
     999900   -1    0    0    0    0 -0.00000000000E+00 -0.00000000000E+00 -0.74505805969E-08  0.93827000000E+00  0.93827000000E+00 0.  1.
     999902    2    1    2    0    0  0.10763818472E-01  0.94588495944E-02  0.18468921262E-01  0.10205541433E+01  0.10202863954E+01 0.  0.
     999903    2    3    3    0    0 -0.12052072359E-01 -0.36079032850E-01  0.12587121497E+00  0.13256229857E+00  0.16800332867E-01 0.  0.
         14    1    1    2    0    0 -0.10763818472E-01 -0.94588495944E-02 -0.18468921262E-01  0.23375856697E-01  0.00000000000E+00 0.  1.
     999901    1    3    3    0    0  0.22815890831E-01  0.45537882445E-01 -0.10740229371E+00  0.88799184473E+00  0.88000000000E+00 0.  1.
        -11    1    4    4    0    0 -0.10268786083E-01 -0.20363437552E-01  0.48601259666E-01  0.53688556683E-01  0.51100000000E-03 0. -1.
         11    1    4    4    0    0 -0.17832862761E-02 -0.15715595298E-01  0.77269955308E-01  0.78873741890E-01  0.51100000000E-03 0.  1.
</event>
<event>
 8    1  0.1071333E+005  0.1043930E+01  0.7957747E-01            NaN
         13   -1    0    0    0    0  0.00000000000E+00  0.00000000000E+00  0.74505805969E-08  0.10566000000E+00  0.10566000000E+00 0.  1.
     999900   -1    0    0    0    0 -0.00000000000E+00 -0.00000000000E+00 -0.74505805969E-08  0.93827000000E+00  0.93827000000E+00 0. -1.
     999902    2    1    2    0    0  0.20607072019E-01  0.29625702341E-02  0.10827300226E-01  0.10204638825E+01  0.10201940388E+01 0.  0.
     999903    2    3    3    0    0  0.83732377007E-01 -0.25896311198E-01 -0.95739907707E-01  0.13132148167E+00  0.19936693019E-01 0.  0.
         14    1    1    2    0    0 -0.20607072019E-01 -0.29625702341E-02 -0.10827300226E-01  0.23466117484E-01  0.00000000000E+00 0.  1.
     999901    1    3    3    0    0 -0.63125304988E-01  0.28858881432E-01  0.10656720793E+00  0.88914240084E+00  0.88000000000E+00 0.  1.
        -11    1    4    4    0    0  0.61621844598E-01 -0.95263187215E-02 -0.67441428142E-01  0.91851019759E-01  0.51100000000E-03 0.  1.
         11    1    4    4    0    0  0.22110532409E-01 -0.16369992476E-01 -0.28298479565E-01  0.39470461915E-01  0.51100000000E-03 0. -1.
</event>
<event>
 8    1  0.1071333E+005  0.1043930E+01  0.7957747E-01            NaN
         13   -1    0    0    0    0  0.00000000000E+00  0.00000000000E+00  0.74505805969E-08  0.10566000000E+00  0.10566000000E+00 0.  1.
     999900   -1    0    0    0    0 -0.00000000000E+00 -0.00000000000E+00 -0.74505805969E-08  0.93827000000E+00  0.93827000000E+00 0.  1.
     999902    2    1    2    0    0 -0.69549888071E-02 -0.23772594645E-01  0.46478301319E-02  0.10187286022E+01  0.10184168373E+01 0.  0.
     999903    2    3    3    0    0  0.11747111173E+00 -0.36739704896E-01  0.33837161591E-01  0.12940188075E+00  0.21227935092E-01 0.  0.
         14    1    1    2    0    0  0.69549888071E-02  0.23772594645E-01 -0.46478301319E-02  0.25201397787E-01  0.00000000000E+00 0. -1.
     999901    1    3    3    0    0 -0.12442610054E+00  0.12967110250E-01 -0.29189331459E-01  0.88932672147E+00  0.88000000000E+00 0.  1.
        -11    1    4    4    0    0  0.91129053175E-01 -0.22650713195E-01  0.32932627903E-01  0.99510694111E-01  0.51100000000E-03 0.  1.
         11    1    4    4    0    0  0.26342058559E-01 -0.14088991701E-01  0.90453368767E-03  0.29891186635E-01  0.51100000000E-03 0. -1.
</event>
<event>
 8    1  0.1071333E+005  0.1043930E+01  0.7957747E-01            NaN
         13   -1    0    0    0    0  0.00000000000E+00  0.00000000000E+00  0.74505805969E-08  0.10566000000E+00  0.10566000000E+00 0. -1.
     999900   -1    0    0    0    0 -0.00000000000E+00 -0.00000000000E+00 -0.74505805969E-08  0.93827000000E+00  0.93827000000E+00 0.  1.
     999902    2    1    2    0    0 -0.20969862085E-01  0.12659209977E-01 -0.41686019555E-02  0.10190831097E+01  0.10187801611E+01 0.  0.
     999903    2    3    3    0    0  0.11146950764E+00  0.59326839790E-01 -0.19853466197E-02  0.12794741810E+00  0.20529859813E-01 0.  0.
         14    1    1    2    0    0  0.20969862085E-01 -0.12659209977E-01  0.41686019555E-02  0.24846890256E-01  0.00000000000E+00 0. -1.
     999901    1    3    3    0    0 -0.13243936972E+00 -0.46667629813E-01 -0.21832553358E-02  0.89113569165E+00  0.88000000000E+00 0.  1.
        -11    1    4    4    0    0  0.63538215731E-01  0.39468391157E-01 -0.99341171679E-02  0.75457316171E-01  0.51100000000E-03 0. -1.
         11    1    4    4    0    0  0.47931291906E-01  0.19858448633E-01  0.79487705482E-02  0.52490101925E-01  0.51100000000E-03 0.  1.
</event>
<event>
 8    1  0.1071333E+005  0.1043930E+01  0.7957747E-01            NaN
         13   -1    0    0    0    0  0.00000000000E+00  0.00000000000E+00  0.74505805969E-08  0.10566000000E+00  0.10566000000E+00 0. -1.
     999900   -1    0    0    0    0 -0.00000000000E+00 -0.00000000000E+00 -0.74505805969E-08  0.93827000000E+00  0.93827000000E+00 0. -1.
     999902    2    1    2    0    0  0.32165307931E-02 -0.31678331028E-03 -0.24544264235E-01  0.10191738426E+01  0.10188731296E+01 0.  0.
     999903    2    3    3    0    0  0.12135639878E+00  0.39156585465E-01 -0.18431468211E-01  0.13038109875E+00  0.19972435555E-01 0.  0.
         14    1    1    2    0    0 -0.32165307931E-02  0.31678331028E-03  0.24544264235E-01  0.24756157393E-01  0.00000000000E+00 0. -1.
     999901    1    3    3    0    0 -0.11813986799E+00 -0.39473368775E-01 -0.61127960242E-02  0.88879274385E+00  0.88000000000E+00 0. -1.
        -11    1    4    4    0    0  0.45638932132E-01  0.52087975678E-02 -0.35375697030E-02  0.46074062319E-01  0.51100000000E-03 0.  1.
         11    1    4    4    0    0  0.75717466648E-01  0.33947787897E-01 -0.14893898508E-01  0.84307036435E-01  0.51100000000E-03 0. -1.
</event>
<event>
 8    1  0.1071333E+005  0.1043930E+01  0.7957747E-01            NaN
         13   -1    0    0    0    0  0.00000000000E+00  0.00000000000E+00  0.74505805969E-08  0.10566000000E+00  0.10566000000E+00 0.  1.
     999900   -1    0    0    0    0 -0.00000000000E+00 -0.00000000000E+00 -0.74505805969E-08  0.93827000000E+00  0.93827000000E+00 0. -1.
     999902    2    1    2    0    0  0.67584279119E-02 -0.19389322806E-01  0.10348241175E-01  0.10209363426E+01  0.10206773767E+01 0.  0.
     999903    2    3    3    0    0 -0.15401542238E-01 -0.12641719736E+00  0.35747160626E-01  0.13381113420E+00  0.20224857271E-01 0.  0.
         14    1    1    2    0    0 -0.67584279119E-02  0.19389322806E-01 -0.10348241175E-01  0.22993657433E-01  0.00000000000E+00 0. -1.
     999901    1    3    3    0    0  0.22159970150E-01  0.10702787456E+00 -0.25398919451E-01  0.88712520837E+00  0.88000000000E+00 0.  1.
        -11    1    4    4    0    0 -0.14724926495E-01 -0.41843265688E-01  0.13016627143E-01  0.46231764480E-01  0.51100000000E-03 0. -1.
         11    1    4    4    0    0 -0.67661574275E-03 -0.84573931673E-01  0.22730533484E-01  0.87579369722E-01  0.51100000000E-03 0.  1.
</event>
<event>
 8    1  0.1071333E+005  0.1043930E+01  0.7957747E-01            NaN
         13   -1    0    0    0    0  0.00000000000E+00  0.00000000000E+00  0.74505805969E-08  0.10566000000E+00  0.10566000000E+00 0.  1.
     999900   -1    0    0    0    0 -0.00000000000E+00 -0.00000000000E+00 -0.74505805969E-08  0.93827000000E+00  0.93827000000E+00 0. -1.
     999902    2    1    2    0    0  0.15186945564E-01 -0.13176585035E-02 -0.17352966609E-01  0.10208322731E+01  0.10205709308E+01 0.  0.
     999903    2    3    3    0    0 -0.58227787071E-01 -0.80641170313E-01  0.79650230284E-01  0.12892893598E+00  0.19622380386E-01 0.  0.
         14    1    1    2    0    0 -0.15186945564E-01  0.13176585035E-02  0.17352966609E-01  0.23097726937E-01  0.00000000000E+00 0.  1.
     999901    1    3    3    0    0  0.73414732635E-01  0.79323511809E-01 -0.97003196893E-01  0.89190333708E+00  0.88000000000E+00 0. -1.
        -11    1    4    4    0    0 -0.48566752730E-03 -0.52465920043E-02  0.94518801632E-02  0.10833363292E-01  0.51100000000E-03 0.  1.
         11    1    4    4    0    0 -0.57742119543E-01 -0.75394578308E-01  0.70198350121E-01  0.11809557269E+00  0.51100000000E-03 0. -1.
</event>
<event>
 8    1  0.1071333E+005  0.1043930E+01  0.7957747E-01            NaN
         13   -1    0    0    0    0  0.00000000000E+00  0.00000000000E+00  0.74505805969E-08  0.10566000000E+00  0.10566000000E+00 0.  1.
     999900   -1    0    0    0    0 -0.00000000000E+00 -0.00000000000E+00 -0.74505805969E-08  0.93827000000E+00  0.93827000000E+00 0. -1.
     999902    2    1    2    0    0 -0.16008777243E-01 -0.17805955612E-01  0.40995187736E-02  0.10196372221E+01  0.10193477942E+01 0.  0.
     999903    2    3    3    0    0 -0.61600097785E-01 -0.11012630736E+00 -0.39423941103E-01  0.13256568754E+00  0.98508254022E-02 0.  0.
         14    1    1    2    0    0  0.16008777243E-01  0.17805955612E-01 -0.40995187736E-02  0.24292777903E-01  0.00000000000E+00 0.  1.
     999901    1    3    3    0    0  0.45591320542E-01  0.92320351751E-01  0.43523459877E-01  0.88707153455E+00  0.88000000000E+00 0.  1.
        -11    1    4    4    0    0 -0.40999571033E-01 -0.82227901763E-01 -0.28532132496E-01  0.96211934598E-01  0.51100000000E-03 0.  1.
         11    1    4    4    0    0 -0.20600526752E-01 -0.27898405600E-01 -0.10891808607E-01  0.36353752945E-01  0.51100000000E-03 0. -1.
</event>
<event>
 8    1  0.1071333E+005  0.1043930E+01  0.7957747E-01            NaN
         13   -1    0    0    0    0  0.00000000000E+00  0.00000000000E+00  0.74505805969E-08  0.10566000000E+00  0.10566000000E+00 0. -1.
     999900   -1    0    0    0    0 -0.00000000000E+00 -0.00000000000E+00 -0.74505805969E-08  0.93827000000E+00  0.93827000000E+00 0.  1.
     999902    2    1    2    0    0  0.23562181629E-01  0.10008194586E-01  0.27886180278E-02  0.10181789466E+01  0.10178532559E+01 0.  0.
     999903    2    3    3    0    0  0.91539339742E-01 -0.18980612977E-01 -0.88808671837E-01  0.13034376564E+00  0.19047379331E-01 0.  0.
         14    1    1    2    0    0 -0.23562181629E-01 -0.10008194586E-01 -0.27886180278E-02  0.25751053425E-01  0.00000000000E+00 0.  1.
     999901    1    3    3    0    0 -0.67977158113E-01  0.28988807563E-01  0.91597289865E-01  0.88783518093E+00  0.88000000000E+00 0. -1.
        -11    1    4    4    0    0  0.31487651319E-01 -0.22170711719E-02 -0.19450991299E-01  0.37080854544E-01  0.51100000000E-03 0.  1.
         11    1    4    4    0    0  0.60051688423E-01 -0.16763541805E-01 -0.69357680538E-01  0.93262911100E-01  0.51100000000E-03 0. -1.
</event>
<event>
 8    1  0.1071333E+005  0.1043930E+01  0.7957747E-01            NaN
         13   -1    0    0    0    0  0.00000000000E+00  0.00000000000E+00  0.74505805969E-08  0.10566000000E+00  0.10566000000E+00 0.  1.
     999900   -1    0    0    0    0 -0.00000000000E+00 -0.00000000000E+00 -0.74505805969E-08  0.93827000000E+00  0.93827000000E+00 0.  1.
     999902    2    1    2    0    0  0.41580209554E-02  0.23236540923E-01  0.30833800969E-02  0.10201238410E+01  0.10198460265E+01 0.  0.
     999903    2    3    3    0    0  0.11485886293E+00 -0.50851009742E-01  0.25902669537E-01  0.12980684043E+00  0.20012095041E-01 0.  0.
         14    1    1    2    0    0 -0.41580209554E-02 -0.23236540923E-01 -0.30833800969E-02  0.23806158975E-01  0.00000000000E+00 0.  1.
     999901    1    3    3    0    0 -0.11070084197E+00  0.74087550665E-01 -0.22819289440E-01  0.89031700059E+00  0.88000000000E+00 0.  1.
        -11    1    4    4    0    0  0.74556889550E-01 -0.24631799727E-01  0.99670868866E-02  0.79152127446E-01  0.51100000000E-03 0.  1.
         11    1    4    4    0    0  0.40301973380E-01 -0.26219210015E-01  0.15935582650E-01  0.50654712984E-01  0.51100000000E-03 0. -1.
</event>
<event>
 8    1  0.1071333E+005  0.1043930E+01  0.7957747E-01            NaN
         13   -1    0    0    0    0  0.00000000000E+00  0.00000000000E+00  0.74505805969E-08  0.10566000000E+00  0.10566000000E+00 0.  1.
     999900   -1    0    0    0    0 -0.00000000000E+00 -0.00000000000E+00 -0.74505805969E-08  0.93827000000E+00  0.93827000000E+00 0.  1.
     999902    2    1    2    0    0  0.21698020605E-01 -0.93019130842E-02  0.30888143444E-02  0.10201209585E+01  0.10198430759E+01 0.  0.
     999903    2    3    3    0    0  0.97613741476E-01 -0.75917289514E-01  0.45731974075E-01  0.13331813701E+00  0.19759423855E-01 0.  0.
         14    1    1    2    0    0 -0.21698020605E-01  0.93019130842E-02 -0.30888143444E-02  0.23809041544E-01  0.00000000000E+00 0.  1.
     999901    1    3    3    0    0 -0.75915720871E-01  0.66615376429E-01 -0.42643159731E-01  0.88680282145E+00  0.88000000000E+00 0.  1.
        -11    1    4    4    0    0  0.67367514083E-01 -0.40945933947E-01  0.25631013823E-01  0.82898500898E-01  0.51100000000E-03 0.  1.
         11    1    4    4    0    0  0.30246227393E-01 -0.34971355566E-01  0.20100960252E-01  0.50419636113E-01  0.51100000000E-03 0. -1.
</event>
<event>
 8    1  0.1071333E+005  0.1043930E+01  0.7957747E-01            NaN
         13   -1    0    0    0    0  0.00000000000E+00  0.00000000000E+00  0.74505805969E-08  0.10566000000E+00  0.10566000000E+00 0. -1.
     999900   -1    0    0    0    0 -0.00000000000E+00 -0.00000000000E+00 -0.74505805969E-08  0.93827000000E+00  0.93827000000E+00 0. -1.
     999902    2    1    2    0    0 -0.71790276857E-02  0.13711603781E-01  0.17671969631E-01  0.10204386180E+01  0.10201681862E+01 0.  0.
     999903    2    3    3    0    0 -0.99008544772E-01  0.85423496717E-01 -0.50608325856E-02  0.13246787746E+00  0.20548985432E-01 0.  0.
         14    1    1    2    0    0  0.71790276857E-02 -0.13711603781E-01 -0.17671969631E-01  0.23491381981E-01  0.00000000000E+00 0.  1.
     999901    1    3    3    0    0  0.91829517087E-01 -0.71711892935E-01  0.22732802216E-01  0.88797074056E+00  0.88000000000E+00 0.  1.
        -11    1    4    4    0    0 -0.57457238818E-01  0.36418644910E-01 -0.14855912682E-03  0.68028928997E-01  0.51100000000E-03 0.  1.
         11    1    4    4    0    0 -0.41551305955E-01  0.49004851807E-01 -0.49122734588E-02  0.64438948460E-01  0.51100000000E-03 0. -1.
</event>
<event>
 8    1  0.1071333E+005  0.1043930E+01  0.7957747E-01            NaN
         13   -1    0    0    0    0  0.00000000000E+00  0.00000000000E+00  0.74505805969E-08  0.10566000000E+00  0.10566000000E+00 0.  1.
     999900   -1    0    0    0    0 -0.00000000000E+00 -0.00000000000E+00 -0.74505805969E-08  0.93827000000E+00  0.93827000000E+00 0. -1.
     999902    2    1    2    0    0 -0.82337113123E-02  0.16442462234E-01  0.14962728396E-01  0.10202227900E+01  0.10199473072E+01 0.  0.
     999903    2    3    3    0    0 -0.48211782696E-01  0.38631140998E-01 -0.11254923794E+00  0.12985776078E+00  0.19467049804E-01 0.  0.
         14    1    1    2    0    0  0.82337113123E-02 -0.16442462234E-01 -0.14962728396E-01  0.23707210029E-01  0.00000000000E+00 0. -1.
     999901    1    3    3    0    0  0.39978071384E-01 -0.22188678765E-01  0.12751196633E+00  0.89036502920E+00  0.88000000000E+00 0.  1.
        -11    1    4    4    0    0 -0.29102142074E-01  0.15527788566E-01 -0.73986621472E-01  0.81008198159E-01  0.51100000000E-03 0.  1.
         11    1    4    4    0    0 -0.19109640622E-01  0.23103352432E-01 -0.38562616464E-01  0.48849562617E-01  0.51100000000E-03 0. -1.
</event>
<event>
 8    1  0.1071333E+005  0.1043930E+01  0.7957747E-01            NaN
         13   -1    0    0    0    0  0.00000000000E+00  0.00000000000E+00  0.74505805969E-08  0.10566000000E+00  0.10566000000E+00 0.  1.
     999900   -1    0    0    0    0 -0.00000000000E+00 -0.00000000000E+00 -0.74505805969E-08  0.93827000000E+00  0.93827000000E+00 0.  1.
     999902    2    1    2    0    0  0.50616401646E-02 -0.12107476140E-01 -0.19412649789E-01  0.10204979247E+01  0.10202288725E+01 0.  0.
     999903    2    3    3    0    0 -0.87640394739E-01  0.39728055730E-01 -0.88070334346E-01  0.13145660551E+00  0.16287975231E-01 0.  0.
         14    1    1    2    0    0 -0.50616401646E-02  0.12107476140E-01  0.19412649789E-01  0.23432075270E-01  0.00000000000E+00 0.  1.
     999901    1    3    3    0    0  0.92702034904E-01 -0.51835531869E-01  0.68657684556E-01  0.88904131922E+00  0.88000000000E+00 0. -1.
        -11    1    4    4    0    0 -0.18826101004E-01  0.14984943533E-01 -0.27106431742E-01  0.36249005152E-01  0.51100000000E-03 0. -1.
         11    1    4    4    0    0 -0.68814293735E-01  0.24743112196E-01 -0.60963902603E-01  0.95207600353E-01  0.51100000000E-03 0.  1.
</event>
<event>
 8    1  0.1381348E+005  0.1043930E+01  0.7957747E-01            NaN
         13   -1    0    0    0    0  0.00000000000E+00  0.00000000000E+00  0.74505805969E-08  0.10566000000E+00  0.10566000000E+00 0. -1.
     999900   -1    0    0    0    0 -0.00000000000E+00 -0.00000000000E+00 -0.74505805969E-08  0.93827000000E+00  0.93827000000E+00 0. -1.
     999902    2    1    2    0    0 -0.18400695532E-01 -0.11898827857E-01  0.87918606494E-02  0.10203193136E+01  0.10200460956E+01 0.  0.
     999903    2    3    3    0    0  0.10226733153E+00 -0.36351357168E-01  0.68190167425E-01  0.12976507165E+00  0.20224900954E-01 0.  0.
         14    1    1    2    0    0  0.18400695532E-01  0.11898827857E-01 -0.87918606494E-02  0.23610686439E-01  0.00000000000E+00 0.  1.
     999901    1    3    3    0    0 -0.12066802707E+00  0.24452529311E-01 -0.59398306776E-01  0.89055424192E+00  0.88000000000E+00 0. -1.
        -11    1    4    4    0    0  0.65200926377E-01 -0.22358907168E-01  0.54401648947E-01  0.87811628269E-01  0.51100000000E-03 0. -1.
         11    1    4    4    0    0  0.37066405158E-01 -0.13992450000E-01  0.13788518478E-01  0.41953443376E-01  0.51100000000E-03 0.  1.
</event>
<event>
 8    1  0.1071333E+005  0.1043930E+01  0.7957747E-01            NaN
         13   -1    0    0    0    0  0.00000000000E+00  0.00000000000E+00  0.74505805969E-08  0.10566000000E+00  0.10566000000E+00 0. -1.
     999900   -1    0    0    0    0 -0.00000000000E+00 -0.00000000000E+00 -0.74505805969E-08  0.93827000000E+00  0.93827000000E+00 0. -1.
     999902    2    1    2    0    0 -0.19226530941E-01  0.83969441882E-02  0.99467565540E-02  0.10207113409E+01  0.10204472232E+01 0.  0.
     999903    2    3    3    0    0  0.11134993898E+00  0.46824115740E-01 -0.39811144867E-01  0.12885781552E+00  0.20690641324E-01 0.  0.
         14    1    1    2    0    0  0.19226530941E-01 -0.83969441882E-02 -0.99467565540E-02  0.23218659084E-01  0.00000000000E+00 0. -1.
     999901    1    3    3    0    0 -0.13057646992E+00 -0.38427171552E-01  0.49757901421E-01  0.89185352540E+00  0.88000000000E+00 0.  1.
        -11    1    4    4    0    0  0.11079795016E+00  0.43578866174E-01 -0.37591007779E-01  0.12485450862E+00  0.51100000000E-03 0.  1.
         11    1    4    4    0    0  0.55198882193E-03  0.32452495663E-02 -0.22201370886E-02  0.40033068955E-02  0.51100000000E-03 0. -1.
</event>
<event>
 8    1  0.1071333E+005  0.1043930E+01  0.7957747E-01            NaN
         13   -1    0    0    0    0  0.00000000000E+00  0.00000000000E+00  0.74505805969E-08  0.10566000000E+00  0.10566000000E+00 0. -1.
     999900   -1    0    0    0    0 -0.00000000000E+00 -0.00000000000E+00 -0.74505805969E-08  0.93827000000E+00  0.93827000000E+00 0.  1.
     999902    2    1    2    0    0  0.58590064135E-02  0.19180029688E-01 -0.12529359541E-01  0.10202828787E+01  0.10200088069E+01 0.  0.
     999903    2    3    3    0    0 -0.34182069861E-01 -0.12054023850E+00  0.19374272147E-01  0.12779036734E+00  0.16020379725E-01 0.  0.
         14    1    1    2    0    0 -0.58590064135E-02 -0.19180029688E-01  0.12529359541E-01  0.23647121294E-01  0.00000000000E+00 0. -1.
     999901    1    3    3    0    0  0.40041076274E-01  0.13972026819E+00 -0.31903631688E-01  0.89249251137E+00  0.88000000000E+00 0.  1.
        -11    1    4    4    0    0 -0.19025112142E-01 -0.92120565300E-01  0.13132543499E-01  0.94978304169E-01  0.51100000000E-03 0. -1.
         11    1    4    4    0    0 -0.15156957719E-01 -0.28419673198E-01  0.62417286481E-02  0.32812063170E-01  0.51100000000E-03 0.  1.
</event>
<event>
 8    1  0.1071333E+005  0.1043930E+01  0.7957747E-01            NaN
         13   -1    0    0    0    0  0.00000000000E+00  0.00000000000E+00  0.74505805969E-08  0.10566000000E+00  0.10566000000E+00 0. -1.
     999900   -1    0    0    0    0 -0.00000000000E+00 -0.00000000000E+00 -0.74505805969E-08  0.93827000000E+00  0.93827000000E+00 0.  1.
     999902    2    1    2    0    0 -0.14739280778E-01  0.17275604251E-01  0.30393199738E-02  0.10210186411E+01  0.10207615467E+01 0.  0.
     999903    2    3    3    0    0 -0.45388478234E-01  0.31471901269E-01 -0.11821154317E+00  0.13206269172E+00  0.20395859373E-01 0.  0.
         14    1    1    2    0    0  0.14739280778E-01 -0.17275604251E-01 -0.30393199738E-02  0.22911358885E-01  0.00000000000E+00 0.  1.
     999901    1    3    3    0    0  0.30649197457E-01 -0.14196297018E-01  0.12125086314E+00  0.88895594940E+00  0.88000000000E+00 0. -1.
        -11    1    4    4    0    0 -0.28464069544E-01  0.12052633056E-01 -0.81889896034E-01  0.87531053987E-01  0.51100000000E-03 0. -1.
         11    1    4    4    0    0 -0.16924408690E-01  0.19419268213E-01 -0.36321647136E-01  0.44531637732E-01  0.51100000000E-03 0.  1.
</event>
<event>
 8    1  0.1071333E+005  0.1043930E+01  0.7957747E-01            NaN
         13   -1    0    0    0    0  0.00000000000E+00  0.00000000000E+00  0.74505805969E-08  0.10566000000E+00  0.10566000000E+00 0. -1.
     999900   -1    0    0    0    0 -0.00000000000E+00 -0.00000000000E+00 -0.74505805969E-08  0.93827000000E+00  0.93827000000E+00 0.  1.
     999902    2    1    2    0    0  0.12615823673E-01  0.20127518961E-01  0.72349559650E-02  0.10190981532E+01  0.10187955758E+01 0.  0.
     999903    2    3    3    0    0  0.32102591649E-01 -0.86487809700E-01 -0.85687893061E-01  0.12759312334E+00  0.20660892771E-01 0.  0.
         14    1    1    2    0    0 -0.12615823673E-01 -0.20127518961E-01 -0.72349559650E-02  0.24831846776E-01  0.00000000000E+00 0. -1.
     999901    1    3    3    0    0 -0.19486767975E-01  0.10661532866E+00  0.92922849026E-01  0.89150502988E+00  0.88000000000E+00 0.  1.
        -11    1    4    4    0    0  0.28730351721E-02 -0.46060083105E-02 -0.13595434444E-01  0.14648092107E-01  0.51100000000E-03 0.  1.
         11    1    4    4    0    0  0.29229556477E-01 -0.81881801389E-01 -0.72092458617E-01  0.11294503124E+00  0.51100000000E-03 0. -1.
</event>
<event>
 8    1  0.1071333E+005  0.1043930E+01  0.7957747E-01            NaN
         13   -1    0    0    0    0  0.00000000000E+00  0.00000000000E+00  0.74505805969E-08  0.10566000000E+00  0.10566000000E+00 0. -1.
     999900   -1    0    0    0    0 -0.00000000000E+00 -0.00000000000E+00 -0.74505805969E-08  0.93827000000E+00  0.93827000000E+00 0.  1.
     999902    2    1    2    0    0 -0.18356518363E-01  0.74829145533E-02  0.13492396967E-01  0.10199508309E+01  0.10196689153E+01 0.  0.
     999903    2    3    3    0    0 -0.73709604977E-01  0.10799263149E+00  0.42079353716E-02  0.13245301756E+00  0.20750441361E-01 0.  0.
         14    1    1    2    0    0  0.18356518363E-01 -0.74829145533E-02 -0.13492396967E-01  0.23979169137E-01  0.00000000000E+00 0.  1.
     999901    1    3    3    0    0  0.55353086615E-01 -0.10050971694E+00  0.92844615951E-02  0.88749781331E+00  0.88000000000E+00 0.  1.
        -11    1    4    4    0    0 -0.20786728371E-01  0.20988530572E-01 -0.58583654343E-02  0.30119562721E-01  0.51100000000E-03 0.  1.
         11    1    4    4    0    0 -0.52922876606E-01  0.87004100922E-01  0.10066300806E-01  0.10233345483E+00  0.51100000000E-03 0. -1.
</event>
<event>
 8    1  0.1071333E+005  0.1043930E+01  0.7957747E-01            NaN
         13   -1    0    0    0    0  0.00000000000E+00  0.00000000000E+00  0.74505805969E-08  0.10566000000E+00  0.10566000000E+00 0. -1.
     999900   -1    0    0    0    0 -0.00000000000E+00 -0.00000000000E+00 -0.74505805969E-08  0.93827000000E+00  0.93827000000E+00 0.  1.
     999902    2    1    2    0    0  0.85683865887E-02  0.22226903521E-01  0.45602988366E-02  0.10196761588E+01  0.10193876691E+01 0.  0.
     999903    2    3    3    0    0 -0.53760264457E-01  0.90758133158E-01 -0.75404716753E-01  0.13120792980E+00  0.20061026013E-01 0.  0.
         14    1    1    2    0    0 -0.85683865887E-02 -0.22226903521E-01 -0.45602988366E-02  0.24253841228E-01  0.00000000000E+00 0. -1.
     999901    1    3    3    0    0  0.62328651046E-01 -0.68531229637E-01  0.79965015589E-01  0.88846822897E+00  0.88000000000E+00 0. -1.
        -11    1    4    4    0    0 -0.24652457959E-01  0.55125351949E-01 -0.51441587854E-01  0.79328722370E-01  0.51100000000E-03 0.  1.
         11    1    4    4    0    0 -0.29107806498E-01  0.35632781209E-01 -0.23963128898E-01  0.51879207428E-01  0.51100000000E-03 0. -1.
</event>
<event>
 8    1  0.1071333E+005  0.1043930E+01  0.7957747E-01            NaN
         13   -1    0    0    0    0  0.00000000000E+00  0.00000000000E+00  0.74505805969E-08  0.10566000000E+00  0.10566000000E+00 0. -1.
     999900   -1    0    0    0    0 -0.00000000000E+00 -0.00000000000E+00 -0.74505805969E-08  0.93827000000E+00  0.93827000000E+00 0. -1.
     999902    2    1    2    0    0 -0.48830657503E-02  0.19069242989E-01  0.13635718536E-01  0.10199839527E+01  0.10197028247E+01 0.  0.
     999903    2    3    3    0    0 -0.11755176709E+00 -0.41345707845E-01  0.31535649849E-01  0.13056582268E+00  0.22913998701E-01 0.  0.
         14    1    1    2    0    0  0.48830657503E-02 -0.19069242989E-01 -0.13635718536E-01  0.23946047258E-01  0.00000000000E+00 0.  1.
     999901    1    3    3    0    0  0.11266870134E+00  0.60414950834E-01 -0.17899931313E-01  0.88941813006E+00  0.88000000000E+00 0.  1.
        -11    1    4    4    0    0 -0.72519332779E-01 -0.31279674847E-01  0.29711877691E-01  0.84383223938E-01  0.51100000000E-03 0. -1.
         11    1    4    4    0    0 -0.45032434312E-01 -0.10066032997E-01  0.18237721578E-02  0.46182598739E-01  0.51100000000E-03 0.  1.
</event>
<event>
 8    1  0.1071333E+005  0.1043930E+01  0.7957747E-01            NaN
         13   -1    0    0    0    0  0.00000000000E+00  0.00000000000E+00  0.74505805969E-08  0.10566000000E+00  0.10566000000E+00 0.  1.
     999900   -1    0    0    0    0 -0.00000000000E+00 -0.00000000000E+00 -0.74505805969E-08  0.93827000000E+00  0.93827000000E+00 0.  1.
     999902    2    1    2    0    0  0.27476746714E-03 -0.12771395008E-01  0.20077880738E-01  0.10201328295E+01  0.10198552273E+01 0.  0.
     999903    2    3    3    0    0 -0.12459423921E+00 -0.19264821449E-02 -0.28241791303E-01  0.12993921482E+00  0.23646669823E-01 0.  0.
         14    1    1    2    0    0 -0.27476746714E-03  0.12771395008E-01 -0.20077880738E-01  0.23797170474E-01  0.00000000000E+00 0. -1.
     999901    1    3    3    0    0  0.12486900668E+00 -0.10844912863E-01  0.48319672041E-01  0.89019361471E+00  0.88000000000E+00 0. -1.
        -11    1    4    4    0    0 -0.69557603147E-01  0.54656923816E-02 -0.57033225422E-02  0.70006592245E-01  0.51100000000E-03 0. -1.
         11    1    4    4    0    0 -0.55036636062E-01 -0.73921745265E-02 -0.22538468761E-01  0.59932622572E-01  0.51100000000E-03 0.  1.
</event>
<event>
 8    1  0.1071333E+005  0.1043930E+01  0.7957747E-01            NaN
         13   -1    0    0    0    0  0.00000000000E+00  0.00000000000E+00  0.74505805969E-08  0.10566000000E+00  0.10566000000E+00 0. -1.
     999900   -1    0    0    0    0 -0.00000000000E+00 -0.00000000000E+00 -0.74505805969E-08  0.93827000000E+00  0.93827000000E+00 0. -1.
     999902    2    1    2    0    0  0.15727659814E-01 -0.17494421757E-01 -0.14345792623E-02  0.10203615445E+01  0.10200893144E+01 0.  0.
     999903    2    3    3    0    0 -0.76916229111E-01 -0.10381718677E+00  0.28467857123E-02  0.13128739689E+00  0.23111941139E-01 0.  0.
         14    1    1    2    0    0 -0.15727659814E-01  0.17494421757E-01  0.14345792623E-02  0.23568455476E-01  0.00000000000E+00 0.  1.
     999901    1    3    3    0    0  0.92643888925E-01  0.86322765010E-01 -0.42813649746E-02  0.88907414764E+00  0.88000000000E+00 0.  1.
        -11    1    4    4    0    0 -0.15466393168E-02 -0.11326647704E-01 -0.30079654139E-02  0.11831906791E-01  0.51100000000E-03 0. -1.
         11    1    4    4    0    0 -0.75369589794E-01 -0.92490539063E-01  0.58547511262E-02  0.11945549009E+00  0.51100000000E-03 0.  1.
</event>
<event>
 8    1  0.1071333E+005  0.1043930E+01  0.7957747E-01            NaN
         13   -1    0    0    0    0  0.00000000000E+00  0.00000000000E+00  0.74505805969E-08  0.10566000000E+00  0.10566000000E+00 0.  1.
     999900   -1    0    0    0    0 -0.00000000000E+00 -0.00000000000E+00 -0.74505805969E-08  0.93827000000E+00  0.93827000000E+00 0. -1.
     999902    2    1    2    0    0 -0.23046924740E-01 -0.38397917603E-02 -0.14135657456E-02  0.10205226740E+01  0.10202541964E+01 0.  0.
     999903    2    3    3    0    0 -0.62657678602E-01  0.11176406143E+00 -0.23651243896E-01  0.13180012058E+00  0.19867066482E-01 0.  0.
         14    1    1    2    0    0  0.23046924740E-01  0.38397917603E-02  0.14135657456E-02  0.23407325965E-01  0.00000000000E+00 0. -1.
     999901    1    3    3    0    0  0.39610753862E-01 -0.11560385319E+00  0.22237678151E-01  0.88872255346E+00  0.88000000000E+00 0.  1.
        -11    1    4    4    0    0 -0.19863299178E-01  0.50402172240E-01 -0.33438269517E-02  0.54280493001E-01  0.51100000000E-03 0.  1.
         11    1    4    4    0    0 -0.42794379424E-01  0.61361889193E-01 -0.20307416944E-01  0.77519627576E-01  0.51100000000E-03 0. -1.
</event>
<event>
 8    1  0.1071333E+005  0.1043930E+01  0.7957747E-01            NaN
         13   -1    0    0    0    0  0.00000000000E+00  0.00000000000E+00  0.74505805969E-08  0.10566000000E+00  0.10566000000E+00 0.  1.
     999900   -1    0    0    0    0 -0.00000000000E+00 -0.00000000000E+00 -0.74505805969E-08  0.93827000000E+00  0.93827000000E+00 0.  1.
     999902    2    1    2    0    0 -0.40733569648E-02 -0.17681206783E-01  0.15095624977E-01  0.10203271357E+01  0.10200541008E+01 0.  0.
     999903    2    3    3    0    0 -0.52299898943E-02  0.71537544716E-01  0.10768323321E+00  0.13098255195E+00  0.20390613148E-01 0.  0.
         14    1    1    2    0    0  0.40733569648E-02  0.17681206783E-01 -0.15095624977E-01  0.23602864312E-01  0.00000000000E+00 0.  1.
     999901    1    3    3    0    0  0.11566329295E-02 -0.89218751499E-01 -0.92587608229E-01  0.88934458373E+00  0.88000000000E+00 0.  1.
        -11    1    4    4    0    0  0.16258207367E-02  0.42151591887E-01  0.46652343536E-01  0.62897553768E-01  0.51100000000E-03 0.  1.
         11    1    4    4    0    0 -0.68558106310E-02  0.29385952829E-01  0.61030889670E-01  0.68084998186E-01  0.51100000000E-03 0. -1.
</event>
<event>
 8    1  0.1071333E+005  0.1043930E+01  0.7957747E-01            NaN
         13   -1    0    0    0    0  0.00000000000E+00  0.00000000000E+00  0.74505805969E-08  0.10566000000E+00  0.10566000000E+00 0. -1.
     999900   -1    0    0    0    0 -0.00000000000E+00 -0.00000000000E+00 -0.74505805969E-08  0.93827000000E+00  0.93827000000E+00 0.  1.
     999902    2    1    2    0    0  0.21307505640E-01  0.10153186730E-01  0.71654004170E-02  0.10192634242E+01  0.10189649101E+01 0.  0.
     999903    2    3    3    0    0 -0.79829154841E-01  0.33683186632E-01  0.93130237139E-01  0.12899816143E+00  0.21448392897E-01 0.  0.
         14    1    1    2    0    0 -0.21307505640E-01 -0.10153186730E-01 -0.71654004170E-02  0.24666575776E-01  0.00000000000E+00 0. -1.
     999901    1    3    3    0    0  0.10113666048E+00 -0.23529999902E-01 -0.85964836722E-01  0.89026526280E+00  0.88000000000E+00 0.  1.
        -11    1    4    4    0    0 -0.52962506880E-01  0.22233832291E-01  0.46180175919E-01  0.73703732621E-01  0.51100000000E-03 0. -1.
         11    1    4    4    0    0 -0.26866647961E-01  0.11449354341E-01  0.46950061221E-01  0.55294428807E-01  0.51100000000E-03 0.  1.
</event>
<event>
 8    1  0.1071333E+005  0.1043930E+01  0.7957747E-01            NaN
         13   -1    0    0    0    0  0.00000000000E+00  0.00000000000E+00  0.74505805969E-08  0.10566000000E+00  0.10566000000E+00 0. -1.
     999900   -1    0    0    0    0 -0.00000000000E+00 -0.00000000000E+00 -0.74505805969E-08  0.93827000000E+00  0.93827000000E+00 0.  1.
     999902    2    1    2    0    0 -0.17866952689E-01  0.11381871210E-01  0.60499926228E-02  0.10218987177E+01  0.10216612020E+01 0.  0.
     999903    2    3    3    0    0  0.11354359148E+00 -0.13943699875E-01  0.60209548533E-01  0.13013452621E+00  0.14940925125E-01 0.  0.
         14    1    1    2    0    0  0.17866952689E-01 -0.11381871210E-01 -0.60499926228E-02  0.22031282336E-01  0.00000000000E+00 0.  1.
     999901    1    3    3    0    0 -0.13141054417E+00  0.25325571085E-01 -0.54159555910E-01  0.89176419146E+00  0.88000000000E+00 0.  1.
        -11    1    4    4    0    0  0.46910197078E-02 -0.25638762620E-02  0.58162693862E-02  0.79163904628E-02  0.51100000000E-03 0. -1.
         11    1    4    4    0    0  0.10885257177E+00 -0.11379823613E-01  0.54393279146E-01  0.12221813574E+00  0.51100000000E-03 0.  1.
</event>
<event>
 8    1  0.1071333E+005  0.1043930E+01  0.7957747E-01            NaN
         13   -1    0    0    0    0  0.00000000000E+00  0.00000000000E+00  0.74505805969E-08  0.10566000000E+00  0.10566000000E+00 0.  1.
     999900   -1    0    0    0    0 -0.00000000000E+00 -0.00000000000E+00 -0.74505805969E-08  0.93827000000E+00  0.93827000000E+00 0. -1.
     999902    2    1    2    0    0 -0.11435687238E-01  0.22369065574E-01  0.71978828951E-06  0.10188073003E+01  0.10184975038E+01 0.  0.
     999903    2    3    3    0    0  0.12249309612E+00  0.48065603284E-02  0.30379834777E-01  0.12798282200E+00  0.20712478012E-01 0.  0.
         14    1    1    2    0    0  0.11435687238E-01 -0.22369065574E-01 -0.71978828951E-06  0.25122699651E-01  0.00000000000E+00 0.  1.
     999901    1    3    3    0    0 -0.13392878336E+00  0.17562505245E-01 -0.30379114988E-01  0.89082447835E+00  0.88000000000E+00 0. -1.
        -11    1    4    4    0    0  0.40138837767E-01  0.10847344006E-01  0.70680866099E-02  0.42178313606E-01  0.51100000000E-03 0. -1.
         11    1    4    4    0    0  0.82354258355E-01 -0.60407836781E-02  0.23311748167E-01  0.85804508391E-01  0.51100000000E-03 0.  1.
</event>
<event>
 8    1  0.1071333E+005  0.1043930E+01  0.7957747E-01            NaN
         13   -1    0    0    0    0  0.00000000000E+00  0.00000000000E+00  0.74505805969E-08  0.10566000000E+00  0.10566000000E+00 0.  1.
     999900   -1    0    0    0    0 -0.00000000000E+00 -0.00000000000E+00 -0.74505805969E-08  0.93827000000E+00  0.93827000000E+00 0. -1.
     999902    2    1    2    0    0 -0.10820011390E-01  0.71097721629E-02 -0.19326789878E-01  0.10206674483E+01  0.10204023195E+01 0.  0.
     999903    2    3    3    0    0 -0.51165610643E-01  0.10479353232E+00  0.55988966533E-01  0.13114940597E+00  0.21582358184E-01 0.  0.
         14    1    1    2    0    0  0.10820011390E-01 -0.71097721629E-02  0.19326789878E-01  0.23262551745E-01  0.00000000000E+00 0.  1.
     999901    1    3    3    0    0  0.40345599254E-01 -0.97683760160E-01 -0.75315756412E-01  0.88951804228E+00  0.88000000000E+00 0.  1.
        -11    1    4    4    0    0 -0.36135493631E-01  0.50685121572E-01  0.33121080492E-01  0.70512570104E-01  0.51100000000E-03 0.  1.
         11    1    4    4    0    0 -0.15030117012E-01  0.54108410751E-01  0.22867886042E-01  0.60636835871E-01  0.51100000000E-03 0. -1.
</event>
<event>
 8    1  0.1071333E+005  0.1043930E+01  0.7957747E-01            NaN
         13   -1    0    0    0    0  0.00000000000E+00  0.00000000000E+00  0.74505805969E-08  0.10566000000E+00  0.10566000000E+00 0.  1.
     999900   -1    0    0    0    0 -0.00000000000E+00 -0.00000000000E+00 -0.74505805969E-08  0.93827000000E+00  0.93827000000E+00 0. -1.
     999902    2    1    2    0    0  0.12352384144E-02 -0.95483024123E-02 -0.19704156048E-01  0.10219994355E+01  0.10217641100E+01 0.  0.
     999903    2    3    3    0    0  0.11856096195E+00  0.46274996229E-01  0.25222016228E-01  0.13132557432E+00  0.20302201633E-01 0.  0.
         14    1    1    2    0    0 -0.12352384144E-02  0.95483024123E-02  0.19704156048E-01  0.21930564481E-01  0.00000000000E+00 0.  1.
     999901    1    3    3    0    0 -0.11732572354E+00 -0.55823298642E-01 -0.44926172276E-01  0.89067386120E+00  0.88000000000E+00 0. -1.
        -11    1    4    4    0    0  0.82103679517E-01  0.36514346235E-01  0.26094344572E-01  0.93570762585E-01  0.51100000000E-03 0.  1.
         11    1    4    4    0    0  0.36457282437E-01  0.97606499947E-02 -0.87232834403E-03  0.37754811730E-01  0.51100000000E-03 0. -1.
</event>
<event>
 8    1  0.1071333E+005  0.1043930E+01  0.7957747E-01            NaN
         13   -1    0    0    0    0  0.00000000000E+00  0.00000000000E+00  0.74505805969E-08  0.10566000000E+00  0.10566000000E+00 0.  1.
     999900   -1    0    0    0    0 -0.00000000000E+00 -0.00000000000E+00 -0.74505805969E-08  0.93827000000E+00  0.93827000000E+00 0.  1.
     999902    2    1    2    0    0  0.10768812452E-02  0.24081791046E-02  0.23937237415E-01  0.10198478420E+01  0.10195634705E+01 0.  0.
     999903    2    3    3    0    0  0.39701940035E-01  0.10250649655E+00 -0.64432884043E-01  0.12893771930E+00  0.19736084636E-01 0.  0.
         14    1    1    2    0    0 -0.10768812452E-02 -0.24081791046E-02 -0.23937237415E-01  0.24082158019E-01  0.00000000000E+00 0. -1.
     999901    1    3    3    0    0 -0.38625058790E-01 -0.10009831744E+00  0.88370121458E-01  0.89091012268E+00  0.88000000000E+00 0. -1.
        -11    1    4    4    0    0  0.12959117651E-01  0.18726160306E-01 -0.67334214698E-02  0.23753060767E-01  0.51100000000E-03 0. -1.
         11    1    4    4    0    0  0.26742822384E-01  0.83780336239E-01 -0.57699462574E-01  0.10518465854E+00  0.51100000000E-03 0.  1.
</event>
<event>
 8    1  0.1071333E+005  0.1043930E+01  0.7957747E-01            NaN
         13   -1    0    0    0    0  0.00000000000E+00  0.00000000000E+00  0.74505805969E-08  0.10566000000E+00  0.10566000000E+00 0.  1.
     999900   -1    0    0    0    0 -0.00000000000E+00 -0.00000000000E+00 -0.74505805969E-08  0.93827000000E+00  0.93827000000E+00 0. -1.
     999902    2    1    2    0    0 -0.77660984202E-02 -0.16029442884E-01 -0.15820369089E-01  0.10201069145E+01  0.10198287001E+01 0.  0.
     999903    2    3    3    0    0 -0.10541707014E+00  0.34326291083E-01  0.64199312695E-01  0.12967187382E+00  0.20054679615E-01 0.  0.
         14    1    1    2    0    0  0.77660984202E-02  0.16029442884E-01  0.15820369089E-01  0.23823085484E-01  0.00000000000E+00 0.  1.
     999901    1    3    3    0    0  0.97650971717E-01 -0.50355733967E-01 -0.80019681785E-01  0.89043504069E+00  0.88000000000E+00 0. -1.
        -11    1    4    4    0    0 -0.35615962705E-01  0.79033385724E-02  0.31436636032E-01  0.48161008773E-01  0.51100000000E-03 0.  1.
         11    1    4    4    0    0 -0.69801107432E-01  0.26422952510E-01  0.32762676663E-01  0.81510865051E-01  0.51100000000E-03 0. -1.
</event>
<event>
 8    1  0.1071333E+005  0.1043930E+01  0.7957747E-01            NaN
         13   -1    0    0    0    0  0.00000000000E+00  0.00000000000E+00  0.74505805969E-08  0.10566000000E+00  0.10566000000E+00 0. -1.
     999900   -1    0    0    0    0 -0.00000000000E+00 -0.00000000000E+00 -0.74505805969E-08  0.93827000000E+00  0.93827000000E+00 0. -1.
     999902    2    1    2    0    0  0.20391652936E-01  0.29702817745E-02 -0.86617234418E-02  0.10215767556E+01  0.10213321693E+01 0.  0.
     999903    2    3    3    0    0  0.85619174834E-01  0.98830796142E-01  0.16374521219E-01  0.13361803955E+00  0.22079089239E-01 0.  0.
         14    1    1    2    0    0 -0.20391652936E-01 -0.29702817745E-02  0.86617234418E-02  0.22353244423E-01  0.00000000000E+00 0.  1.
     999901    1    3    3    0    0 -0.65227521899E-01 -0.95860514367E-01 -0.25036244661E-01  0.88795871603E+00  0.88000000000E+00 0. -1.
        -11    1    4    4    0    0  0.40400235754E-01  0.59362075106E-01  0.17023160475E-02  0.71827529616E-01  0.51100000000E-03 0. -1.
         11    1    4    4    0    0  0.45218939081E-01  0.39468721036E-01  0.14672205172E-01  0.61790509930E-01  0.51100000000E-03 0.  1.
</event>
<event>
 8    1  0.1071333E+005  0.1043930E+01  0.7957747E-01            NaN
         13   -1    0    0    0    0  0.00000000000E+00  0.00000000000E+00  0.74505805969E-08  0.10566000000E+00  0.10566000000E+00 0. -1.
     999900   -1    0    0    0    0 -0.00000000000E+00 -0.00000000000E+00 -0.74505805969E-08  0.93827000000E+00  0.93827000000E+00 0.  1.
     999902    2    1    2    0    0  0.43102622132E-02 -0.23064276473E-01 -0.59095343396E-02  0.10197336820E+01  0.10194465755E+01 0.  0.
     999903    2    3    3    0    0 -0.98615996603E-01 -0.75021337545E-01 -0.39676451171E-01  0.13157065887E+00  0.19578090427E-01 0.  0.
         14    1    1    2    0    0 -0.43102622132E-02  0.23064276473E-01  0.59095343396E-02  0.24196318019E-01  0.00000000000E+00 0. -1.
     999901    1    3    3    0    0  0.10292625882E+00  0.51957061072E-01  0.33766916832E-01  0.88816302311E+00  0.88000000000E+00 0. -1.
        -11    1    4    4    0    0 -0.53254108835E-01 -0.38422331526E-01 -0.31077170072E-01  0.72652097619E-01  0.51100000000E-03 0.  1.
         11    1    4    4    0    0 -0.45361887768E-01 -0.36599006019E-01 -0.85992810994E-02  0.58918561251E-01  0.51100000000E-03 0. -1.
</event>
<event>
 8    1  0.1071333E+005  0.1043930E+01  0.7957747E-01            NaN
         13   -1    0    0    0    0  0.00000000000E+00  0.00000000000E+00  0.74505805969E-08  0.10566000000E+00  0.10566000000E+00 0. -1.
     999900   -1    0    0    0    0 -0.00000000000E+00 -0.00000000000E+00 -0.74505805969E-08  0.93827000000E+00  0.93827000000E+00 0. -1.
     999902    2    1    2    0    0  0.60318037082E-02 -0.10546084758E-01  0.20821296636E-01  0.10198233836E+01  0.10195384273E+01 0.  0.
     999903    2    3    3    0    0 -0.89807996788E-01  0.63209489529E-01 -0.62232177394E-01  0.12767819832E+00  0.19182350491E-01 0.  0.
         14    1    1    2    0    0 -0.60318037082E-02  0.10546084758E-01 -0.20821296636E-01  0.24106616381E-01  0.00000000000E+00 0.  1.
     999901    1    3    3    0    0  0.95839800496E-01 -0.73755574287E-01  0.83053474031E-01  0.89214518530E+00  0.88000000000E+00 0.  1.
        -11    1    4    4    0    0 -0.61008098286E-01  0.53105263507E-01 -0.43081811257E-01  0.91643115676E-01  0.51100000000E-03 0. -1.
         11    1    4    4    0    0 -0.28799898502E-01  0.10104226022E-01 -0.19150366138E-01  0.36035082648E-01  0.51100000000E-03 0.  1.
</event>
<event>
 8    1  0.1071333E+005  0.1043930E+01  0.7957747E-01            NaN
         13   -1    0    0    0    0  0.00000000000E+00  0.00000000000E+00  0.74505805969E-08  0.10566000000E+00  0.10566000000E+00 0.  1.
     999900   -1    0    0    0    0 -0.00000000000E+00 -0.00000000000E+00 -0.74505805969E-08  0.93827000000E+00  0.93827000000E+00 0. -1.
     999902    2    1    2    0    0  0.10550644471E-01 -0.21482514705E-01 -0.41391129888E-02  0.10196411797E+01  0.10193518472E+01 0.  0.
     999903    2    3    3    0    0 -0.11809776986E+00 -0.27314459435E-03 -0.48175235871E-01  0.12894514172E+00  0.18943029560E-01 0.  0.
         14    1    1    2    0    0 -0.10550644471E-01  0.21482514705E-01  0.41391129888E-02  0.24288820333E-01  0.00000000000E+00 0.  1.
     999901    1    3    3    0    0  0.12864841433E+00 -0.21209370111E-01  0.44036122882E-01  0.89069603794E+00  0.88000000000E+00 0.  1.
        -11    1    4    4    0    0 -0.61231715709E-01 -0.61709646966E-03 -0.14779817781E-01  0.62995301026E-01  0.51100000000E-03 0.  1.
         11    1    4    4    0    0 -0.56866054151E-01  0.34395187531E-03 -0.33395418090E-01  0.65949840697E-01  0.51100000000E-03 0. -1.
</event>
<event>
 8    1  0.1071333E+005  0.1043930E+01  0.7957747E-01            NaN
         13   -1    0    0    0    0  0.00000000000E+00  0.00000000000E+00  0.74505805969E-08  0.10566000000E+00  0.10566000000E+00 0.  1.
     999900   -1    0    0    0    0 -0.00000000000E+00 -0.00000000000E+00 -0.74505805969E-08  0.93827000000E+00  0.93827000000E+00 0. -1.
     999902    2    1    2    0    0  0.60906596977E-02  0.24119643222E-02 -0.23844035334E-01  0.10192024500E+01  0.10189024401E+01 0.  0.
     999903    2    3    3    0    0  0.19462462953E-01  0.14819053662E-01  0.12261286800E+00  0.12691193369E+00  0.21779157388E-01 0.  0.
         14    1    1    2    0    0 -0.60906596977E-02 -0.24119643222E-02  0.23844035334E-01  0.24727549989E-01  0.00000000000E+00 0.  1.
     999901    1    3    3    0    0 -0.13371803255E-01 -0.12407089340E-01 -0.14645690334E+00  0.89229051632E+00  0.88000000000E+00 0. -1.
        -11    1    4    4    0    0  0.12258031659E-02  0.12783817432E-01  0.32515854483E-01  0.34963845545E-01  0.51100000000E-03 0. -1.
         11    1    4    4    0    0  0.18236659787E-01  0.20352362305E-02  0.90097013520E-01  0.91948088141E-01  0.51100000000E-03 0.  1.
</event>
<event>
 8    1  0.1071333E+005  0.1043930E+01  0.7957747E-01            NaN
         13   -1    0    0    0    0  0.00000000000E+00  0.00000000000E+00  0.74505805969E-08  0.10566000000E+00  0.10566000000E+00 0.  1.
     999900   -1    0    0    0    0 -0.00000000000E+00 -0.00000000000E+00 -0.74505805969E-08  0.93827000000E+00  0.93827000000E+00 0.  1.
     999902    2    1    2    0    0 -0.60059626466E-02 -0.99546539712E-02 -0.20414368110E-01  0.10204371682E+01  0.10201667026E+01 0.  0.
     999903    2    3    3    0    0 -0.52190557054E-01 -0.31981718729E-01  0.11184594123E+00  0.12908370416E+00  0.20159452631E-01 0.  0.
         14    1    1    2    0    0  0.60059626466E-02  0.99546539712E-02  0.20414368110E-01  0.23492831850E-01  0.00000000000E+00 0.  1.
     999901    1    3    3    0    0  0.46184594408E-01  0.22027064757E-01 -0.13226030934E+00  0.89135346399E+00  0.88000000000E+00 0.  1.
        -11    1    4    4    0    0 -0.37603789211E-01 -0.22711547471E-01  0.96232712105E-01  0.10578683922E+00  0.51100000000E-03 0.  1.
         11    1    4    4    0    0 -0.14586767843E-01 -0.92701712572E-02  0.15613229129E-01  0.23296864941E-01  0.51100000000E-03 0. -1.
</event>
<event>
 8    1  0.1071333E+005  0.1043930E+01  0.7957747E-01            NaN
         13   -1    0    0    0    0  0.00000000000E+00  0.00000000000E+00  0.74505805969E-08  0.10566000000E+00  0.10566000000E+00 0.  1.
     999900   -1    0    0    0    0 -0.00000000000E+00 -0.00000000000E+00 -0.74505805969E-08  0.93827000000E+00  0.93827000000E+00 0. -1.
     999902    2    1    2    0    0  0.42887281954E-02  0.27324604103E-01 -0.88732072182E-02  0.10148824358E+01  0.10144666567E+01 0.  0.
     999903    2    3    3    0    0  0.95017148619E-01 -0.26400631860E-01 -0.75882838882E-01  0.12605830361E+00  0.20180158011E-01 0.  0.
         14    1    1    2    0    0 -0.42887281954E-02 -0.27324604103E-01  0.88732072182E-02  0.29047564188E-01  0.00000000000E+00 0. -1.
     999901    1    3    3    0    0 -0.90728420424E-01  0.53725235963E-01  0.67009631664E-01  0.88882413220E+00  0.88000000000E+00 0.  1.
        -11    1    4    4    0    0  0.29977112604E-01 -0.27996222096E-02 -0.32914577874E-01  0.44610488926E-01  0.51100000000E-03 0.  1.
         11    1    4    4    0    0  0.65040036016E-01 -0.23601009650E-01 -0.42968261008E-01  0.81447814682E-01  0.51100000000E-03 0. -1.
</event>
<event>
 8    1  0.1071333E+005  0.1043930E+01  0.7957747E-01            NaN
         13   -1    0    0    0    0  0.00000000000E+00  0.00000000000E+00  0.74505805969E-08  0.10566000000E+00  0.10566000000E+00 0. -1.
     999900   -1    0    0    0    0 -0.00000000000E+00 -0.00000000000E+00 -0.74505805969E-08  0.93827000000E+00  0.93827000000E+00 0. -1.
     999902    2    1    2    0    0 -0.11447789781E-01  0.37863951272E-02  0.16253038087E-01  0.10236926601E+01  0.10234926050E+01 0.  0.
     999903    2    3    3    0    0  0.10486356846E+00  0.78999437744E-01  0.62138005357E-03  0.13272145823E+00  0.19424731895E-01 0.  0.
         14    1    1    2    0    0  0.11447789781E-01 -0.37863951272E-02 -0.16253038087E-01  0.20237339894E-01  0.00000000000E+00 0.  1.
     999901    1    3    3    0    0 -0.11631135824E+00 -0.75213042617E-01  0.15631658034E-01  0.89097120187E+00  0.88000000000E+00 0. -1.
        -11    1    4    4    0    0  0.97005968012E-01  0.66296022529E-01 -0.21696972992E-02  0.11751718657E+00  0.51100000000E-03 0.  1.
         11    1    4    4    0    0  0.78576004433E-02  0.12703415215E-01  0.27910773528E-02  0.15204271658E-01  0.51100000000E-03 0. -1.
</event>
<event>
 8    1  0.1071333E+005  0.1043930E+01  0.7957747E-01            NaN
         13   -1    0    0    0    0  0.00000000000E+00  0.00000000000E+00  0.74505805969E-08  0.10566000000E+00  0.10566000000E+00 0. -1.
     999900   -1    0    0    0    0 -0.00000000000E+00 -0.00000000000E+00 -0.74505805969E-08  0.93827000000E+00  0.93827000000E+00 0. -1.
     999902    2    1    2    0    0  0.25783976007E-02  0.22624139750E-01 -0.63043070612E-02  0.10203028097E+01  0.10200292052E+01 0.  0.
     999903    2    3    3    0    0  0.96381505546E-02 -0.11093232500E+00 -0.59486991446E-01  0.12861028013E+00  0.24556614751E-01 0.  0.
         14    1    1    2    0    0 -0.25783976007E-02 -0.22624139750E-01  0.63043070612E-02  0.23627190293E-01  0.00000000000E+00 0. -1.
     999901    1    3    3    0    0 -0.70597529538E-02  0.13355646475E+00  0.53182684385E-01  0.89169252958E+00  0.88000000000E+00 0.  1.
        -11    1    4    4    0    0 -0.69675629799E-03 -0.16194572931E-01 -0.19229157383E-01  0.25154945367E-01  0.51100000000E-03 0. -1.
         11    1    4    4    0    0  0.10334906853E-01 -0.94737752066E-01 -0.40257834063E-01  0.10345533476E+00  0.51100000000E-03 0.  1.
</event>
<event>
 8    1  0.1071333E+005  0.1043930E+01  0.7957747E-01            NaN
         13   -1    0    0    0    0  0.00000000000E+00  0.00000000000E+00  0.74505805969E-08  0.10566000000E+00  0.10566000000E+00 0. -1.
     999900   -1    0    0    0    0 -0.00000000000E+00 -0.00000000000E+00 -0.74505805969E-08  0.93827000000E+00  0.93827000000E+00 0.  1.
     999902    2    1    2    0    0 -0.22799377268E-01  0.55058223650E-02  0.17891666110E-02  0.10204071005E+01  0.10201359341E+01 0.  0.
     999903    2    3    3    0    0  0.11980838879E+00 -0.38566899587E-02  0.40279734080E-01  0.12804722054E+00  0.20117396200E-01 0.  0.
         14    1    1    2    0    0  0.22799377268E-01 -0.55058223650E-02 -0.17891666110E-02  0.23522899500E-01  0.00000000000E+00 0. -1.
     999901    1    3    3    0    0 -0.14260776605E+00  0.93625123237E-02 -0.38490567469E-01  0.89235987996E+00  0.88000000000E+00 0. -1.
        -11    1    4    4    0    0  0.29743010031E-01 -0.10449888184E-02  0.19460387232E-01  0.35562711364E-01  0.51100000000E-03 0. -1.
         11    1    4    4    0    0  0.90065378754E-01 -0.28117011404E-02  0.20819346847E-01  0.92484509176E-01  0.51100000000E-03 0.  1.
</event>
<event>
 8    1  0.1071333E+005  0.1043930E+01  0.7957747E-01            NaN
         13   -1    0    0    0    0  0.00000000000E+00  0.00000000000E+00  0.74505805969E-08  0.10566000000E+00  0.10566000000E+00 0.  1.
     999900   -1    0    0    0    0 -0.00000000000E+00 -0.00000000000E+00 -0.74505805969E-08  0.93827000000E+00  0.93827000000E+00 0. -1.
     999902    2    1    2    0    0  0.12583661774E-01  0.14956082028E-01  0.12818894698E-01  0.10205557194E+01  0.10202880080E+01 0.  0.
     999903    2    3    3    0    0  0.13838902195E-01  0.16433865535E-01 -0.12657976766E+00  0.12958111450E+00  0.17528277216E-01 0.  0.
         14    1    1    2    0    0 -0.12583661774E-01 -0.14956082028E-01 -0.12818894698E-01  0.23374280621E-01  0.00000000000E+00 0.  1.
     999901    1    3    3    0    0 -0.12552404205E-02 -0.14777835067E-02  0.13939866236E+00  0.89097460488E+00  0.88000000000E+00 0.  1.
        -11    1    4    4    0    0  0.11624953016E-01  0.82088828632E-02 -0.11015873125E+00  0.11107534597E+00  0.51100000000E-03 0. -1.
         11    1    4    4    0    0  0.22139491789E-02  0.82249826718E-02 -0.16421036412E-01  0.18505768527E-01  0.51100000000E-03 0.  1.
</event>
<event>
 8    1  0.1071333E+005  0.1043930E+01  0.7957747E-01            NaN
         13   -1    0    0    0    0  0.00000000000E+00  0.00000000000E+00  0.74505805969E-08  0.10566000000E+00  0.10566000000E+00 0. -1.
     999900   -1    0    0    0    0 -0.00000000000E+00 -0.00000000000E+00 -0.74505805969E-08  0.93827000000E+00  0.93827000000E+00 0. -1.
     999902    2    1    2    0    0 -0.46372516975E-02  0.16144621983E-01  0.16725102716E-01  0.10202259501E+01  0.10199505416E+01 0.  0.
     999903    2    3    3    0    0 -0.43346232863E-02  0.45296966639E-01 -0.11945384492E+00  0.12927440449E+00  0.19288505545E-01 0.  0.
         14    1    1    2    0    0  0.46372516975E-02 -0.16144621983E-01 -0.16725102716E-01  0.23704049931E-01  0.00000000000E+00 0.  1.
     999901    1    3    3    0    0 -0.30262841116E-03 -0.29152344656E-01  0.13617894763E+00  0.89095154557E+00  0.88000000000E+00 0.  1.
        -11    1    4    4    0    0  0.42287189508E-02  0.30436106042E-01 -0.60270865283E-01  0.67654097717E-01  0.51100000000E-03 0.  1.
         11    1    4    4    0    0 -0.85633422371E-02  0.14860860597E-01 -0.59182979634E-01  0.61620306777E-01  0.51100000000E-03 0. -1.
</event>
<event>
 8    1  0.1071333E+005  0.1043930E+01  0.7957747E-01            NaN
         13   -1    0    0    0    0  0.00000000000E+00  0.00000000000E+00  0.74505805969E-08  0.10566000000E+00  0.10566000000E+00 0.  1.
     999900   -1    0    0    0    0 -0.00000000000E+00 -0.00000000000E+00 -0.74505805969E-08  0.93827000000E+00  0.93827000000E+00 0.  1.
     999902    2    1    2    0    0  0.73536888661E-02 -0.58189825716E-02  0.22226487400E-01  0.10198062764E+01  0.10195209107E+01 0.  0.
     999903    2    3    3    0    0  0.45031851549E-01  0.11996461263E+00 -0.27794686826E-02  0.12971276749E+00  0.19957471445E-01 0.  0.
         14    1    1    2    0    0 -0.73536888661E-02  0.58189825716E-02 -0.22226487400E-01  0.24123723598E-01  0.00000000000E+00 0. -1.
     999901    1    3    3    0    0 -0.37678162683E-01 -0.12578359520E+00  0.25005956082E-01  0.89009350891E+00  0.88000000000E+00 0. -1.
        -11    1    4    4    0    0  0.12462551301E-01  0.61528026190E-01 -0.10251491324E-02  0.62787938679E-01  0.51100000000E-03 0.  1.
         11    1    4    4    0    0  0.32569300248E-01  0.58436586441E-01 -0.17543195502E-02  0.66924828813E-01  0.51100000000E-03 0. -1.
</event>
<event>
 8    1  0.1071333E+005  0.1043930E+01  0.7957747E-01            NaN
         13   -1    0    0    0    0  0.00000000000E+00  0.00000000000E+00  0.74505805969E-08  0.10566000000E+00  0.10566000000E+00 0. -1.
     999900   -1    0    0    0    0 -0.00000000000E+00 -0.00000000000E+00 -0.74505805969E-08  0.93827000000E+00  0.93827000000E+00 0.  1.
     999902    2    1    2    0    0 -0.68877505503E-02  0.18172791975E-01  0.87374101618E-02  0.10226219308E+01  0.10223999118E+01 0.  0.
     999903    2    3    3    0    0  0.96032474049E-01 -0.75830453238E-01 -0.40135443419E-01  0.13031159324E+00  0.19944016731E-01 0.  0.
         14    1    1    2    0    0  0.68877505503E-02 -0.18172791975E-01 -0.87374101618E-02  0.21308069179E-01  0.00000000000E+00 0. -1.
     999901    1    3    3    0    0 -0.10292022460E+00  0.94003245212E-01  0.48872853581E-01  0.89231033758E+00  0.88000000000E+00 0. -1.
        -11    1    4    4    0    0  0.38560549900E-01 -0.26138037318E-01 -0.24890027677E-01  0.52819386613E-01  0.51100000000E-03 0. -1.
         11    1    4    4    0    0  0.57471924149E-01 -0.49692415919E-01 -0.15245415742E-01  0.77492206624E-01  0.51100000000E-03 0.  1.
</event>
<event>
 8    1  0.1071333E+005  0.1043930E+01  0.7957747E-01            NaN
         13   -1    0    0    0    0  0.00000000000E+00  0.00000000000E+00  0.74505805969E-08  0.10566000000E+00  0.10566000000E+00 0. -1.
     999900   -1    0    0    0    0 -0.00000000000E+00 -0.00000000000E+00 -0.74505805969E-08  0.93827000000E+00  0.93827000000E+00 0. -1.
     999902    2    1    2    0    0 -0.16763169802E-01  0.23525660537E-03 -0.17284110753E-01  0.10198509699E+01  0.10195666732E+01 0.  0.
     999903    2    3    3    0    0  0.30626266380E-01  0.12134196675E+00  0.25699923165E-01  0.12925553923E+00  0.19612936676E-01 0.  0.
         14    1    1    2    0    0  0.16763169802E-01 -0.23525660537E-03  0.17284110753E-01  0.24079030130E-01  0.00000000000E+00 0. -1.
     999901    1    3    3    0    0 -0.47389436183E-01 -0.12110671014E+00 -0.42984033918E-01  0.89059543064E+00  0.88000000000E+00 0. -1.
        -11    1    4    4    0    0  0.10970486947E-01  0.57229705417E-01  0.26109979982E-02  0.58332402638E-01  0.51100000000E-03 0.  1.
         11    1    4    4    0    0  0.19655779433E-01  0.64112261329E-01  0.23088925167E-01  0.70923136593E-01  0.51100000000E-03 0. -1.
</event>
<event>
 8    1  0.1071333E+005  0.1043930E+01  0.7957747E-01            NaN
         13   -1    0    0    0    0  0.00000000000E+00  0.00000000000E+00  0.74505805969E-08  0.10566000000E+00  0.10566000000E+00 0.  1.
     999900   -1    0    0    0    0 -0.00000000000E+00 -0.00000000000E+00 -0.74505805969E-08  0.93827000000E+00  0.93827000000E+00 0. -1.
     999902    2    1    2    0    0  0.18898571854E-01  0.12912868405E-01 -0.17188227151E-02  0.10209767314E+01  0.10207186848E+01 0.  0.
     999903    2    3    3    0    0 -0.24518695366E-01  0.12381742064E+00 -0.34154192037E-01  0.13236155484E+00  0.20521995283E-01 0.  0.
         14    1    1    2    0    0 -0.18898571854E-01 -0.12912868405E-01  0.17188227151E-02  0.22953268614E-01  0.00000000000E+00 0.  1.
     999901    1    3    3    0    0  0.43417267220E-01 -0.11090455224E+00  0.32435369322E-01  0.88861517654E+00  0.88000000000E+00 0.  1.
        -11    1    4    4    0    0 -0.14617330183E-01  0.56678452205E-01 -0.25847470816E-01  0.63988015711E-01  0.51100000000E-03 0.  1.
         11    1    4    4    0    0 -0.99013651832E-02  0.67138968435E-01 -0.83067212207E-02  0.68373539132E-01  0.51100000000E-03 0. -1.
</event>
<event>
 8    1  0.1071333E+005  0.1043930E+01  0.7957747E-01            NaN
         13   -1    0    0    0    0  0.00000000000E+00  0.00000000000E+00  0.74505805969E-08  0.10566000000E+00  0.10566000000E+00 0.  1.
     999900   -1    0    0    0    0 -0.00000000000E+00 -0.00000000000E+00 -0.74505805969E-08  0.93827000000E+00  0.93827000000E+00 0.  1.
     999902    2    1    2    0    0 -0.12953655455E-01  0.12268117635E-01  0.72976597975E-02  0.10246541151E+01  0.10244727892E+01 0.  0.
     999903    2    3    3    0    0  0.43492285909E-01 -0.24147636852E-02 -0.12410763960E+00  0.13298765055E+00  0.19636674223E-01 0.  0.
         14    1    1    2    0    0  0.12953655455E-01 -0.12268117635E-01 -0.72976597975E-02  0.19275884895E-01  0.00000000000E+00 0. -1.
     999901    1    3    3    0    0 -0.56445941364E-01  0.14682881320E-01  0.13140529940E+00  0.89166646455E+00  0.88000000000E+00 0. -1.
        -11    1    4    4    0    0  0.41716493451E-01  0.31749668260E-02 -0.10662570405E+00  0.11454103250E+00  0.51100000000E-03 0. -1.
         11    1    4    4    0    0  0.17757924577E-02 -0.55897305112E-02 -0.17481935551E-01  0.18446618055E-01  0.51100000000E-03 0.  1.
</event>
<event>
 8    1  0.1071333E+005  0.1043930E+01  0.7957747E-01            NaN
         13   -1    0    0    0    0  0.00000000000E+00  0.00000000000E+00  0.74505805969E-08  0.10566000000E+00  0.10566000000E+00 0. -1.
     999900   -1    0    0    0    0 -0.00000000000E+00 -0.00000000000E+00 -0.74505805969E-08  0.93827000000E+00  0.93827000000E+00 0. -1.
     999902    2    1    2    0    0 -0.19041369473E-02  0.69151220676E-02  0.21843735225E-01  0.10209388404E+01  0.10206799314E+01 0.  0.
     999903    2    3    3    0    0  0.47939115826E-02  0.11624073135E+00  0.61721562120E-01  0.13325241279E+00  0.20291995252E-01 0.  0.
         14    1    1    2    0    0  0.19041369473E-02 -0.69151220676E-02 -0.21843735225E-01  0.22991159590E-01  0.00000000000E+00 0.  1.
     999901    1    3    3    0    0 -0.66980485299E-02 -0.10932560928E+00 -0.39877826895E-01  0.88768642762E+00  0.88000000000E+00 0.  1.
        -11    1    4    4    0    0 -0.70791661269E-02  0.38897845209E-01  0.25294234218E-01  0.46938431596E-01  0.51100000000E-03 0.  1.
         11    1    4    4    0    0  0.11873077710E-01  0.77342886141E-01  0.36427327901E-01  0.86313981196E-01  0.51100000000E-03 0. -1.
</event>
<event>
 8    1  0.1071333E+005  0.1043930E+01  0.7957747E-01            NaN
         13   -1    0    0    0    0  0.00000000000E+00  0.00000000000E+00  0.74505805969E-08  0.10566000000E+00  0.10566000000E+00 0.  1.
     999900   -1    0    0    0    0 -0.00000000000E+00 -0.00000000000E+00 -0.74505805969E-08  0.93827000000E+00  0.93827000000E+00 0. -1.
     999902    2    1    2    0    0  0.47472575790E-02 -0.20980586119E-01 -0.23770232079E-01  0.10118715318E+01  0.10113635605E+01 0.  0.
     999903    2    3    3    0    0  0.14737309702E-01  0.55735749437E-01 -0.10849544782E+00  0.12442375338E+00  0.19655689909E-01 0.  0.
         14    1    1    2    0    0 -0.47472575790E-02  0.20980586119E-01  0.23770232079E-01  0.32058468172E-01  0.00000000000E+00 0.  1.
     999901    1    3    3    0    0 -0.99900521228E-02 -0.76716335556E-01  0.84725215742E-01  0.88744777844E+00  0.88000000000E+00 0.  1.
        -11    1    4    4    0    0  0.36382662570E-02  0.22535104698E-01 -0.24849919845E-01  0.33746815589E-01  0.51100000000E-03 0.  1.
         11    1    4    4    0    0  0.11099043445E-01  0.33200644739E-01 -0.83645527976E-01  0.90676937795E-01  0.51100000000E-03 0. -1.
</event>
<event>
 8    1  0.1071333E+005  0.1043930E+01  0.7957747E-01            NaN
         13   -1    0    0    0    0  0.00000000000E+00  0.00000000000E+00  0.74505805969E-08  0.10566000000E+00  0.10566000000E+00 0.  1.
     999900   -1    0    0    0    0 -0.00000000000E+00 -0.00000000000E+00 -0.74505805969E-08  0.93827000000E+00  0.93827000000E+00 0. -1.
     999902    2    1    2    0    0 -0.41037041999E-02 -0.61871799053E-02 -0.22414525055E-01  0.10203178735E+01  0.10200446218E+01 0.  0.
     999903    2    3    3    0    0  0.63533445477E-02 -0.92943084250E-01  0.86187024511E-01  0.12934636254E+00  0.24969910140E-01 0.  0.
         14    1    1    2    0    0  0.41037041999E-02  0.61871799053E-02  0.22414525055E-01  0.23612126478E-01  0.00000000000E+00 0.  1.
     999901    1    3    3    0    0 -0.10457048748E-01  0.86755904345E-01 -0.10860154957E+00  0.89097151098E+00  0.88000000000E+00 0. -1.
        -11    1    4    4    0    0 -0.53431948566E-02 -0.62789358765E-01  0.47480380576E-01  0.78903111258E-01  0.51100000000E-03 0. -1.
         11    1    4    4    0    0  0.11696539404E-01 -0.30153725485E-01  0.38706643935E-01  0.50443251286E-01  0.51100000000E-03 0.  1.
</event>
<event>
 8    1  0.1071333E+005  0.1043930E+01  0.7957747E-01            NaN
         13   -1    0    0    0    0  0.00000000000E+00  0.00000000000E+00  0.74505805969E-08  0.10566000000E+00  0.10566000000E+00 0.  1.
     999900   -1    0    0    0    0 -0.00000000000E+00 -0.00000000000E+00 -0.74505805969E-08  0.93827000000E+00  0.93827000000E+00 0. -1.
     999902    2    1    2    0    0  0.19797954701E-01  0.13138220811E-01  0.22370900453E-02  0.10200641996E+01  0.10197849748E+01 0.  0.
     999903    2    3    3    0    0  0.69389922554E-01  0.42196801851E-01 -0.10220969668E+00  0.13202540785E+00  0.19706719258E-01 0.  0.
         14    1    1    2    0    0 -0.19797954701E-01 -0.13138220811E-01 -0.22370900453E-02  0.23865800391E-01  0.00000000000E+00 0.  1.
     999901    1    3    3    0    0 -0.49591967853E-01 -0.29058581040E-01  0.10444678673E+00  0.88803879176E+00  0.88000000000E+00 0.  1.
        -11    1    4    4    0    0  0.17189284546E-01  0.20964197224E-01 -0.36247392680E-01  0.45267026250E-01  0.51100000000E-03 0. -1.
         11    1    4    4    0    0  0.52200638009E-01  0.21232604627E-01 -0.65962304003E-01  0.86758381601E-01  0.51100000000E-03 0.  1.
</event>
<event>
 8    1  0.1071333E+005  0.1043930E+01  0.7957747E-01            NaN
         13   -1    0    0    0    0  0.00000000000E+00  0.00000000000E+00  0.74505805969E-08  0.10566000000E+00  0.10566000000E+00 0. -1.
     999900   -1    0    0    0    0 -0.00000000000E+00 -0.00000000000E+00 -0.74505805969E-08  0.93827000000E+00  0.93827000000E+00 0. -1.
     999902    2    1    2    0    0 -0.71585299534E-02 -0.21209666122E-01  0.59469105646E-02  0.10207683888E+01  0.10205055822E+01 0.  0.
     999903    2    3    3    0    0 -0.67402104447E-01  0.62045528949E-01 -0.89424801832E-01  0.12966992101E+00  0.20610722582E-01 0.  0.
         14    1    1    2    0    0  0.71585299534E-02  0.21209666122E-01 -0.59469105646E-02  0.23161611200E-01  0.00000000000E+00 0. -1.
     999901    1    3    3    0    0  0.60243574494E-01 -0.83255195071E-01  0.95371712396E-01  0.89109846779E+00  0.88000000000E+00 0.  1.
        -11    1    4    4    0    0 -0.20749193838E-01  0.32865434620E-01 -0.36659711680E-01  0.53430903223E-01  0.51100000000E-03 0. -1.
         11    1    4    4    0    0 -0.46652910609E-01  0.29180094329E-01 -0.52765090152E-01  0.76239017787E-01  0.51100000000E-03 0.  1.
</event>
<event>
 8    1  0.1071333E+005  0.1043930E+01  0.7957747E-01            NaN
         13   -1    0    0    0    0  0.00000000000E+00  0.00000000000E+00  0.74505805969E-08  0.10566000000E+00  0.10566000000E+00 0.  1.
     999900   -1    0    0    0    0 -0.00000000000E+00 -0.00000000000E+00 -0.74505805969E-08  0.93827000000E+00  0.93827000000E+00 0. -1.
     999902    2    1    2    0    0  0.19603611791E-01 -0.10268875212E-01 -0.95697087681E-02  0.10198191991E+01  0.10195341427E+01 0.  0.
     999903    2    3    3    0    0 -0.16328392511E-01  0.12557458361E+00  0.77379738780E-02  0.12850325619E+00  0.20435707938E-01 0.  0.
         14    1    1    2    0    0 -0.19603611791E-01  0.10268875212E-01  0.95697087681E-02  0.24110800885E-01  0.00000000000E+00 0. -1.
     999901    1    3    3    0    0  0.35932004302E-01 -0.13584345883E+00 -0.17307682646E-01  0.89131594293E+00  0.88000000000E+00 0.  1.
        -11    1    4    4    0    0 -0.35473996831E-02  0.23084580823E-01  0.94598022721E-02  0.25203787341E-01  0.51100000000E-03 0. -1.
         11    1    4    4    0    0 -0.12780992828E-01  0.10249000279E+00 -0.17218283941E-02  0.10329946885E+00  0.51100000000E-03 0.  1.
</event>
<event>
 8    1  0.1071333E+005  0.1043930E+01  0.7957747E-01            NaN
         13   -1    0    0    0    0  0.00000000000E+00  0.00000000000E+00  0.74505805969E-08  0.10566000000E+00  0.10566000000E+00 0. -1.
     999900   -1    0    0    0    0 -0.00000000000E+00 -0.00000000000E+00 -0.74505805969E-08  0.93827000000E+00  0.93827000000E+00 0.  1.
     999902    2    1    2    0    0 -0.22886244931E-01 -0.28276389067E-02 -0.60379150793E-02  0.10200923792E+01  0.10198138212E+01 0.  0.
     999903    2    3    3    0    0 -0.99336750007E-01 -0.28153312161E-01 -0.81644728227E-01  0.13318626257E+00  0.20305664285E-01 0.  0.
         14    1    1    2    0    0  0.22886244931E-01  0.28276389067E-02  0.60379150793E-02  0.23837620841E-01  0.00000000000E+00 0.  1.
     999901    1    3    3    0    0  0.76450505076E-01  0.25325673254E-01  0.75606813147E-01  0.88690611659E+00  0.88000000000E+00 0. -1.
        -11    1    4    4    0    0 -0.84963941211E-01 -0.16157235424E-01 -0.66379403983E-01  0.10902483184E+00  0.51100000000E-03 0. -1.
         11    1    4    4    0    0 -0.14372808796E-01 -0.11996076737E-01 -0.15265324244E-01  0.24161430732E-01  0.51100000000E-03 0.  1.
</event>
<event>
 8    1  0.1071333E+005  0.1043930E+01  0.7957747E-01            NaN
         13   -1    0    0    0    0  0.00000000000E+00  0.00000000000E+00  0.74505805969E-08  0.10566000000E+00  0.10566000000E+00 0.  1.
     999900   -1    0    0    0    0 -0.00000000000E+00 -0.00000000000E+00 -0.74505805969E-08  0.93827000000E+00  0.93827000000E+00 0.  1.
     999902    2    1    2    0    0 -0.92578090806E-02  0.19041108232E-01  0.10892147704E-01  0.10201201341E+01  0.10198422321E+01 0.  0.
     999903    2    3    3    0    0  0.31544223252E-01 -0.48073646584E-01 -0.11266568670E+00  0.12802387552E+00  0.19759611059E-01 0.  0.
         14    1    1    2    0    0  0.92578090806E-02 -0.19041108232E-01 -0.10892147704E-01  0.23809865881E-01  0.00000000000E+00 0. -1.
     999901    1    3    3    0    0 -0.40802032333E-01  0.67114754816E-01  0.12355783440E+00  0.89209625859E+00  0.88000000000E+00 0.  1.
        -11    1    4    4    0    0  0.28840618414E-02 -0.21113455303E-01 -0.43691418906E-01  0.48613753347E-01  0.51100000000E-03 0. -1.
         11    1    4    4    0    0  0.28660161411E-01 -0.26960191281E-01 -0.68974267790E-01  0.79410122177E-01  0.51100000000E-03 0.  1.
</event>
<event>
 8    1  0.1071333E+005  0.1043930E+01  0.7957747E-01            NaN
         13   -1    0    0    0    0  0.00000000000E+00  0.00000000000E+00  0.74505805969E-08  0.10566000000E+00  0.10566000000E+00 0.  1.
     999900   -1    0    0    0    0 -0.00000000000E+00 -0.00000000000E+00 -0.74505805969E-08  0.93827000000E+00  0.93827000000E+00 0.  1.
     999902    2    1    2    0    0  0.22562007200E-01 -0.57117513812E-02 -0.67080763360E-02  0.10197087994E+01  0.10194210950E+01 0.  0.
     999903    2    3    3    0    0  0.77606728558E-01  0.44549473072E-01  0.93412726038E-01  0.13090044706E+00  0.20038208164E-01 0.  0.
         14    1    1    2    0    0 -0.22562007200E-01  0.57117513812E-02  0.67080763360E-02  0.24221200649E-01  0.00000000000E+00 0. -1.
     999901    1    3    3    0    0 -0.55044721358E-01 -0.50261224454E-01 -0.10012080237E+00  0.88880835229E+00  0.88000000000E+00 0.  1.
        -11    1    4    4    0    0  0.47818527335E-01  0.32189673759E-01  0.46985382320E-01  0.74368500899E-01  0.51100000000E-03 0.  1.
         11    1    4    4    0    0  0.29788201223E-01  0.12359799314E-01  0.46427343718E-01  0.56531946162E-01  0.51100000000E-03 0. -1.
</event>
<event>
 8    1  0.1071333E+005  0.1043930E+01  0.7957747E-01            NaN
         13   -1    0    0    0    0  0.00000000000E+00  0.00000000000E+00  0.74505805969E-08  0.10566000000E+00  0.10566000000E+00 0.  1.
     999900   -1    0    0    0    0 -0.00000000000E+00 -0.00000000000E+00 -0.74505805969E-08  0.93827000000E+00  0.93827000000E+00 0. -1.
     999902    2    1    2    0    0  0.85178144844E-02  0.20643761166E-01 -0.66728497740E-02  0.10206223840E+01  0.10203562151E+01 0.  0.
     999903    2    3    3    0    0 -0.56350305615E-01 -0.44295008868E-01  0.10511322507E+00  0.12881464499E+00  0.20174685279E-01 0.  0.
         14    1    1    2    0    0 -0.85178144844E-02 -0.20643761166E-01  0.66728497740E-02  0.23307615982E-01  0.00000000000E+00 0.  1.
     999901    1    3    3    0    0  0.64868120100E-01  0.64938770034E-01 -0.11178607484E+00  0.89180773903E+00  0.88000000000E+00 0. -1.
        -11    1    4    4    0    0 -0.50145813589E-01 -0.45120641980E-01  0.90220732866E-01  0.11265219356E+00  0.51100000000E-03 0. -1.
         11    1    4    4    0    0 -0.62044920263E-02  0.82563311270E-03  0.14892492203E-01  0.16162451434E-01  0.51100000000E-03 0.  1.
</event>
<event>
 8    1  0.1071333E+005  0.1043930E+01  0.7957747E-01            NaN
         13   -1    0    0    0    0  0.00000000000E+00  0.00000000000E+00  0.74505805969E-08  0.10566000000E+00  0.10566000000E+00 0. -1.
     999900   -1    0    0    0    0 -0.00000000000E+00 -0.00000000000E+00 -0.74505805969E-08  0.93827000000E+00  0.93827000000E+00 0. -1.
     999902    2    1    2    0    0 -0.14362251003E-01 -0.15046947011E-01  0.11049519903E-01  0.10203763005E+01  0.10201044152E+01 0.  0.
     999903    2    3    3    0    0 -0.11628058441E+00  0.57953378779E-01  0.46498594657E-02  0.13146834698E+00  0.19558543940E-01 0.  0.
         14    1    1    2    0    0  0.14362251003E-01  0.15046947011E-01 -0.11049519903E-01  0.23553699462E-01  0.00000000000E+00 0.  1.
     999901    1    3    3    0    0  0.10191833341E+00 -0.73000325790E-01  0.63996604376E-02  0.88890795356E+00  0.88000000000E+00 0.  1.
        -11    1    4    4    0    0 -0.68192921233E-01  0.36757580739E-01  0.12028744380E-01  0.78398635578E-01  0.51100000000E-03 0. -1.
         11    1    4    4    0    0 -0.48087663178E-01  0.21195798039E-01 -0.73788849146E-02  0.53069711399E-01  0.51100000000E-03 0.  1.
</event>
<event>
 8    1  0.1071333E+005  0.1043930E+01  0.7957747E-01            NaN
         13   -1    0    0    0    0  0.00000000000E+00  0.00000000000E+00  0.74505805969E-08  0.10566000000E+00  0.10566000000E+00 0. -1.
     999900   -1    0    0    0    0 -0.00000000000E+00 -0.00000000000E+00 -0.74505805969E-08  0.93827000000E+00  0.93827000000E+00 0.  1.
     999902    2    1    2    0    0 -0.50073862176E-02 -0.20497646095E-01  0.10197050859E-01  0.10204948286E+01  0.10202257044E+01 0.  0.
     999903    2    3    3    0    0  0.13393642712E-01  0.97554523840E-01  0.81870394818E-01  0.12953356069E+00  0.19491203397E-01 0.  0.
         14    1    1    2    0    0  0.50073862176E-02  0.20497646095E-01 -0.10197050859E-01  0.23435171397E-01  0.00000000000E+00 0.  1.
     999901    1    3    3    0    0 -0.18401028930E-01 -0.11805216994E+00 -0.71673343959E-01  0.89096126792E+00  0.88000000000E+00 0. -1.
        -11    1    4    4    0    0  0.80838352665E-02  0.12743803598E-01  0.89219253982E-02  0.17538950840E-01  0.51100000000E-03 0. -1.
         11    1    4    4    0    0  0.53098074458E-02  0.84810720243E-01  0.72948469419E-01  0.11199460985E+00  0.51100000000E-03 0.  1.
</event>
<event>
 8    1  0.1071333E+005  0.1043930E+01  0.7957747E-01            NaN
         13   -1    0    0    0    0  0.00000000000E+00  0.00000000000E+00  0.74505805969E-08  0.10566000000E+00  0.10566000000E+00 0.  1.
     999900   -1    0    0    0    0 -0.00000000000E+00 -0.00000000000E+00 -0.74505805969E-08  0.93827000000E+00  0.93827000000E+00 0. -1.
     999902    2    1    2    0    0 -0.10373993921E-01 -0.16170916115E-01  0.36678081059E-02  0.10243705753E+01  0.10241838236E+01 0.  0.
     999903    2    3    3    0    0 -0.32503703520E-01  0.24718846611E-01  0.12673607849E+00  0.13459111054E+00  0.19627055953E-01 0.  0.
         14    1    1    2    0    0  0.10373993921E-01  0.16170916115E-01 -0.36678081059E-02  0.19559424689E-01  0.00000000000E+00 0.  1.
     999901    1    3    3    0    0  0.22129709599E-01 -0.40889762727E-01 -0.12306827039E+00  0.88977946477E+00  0.88000000000E+00 0. -1.
        -11    1    4    4    0    0 -0.93606021837E-02  0.12056059764E-02  0.52618329010E-01  0.53460490344E-01  0.51100000000E-03 0. -1.
         11    1    4    4    0    0 -0.23143101336E-01  0.23513240635E-01  0.74117749484E-01  0.81130620201E-01  0.51100000000E-03 0.  1.
</event>
<event>
 8    1  0.1071333E+005  0.1043930E+01  0.7957747E-01            NaN
         13   -1    0    0    0    0  0.00000000000E+00  0.00000000000E+00  0.74505805969E-08  0.10566000000E+00  0.10566000000E+00 0.  1.
     999900   -1    0    0    0    0 -0.00000000000E+00 -0.00000000000E+00 -0.74505805969E-08  0.93827000000E+00  0.93827000000E+00 0.  1.
     999902    2    1    2    0    0  0.20665156523E-01 -0.90125580036E-02 -0.55257190276E-02  0.10207177518E+01  0.10204537816E+01 0.  0.
     999903    2    3    3    0    0  0.11349739432E+00  0.43532330914E-01 -0.50252847057E-01  0.13314842734E+00  0.20650247305E-01 0.  0.
         14    1    1    2    0    0 -0.20665156523E-01  0.90125580036E-02  0.55257190276E-02  0.23212248203E-01  0.00000000000E+00 0. -1.
     999901    1    3    3    0    0 -0.92832237802E-01 -0.52544888917E-01  0.44727128029E-01  0.88756932445E+00  0.88000000000E+00 0.  1.
        -11    1    4    4    0    0  0.68065903921E-01  0.16478001868E-01 -0.23386229477E-01  0.73835416111E-01  0.51100000000E-03 0. -1.
         11    1    4    4    0    0  0.45431490404E-01  0.27054329046E-01 -0.26866617580E-01  0.59313011234E-01  0.51100000000E-03 0.  1.
</event>
<event>
 8    1  0.1071333E+005  0.1043930E+01  0.7957747E-01            NaN
         13   -1    0    0    0    0  0.00000000000E+00  0.00000000000E+00  0.74505805969E-08  0.10566000000E+00  0.10566000000E+00 0. -1.
     999900   -1    0    0    0    0 -0.00000000000E+00 -0.00000000000E+00 -0.74505805969E-08  0.93827000000E+00  0.93827000000E+00 0.  1.
     999902    2    1    2    0    0  0.82050227524E-02 -0.58307296055E-02 -0.20973125037E-01  0.10206664710E+01  0.10204013197E+01 0.  0.
     999903    2    3    3    0    0 -0.37952626506E-01  0.10225173875E+00 -0.70478185104E-01  0.13147408492E+00  0.20553357236E-01 0.  0.
         14    1    1    2    0    0 -0.82050227524E-02  0.58307296055E-02  0.20973125037E-01  0.23263528965E-01  0.00000000000E+00 0. -1.
     999901    1    3    3    0    0  0.46157649258E-01 -0.10808246836E+00  0.49505060067E-01  0.88919238611E+00  0.88000000000E+00 0. -1.
        -11    1    4    4    0    0 -0.22037588911E-01  0.83558725411E-01 -0.55762713264E-01  0.10284676577E+00  0.51100000000E-03 0. -1.
         11    1    4    4    0    0 -0.15915037595E-01  0.18693013341E-01 -0.14715471839E-01  0.28627319152E-01  0.51100000000E-03 0.  1.
</event>
<event>
 8    1  0.1071333E+005  0.1043930E+01  0.7957747E-01            NaN
         13   -1    0    0    0    0  0.00000000000E+00  0.00000000000E+00  0.74505805969E-08  0.10566000000E+00  0.10566000000E+00 0. -1.
     999900   -1    0    0    0    0 -0.00000000000E+00 -0.00000000000E+00 -0.74505805969E-08  0.93827000000E+00  0.93827000000E+00 0. -1.
     999902    2    1    2    0    0  0.47378100474E-02  0.18715152920E-01 -0.13899330793E-01  0.10201414484E+01  0.10198640495E+01 0.  0.
     999903    2    3    3    0    0 -0.17792507194E-01  0.41203335990E-02 -0.12946238851E+00  0.13218005040E+00  0.19429493652E-01 0.  0.
         14    1    1    2    0    0 -0.47378100474E-02 -0.18715152920E-01  0.13899330793E-01  0.23788551645E-01  0.00000000000E+00 0. -1.
     999901    1    3    3    0    0  0.22530317241E-01  0.14594819321E-01  0.11556305772E+00  0.88796139795E+00  0.88000000000E+00 0.  1.
        -11    1    4    4    0    0 -0.20584383665E-01  0.41224611812E-02 -0.12583031229E+00  0.12757053010E+00  0.51100000000E-03 0. -1.
         11    1    4    4    0    0  0.27918764715E-02 -0.21275822466E-05 -0.36320762228E-02  0.46095203055E-02  0.51100000000E-03 0.  1.
</event>
<event>
 8    1  0.1071333E+005  0.1043930E+01  0.7957747E-01            NaN
         13   -1    0    0    0    0  0.00000000000E+00  0.00000000000E+00  0.74505805969E-08  0.10566000000E+00  0.10566000000E+00 0. -1.
     999900   -1    0    0    0    0 -0.00000000000E+00 -0.00000000000E+00 -0.74505805969E-08  0.93827000000E+00  0.93827000000E+00 0. -1.
     999902    2    1    2    0    0 -0.61291182081E-02  0.22219595094E-01  0.19210994480E-03  0.10208797635E+01  0.10206195070E+01 0.  0.
     999903    2    3    3    0    0  0.53125468086E-01 -0.86444854425E-01  0.76906493210E-01  0.12891330383E+00  0.20223822364E-01 0.  0.
         14    1    1    2    0    0  0.61291182081E-02 -0.22219595094E-01 -0.19210994480E-03  0.23050236493E-01  0.00000000000E+00 0. -1.
     999901    1    3    3    0    0 -0.59254586294E-01  0.10866444952E+00 -0.76714383265E-01  0.89196645968E+00  0.88000000000E+00 0. -1.
        -11    1    4    4    0    0  0.48534517378E-01 -0.84712372684E-01  0.76364887308E-01  0.12395016175E+00  0.51100000000E-03 0. -1.
         11    1    4    4    0    0  0.45909507078E-02 -0.17324817406E-02  0.54160590219E-03  0.49631420831E-02  0.51100000000E-03 0.  1.
</event>
<event>
 8    1  0.1071333E+005  0.1043930E+01  0.7957747E-01            NaN
         13   -1    0    0    0    0  0.00000000000E+00  0.00000000000E+00  0.74505805969E-08  0.10566000000E+00  0.10566000000E+00 0.  1.
     999900   -1    0    0    0    0 -0.00000000000E+00 -0.00000000000E+00 -0.74505805969E-08  0.93827000000E+00  0.93827000000E+00 0.  1.
     999902    2    1    2    0    0 -0.16953853574E-01 -0.89618356638E-02  0.15134187525E-01  0.10195006881E+01  0.10192079580E+01 0.  0.
     999903    2    3    3    0    0 -0.51216054136E-01 -0.11458627375E+00  0.36774069830E-01  0.13225849745E+00  0.19669255251E-01 0.  0.
         14    1    1    2    0    0  0.16953853574E-01  0.89618356638E-02 -0.15134187525E-01  0.24429311933E-01  0.00000000000E+00 0.  1.
     999901    1    3    3    0    0  0.34262200562E-01  0.10562443809E+00 -0.21639882305E-01  0.88724219062E+00  0.88000000000E+00 0.  1.
        -11    1    4    4    0    0 -0.41346192592E-01 -0.10572369827E+00  0.30339478440E-01  0.11750639596E+00  0.51100000000E-03 0.  1.
         11    1    4    4    0    0 -0.98698615439E-02 -0.88625754789E-02  0.64345913901E-02  0.14752101490E-01  0.51100000000E-03 0. -1.
</event>
<event>
 8    1  0.1071333E+005  0.1043930E+01  0.7957747E-01            NaN
         13   -1    0    0    0    0  0.00000000000E+00  0.00000000000E+00  0.74505805969E-08  0.10566000000E+00  0.10566000000E+00 0.  1.
     999900   -1    0    0    0    0 -0.00000000000E+00 -0.00000000000E+00 -0.74505805969E-08  0.93827000000E+00  0.93827000000E+00 0.  1.
     999902    2    1    2    0    0 -0.21807903987E-01  0.60789656633E-02 -0.86723322829E-02  0.10196864886E+01  0.10193982475E+01 0.  0.
     999903    2    3    3    0    0  0.10064994028E+00 -0.57471001069E-01  0.48264178198E-01  0.12711924284E+00  0.19913426695E-01 0.  0.
         14    1    1    2    0    0  0.21807903987E-01 -0.60789656633E-02  0.86723322829E-02  0.24243511442E-01  0.00000000000E+00 0. -1.
     999901    1    3    3    0    0 -0.12245784426E+00  0.63549966732E-01 -0.56936510481E-01  0.89256724571E+00  0.88000000000E+00 0. -1.
        -11    1    4    4    0    0  0.59794945577E-01 -0.25854249043E-01  0.34191289136E-01  0.73574337129E-01  0.51100000000E-03 0. -1.
         11    1    4    4    0    0  0.40854994700E-01 -0.31616752026E-01  0.14072889061E-01  0.53544905716E-01  0.51100000000E-03 0.  1.
</event>
<event>
 8    1  0.1071333E+005  0.1043930E+01  0.7957747E-01            NaN
         13   -1    0    0    0    0  0.00000000000E+00  0.00000000000E+00  0.74505805969E-08  0.10566000000E+00  0.10566000000E+00 0. -1.
     999900   -1    0    0    0    0 -0.00000000000E+00 -0.00000000000E+00 -0.74505805969E-08  0.93827000000E+00  0.93827000000E+00 0. -1.
     999902    2    1    2    0    0  0.51583989685E-02  0.15124624852E-01  0.16127057398E-01  0.10212265787E+01  0.10209741817E+01 0.  0.
     999903    2    3    3    0    0  0.11749185163E+00 -0.53223892115E-01  0.87268942453E-02  0.13142599053E+00  0.23654056981E-01 0.  0.
         14    1    1    2    0    0 -0.51583989685E-02 -0.15124624852E-01 -0.16127057398E-01  0.22703421265E-01  0.00000000000E+00 0. -1.
     999901    1    3    3    0    0 -0.11233345266E+00  0.68348516967E-01  0.74001631531E-02  0.88980058821E+00  0.88000000000E+00 0. -1.
        -11    1    4    4    0    0  0.36984588661E-01 -0.64697501850E-02 -0.25988895722E-02  0.37639511339E-01  0.51100000000E-03 0.  1.
         11    1    4    4    0    0  0.80507262969E-01 -0.46754141930E-01  0.11325783818E-01  0.93786479188E-01  0.51100000000E-03 0. -1.
</event>
<event>
 8    1  0.1071333E+005  0.1043930E+01  0.7957747E-01            NaN
         13   -1    0    0    0    0  0.00000000000E+00  0.00000000000E+00  0.74505805969E-08  0.10566000000E+00  0.10566000000E+00 0.  1.
     999900   -1    0    0    0    0 -0.00000000000E+00 -0.00000000000E+00 -0.74505805969E-08  0.93827000000E+00  0.93827000000E+00 0.  1.
     999902    2    1    2    0    0 -0.72245950944E-02 -0.10708778678E-01  0.19940506324E-01  0.10201708648E+01  0.10198941596E+01 0.  0.
     999903    2    3    3    0    0  0.64348127150E-01  0.70277714377E-01  0.87604446312E-01  0.13098029159E+00  0.20041436242E-01 0.  0.
         14    1    1    2    0    0  0.72245950944E-02  0.10708778678E-01 -0.19940506324E-01  0.23759135243E-01  0.00000000000E+00 0. -1.
     999901    1    3    3    0    0 -0.71572722245E-01 -0.80986493055E-01 -0.67663939989E-01  0.88919057316E+00  0.88000000000E+00 0.  1.
        -11    1    4    4    0    0  0.13426821882E-01  0.17209751986E-01  0.32172554374E-01  0.38881737168E-01  0.51100000000E-03 0. -1.
         11    1    4    4    0    0  0.50921305268E-01  0.53067962391E-01  0.55431891939E-01  0.92098554426E-01  0.51100000000E-03 0.  1.
</event>
<event>
 8    1  0.1071333E+005  0.1043930E+01  0.7957747E-01            NaN
         13   -1    0    0    0    0  0.00000000000E+00  0.00000000000E+00  0.74505805969E-08  0.10566000000E+00  0.10566000000E+00 0. -1.
     999900   -1    0    0    0    0 -0.00000000000E+00 -0.00000000000E+00 -0.74505805969E-08  0.93827000000E+00  0.93827000000E+00 0. -1.
     999902    2    1    2    0    0 -0.17354128903E-01 -0.44427342790E-02  0.14452921801E-01  0.10209128189E+01  0.10206533168E+01 0.  0.
     999903    2    3    3    0    0 -0.90629990527E-01 -0.48106234733E-01  0.84074780532E-01  0.13405146761E+00  0.19318960757E-01 0.  0.
         14    1    1    2    0    0  0.17354128903E-01  0.44427342790E-02 -0.14452921801E-01  0.23017181114E-01  0.00000000000E+00 0.  1.
     999901    1    3    3    0    0  0.73275861624E-01  0.43663500454E-01 -0.69621858731E-01  0.88686135127E+00  0.88000000000E+00 0. -1.
        -11    1    4    4    0    0 -0.18484512691E-01 -0.82618890413E-02  0.27207031781E-01  0.33917837774E-01  0.51100000000E-03 0. -1.
         11    1    4    4    0    0 -0.72145477836E-01 -0.39844345692E-01  0.56867748751E-01  0.10013362984E+00  0.51100000000E-03 0.  1.
</event>
<event>
 8    1  0.1071333E+005  0.1043930E+01  0.7957747E-01            NaN
         13   -1    0    0    0    0  0.00000000000E+00  0.00000000000E+00  0.74505805969E-08  0.10566000000E+00  0.10566000000E+00 0.  1.
     999900   -1    0    0    0    0 -0.00000000000E+00 -0.00000000000E+00 -0.74505805969E-08  0.93827000000E+00  0.93827000000E+00 0.  1.
     999902    2    1    2    0    0  0.36220841366E-02  0.14219081013E-01  0.83196429447E-02  0.10270623322E+01  0.10269238122E+01 0.  0.
     999903    2    3    3    0    0  0.70925938801E-01 -0.70120868084E-01  0.91467252430E-01  0.13658124827E+00  0.18459528080E-01 0.  0.
         14    1    1    2    0    0 -0.36220841366E-02 -0.14219081013E-01 -0.83196429447E-02  0.16867667801E-01  0.00000000000E+00 0. -1.
     999901    1    3    3    0    0 -0.67303854665E-01  0.84339949097E-01 -0.83147609485E-01  0.89048108393E+00  0.88000000000E+00 0.  1.
        -11    1    4    4    0    0  0.29752421816E-01 -0.28401575839E-01  0.25797179265E-01  0.48555243724E-01  0.51100000000E-03 0. -1.
         11    1    4    4    0    0  0.41173516986E-01 -0.41719292246E-01  0.65670073164E-01  0.88026004549E-01  0.51100000000E-03 0.  1.
</event>
<event>
 8    1  0.1071333E+005  0.1043930E+01  0.7957747E-01            NaN
         13   -1    0    0    0    0  0.00000000000E+00  0.00000000000E+00  0.74505805969E-08  0.10566000000E+00  0.10566000000E+00 0. -1.
     999900   -1    0    0    0    0 -0.00000000000E+00 -0.00000000000E+00 -0.74505805969E-08  0.93827000000E+00  0.93827000000E+00 0.  1.
     999902    2    1    2    0    0 -0.19037827117E-01 -0.77195642349E-02 -0.11589318435E-01  0.10203430792E+01  0.10200704173E+01 0.  0.
     999903    2    3    3    0    0  0.67343613108E-01 -0.22712667769E-01  0.10477214318E+00  0.12836407933E+00  0.21192153577E-01 0.  0.
         14    1    1    2    0    0  0.19037827117E-01  0.77195642349E-02  0.11589318435E-01  0.23586920848E-01  0.00000000000E+00 0. -1.
     999901    1    3    3    0    0 -0.86381440225E-01  0.14993103534E-01 -0.11636146161E+00  0.89197899982E+00  0.88000000000E+00 0.  1.
        -11    1    4    4    0    0  0.50883331875E-01 -0.76366886364E-02  0.66886242445E-01  0.84388761251E-01  0.51100000000E-03 0.  1.
         11    1    4    4    0    0  0.16460281233E-01 -0.15075979133E-01  0.37885900733E-01  0.43975318082E-01  0.51100000000E-03 0. -1.
</event>
<event>
 8    1  0.1071333E+005  0.1043930E+01  0.7957747E-01            NaN
         13   -1    0    0    0    0  0.00000000000E+00  0.00000000000E+00  0.74505805969E-08  0.10566000000E+00  0.10566000000E+00 0. -1.
     999900   -1    0    0    0    0 -0.00000000000E+00 -0.00000000000E+00 -0.74505805969E-08  0.93827000000E+00  0.93827000000E+00 0. -1.
     999902    2    1    2    0    0  0.82978549569E-02 -0.22996596784E-01  0.72569359965E-02  0.10184278240E+01  0.10181084774E+01 0.  0.
     999903    2    3    3    0    0  0.61615706596E-02  0.10557674656E+00  0.67726322199E-01  0.12702880280E+00  0.19106220366E-01 0.  0.
         14    1    1    2    0    0 -0.82978549569E-02  0.22996596784E-01 -0.72569359965E-02  0.25502175997E-01  0.00000000000E+00 0. -1.
     999901    1    3    3    0    0  0.21362842972E-02 -0.12857334334E+00 -0.60469386203E-01  0.89139902120E+00  0.88000000000E+00 0.  1.
        -11    1    4    4    0    0  0.65563159753E-02  0.95734684278E-01  0.53951782840E-01  0.11008710663E+00  0.51100000000E-03 0.  1.
         11    1    4    4    0    0 -0.39474531564E-03  0.98420622773E-02  0.13774539360E-01  0.16941696175E-01  0.51100000000E-03 0. -1.
</event>
<event>
 8    1  0.1430676E+005  0.1043930E+01  0.7957747E-01            NaN
         13   -1    0    0    0    0  0.00000000000E+00  0.00000000000E+00  0.74505805969E-08  0.10566000000E+00  0.10566000000E+00 0. -1.
     999900   -1    0    0    0    0 -0.00000000000E+00 -0.00000000000E+00 -0.74505805969E-08  0.93827000000E+00  0.93827000000E+00 0. -1.
     999902    2    1    2    0    0 -0.76168279656E-02 -0.51382318232E-02 -0.21738101599E-01  0.10203299459E+01  0.10200569768E+01 0.  0.
     999903    2    3    3    0    0 -0.83930971035E-02  0.11904253658E+00 -0.50876059278E-01  0.13113340604E+00  0.19131836765E-01 0.  0.
         14    1    1    2    0    0  0.76168279656E-02  0.51382318232E-02  0.21738101599E-01  0.23600054145E-01  0.00000000000E+00 0. -1.
     999901    1    3    3    0    0  0.77626913793E-03 -0.12418076840E+00  0.29137957679E-01  0.88919653981E+00  0.88000000000E+00 0. -1.
        -11    1    4    4    0    0 -0.14235012359E-01  0.68955631484E-01 -0.30859424208E-01  0.76877043866E-01  0.51100000000E-03 0. -1.
         11    1    4    4    0    0  0.58419152550E-02  0.50086905098E-01 -0.20016635070E-01  0.54256362177E-01  0.51100000000E-03 0.  1.
</event>
<event>
 8    1  0.1071333E+005  0.1043930E+01  0.7957747E-01            NaN
         13   -1    0    0    0    0  0.00000000000E+00  0.00000000000E+00  0.74505805969E-08  0.10566000000E+00  0.10566000000E+00 0.  1.
     999900   -1    0    0    0    0 -0.00000000000E+00 -0.00000000000E+00 -0.74505805969E-08  0.93827000000E+00  0.93827000000E+00 0.  1.
     999902    2    1    2    0    0 -0.14872263691E-01 -0.14898297081E-01  0.44227943412E-02  0.10224194307E+01  0.10221931264E+01 0.  0.
     999903    2    3    3    0    0 -0.10027387195E+00 -0.25064549161E-01 -0.82793106051E-01  0.13393566568E+00  0.20024562661E-01 0.  0.
         14    1    1    2    0    0  0.14872263691E-01  0.14898297081E-01 -0.44227943412E-02  0.21510569332E-01  0.00000000000E+00 0. -1.
     999901    1    3    3    0    0  0.85401608260E-01  0.10166252081E-01  0.87215900393E-01  0.88848376499E+00  0.88000000000E+00 0. -1.
        -11    1    4    4    0    0 -0.49802302987E-01 -0.21632033466E-01 -0.37092231248E-01  0.65759478363E-01  0.51100000000E-03 0.  1.
         11    1    4    4    0    0 -0.50471568963E-01 -0.34325156955E-02 -0.45700874804E-01  0.68176187312E-01  0.51100000000E-03 0. -1.
</event>
<event>
 8    1  0.1071333E+005  0.1043930E+01  0.7957747E-01            NaN
         13   -1    0    0    0    0  0.00000000000E+00  0.00000000000E+00  0.74505805969E-08  0.10566000000E+00  0.10566000000E+00 0. -1.
     999900   -1    0    0    0    0 -0.00000000000E+00 -0.00000000000E+00 -0.74505805969E-08  0.93827000000E+00  0.93827000000E+00 0. -1.
     999902    2    1    2    0    0  0.96836921859E-03  0.51932376675E-03  0.13524432864E-01  0.10303610015E+01  0.10302716514E+01 0.  0.
     999903    2    3    3    0    0  0.13190128657E+00 -0.16922696795E-01 -0.35966847687E-01  0.13912756419E+00  0.19456050970E-01 0.  0.
         14    1    1    2    0    0 -0.96836921859E-03 -0.51932376675E-03 -0.13524432864E-01  0.13568998505E-01  0.00000000000E+00 0.  1.
     999901    1    3    3    0    0 -0.13093291735E+00  0.17442020562E-01  0.49491280551E-01  0.89123343731E+00  0.88000000000E+00 0.  1.
        -11    1    4    4    0    0  0.52623918494E-01 -0.16338721302E-01 -0.15686484969E-01  0.57293608222E-01  0.51100000000E-03 0.  1.
         11    1    4    4    0    0  0.79277368073E-01 -0.58397549390E-03 -0.20280362718E-01  0.81833955965E-01  0.51100000000E-03 0. -1.
</event>
<event>
 8    1  0.1071333E+005  0.1043930E+01  0.7957747E-01            NaN
         13   -1    0    0    0    0  0.00000000000E+00  0.00000000000E+00  0.74505805969E-08  0.10566000000E+00  0.10566000000E+00 0.  1.
     999900   -1    0    0    0    0 -0.00000000000E+00 -0.00000000000E+00 -0.74505805969E-08  0.93827000000E+00  0.93827000000E+00 0.  1.
     999902    2    1    2    0    0 -0.51426570053E-02 -0.11107169607E-01 -0.21191421244E-01  0.10194577203E+01  0.10191639471E+01 0.  0.
     999903    2    3    3    0    0 -0.12751418958E+00  0.17861031687E-01 -0.47349888363E-02  0.13036562002E+00  0.19846656309E-01 0.  0.
         14    1    1    2    0    0  0.51426570053E-02  0.11107169607E-01  0.21191421244E-01  0.24472279667E-01  0.00000000000E+00 0.  1.
     999901    1    3    3    0    0  0.12237153257E+00 -0.28968201295E-01 -0.16456432408E-01  0.88909210031E+00  0.88000000000E+00 0. -1.
        -11    1    4    4    0    0 -0.28244531171E-01 -0.36704583532E-02  0.20485986985E-02  0.28560176527E-01  0.51100000000E-03 0. -1.
         11    1    4    4    0    0 -0.99269658409E-01  0.21531490041E-01 -0.67835875348E-02  0.10180544349E+00  0.51100000000E-03 0.  1.
</event>
<event>
 8    1  0.1071333E+005  0.1043930E+01  0.7957747E-01            NaN
         13   -1    0    0    0    0  0.00000000000E+00  0.00000000000E+00  0.74505805969E-08  0.10566000000E+00  0.10566000000E+00 0. -1.
     999900   -1    0    0    0    0 -0.00000000000E+00 -0.00000000000E+00 -0.74505805969E-08  0.93827000000E+00  0.93827000000E+00 0.  1.
     999902    2    1    2    0    0  0.20649005601E-01 -0.98051127522E-02  0.47497802952E-02  0.10205830070E+01  0.10203159276E+01 0.  0.
     999903    2    3    3    0    0 -0.59083043943E-01  0.92264015819E-01  0.64719384201E-01  0.12908333785E+00  0.21689968262E-01 0.  0.
         14    1    1    2    0    0 -0.20649005601E-01  0.98051127522E-02 -0.47497802952E-02  0.23346992981E-01  0.00000000000E+00 0.  1.
     999901    1    3    3    0    0  0.79732049544E-01 -0.10206912857E+00 -0.59969603906E-01  0.89149966917E+00  0.88000000000E+00 0.  1.
        -11    1    4    4    0    0 -0.14833312197E-02  0.26584707243E-02  0.76209062199E-02  0.82223518966E-02  0.51100000000E-03 0.  1.
         11    1    4    4    0    0 -0.57599712723E-01  0.89605545094E-01  0.57098477981E-01  0.12086098596E+00  0.51100000000E-03 0. -1.
</event>
<event>
 8    1  0.1071333E+005  0.1043930E+01  0.7957747E-01            NaN
         13   -1    0    0    0    0  0.00000000000E+00  0.00000000000E+00  0.74505805969E-08  0.10566000000E+00  0.10566000000E+00 0.  1.
     999900   -1    0    0    0    0 -0.00000000000E+00 -0.00000000000E+00 -0.74505805969E-08  0.93827000000E+00  0.93827000000E+00 0.  1.
     999902    2    1    2    0    0 -0.17410583923E-01  0.30382279274E-02  0.14716181177E-01  0.10209316251E+01  0.10206725517E+01 0.  0.
     999903    2    3    3    0    0 -0.61957764215E-01 -0.98627622032E-02 -0.11266669634E+00  0.13055120956E+00  0.20341957357E-01 0.  0.
         14    1    1    2    0    0  0.17410583923E-01 -0.30382279274E-02 -0.14716181177E-01  0.22998374941E-01  0.00000000000E+00 0. -1.
     999901    1    3    3    0    0  0.44547180291E-01  0.12900990131E-01  0.12738287752E+00  0.89038041550E+00  0.88000000000E+00 0. -1.
        -11    1    4    4    0    0 -0.23659299911E-01 -0.13768642443E-01 -0.43798476518E-01  0.51651772993E-01  0.51100000000E-03 0.  1.
         11    1    4    4    0    0 -0.38298464304E-01  0.39058802394E-02 -0.68868219821E-01  0.78899436568E-01  0.51100000000E-03 0. -1.
</event>
<event>
 8    1  0.1071333E+005  0.1043930E+01  0.7957747E-01            NaN
         13   -1    0    0    0    0  0.00000000000E+00  0.00000000000E+00  0.74505805969E-08  0.10566000000E+00  0.10566000000E+00 0. -1.
     999900   -1    0    0    0    0 -0.00000000000E+00 -0.00000000000E+00 -0.74505805969E-08  0.93827000000E+00  0.93827000000E+00 0.  1.
     999902    2    1    2    0    0  0.15755441655E-01 -0.12975402108E-01  0.12403190087E-01  0.10200462372E+01  0.10197665870E+01 0.  0.
     999903    2    3    3    0    0 -0.81338159660E-01 -0.95963019634E-01  0.29377852664E-01  0.13066316379E+00  0.19621589909E-01 0.  0.
         14    1    1    2    0    0 -0.15755441655E-01  0.12975402108E-01 -0.12403190087E-01  0.23883762810E-01  0.00000000000E+00 0.  1.
     999901    1    3    3    0    0  0.97093601316E-01  0.82987617526E-01 -0.16974662576E-01  0.88938307340E+00  0.88000000000E+00 0. -1.
        -11    1    4    4    0    0 -0.46809286270E-01 -0.58380472059E-01  0.27055358564E-01  0.79571617723E-01  0.51100000000E-03 0. -1.
         11    1    4    4    0    0 -0.34528873390E-01 -0.37582547575E-01  0.23224940994E-02  0.51091546068E-01  0.51100000000E-03 0.  1.
</event>
<event>
 8    1  0.1071333E+005  0.1043930E+01  0.7957747E-01            NaN
         13   -1    0    0    0    0  0.00000000000E+00  0.00000000000E+00  0.74505805969E-08  0.10566000000E+00  0.10566000000E+00 0. -1.
     999900   -1    0    0    0    0 -0.00000000000E+00 -0.00000000000E+00 -0.74505805969E-08  0.93827000000E+00  0.93827000000E+00 0. -1.
     999902    2    1    2    0    0  0.20816935499E-01  0.78148329218E-02  0.46398993412E-02  0.10212155754E+01  0.10209629310E+01 0.  0.
     999903    2    3    3    0    0 -0.12575442668E+00  0.18131659607E-01  0.95915223421E-02  0.12901934159E+00  0.20274621923E-01 0.  0.
         14    1    1    2    0    0 -0.20816935499E-01 -0.78148329218E-02 -0.46398993412E-02  0.22714424560E-01  0.00000000000E+00 0.  1.
     999901    1    3    3    0    0  0.14657136218E+00 -0.10316826685E-01 -0.49516230009E-02  0.89219623385E+00  0.88000000000E+00 0. -1.
        -11    1    4    4    0    0 -0.78125948126E-01  0.32871346429E-02  0.11787720813E-01  0.79080215653E-01  0.51100000000E-03 0.  1.
         11    1    4    4    0    0 -0.47628478554E-01  0.14844524964E-01 -0.21961984710E-02  0.49939125938E-01  0.51100000000E-03 0. -1.
</event>
<event>
 7    1  0.1071333E+005  0.1043930E+01  0.7957747E-01            NaN
         13   -1    0    0    0    0  0.00000000000E+00  0.00000000000E+00  0.74505805969E-08  0.10566000000E+00  0.10566000000E+00 0. -1.
     999900   -1    0    0    0    0 -0.00000000000E+00 -0.00000000000E+00 -0.74505805969E-08  0.93827000000E+00  0.93827000000E+00 0.  1.
     999903    2    1    2    0    0 -0.41950635814E-01 -0.63342682252E-01  0.77627218092E-02  0.78768087759E-01  0.19287316018E-01 0.  0.
         14    1    1    2    0    0  0.28847051044E-01  0.79248598474E-01  0.85634378025E-02  0.84769246670E-01  0.00000000000E+00 0. -1.
     999901    1    1    2    0    0  0.13103584770E-01 -0.15905916221E-01 -0.16326159612E-01  0.88039266557E+00  0.88000000000E+00 0.  1.
        -11    1    3    3    0    0 -0.39250254457E-01 -0.59951164154E-01  0.21940739658E-02  0.71692395970E-01  0.51100000000E-03 0. -1.
         11    1    3    3    0    0 -0.27003813564E-02 -0.33915180983E-02  0.55686478434E-02  0.70756917884E-02  0.51100000000E-03 0.  1.
</event>
<event>
 8    1  0.1071333E+005  0.1043930E+01  0.7957747E-01            NaN
         13   -1    0    0    0    0  0.00000000000E+00  0.00000000000E+00  0.74505805969E-08  0.10566000000E+00  0.10566000000E+00 0. -1.
     999900   -1    0    0    0    0 -0.00000000000E+00 -0.00000000000E+00 -0.74505805969E-08  0.93827000000E+00  0.93827000000E+00 0.  1.
     999902    2    1    2    0    0  0.13065842609E-01 -0.21024644816E-01  0.45075627286E-03  0.10191720697E+01  0.10188713130E+01 0.  0.
     999903    2    3    3    0    0  0.84445034770E-01  0.56187704570E-01 -0.77815942561E-01  0.12946289690E+00  0.20427890624E-01 0.  0.
         14    1    1    2    0    0 -0.13065842609E-01  0.21024644816E-01 -0.45075627286E-03  0.24757930325E-01  0.00000000000E+00 0. -1.
     999901    1    3    3    0    0 -0.71379192160E-01 -0.77212349386E-01  0.78266698834E-01  0.88970917277E+00  0.88000000000E+00 0. -1.
        -11    1    4    4    0    0  0.70498316759E-01  0.37232148032E-01 -0.63372898251E-01  0.10184611366E+00  0.51100000000E-03 0.  1.
         11    1    4    4    0    0  0.13946718011E-01  0.18955556538E-01 -0.14443044310E-01  0.27616783246E-01  0.51100000000E-03 0. -1.
</event>
<event>
 8    1  0.1071333E+005  0.1043930E+01  0.7957747E-01            NaN
         13   -1    0    0    0    0  0.00000000000E+00  0.00000000000E+00  0.74505805969E-08  0.10566000000E+00  0.10566000000E+00 0. -1.
     999900   -1    0    0    0    0 -0.00000000000E+00 -0.00000000000E+00 -0.74505805969E-08  0.93827000000E+00  0.93827000000E+00 0.  1.
     999902    2    1    2    0    0 -0.17788183778E-01  0.19629460427E-02 -0.17677747601E-01  0.10187749727E+01  0.10184643683E+01 0.  0.
     999903    2    3    3    0    0 -0.31011372669E-01  0.11158312839E+00  0.54432030759E-01  0.12894844057E+00  0.15885672061E-01 0.  0.
         14    1    1    2    0    0  0.17788183778E-01 -0.19629460427E-02  0.17677747601E-01  0.25155027321E-01  0.00000000000E+00 0. -1.
     999901    1    3    3    0    0  0.13223188892E-01 -0.10962018235E+00 -0.72109778361E-01  0.88982653211E+00  0.88000000000E+00 0.  1.
        -11    1    4    4    0    0 -0.14877136956E-01  0.69682059242E-01  0.40366666562E-01  0.81894123566E-01  0.51100000000E-03 0. -1.
         11    1    4    4    0    0 -0.16134235713E-01  0.41901069152E-01  0.14065364197E-01  0.47054317008E-01  0.51100000000E-03 0.  1.
</event>
<event>
 8    1  0.1071333E+005  0.1043930E+01  0.7957747E-01            NaN
         13   -1    0    0    0    0  0.00000000000E+00  0.00000000000E+00  0.74505805969E-08  0.10566000000E+00  0.10566000000E+00 0. -1.
     999900   -1    0    0    0    0 -0.00000000000E+00 -0.00000000000E+00 -0.74505805969E-08  0.93827000000E+00  0.93827000000E+00 0.  1.
     999902    2    1    2    0    0 -0.55219451503E-02  0.20957385779E-01 -0.86528559948E-02  0.10205938518E+01  0.10203270233E+01 0.  0.
     999903    2    3    3    0    0  0.27763733974E-01 -0.59175056488E-01 -0.11103557807E+00  0.13041894396E+00  0.20191312772E-01 0.  0.
         14    1    1    2    0    0  0.55219451503E-02 -0.20957385779E-01  0.86528559948E-02  0.23336148221E-01  0.00000000000E+00 0.  1.
     999901    1    3    3    0    0 -0.33285679124E-01  0.80132442267E-01  0.10238272207E+00  0.89017490782E+00  0.88000000000E+00 0. -1.
        -11    1    4    4    0    0  0.13887246270E-01 -0.49683944272E-01 -0.84116889563E-01  0.98677566641E-01  0.51100000000E-03 0. -1.
         11    1    4    4    0    0  0.13876487704E-01 -0.94911122154E-02 -0.26918688504E-01  0.31741377315E-01  0.51100000000E-03 0.  1.
</event>
<event>
 8    1  0.1071333E+005  0.1043930E+01  0.7957747E-01            NaN
         13   -1    0    0    0    0  0.00000000000E+00  0.00000000000E+00  0.74505805969E-08  0.10566000000E+00  0.10566000000E+00 0. -1.
     999900   -1    0    0    0    0 -0.00000000000E+00 -0.00000000000E+00 -0.74505805969E-08  0.93827000000E+00  0.93827000000E+00 0. -1.
     999902    2    1    2    0    0  0.13052328076E-01  0.14473691583E-01  0.12988370446E-01  0.10205088817E+01  0.10202400839E+01 0.  0.
     999903    2    3    3    0    0 -0.11720069183E+00  0.20414304922E-01 -0.45864979578E-01  0.12895694439E+00  0.19327471243E-01 0.  0.
         14    1    1    2    0    0 -0.13052328076E-01 -0.14473691583E-01 -0.12988370446E-01  0.23421118314E-01  0.00000000000E+00 0.  1.
     999901    1    3    3    0    0  0.13025301991E+00 -0.59406133389E-02  0.58853350023E-01  0.89155193729E+00  0.88000000000E+00 0.  1.
        -11    1    4    4    0    0 -0.67150840826E-01  0.19833979113E-02 -0.26148486135E-01  0.72091426252E-01  0.51100000000E-03 0. -1.
         11    1    4    4    0    0 -0.50049851003E-01  0.18430907011E-01 -0.19716493443E-01  0.56865518140E-01  0.51100000000E-03 0.  1.
</event>
<event>
 8    1  0.1071333E+005  0.1043930E+01  0.7957747E-01            NaN
         13   -1    0    0    0    0  0.00000000000E+00  0.00000000000E+00  0.74505805969E-08  0.10566000000E+00  0.10566000000E+00 0.  1.
     999900   -1    0    0    0    0 -0.00000000000E+00 -0.00000000000E+00 -0.74505805969E-08  0.93827000000E+00  0.93827000000E+00 0.  1.
     999902    2    1    2    0    0 -0.16874671785E-01 -0.13104604414E-01  0.15040164524E-01  0.10178016293E+01  0.10174661984E+01 0.  0.
     999903    2    3    3    0    0 -0.78946148626E-01 -0.48516727009E-01 -0.88484981453E-01  0.12885599404E+00  0.13707956609E-01 0.  0.
         14    1    1    2    0    0  0.16874671785E-01  0.13104604414E-01 -0.15040164524E-01  0.26128370665E-01  0.00000000000E+00 0. -1.
     999901    1    3    3    0    0  0.62071476841E-01  0.35412122595E-01  0.10352514598E+00  0.88894563530E+00  0.88000000000E+00 0. -1.
        -11    1    4    4    0    0 -0.44588768357E-01 -0.25119792670E-01 -0.39775239176E-01  0.64818924859E-01  0.51100000000E-03 0.  1.
         11    1    4    4    0    0 -0.34357380268E-01 -0.23396934339E-01 -0.48709742276E-01  0.64037069179E-01  0.51100000000E-03 0. -1.
</event>
<event>
 8    1  0.1071333E+005  0.1043930E+01  0.7957747E-01            NaN
         13   -1    0    0    0    0  0.00000000000E+00  0.00000000000E+00  0.74505805969E-08  0.10566000000E+00  0.10566000000E+00 0. -1.
     999900   -1    0    0    0    0 -0.00000000000E+00 -0.00000000000E+00 -0.74505805969E-08  0.93827000000E+00  0.93827000000E+00 0. -1.
     999902    2    1    2    0    0  0.20730885707E-01 -0.27245238907E-03 -0.14097488683E-01  0.10188584416E+01  0.10185499207E+01 0.  0.
     999903    2    3    3    0    0 -0.68424832031E-01  0.10281076489E+00 -0.28109576377E-01  0.12825683018E+00  0.20190472722E-01 0.  0.
         14    1    1    2    0    0 -0.20730885707E-01  0.27245238907E-03  0.14097488683E-01  0.25071558382E-01  0.00000000000E+00 0. -1.
     999901    1    3    3    0    0  0.89155717738E-01 -0.10308321728E+00  0.14012087694E-01  0.89060161144E+00  0.88000000000E+00 0. -1.
        -11    1    4    4    0    0 -0.36051007436E-01  0.58874867286E-01 -0.57492291606E-02  0.69276546479E-01  0.51100000000E-03 0. -1.
         11    1    4    4    0    0 -0.32373824595E-01  0.43935897604E-01 -0.22360347217E-01  0.58980283704E-01  0.51100000000E-03 0.  1.
</event>
<event>
 8    1  0.1071333E+005  0.1043930E+01  0.7957747E-01            NaN
         13   -1    0    0    0    0  0.00000000000E+00  0.00000000000E+00  0.74505805969E-08  0.10566000000E+00  0.10566000000E+00 0.  1.
     999900   -1    0    0    0    0 -0.00000000000E+00 -0.00000000000E+00 -0.74505805969E-08  0.93827000000E+00  0.93827000000E+00 0.  1.
     999902    2    1    2    0    0  0.68358413055E-03 -0.21999064695E-01  0.83116821620E-02  0.10204032026E+01  0.10201319452E+01 0.  0.
     999903    2    3    3    0    0 -0.13551138830E-01  0.39476887295E-01  0.12211767844E+00  0.13083379847E+00  0.21510403059E-01 0.  0.
         14    1    1    2    0    0 -0.68358413055E-03  0.21999064695E-01 -0.83116821620E-02  0.23526797382E-01  0.00000000000E+00 0. -1.
     999901    1    3    3    0    0  0.14234722961E-01 -0.61475951990E-01 -0.11380599628E+00  0.88956940415E+00  0.88000000000E+00 0. -1.
        -11    1    4    4    0    0 -0.60046616985E-02 -0.32638735427E-03  0.22420128174E-01  0.23218220414E-01  0.51100000000E-03 0.  1.
         11    1    4    4    0    0 -0.75464771317E-02  0.39803274649E-01  0.99697550266E-01  0.10761557805E+00  0.51100000000E-03 0. -1.
</event>
<event>
 8    1  0.1071333E+005  0.1043930E+01  0.7957747E-01            NaN
         13   -1    0    0    0    0  0.00000000000E+00  0.00000000000E+00  0.74505805969E-08  0.10566000000E+00  0.10566000000E+00 0.  1.
     999900   -1    0    0    0    0 -0.00000000000E+00 -0.00000000000E+00 -0.74505805969E-08  0.93827000000E+00  0.93827000000E+00 0. -1.
     999902    2    1    2    0    0  0.15043018070E-01  0.19230434447E-01 -0.29576124936E-02  0.10193363123E+01  0.10190395813E+01 0.  0.
     999903    2    3    3    0    0  0.10582536536E+00  0.74472400373E-01  0.21071773967E-01  0.13261734851E+00  0.19954826410E-01 0.  0.
         14    1    1    2    0    0 -0.15043018070E-01 -0.19230434447E-01  0.29576124936E-02  0.24593687673E-01  0.00000000000E+00 0.  1.
     999901    1    3    3    0    0 -0.90782347289E-01 -0.55241965926E-01 -0.24029386461E-01  0.88671896382E+00  0.88000000000E+00 0.  1.
        -11    1    4    4    0    0  0.71263047667E-02  0.35969994643E-02 -0.33562218326E-02  0.86745588224E-02  0.51100000000E-03 0.  1.
         11    1    4    4    0    0  0.98699060593E-01  0.70875400909E-01  0.24427995800E-01  0.12394278969E+00  0.51100000000E-03 0. -1.
</event>
<event>
 7    1  0.1071333E+005  0.1043930E+01  0.7957747E-01            NaN
         13   -1    0    0    0    0  0.00000000000E+00  0.00000000000E+00  0.74505805969E-08  0.10566000000E+00  0.10566000000E+00 0.  1.
     999900   -1    0    0    0    0 -0.00000000000E+00 -0.00000000000E+00 -0.74505805969E-08  0.93827000000E+00  0.93827000000E+00 0. -1.
     999903    2    1    2    0    0 -0.73762223456E-01 -0.48318362037E-01 -0.71461270930E-01  0.11520430411E+00  0.19743067708E-01 0.  0.
         14    1    1    2    0    0 -0.28121210318E-01 -0.45743531352E-02  0.28396675110E-01  0.40225593018E-01  0.00000000000E+00 0.  1.
     999901    1    1    2    0    0  0.10188343377E+00  0.52892715172E-01  0.43064595820E-01  0.88850010288E+00  0.88000000000E+00 0. -1.
        -11    1    3    3    0    0 -0.12910995130E-01 -0.15167664051E-01 -0.88160515592E-02  0.21788430740E-01  0.51100000000E-03 0.  1.
         11    1    3    3    0    0 -0.60851228326E-01 -0.33150697986E-01 -0.62645219371E-01  0.93415873366E-01  0.51100000000E-03 0. -1.
</event>
<event>
 8    1  0.1071333E+005  0.1043930E+01  0.7957747E-01            NaN
         13   -1    0    0    0    0  0.00000000000E+00  0.00000000000E+00  0.74505805969E-08  0.10566000000E+00  0.10566000000E+00 0. -1.
     999900   -1    0    0    0    0 -0.00000000000E+00 -0.00000000000E+00 -0.74505805969E-08  0.93827000000E+00  0.93827000000E+00 0.  1.
     999902    2    1    2    0    0 -0.97532589759E-02 -0.18739835276E-01 -0.72411505304E-02  0.10215974733E+01  0.10213533452E+01 0.  0.
     999903    2    3    3    0    0  0.57980236403E-01 -0.82832295241E-01 -0.84521858452E-01  0.13330248986E+00  0.20067692925E-01 0.  0.
         14    1    1    2    0    0  0.97532589759E-02  0.18739835276E-01  0.72411505304E-02  0.22332526678E-01  0.00000000000E+00 0.  1.
     999901    1    3    3    0    0 -0.67733495379E-01  0.64092459965E-01  0.77280707922E-01  0.88829498346E+00  0.88000000000E+00 0. -1.
        -11    1    4    4    0    0  0.77359767068E-03 -0.11958903153E-01 -0.10214033827E-01  0.15754409731E-01  0.51100000000E-03 0.  1.
         11    1    4    4    0    0  0.57206638733E-01 -0.70873392088E-01 -0.74307824626E-01  0.11754808013E+00  0.51100000000E-03 0. -1.
</event>
<event>
 8    1  0.1071333E+005  0.1043930E+01  0.7957747E-01            NaN
         13   -1    0    0    0    0  0.00000000000E+00  0.00000000000E+00  0.74505805969E-08  0.10566000000E+00  0.10566000000E+00 0. -1.
     999900   -1    0    0    0    0 -0.00000000000E+00 -0.00000000000E+00 -0.74505805969E-08  0.93827000000E+00  0.93827000000E+00 0.  1.
     999902    2    1    2    0    0 -0.10088264253E-01 -0.19677441825E-01  0.90334799766E-02  0.10200432138E+01  0.10197634920E+01 0.  0.
     999903    2    3    3    0    0 -0.59613354790E-01 -0.39373147383E-01 -0.10792474123E+00  0.13070644922E+00  0.18232643639E-01 0.  0.
         14    1    1    2    0    0  0.10088264253E-01  0.19677441825E-01 -0.90334799766E-02  0.23886786157E-01  0.00000000000E+00 0.  1.
     999901    1    3    3    0    0  0.49525090537E-01  0.19695705558E-01  0.11695822120E+00  0.88933676463E+00  0.88000000000E+00 0. -1.
        -11    1    4    4    0    0 -0.57750716880E-01 -0.34844165722E-01 -0.92263178109E-01  0.11428917858E+00  0.51100000000E-03 0. -1.
         11    1    4    4    0    0 -0.18626379104E-02 -0.45289816607E-02 -0.15661563116E-01  0.16417270635E-01  0.51100000000E-03 0.  1.
</event>
<event>
 8    1  0.1071333E+005  0.1043930E+01  0.7957747E-01            NaN
         13   -1    0    0    0    0  0.00000000000E+00  0.00000000000E+00  0.74505805969E-08  0.10566000000E+00  0.10566000000E+00 0.  1.
     999900   -1    0    0    0    0 -0.00000000000E+00 -0.00000000000E+00 -0.74505805969E-08  0.93827000000E+00  0.93827000000E+00 0.  1.
     999902    2    1    2    0    0 -0.70949246449E-02 -0.14289080692E-01  0.16886144217E-01  0.10206994673E+01  0.10204350763E+01 0.  0.
     999903    2    3    3    0    0  0.36196100158E-01  0.51646254038E-01 -0.10966328275E+00  0.12815460084E+00  0.20495680266E-01 0.  0.
         14    1    1    2    0    0  0.70949246449E-02  0.14289080692E-01 -0.16886144217E-01  0.23230532695E-01  0.00000000000E+00 0. -1.
     999901    1    3    3    0    0 -0.43291024803E-01 -0.65935334731E-01  0.12654942697E+00  0.89254486647E+00  0.88000000000E+00 0.  1.
        -11    1    4    4    0    0  0.34291832070E-01  0.34338598855E-01 -0.74504687766E-01  0.88917257819E-01  0.51100000000E-03 0. -1.
         11    1    4    4    0    0  0.19042680879E-02  0.17307655183E-01 -0.35158594983E-01  0.39237343017E-01  0.51100000000E-03 0.  1.
</event>
<event>
 8    1  0.1071333E+005  0.1043930E+01  0.7957747E-01            NaN
         13   -1    0    0    0    0  0.00000000000E+00  0.00000000000E+00  0.74505805969E-08  0.10566000000E+00  0.10566000000E+00 0. -1.
     999900   -1    0    0    0    0 -0.00000000000E+00 -0.00000000000E+00 -0.74505805969E-08  0.93827000000E+00  0.93827000000E+00 0.  1.
     999902    2    1    2    0    0  0.84282252296E-02 -0.22113897901E-01  0.12821126505E-02  0.10202297200E+01  0.10199544001E+01 0.  0.
     999903    2    3    3    0    0 -0.10962052669E+00  0.38037464782E-01 -0.52254243598E-01  0.12870303180E+00  0.19247228939E-01 0.  0.
         14    1    1    2    0    0 -0.84282252296E-02  0.22113897901E-01 -0.12821126505E-02  0.23700280035E-01  0.00000000000E+00 0.  1.
     999901    1    3    3    0    0  0.11804875192E+00 -0.60151362683E-01  0.53536356248E-01  0.89152668816E+00  0.88000000000E+00 0. -1.
        -11    1    4    4    0    0 -0.19314760473E-01  0.69981140665E-02 -0.16120286072E-02  0.20612940835E-01  0.51100000000E-03 0.  1.
         11    1    4    4    0    0 -0.90305766221E-01  0.31039350715E-01 -0.50642214991E-01  0.10809009097E+00  0.51100000000E-03 0. -1.
</event>
<event>
 8    1  0.1071333E+005  0.1043930E+01  0.7957747E-01            NaN
         13   -1    0    0    0    0  0.00000000000E+00  0.00000000000E+00  0.74505805969E-08  0.10566000000E+00  0.10566000000E+00 0.  1.
     999900   -1    0    0    0    0 -0.00000000000E+00 -0.00000000000E+00 -0.74505805969E-08  0.93827000000E+00  0.93827000000E+00 0.  1.
     999902    2    1    2    0    0  0.21202565000E-01  0.63224550366E-03 -0.10792910691E-01  0.10201300963E+01  0.10198524295E+01 0.  0.
     999903    2    3    3    0    0  0.11128936916E+00  0.64650422743E-01  0.24229317620E-01  0.13252629062E+00  0.20277007292E-01 0.  0.
         14    1    1    2    0    0 -0.21202565000E-01 -0.63224550366E-03  0.10792910691E-01  0.23799903743E-01  0.00000000000E+00 0.  1.
     999901    1    3    3    0    0 -0.90086804161E-01 -0.64018177239E-01 -0.35022228312E-01  0.88760380563E+00  0.88000000000E+00 0.  1.
        -11    1    4    4    0    0  0.22721754220E-01  0.19044031621E-01 -0.13196181610E-02  0.29680899048E-01  0.51100000000E-03 0.  1.
         11    1    4    4    0    0  0.88567614942E-01  0.45606391122E-01  0.25548935781E-01  0.10284539158E+00  0.51100000000E-03 0. -1.
</event>
<event>
 8    1  0.1071333E+005  0.1043930E+01  0.7957747E-01            NaN
         13   -1    0    0    0    0  0.00000000000E+00  0.00000000000E+00  0.74505805969E-08  0.10566000000E+00  0.10566000000E+00 0.  1.
     999900   -1    0    0    0    0 -0.00000000000E+00 -0.00000000000E+00 -0.74505805969E-08  0.93827000000E+00  0.93827000000E+00 0.  1.
     999902    2    1    2    0    0 -0.84308712038E-02  0.11863010236E-01  0.20733355015E-01  0.10185985450E+01  0.10182835132E+01 0.  0.
     999903    2    3    3    0    0 -0.11667227669E+00  0.54804404189E-01  0.52521028091E-02  0.13079235314E+00  0.21520041599E-01 0.  0.
         14    1    1    2    0    0  0.84308712038E-02 -0.11863010236E-01 -0.20733355015E-01  0.25331454978E-01  0.00000000000E+00 0. -1.
     999901    1    3    3    0    0  0.10824140548E+00 -0.42941393954E-01  0.15481252206E-01  0.88780619188E+00  0.88000000000E+00 0.  1.
        -11    1    4    4    0    0 -0.87729496959E-01  0.30926488682E-01  0.10026192914E-02  0.93027838336E-01  0.51100000000E-03 0. -1.
         11    1    4    4    0    0 -0.28942779726E-01  0.23877915507E-01  0.42494835177E-02  0.37764514804E-01  0.51100000000E-03 0.  1.
</event>
<event>
 8    1  0.1071333E+005  0.1043930E+01  0.7957747E-01            NaN
         13   -1    0    0    0    0  0.00000000000E+00  0.00000000000E+00  0.74505805969E-08  0.10566000000E+00  0.10566000000E+00 0. -1.
     999900   -1    0    0    0    0 -0.00000000000E+00 -0.00000000000E+00 -0.74505805969E-08  0.93827000000E+00  0.93827000000E+00 0.  1.
     999902    2    1    2    0    0 -0.33922192312E-02 -0.17014049565E-01  0.16209320632E-01  0.10201870619E+01  0.10199107383E+01 0.  0.
     999903    2    3    3    0    0  0.22027232725E-01  0.11659666588E+00 -0.43412253925E-01  0.12774507277E+00  0.18820158110E-01 0.  0.
         14    1    1    2    0    0  0.33922192312E-02  0.17014049565E-01 -0.16209320632E-01  0.23742938093E-01  0.00000000000E+00 0.  1.
     999901    1    3    3    0    0 -0.25419451956E-01 -0.13361071544E+00  0.59621574558E-01  0.89244198914E+00  0.88000000000E+00 0. -1.
        -11    1    4    4    0    0  0.19721948385E-01  0.53846945555E-01 -0.20972580078E-01  0.61061927826E-01  0.51100000000E-03 0.  1.
         11    1    4    4    0    0  0.23052843398E-02  0.62749720323E-01 -0.22439673847E-01  0.66683144946E-01  0.51100000000E-03 0. -1.
</event>
<event>
 8    1  0.1071333E+005  0.1043930E+01  0.7957747E-01            NaN
         13   -1    0    0    0    0  0.00000000000E+00  0.00000000000E+00  0.74505805969E-08  0.10566000000E+00  0.10566000000E+00 0.  1.
     999900   -1    0    0    0    0 -0.00000000000E+00 -0.00000000000E+00 -0.74505805969E-08  0.93827000000E+00  0.93827000000E+00 0.  1.
     999902    2    1    2    0    0  0.17457376804E-01 -0.15225129468E-01 -0.62716713481E-02  0.10199321161E+01  0.10196497550E+01 0.  0.
     999903    2    3    3    0    0 -0.88449789753E-01  0.23705539157E-01 -0.88347734620E-01  0.12893918396E+00  0.20848814199E-01 0.  0.
         14    1    1    2    0    0 -0.17457376804E-01  0.15225129468E-01  0.62716713481E-02  0.23997883942E-01  0.00000000000E+00 0.  1.
     999901    1    3    3    0    0  0.10590716656E+00 -0.38930668625E-01  0.82076063272E-01  0.89099293210E+00  0.88000000000E+00 0. -1.
        -11    1    4    4    0    0 -0.83806742339E-01  0.24181905457E-01 -0.75867071022E-01  0.11560453365E+00  0.51100000000E-03 0.  1.
         11    1    4    4    0    0 -0.46430474147E-02 -0.47636630031E-03 -0.12480663598E-01  0.13334650313E-01  0.51100000000E-03 0. -1.
</event>
<event>
 8    1  0.1071333E+005  0.1043930E+01  0.7957747E-01            NaN
         13   -1    0    0    0    0  0.00000000000E+00  0.00000000000E+00  0.74505805969E-08  0.10566000000E+00  0.10566000000E+00 0.  1.
     999900   -1    0    0    0    0 -0.00000000000E+00 -0.00000000000E+00 -0.74505805969E-08  0.93827000000E+00  0.93827000000E+00 0.  1.
     999902    2    1    2    0    0  0.19432705863E-02  0.12490772867E-01  0.20034294232E-01  0.10202410014E+01  0.10199659467E+01 0.  0.
     999903    2    3    3    0    0 -0.12637100118E+00 -0.21696056623E-01  0.96289344379E-02  0.13021765166E+00  0.20580855468E-01 0.  0.
         14    1    1    2    0    0 -0.19432705863E-02 -0.12490772867E-01 -0.20034294232E-01  0.23688998560E-01  0.00000000000E+00 0. -1.
     999901    1    3    3    0    0  0.12831427177E+00  0.34186829491E-01  0.10405359794E-01  0.89002334978E+00  0.88000000000E+00 0. -1.
        -11    1    4    4    0    0 -0.83567848885E-01 -0.18430900533E-01 -0.24747579440E-02  0.85613486143E-01  0.51100000000E-03 0.  1.
         11    1    4    4    0    0 -0.42803152296E-01 -0.32651560900E-02  0.12103692382E-01  0.44604165512E-01  0.51100000000E-03 0. -1.
</event>
<event>
 8    1  0.1071333E+005  0.1043930E+01  0.7957747E-01            NaN
         13   -1    0    0    0    0  0.00000000000E+00  0.00000000000E+00  0.74505805969E-08  0.10566000000E+00  0.10566000000E+00 0. -1.
     999900   -1    0    0    0    0 -0.00000000000E+00 -0.00000000000E+00 -0.74505805969E-08  0.93827000000E+00  0.93827000000E+00 0. -1.
     999902    2    1    2    0    0 -0.53048776463E-03  0.13203981881E-01 -0.19761492239E-01  0.10201572608E+01  0.10198802349E+01 0.  0.
     999903    2    3    3    0    0  0.12294392428E+00  0.10949815560E-01 -0.40165212509E-01  0.13129994742E+00  0.19781934173E-01 0.  0.
         14    1    1    2    0    0  0.53048776463E-03 -0.13203981881E-01  0.19761492239E-01  0.23772739226E-01  0.00000000000E+00 0. -1.
     999901    1    3    3    0    0 -0.12347441204E+00  0.22541663211E-02  0.20403720269E-01  0.88885731335E+00  0.88000000000E+00 0.  1.
        -11    1    4    4    0    0  0.57267365585E-01  0.24718515823E-02 -0.86928237310E-02  0.57978336616E-01  0.51100000000E-03 0.  1.
         11    1    4    4    0    0  0.65676558694E-01  0.84779639773E-02 -0.31472388778E-01  0.73321610808E-01  0.51100000000E-03 0. -1.
</event>
<event>
 8    1  0.1071333E+005  0.1043930E+01  0.7957747E-01            NaN
         13   -1    0    0    0    0  0.00000000000E+00  0.00000000000E+00  0.74505805969E-08  0.10566000000E+00  0.10566000000E+00 0. -1.
     999900   -1    0    0    0    0 -0.00000000000E+00 -0.00000000000E+00 -0.74505805969E-08  0.93827000000E+00  0.93827000000E+00 0.  1.
     999902    2    1    2    0    0 -0.22776458576E-01  0.77574133430E-02 -0.72390231274E-02  0.10188033611E+01  0.10184934661E+01 0.  0.
     999903    2    3    3    0    0 -0.57231982337E-01  0.11530995128E+00  0.16555403268E-01  0.13126693577E+00  0.19622496860E-01 0.  0.
         14    1    1    2    0    0  0.22776458576E-01 -0.77574133430E-02  0.72390231274E-02  0.25126638909E-01  0.00000000000E+00 0. -1.
     999901    1    3    3    0    0  0.34455523761E-01 -0.10755253794E+00 -0.23794426396E-01  0.88753642532E+00  0.88000000000E+00 0.  1.
        -11    1    4    4    0    0 -0.28959559657E-01  0.55509251190E-01  0.17846213226E-01  0.65105157328E-01  0.51100000000E-03 0. -1.
         11    1    4    4    0    0 -0.28272422680E-01  0.59800700094E-01 -0.12908099573E-02  0.66161778447E-01  0.51100000000E-03 0.  1.
</event>
<event>
 8    1  0.1071333E+005  0.1043930E+01  0.7957747E-01            NaN
         13   -1    0    0    0    0  0.00000000000E+00  0.00000000000E+00  0.74505805969E-08  0.10566000000E+00  0.10566000000E+00 0.  1.
     999900   -1    0    0    0    0 -0.00000000000E+00 -0.00000000000E+00 -0.74505805969E-08  0.93827000000E+00  0.93827000000E+00 0. -1.
     999902    2    1    2    0    0  0.48843683268E-02  0.52044887187E-02 -0.21963884666E-01  0.10208354988E+01  0.10205742303E+01 0.  0.
     999903    2    3    3    0    0 -0.10711994950E+00  0.72588351565E-01  0.71746355453E-02  0.13070370767E+00  0.16977380237E-01 0.  0.
         14    1    1    2    0    0 -0.48843683268E-02 -0.52044887187E-02  0.21963884666E-01  0.23094501215E-01  0.00000000000E+00 0.  1.
     999901    1    3    3    0    0  0.11200431783E+00 -0.67383862846E-01 -0.29138520211E-01  0.89013179111E+00  0.88000000000E+00 0.  1.
        -11    1    4    4    0    0 -0.94837325301E-01  0.61652783765E-01  0.11475619475E-01  0.11369755925E+00  0.51100000000E-03 0.  1.
         11    1    4    4    0    0 -0.12282624204E-01  0.10935567800E-01 -0.43009839293E-02  0.17006148423E-01  0.51100000000E-03 0. -1.
</event>
<event>
 8    1  0.1071333E+005  0.1043930E+01  0.7957747E-01            NaN
         13   -1    0    0    0    0  0.00000000000E+00  0.00000000000E+00  0.74505805969E-08  0.10566000000E+00  0.10566000000E+00 0. -1.
     999900   -1    0    0    0    0 -0.00000000000E+00 -0.00000000000E+00 -0.74505805969E-08  0.93827000000E+00  0.93827000000E+00 0.  1.
     999902    2    1    2    0    0  0.21533260955E-01  0.78307865485E-02  0.69108019666E-02  0.10199975591E+01  0.10197167542E+01 0.  0.
     999903    2    3    3    0    0 -0.12110881014E+00 -0.34596125524E-01  0.86364888776E-02  0.12750118299E+00  0.17824896308E-01 0.  0.
         14    1    1    2    0    0 -0.21533260955E-01 -0.78307865485E-02 -0.69108019666E-02  0.23932440936E-01  0.00000000000E+00 0.  1.
     999901    1    3    3    0    0  0.14264207109E+00  0.42426912072E-01 -0.17256869110E-02  0.89249637608E+00  0.88000000000E+00 0. -1.
        -11    1    4    4    0    0 -0.12289625910E-01  0.81368560951E-03 -0.23119712135E-02  0.12542062078E-01  0.51100000000E-03 0.  1.
         11    1    4    4    0    0 -0.10881918423E+00 -0.35409811133E-01  0.10948460091E-01  0.11495912091E+00  0.51100000000E-03 0. -1.
</event>
<event>
 8    1  0.1071333E+005  0.1043930E+01  0.7957747E-01            NaN
         13   -1    0    0    0    0  0.00000000000E+00  0.00000000000E+00  0.74505805969E-08  0.10566000000E+00  0.10566000000E+00 0. -1.
     999900   -1    0    0    0    0 -0.00000000000E+00 -0.00000000000E+00 -0.74505805969E-08  0.93827000000E+00  0.93827000000E+00 0. -1.
     999902    2    1    2    0    0  0.56994130334E-02  0.63671396599E-02  0.23446776666E-01  0.10189745374E+01  0.10186689024E+01 0.  0.
     999903    2    3    3    0    0  0.68438310347E-01  0.50744812378E-01  0.98963702942E-01  0.13240341607E+00  0.21863480498E-01 0.  0.
         14    1    1    2    0    0 -0.56994130334E-02 -0.63671396599E-02 -0.23446776666E-01  0.24955462576E-01  0.00000000000E+00 0.  1.
     999901    1    3    3    0    0 -0.62738897313E-01 -0.44377672718E-01 -0.75516926276E-01  0.88657112136E+00  0.88000000000E+00 0. -1.
        -11    1    4    4    0    0  0.47973105428E-01  0.24070126077E-01  0.68553571562E-01  0.87066888704E-01  0.51100000000E-03 0. -1.
         11    1    4    4    0    0  0.20465204919E-01  0.26674686301E-01  0.30410131380E-01  0.45336527361E-01  0.51100000000E-03 0.  1.
</event>
<event>
 8    1  0.1071333E+005  0.1043930E+01  0.7957747E-01            NaN
         13   -1    0    0    0    0  0.00000000000E+00  0.00000000000E+00  0.74505805969E-08  0.10566000000E+00  0.10566000000E+00 0. -1.
     999900   -1    0    0    0    0 -0.00000000000E+00 -0.00000000000E+00 -0.74505805969E-08  0.93827000000E+00  0.93827000000E+00 0.  1.
     999902    2    1    2    0    0  0.22710725830E-01  0.27050113966E-02  0.49731629749E-02  0.10205243062E+01  0.10202558664E+01 0.  0.
     999903    2    3    3    0    0 -0.22678784923E-01 -0.11380749359E+00  0.55430974139E-01  0.13025391902E+00  0.20664405190E-01 0.  0.
         14    1    1    2    0    0 -0.22710725830E-01 -0.27050113966E-02 -0.49731629749E-02  0.23405693845E-01  0.00000000000E+00 0.  1.
     999901    1    3    3    0    0  0.45389510753E-01  0.11651250499E+00 -0.50457811164E-01  0.89027038714E+00  0.88000000000E+00 0.  1.
        -11    1    4    4    0    0 -0.17328605385E-01 -0.37337108393E-01  0.17636317091E-01  0.44784383766E-01  0.51100000000E-03 0.  1.
         11    1    4    4    0    0 -0.53501795381E-02 -0.76470385201E-01  0.37794657048E-01  0.85469535252E-01  0.51100000000E-03 0. -1.
</event>
<event>
 8    1  0.1071333E+005  0.1043930E+01  0.7957747E-01            NaN
         13   -1    0    0    0    0  0.00000000000E+00  0.00000000000E+00  0.74505805969E-08  0.10566000000E+00  0.10566000000E+00 0. -1.
     999900   -1    0    0    0    0 -0.00000000000E+00 -0.00000000000E+00 -0.74505805969E-08  0.93827000000E+00  0.93827000000E+00 0. -1.
     999902    2    1    2    0    0 -0.50401599470E-03 -0.27244662028E-02 -0.21789954146E-01  0.10219645988E+01  0.10217285169E+01 0.  0.
     999903    2    3    3    0    0 -0.30368324123E-01  0.12405585935E+00  0.22625514953E-01  0.13126944234E+00  0.20190621943E-01 0.  0.
         14    1    1    2    0    0  0.50401599470E-03  0.27244662028E-02  0.21789954146E-01  0.21965401201E-01  0.00000000000E+00 0. -1.
     999901    1    3    3    0    0  0.29864308128E-01 -0.12678032556E+00 -0.44415469099E-01  0.89069515646E+00  0.88000000000E+00 0.  1.
        -11    1    4    4    0    0  0.30079398683E-02  0.10662657362E-01  0.23995897567E-02  0.11347207422E-01  0.51100000000E-03 0. -1.
         11    1    4    4    0    0 -0.33376263991E-01  0.11339320199E+00  0.20225925196E-01  0.11992223492E+00  0.51100000000E-03 0.  1.
</event>
<event>
 8    1  0.1071333E+005  0.1043930E+01  0.7957747E-01            NaN
         13   -1    0    0    0    0  0.00000000000E+00  0.00000000000E+00  0.74505805969E-08  0.10566000000E+00  0.10566000000E+00 0.  1.
     999900   -1    0    0    0    0 -0.00000000000E+00 -0.00000000000E+00 -0.74505805969E-08  0.93827000000E+00  0.93827000000E+00 0.  1.
     999902    2    1    2    0    0  0.20109784461E-01  0.10372868338E-01 -0.18159800830E-02  0.10212298323E+01  0.10209775085E+01 0.  0.
     999903    2    3    3    0    0  0.50188862889E-01 -0.34558382547E-01 -0.11266154528E+00  0.13262963675E+00  0.34420822150E-01 0.  0.
         14    1    1    2    0    0 -0.20109784461E-01 -0.10372868338E-01  0.18159800830E-02  0.22700167671E-01  0.00000000000E+00 0. -1.
     999901    1    3    3    0    0 -0.30079078429E-01  0.44931250885E-01  0.11084556519E+00  0.88860019558E+00  0.88000000000E+00 0. -1.
        -11    1    4    4    0    0  0.47842667347E-01 -0.18611193689E-01 -0.68406980352E-01  0.85528202549E-01  0.51100000000E-03 0. -1.
         11    1    4    4    0    0  0.23461955427E-02 -0.15947188858E-01 -0.44254564923E-01  0.47101434198E-01  0.51100000000E-03 0.  1.
</event>
<event>
 8    1  0.1071333E+005  0.1043930E+01  0.7957747E-01            NaN
         13   -1    0    0    0    0  0.00000000000E+00  0.00000000000E+00  0.74505805969E-08  0.10566000000E+00  0.10566000000E+00 0. -1.
     999900   -1    0    0    0    0 -0.00000000000E+00 -0.00000000000E+00 -0.74505805969E-08  0.93827000000E+00  0.93827000000E+00 0.  1.
     999902    2    1    2    0    0  0.21239767964E-01 -0.92277633831E-02  0.97498232959E-02  0.10188035515E+01  0.10184936613E+01 0.  0.
     999903    2    3    3    0    0 -0.77938968912E-01 -0.54383843794E-01 -0.82414344444E-01  0.12730496638E+00  0.19553642981E-01 0.  0.
         14    1    1    2    0    0 -0.21239767964E-01  0.92277633831E-02 -0.97498232959E-02  0.25126448506E-01  0.00000000000E+00 0.  1.
     999901    1    3    3    0    0  0.99178736877E-01  0.45156080411E-01  0.92164167739E-01  0.89149858511E+00  0.88000000000E+00 0. -1.
        -11    1    4    4    0    0 -0.27558786432E-01 -0.28909673314E-01 -0.27118317692E-01  0.48279604350E-01  0.51100000000E-03 0. -1.
         11    1    4    4    0    0 -0.50380182480E-01 -0.25474170480E-01 -0.55296026752E-01  0.79025362029E-01  0.51100000000E-03 0.  1.
</event>
<event>
 8    1  0.1071333E+005  0.1043930E+01  0.7957747E-01            NaN
         13   -1    0    0    0    0  0.00000000000E+00  0.00000000000E+00  0.74505805969E-08  0.10566000000E+00  0.10566000000E+00 0. -1.
     999900   -1    0    0    0    0 -0.00000000000E+00 -0.00000000000E+00 -0.74505805969E-08  0.93827000000E+00  0.93827000000E+00 0.  1.
     999902    2    1    2    0    0 -0.20129763269E-01  0.10792042282E-01  0.35132125763E-02  0.10208211660E+01  0.10205595694E+01 0.  0.
     999903    2    3    3    0    0  0.70161224885E-01 -0.10552359838E+00  0.86369565048E-02  0.12857229739E+00  0.19960244119E-01 0.  0.
         14    1    1    2    0    0  0.20129763269E-01 -0.10792042282E-01 -0.35132125763E-02  0.23108833992E-01  0.00000000000E+00 0. -1.
     999901    1    3    3    0    0 -0.90290988153E-01  0.11631564066E+00 -0.51237439285E-02  0.89224886862E+00  0.88000000000E+00 0.  1.
        -11    1    4    4    0    0  0.38880406333E-01 -0.45003184797E-01 -0.25612247541E-02  0.59529770970E-01  0.51100000000E-03 0.  1.
         11    1    4    4    0    0  0.31280818551E-01 -0.60520413583E-01  0.11198181259E-01  0.69042526417E-01  0.51100000000E-03 0. -1.
</event>
<event>
 8    1  0.1071333E+005  0.1043930E+01  0.7957747E-01            NaN
         13   -1    0    0    0    0  0.00000000000E+00  0.00000000000E+00  0.74505805969E-08  0.10566000000E+00  0.10566000000E+00 0.  1.
     999900   -1    0    0    0    0 -0.00000000000E+00 -0.00000000000E+00 -0.74505805969E-08  0.93827000000E+00  0.93827000000E+00 0.  1.
     999902    2    1    2    0    0 -0.51325733548E-02  0.16457906647E-01 -0.17713228274E-01  0.10192123048E+01  0.10189125369E+01 0.  0.
     999903    2    3    3    0    0  0.20861724111E-01  0.12694554250E+00  0.16308171915E-01  0.13127048415E+00  0.20386300388E-01 0.  0.
         14    1    1    2    0    0  0.51325733548E-02 -0.16457906647E-01  0.17713228274E-01  0.24717695207E-01  0.00000000000E+00 0.  1.
     999901    1    3    3    0    0 -0.25994297466E-01 -0.11048763585E+00 -0.34021400189E-01  0.88794182064E+00  0.88000000000E+00 0.  1.
        -11    1    4    4    0    0  0.54021368049E-02  0.84559297646E-01  0.15521978273E-01  0.86143199563E-01  0.51100000000E-03 0. -1.
         11    1    4    4    0    0  0.15459587306E-01  0.42386244856E-01  0.78619364171E-03  0.45127284586E-01  0.51100000000E-03 0.  1.
</event>
<event>
 8    1  0.1071333E+005  0.1043930E+01  0.7957747E-01            NaN
         13   -1    0    0    0    0  0.00000000000E+00  0.00000000000E+00  0.74505805969E-08  0.10566000000E+00  0.10566000000E+00 0. -1.
     999900   -1    0    0    0    0 -0.00000000000E+00 -0.00000000000E+00 -0.74505805969E-08  0.93827000000E+00  0.93827000000E+00 0. -1.
     999902    2    1    2    0    0  0.17508162864E-01  0.16029448110E-01 -0.30844184339E-02  0.10199927359E+01  0.10197118165E+01 0.  0.
     999903    2    3    3    0    0 -0.99795591493E-01  0.22904873700E-01 -0.76068110657E-01  0.12918744768E+00  0.20475494089E-01 0.  0.
         14    1    1    2    0    0 -0.17508162864E-01 -0.16029448110E-01  0.30844184339E-02  0.23937264060E-01  0.00000000000E+00 0.  1.
     999901    1    3    3    0    0  0.11730375436E+00 -0.68754255894E-02  0.72983692223E-01  0.89080528826E+00  0.88000000000E+00 0. -1.
        -11    1    4    4    0    0 -0.51264313017E-01  0.19254695386E-01 -0.49060298407E-01  0.73525145932E-01  0.51100000000E-03 0.  1.
         11    1    4    4    0    0 -0.48531278476E-01  0.36501783135E-02 -0.27007812251E-01  0.55662301748E-01  0.51100000000E-03 0. -1.
</event>
<event>
 8    1  0.1071333E+005  0.1043930E+01  0.7957747E-01            NaN
         13   -1    0    0    0    0  0.00000000000E+00  0.00000000000E+00  0.74505805969E-08  0.10566000000E+00  0.10566000000E+00 0.  1.
     999900   -1    0    0    0    0 -0.00000000000E+00 -0.00000000000E+00 -0.74505805969E-08  0.93827000000E+00  0.93827000000E+00 0.  1.
     999902    2    1    2    0    0  0.10850485445E-01  0.11089889480E-01 -0.17729525480E-01  0.10203703999E+01  0.10200983767E+01 0.  0.
     999903    2    3    3    0    0  0.24976624769E-01  0.12736400231E+00  0.13753381573E-01  0.13205154354E+00  0.20075701160E-01 0.  0.
         14    1    1    2    0    0 -0.10850485445E-01 -0.11089889480E-01  0.17729525480E-01  0.23559600099E-01  0.00000000000E+00 0.  1.
     999901    1    3    3    0    0 -0.14126139324E-01 -0.11627411283E+00 -0.31482907053E-01  0.88831885636E+00  0.88000000000E+00 0.  1.
        -11    1    4    4    0    0  0.15898622645E-01  0.34853963459E-01  0.59109664318E-02  0.38765520969E-01  0.51100000000E-03 0. -1.
         11    1    4    4    0    0  0.90780021247E-02  0.92510038853E-01  0.78424151408E-02  0.93286022573E-01  0.51100000000E-03 0.  1.
</event>
<event>
 8    1  0.1071333E+005  0.1043930E+01  0.7957747E-01            NaN
         13   -1    0    0    0    0  0.00000000000E+00  0.00000000000E+00  0.74505805969E-08  0.10566000000E+00  0.10566000000E+00 0. -1.
     999900   -1    0    0    0    0 -0.00000000000E+00 -0.00000000000E+00 -0.74505805969E-08  0.93827000000E+00  0.93827000000E+00 0.  1.
     999902    2    1    2    0    0  0.19381084114E-02  0.95490133024E-02  0.21518703160E-01  0.10203080927E+01  0.10200346119E+01 0.  0.
     999903    2    3    3    0    0 -0.12571723797E-01  0.10286787149E+00 -0.76246188610E-01  0.12987172855E+00  0.17701338226E-01 0.  0.
         14    1    1    2    0    0 -0.19381084114E-02 -0.95490133024E-02 -0.21518703160E-01  0.23621907310E-01  0.00000000000E+00 0.  1.
     999901    1    3    3    0    0  0.14509832208E-01 -0.93318858185E-01  0.97764891770E-01  0.89043636414E+00  0.88000000000E+00 0.  1.
        -11    1    4    4    0    0  0.22662609535E-02  0.50281615940E-01 -0.33020032256E-01  0.60199339626E-01  0.51100000000E-03 0.  1.
         11    1    4    4    0    0 -0.14837984751E-01  0.52586255547E-01 -0.43226156355E-01  0.69672388922E-01  0.51100000000E-03 0. -1.
</event>
<event>
 8    1  0.1071333E+005  0.1043930E+01  0.7957747E-01            NaN
         13   -1    0    0    0    0  0.00000000000E+00  0.00000000000E+00  0.74505805969E-08  0.10566000000E+00  0.10566000000E+00 0.  1.
     999900   -1    0    0    0    0 -0.00000000000E+00 -0.00000000000E+00 -0.74505805969E-08  0.93827000000E+00  0.93827000000E+00 0.  1.
     999902    2    1    2    0    0  0.15535394569E-01  0.60844168603E-02  0.19412712585E-01  0.10183326950E+01  0.10180109310E+01 0.  0.
     999903    2    3    3    0    0 -0.11090060831E+00  0.14388931854E-01 -0.55655947767E-01  0.12609375192E+00  0.17206494961E-01 0.  0.
         14    1    1    2    0    0 -0.15535394569E-01 -0.60844168603E-02 -0.19412712585E-01  0.25597304992E-01  0.00000000000E+00 0. -1.
     999901    1    3    3    0    0  0.12643600288E+00 -0.83045149937E-02  0.75068660352E-01  0.89223894309E+00  0.88000000000E+00 0. -1.
        -11    1    4    4    0    0 -0.89679325603E-01  0.65955089628E-02 -0.49549872203E-01  0.10267099462E+00  0.51100000000E-03 0. -1.
         11    1    4    4    0    0 -0.21221282705E-01  0.77934228912E-02 -0.61060755638E-02  0.23422757306E-01  0.51100000000E-03 0.  1.
</event>
<event>
 8    1  0.1071333E+005  0.1043930E+01  0.7957747E-01            NaN
         13   -1    0    0    0    0  0.00000000000E+00  0.00000000000E+00  0.74505805969E-08  0.10566000000E+00  0.10566000000E+00 0.  1.
     999900   -1    0    0    0    0 -0.00000000000E+00 -0.00000000000E+00 -0.74505805969E-08  0.93827000000E+00  0.93827000000E+00 0.  1.
     999902    2    1    2    0    0 -0.56075636914E-02 -0.12097846430E-01 -0.20250287736E-01  0.10196838289E+01  0.10193955239E+01 0.  0.
     999903    2    3    3    0    0 -0.89835192148E-01 -0.44261384202E-01  0.79159633254E-01  0.12950906015E+00  0.21838435026E-01 0.  0.
         14    1    1    2    0    0  0.56075636914E-02  0.12097846430E-01  0.20250287736E-01  0.24246171083E-01  0.00000000000E+00 0.  1.
     999901    1    3    3    0    0  0.84227628456E-01  0.32163537772E-01 -0.99409920990E-01  0.89017476877E+00  0.88000000000E+00 0.  1.
        -11    1    4    4    0    0 -0.41484945037E-01 -0.32260222782E-01  0.43841478351E-01  0.68440185445E-01  0.51100000000E-03 0.  1.
         11    1    4    4    0    0 -0.48350247111E-01 -0.12001161420E-01  0.35318154903E-01  0.61068874706E-01  0.51100000000E-03 0. -1.
</event>
<event>
 8    1  0.1071333E+005  0.1043930E+01  0.7957747E-01            NaN
         13   -1    0    0    0    0  0.00000000000E+00  0.00000000000E+00  0.74505805969E-08  0.10566000000E+00  0.10566000000E+00 0. -1.
     999900   -1    0    0    0    0 -0.00000000000E+00 -0.00000000000E+00 -0.74505805969E-08  0.93827000000E+00  0.93827000000E+00 0.  1.
     999902    2    1    2    0    0 -0.16895084436E-01 -0.61165472186E-02 -0.16173560107E-01  0.10197548046E+01  0.10194682052E+01 0.  0.
     999903    2    3    3    0    0 -0.54845601871E-01 -0.34293048871E-01  0.11043443543E+00  0.12943815215E+00  0.19349869747E-01 0.  0.
         14    1    1    2    0    0  0.16895084436E-01  0.61165472186E-02  0.16173560107E-01  0.24175195438E-01  0.00000000000E+00 0. -1.
     999901    1    3    3    0    0  0.37950517436E-01  0.28176501653E-01 -0.12660799554E+00  0.89031665241E+00  0.88000000000E+00 0.  1.
        -11    1    4    4    0    0 -0.39604749418E-01 -0.18973899798E-01  0.58225571255E-01  0.72931634556E-01  0.51100000000E-03 0.  1.
         11    1    4    4    0    0 -0.15240852453E-01 -0.15319149073E-01  0.52208864174E-01  0.56506517599E-01  0.51100000000E-03 0. -1.
</event>
<event>
 8    1  0.1071333E+005  0.1043930E+01  0.7957747E-01            NaN
         13   -1    0    0    0    0  0.00000000000E+00  0.00000000000E+00  0.74505805969E-08  0.10566000000E+00  0.10566000000E+00 0.  1.
     999900   -1    0    0    0    0 -0.00000000000E+00 -0.00000000000E+00 -0.74505805969E-08  0.93827000000E+00  0.93827000000E+00 0.  1.
     999902    2    1    2    0    0  0.18598642879E-02 -0.20881577357E-01  0.11449397253E-01  0.10200430147E+01  0.10197632881E+01 0.  0.
     999903    2    3    3    0    0  0.56202086153E-01 -0.35338046723E-01 -0.10963994390E+00  0.12997296404E+00  0.21554629403E-01 0.  0.
         14    1    1    2    0    0 -0.18598642879E-02  0.20881577357E-01 -0.11449397253E-01  0.23886985275E-01  0.00000000000E+00 0.  1.
     999901    1    3    3    0    0 -0.54342221865E-01  0.14456469367E-01  0.12108934115E+00  0.89007005068E+00  0.88000000000E+00 0. -1.
        -11    1    4    4    0    0  0.29800992188E-01 -0.15277342822E-01 -0.74356860813E-01  0.81551825302E-01  0.51100000000E-03 0. -1.
         11    1    4    4    0    0  0.26401093965E-01 -0.20060703901E-01 -0.35283083088E-01  0.48421138739E-01  0.51100000000E-03 0.  1.
</event>
<event>
 8    1  0.1071333E+005  0.1043930E+01  0.7957747E-01            NaN
         13   -1    0    0    0    0  0.00000000000E+00  0.00000000000E+00  0.74505805969E-08  0.10566000000E+00  0.10566000000E+00 0.  1.
     999900   -1    0    0    0    0 -0.00000000000E+00 -0.00000000000E+00 -0.74505805969E-08  0.93827000000E+00  0.93827000000E+00 0. -1.
     999902    2    1    2    0    0  0.32407050358E-02  0.15827822571E-02  0.22978458666E-01  0.10206702293E+01  0.10204051647E+01 0.  0.
     999903    2    3    3    0    0 -0.12794404281E+00  0.98947998139E-02 -0.12019720563E-01  0.13021899527E+00  0.18572234421E-01 0.  0.
         14    1    1    2    0    0 -0.32407050358E-02 -0.15827822571E-02 -0.22978458666E-01  0.23259770666E-01  0.00000000000E+00 0. -1.
     999901    1    3    3    0    0  0.13118474785E+00 -0.83120175568E-02  0.34998179228E-01  0.89045123407E+00  0.88000000000E+00 0.  1.
        -11    1    4    4    0    0 -0.61348597090E-01  0.89176144875E-03  0.27234249317E-02  0.61417617731E-01  0.51100000000E-03 0. -1.
         11    1    4    4    0    0 -0.66595445721E-01  0.90030383652E-02 -0.14743145494E-01  0.68801377535E-01  0.51100000000E-03 0.  1.
</event>
<event>
 8    1  0.1071333E+005  0.1043930E+01  0.7957747E-01            NaN
         13   -1    0    0    0    0  0.00000000000E+00  0.00000000000E+00  0.74505805969E-08  0.10566000000E+00  0.10566000000E+00 0. -1.
     999900   -1    0    0    0    0 -0.00000000000E+00 -0.00000000000E+00 -0.74505805969E-08  0.93827000000E+00  0.93827000000E+00 0.  1.
     999902    2    1    2    0    0  0.15707179967E-01 -0.13132764463E-01  0.12949305582E-01  0.10197046100E+01  0.10194168049E+01 0.  0.
     999903    2    3    3    0    0  0.49695724192E-01  0.56591804626E-01 -0.10245732901E+00  0.12878630400E+00  0.20398786162E-01 0.  0.
         14    1    1    2    0    0 -0.15707179967E-01  0.13132764463E-01 -0.12949305582E-01  0.24225389987E-01  0.00000000000E+00 0. -1.
     999901    1    3    3    0    0 -0.33988544225E-01 -0.69724569089E-01  0.11540663460E+00  0.89091830601E+00  0.88000000000E+00 0. -1.
        -11    1    4    4    0    0  0.32829111234E-01  0.31295946437E-01 -0.45654868004E-01  0.64356933591E-01  0.51100000000E-03 0. -1.
         11    1    4    4    0    0  0.16866612958E-01  0.25295858189E-01 -0.56802461009E-01  0.64429370413E-01  0.51100000000E-03 0.  1.
</event>
<event>
 8    1  0.1071333E+005  0.1043930E+01  0.7957747E-01            NaN
         13   -1    0    0    0    0  0.00000000000E+00  0.00000000000E+00  0.74505805969E-08  0.10566000000E+00  0.10566000000E+00 0.  1.
     999900   -1    0    0    0    0 -0.00000000000E+00 -0.00000000000E+00 -0.74505805969E-08  0.93827000000E+00  0.93827000000E+00 0.  1.
     999902    2    1    2    0    0  0.78565151761E-02  0.56325819324E-03 -0.24651376358E-01  0.10180508105E+01  0.10177218286E+01 0.  0.
     999903    2    3    3    0    0  0.10229037580E-01  0.11952660780E+00  0.39141713310E-01  0.12775453082E+00  0.19947512175E-01 0.  0.
         14    1    1    2    0    0 -0.78565151761E-02 -0.56325819324E-03  0.24651376358E-01  0.25879189455E-01  0.00000000000E+00 0.  1.
     999901    1    3    3    0    0 -0.23725224035E-02 -0.11896334960E+00 -0.63793089668E-01  0.89029627973E+00  0.88000000000E+00 0.  1.
        -11    1    4    4    0    0 -0.48371839040E-02  0.16132789632E-01  0.84677434349E-02  0.18858129529E-01  0.51100000000E-03 0. -1.
         11    1    4    4    0    0  0.15066221484E-01  0.10339381816E+00  0.30673969876E-01  0.10889640129E+00  0.51100000000E-03 0.  1.
</event>
<event>
 8    1  0.1071333E+005  0.1043930E+01  0.7957747E-01            NaN
         13   -1    0    0    0    0  0.00000000000E+00  0.00000000000E+00  0.74505805969E-08  0.10566000000E+00  0.10566000000E+00 0. -1.
     999900   -1    0    0    0    0 -0.00000000000E+00 -0.00000000000E+00 -0.74505805969E-08  0.93827000000E+00  0.93827000000E+00 0.  1.
     999902    2    1    2    0    0  0.39397751693E-02 -0.22237835098E-01  0.71399986231E-02  0.10202440819E+01  0.10199690995E+01 0.  0.
     999903    2    3    3    0    0 -0.96307165831E-01  0.45968979602E-01  0.71005602892E-01  0.12963730321E+00  0.19386012110E-01 0.  0.
         14    1    1    2    0    0 -0.39397751693E-02  0.22237835098E-01 -0.71399986231E-02  0.23685918149E-01  0.00000000000E+00 0.  1.
     999901    1    3    3    0    0  0.10024694100E+00 -0.68206814700E-01 -0.63865604269E-01  0.89060677864E+00  0.88000000000E+00 0. -1.
        -11    1    4    4    0    0 -0.64701922720E-01  0.23875906928E-01  0.37245060055E-01  0.78382736331E-01  0.51100000000E-03 0.  1.
         11    1    4    4    0    0 -0.31605243111E-01  0.22093072674E-01  0.33760542837E-01  0.51254566879E-01  0.51100000000E-03 0. -1.
</event>
<event>
 8    1  0.1071333E+005  0.1043930E+01  0.7957747E-01            NaN
         13   -1    0    0    0    0  0.00000000000E+00  0.00000000000E+00  0.74505805969E-08  0.10566000000E+00  0.10566000000E+00 0. -1.
     999900   -1    0    0    0    0 -0.00000000000E+00 -0.00000000000E+00 -0.74505805969E-08  0.93827000000E+00  0.93827000000E+00 0.  1.
     999902    2    1    2    0    0  0.83579254332E-02 -0.20364819758E-01 -0.27066207807E-02  0.10217510325E+01  0.10215102867E+01 0.  0.
     999903    2    3    3    0    0 -0.11013214421E+00 -0.69476093085E-01 -0.12391928065E-01  0.13239979768E+00  0.20497069228E-01 0.  0.
         14    1    1    2    0    0 -0.83579254332E-02  0.20364819758E-01  0.27066207807E-02  0.22178967455E-01  0.00000000000E+00 0.  1.
     999901    1    3    3    0    0  0.11849006964E+00  0.49111273327E-01  0.96853072839E-02  0.88935123486E+00  0.88000000000E+00 0.  1.
        -11    1    4    4    0    0 -0.10122467181E+00 -0.66319858098E-01 -0.63735581527E-02  0.12118432706E+00  0.51100000000E-03 0. -1.
         11    1    4    4    0    0 -0.89074724008E-02 -0.31562349865E-02 -0.60183699119E-02  0.11215470621E-01  0.51100000000E-03 0.  1.
</event>
<event>
 8    1  0.1071333E+005  0.1043930E+01  0.7957747E-01            NaN
         13   -1    0    0    0    0  0.00000000000E+00  0.00000000000E+00  0.74505805969E-08  0.10566000000E+00  0.10566000000E+00 0. -1.
     999900   -1    0    0    0    0 -0.00000000000E+00 -0.00000000000E+00 -0.74505805969E-08  0.93827000000E+00  0.93827000000E+00 0.  1.
     999902    2    1    2    0    0  0.14405119292E-01 -0.38793006015E-02  0.18682350073E-01  0.10200221218E+01  0.10197418999E+01 0.  0.
     999903    2    3    3    0    0 -0.10847387518E+00 -0.50354539752E-01  0.46304059874E-01  0.12984115483E+00  0.20310053059E-01 0.  0.
         14    1    1    2    0    0 -0.14405119292E-01  0.38793006015E-02 -0.18682350073E-01  0.23907878183E-01  0.00000000000E+00 0. -1.
     999901    1    3    3    0    0  0.12287899448E+00  0.46475239150E-01 -0.27621709801E-01  0.89018096699E+00  0.88000000000E+00 0.  1.
        -11    1    4    4    0    0 -0.36890109571E-01 -0.16243352508E-01  0.55724955280E-02  0.40694477663E-01  0.51100000000E-03 0.  1.
         11    1    4    4    0    0 -0.71583765613E-01 -0.34111187243E-01  0.40731564346E-01  0.89146677165E-01  0.51100000000E-03 0. -1.
</event>
<event>
 8    1  0.1071333E+005  0.1043930E+01  0.7957747E-01            NaN
         13   -1    0    0    0    0  0.00000000000E+00  0.00000000000E+00  0.74505805969E-08  0.10566000000E+00  0.10566000000E+00 0.  1.
     999900   -1    0    0    0    0 -0.00000000000E+00 -0.00000000000E+00 -0.74505805969E-08  0.93827000000E+00  0.93827000000E+00 0. -1.
     999902    2    1    2    0    0 -0.11918772685E-01 -0.15394536180E-01 -0.59506105060E-02  0.10235717424E+01  0.10233692653E+01 0.  0.
     999903    2    3    3    0    0 -0.93808715998E-02 -0.13234076746E+00 -0.19771392535E-01  0.13572385231E+00  0.20687596242E-01 0.  0.
         14    1    1    2    0    0  0.11918772685E-01  0.15394536180E-01  0.59506105060E-02  0.20358257586E-01  0.00000000000E+00 0. -1.
     999901    1    3    3    0    0 -0.25379010857E-02  0.11694623128E+00  0.13820782029E-01  0.88784789011E+00  0.88000000000E+00 0.  1.
        -11    1    4    4    0    0  0.48507933873E-02 -0.76010739930E-01 -0.10543911567E-01  0.76893419571E-01  0.51100000000E-03 0.  1.
         11    1    4    4    0    0 -0.14231664987E-01 -0.56330027530E-01 -0.92274809683E-02  0.58830432736E-01  0.51100000000E-03 0. -1.
</event>
<event>
 8    1  0.1071333E+005  0.1043930E+01  0.7957747E-01            NaN
         13   -1    0    0    0    0  0.00000000000E+00  0.00000000000E+00  0.74505805969E-08  0.10566000000E+00  0.10566000000E+00 0. -1.
     999900   -1    0    0    0    0 -0.00000000000E+00 -0.00000000000E+00 -0.74505805969E-08  0.93827000000E+00  0.93827000000E+00 0. -1.
     999902    2    1    2    0    0 -0.16099929189E-01 -0.17165283193E-01  0.84271078409E-03  0.10203807998E+01  0.10201090196E+01 0.  0.
     999903    2    3    3    0    0 -0.91600746912E-01  0.37889789046E-01  0.84103101549E-01  0.13152550952E+00  0.19982367593E-01 0.  0.
         14    1    1    2    0    0  0.16099929189E-01  0.17165283193E-01 -0.84271078409E-03  0.23549200166E-01  0.00000000000E+00 0.  1.
     999901    1    3    3    0    0  0.75500817723E-01 -0.55055072239E-01 -0.83260390765E-01  0.88885529032E+00  0.88000000000E+00 0. -1.
        -11    1    4    4    0    0 -0.23153441200E-01  0.18103163534E-01  0.30523545477E-01  0.42376341499E-01  0.51100000000E-03 0. -1.
         11    1    4    4    0    0 -0.68447305711E-01  0.19786625512E-01  0.53579556072E-01  0.89149168017E-01  0.51100000000E-03 0.  1.
</event>
<event>
 8    1  0.1071333E+005  0.1043930E+01  0.7957747E-01            NaN
         13   -1    0    0    0    0  0.00000000000E+00  0.00000000000E+00  0.74505805969E-08  0.10566000000E+00  0.10566000000E+00 0. -1.
     999900   -1    0    0    0    0 -0.00000000000E+00 -0.00000000000E+00 -0.74505805969E-08  0.93827000000E+00  0.93827000000E+00 0. -1.
     999902    2    1    2    0    0 -0.21552678591E-01  0.71597126308E-02 -0.60707171938E-02  0.10204218515E+01  0.10201510290E+01 0.  0.
     999903    2    3    3    0    0  0.21626438878E-01 -0.78652198035E-01  0.97603856673E-01  0.12914381548E+00  0.22310112618E-01 0.  0.
         14    1    1    2    0    0  0.21552678591E-01 -0.71597126308E-02  0.60707171938E-02  0.23508148516E-01  0.00000000000E+00 0.  1.
     999901    1    3    3    0    0 -0.43179117469E-01  0.85811910666E-01 -0.10367457387E+00  0.89127803600E+00  0.88000000000E+00 0.  1.
        -11    1    4    4    0    0  0.91450225154E-02 -0.65629756671E-01  0.72419110611E-01  0.98161525560E-01  0.51100000000E-03 0.  1.
         11    1    4    4    0    0  0.12481416363E-01 -0.13022441363E-01  0.25184746062E-01  0.30982289920E-01  0.51100000000E-03 0. -1.
</event>
<event>
 8    1  0.1071333E+005  0.1043930E+01  0.7957747E-01            NaN
         13   -1    0    0    0    0  0.00000000000E+00  0.00000000000E+00  0.74505805969E-08  0.10566000000E+00  0.10566000000E+00 0.  1.
     999900   -1    0    0    0    0 -0.00000000000E+00 -0.00000000000E+00 -0.74505805969E-08  0.93827000000E+00  0.93827000000E+00 0. -1.
     999902    2    1    2    0    0  0.29006349898E-02  0.18031974424E-01 -0.17272515664E-01  0.10187922678E+01  0.10184820957E+01 0.  0.
     999903    2    3    3    0    0  0.30953655611E-01  0.12628900968E+00 -0.46913771711E-02  0.13162551754E+00  0.19905403392E-01 0.  0.
         14    1    1    2    0    0 -0.29006349898E-02 -0.18031974424E-01  0.17272515664E-01  0.25137732244E-01  0.00000000000E+00 0.  1.
     999901    1    3    3    0    0 -0.28053020621E-01 -0.10825703526E+00 -0.12581138493E-01  0.88716675022E+00  0.88000000000E+00 0.  1.
        -11    1    4    4    0    0  0.11626282568E-01  0.82338496684E-01 -0.77232951297E-02  0.83514722602E-01  0.51100000000E-03 0.  1.
         11    1    4    4    0    0  0.19327373044E-01  0.43950513000E-01  0.30319179586E-02  0.48110794935E-01  0.51100000000E-03 0. -1.
</event>
<event>
 8    1  0.1071333E+005  0.1043930E+01  0.7957747E-01            NaN
         13   -1    0    0    0    0  0.00000000000E+00  0.00000000000E+00  0.74505805969E-08  0.10566000000E+00  0.10566000000E+00 0.  1.
     999900   -1    0    0    0    0 -0.00000000000E+00 -0.00000000000E+00 -0.74505805969E-08  0.93827000000E+00  0.93827000000E+00 0. -1.
     999902    2    1    2    0    0 -0.59115766934E-02 -0.12706895357E-01  0.18152023578E-01  0.10209973183E+01  0.10207397397E+01 0.  0.
     999903    2    3    3    0    0  0.62120263490E-02  0.96150341562E-01 -0.82636929973E-01  0.12849785450E+00  0.19983967613E-01 0.  0.
         14    1    1    2    0    0  0.59115766934E-02  0.12706895357E-01 -0.18152023578E-01  0.22932681670E-01  0.00000000000E+00 0. -1.
     999901    1    3    3    0    0 -0.12123603042E-01 -0.10885723692E+00  0.10078895355E+00  0.89249946383E+00  0.88000000000E+00 0.  1.
        -11    1    4    4    0    0  0.45040064071E-02  0.30648379094E-01 -0.15347711942E-01  0.34574883914E-01  0.51100000000E-03 0. -1.
         11    1    4    4    0    0  0.17080199419E-02  0.65501962468E-01 -0.67289218031E-01  0.93922970585E-01  0.51100000000E-03 0.  1.
</event>
<event>
 8    1  0.1071333E+005  0.1043930E+01  0.7957747E-01            NaN
         13   -1    0    0    0    0  0.00000000000E+00  0.00000000000E+00  0.74505805969E-08  0.10566000000E+00  0.10566000000E+00 0. -1.
     999900   -1    0    0    0    0 -0.00000000000E+00 -0.00000000000E+00 -0.74505805969E-08  0.93827000000E+00  0.93827000000E+00 0. -1.
     999902    2    1    2    0    0 -0.15873331794E-02 -0.17922356586E-01  0.14515757212E-01  0.10208120914E+01  0.10205502869E+01 0.  0.
     999903    2    3    3    0    0  0.91600358235E-01 -0.93479701199E-01 -0.51866184826E-02  0.13245346909E+00  0.19696200106E-01 0.  0.
         14    1    1    2    0    0  0.15873331794E-02  0.17922356586E-01 -0.14515757212E-01  0.23117908635E-01  0.00000000000E+00 0.  1.
     999901    1    3    3    0    0 -0.93187691415E-01  0.75557344613E-01  0.19702375694E-01  0.88835862227E+00  0.88000000000E+00 0. -1.
        -11    1    4    4    0    0  0.16215879844E-01 -0.22828136425E-01  0.56429165987E-02  0.28568902682E-01  0.51100000000E-03 0. -1.
         11    1    4    4    0    0  0.75384478392E-01 -0.70651564774E-01 -0.10829535081E-01  0.10388456641E+00  0.51100000000E-03 0.  1.
</event>
<event>
 8    1  0.1071333E+005  0.1043930E+01  0.7957747E-01            NaN
         13   -1    0    0    0    0  0.00000000000E+00  0.00000000000E+00  0.74505805969E-08  0.10566000000E+00  0.10566000000E+00 0.  1.
     999900   -1    0    0    0    0 -0.00000000000E+00 -0.00000000000E+00 -0.74505805969E-08  0.93827000000E+00  0.93827000000E+00 0.  1.
     999902    2    1    2    0    0 -0.61816359548E-02  0.92447612266E-02 -0.20910516240E-01  0.10202460830E+01  0.10199711476E+01 0.  0.
     999903    2    3    3    0    0 -0.34859225765E-01 -0.88454581597E-01  0.83700812029E-01  0.12821968447E+00  0.19876692989E-01 0.  0.
         14    1    1    2    0    0  0.61816359548E-02 -0.92447612266E-02  0.20910516240E-01  0.23683916962E-01  0.00000000000E+00 0.  1.
     999901    1    3    3    0    0  0.28677589810E-01  0.97699342824E-01 -0.10461132827E+00  0.89202639857E+00  0.88000000000E+00 0.  1.
        -11    1    4    4    0    0 -0.14271219231E-01 -0.59708539005E-01  0.47587534702E-01  0.77676327851E-01  0.51100000000E-03 0. -1.
         11    1    4    4    0    0 -0.20588006534E-01 -0.28746042592E-01  0.36113277327E-01  0.50543356616E-01  0.51100000000E-03 0.  1.
</event>
<event>
 8    1  0.1071333E+005  0.1043930E+01  0.7957747E-01            NaN
         13   -1    0    0    0    0  0.00000000000E+00  0.00000000000E+00  0.74505805969E-08  0.10566000000E+00  0.10566000000E+00 0. -1.
     999900   -1    0    0    0    0 -0.00000000000E+00 -0.00000000000E+00 -0.74505805969E-08  0.93827000000E+00  0.93827000000E+00 0. -1.
     999902    2    1    2    0    0  0.69556428404E-02  0.22004309697E-01 -0.44328543925E-03  0.10208482515E+01  0.10205872748E+01 0.  0.
     999903    2    3    3    0    0 -0.17179191650E-01 -0.97854184454E-01  0.80034970829E-01  0.12875784206E+00  0.17390206880E-01 0.  0.
         14    1    1    2    0    0 -0.69556428404E-02 -0.22004309697E-01  0.44328543925E-03  0.23081748516E-01  0.00000000000E+00 0.  1.
     999901    1    3    3    0    0  0.24134834491E-01  0.11985849415E+00 -0.80478256268E-01  0.89209040942E+00  0.88000000000E+00 0.  1.
        -11    1    4    4    0    0 -0.26037170495E-02 -0.19542722728E-01  0.77453229592E-02  0.21188404915E-01  0.51100000000E-03 0. -1.
         11    1    4    4    0    0 -0.14575474601E-01 -0.78311461726E-01  0.72289647870E-01  0.10756943714E+00  0.51100000000E-03 0.  1.
</event>
<event>
 8    1  0.1071333E+005  0.1043930E+01  0.7957747E-01            NaN
         13   -1    0    0    0    0  0.00000000000E+00  0.00000000000E+00  0.74505805969E-08  0.10566000000E+00  0.10566000000E+00 0. -1.
     999900   -1    0    0    0    0 -0.00000000000E+00 -0.00000000000E+00 -0.74505805969E-08  0.93827000000E+00  0.93827000000E+00 0.  1.
     999902    2    1    2    0    0  0.12404411912E-01  0.99871263585E-02  0.16573129414E-01  0.10209456413E+01  0.10206868872E+01 0.  0.
     999903    2    3    3    0    0  0.11510196911E+00 -0.17324532199E-01  0.62101304562E-01  0.13338407739E+00  0.19650378192E-01 0.  0.
         14    1    1    2    0    0 -0.12404411912E-01 -0.99871263585E-02 -0.16573129414E-01  0.22984358733E-01  0.00000000000E+00 0.  1.
     999901    1    3    3    0    0 -0.10269755720E+00  0.27311658557E-01 -0.45528175148E-01  0.88756156388E+00  0.88000000000E+00 0. -1.
        -11    1    4    4    0    0  0.45488556040E-01 -0.11824014624E-01  0.15761407533E-01  0.49575186746E-01  0.51100000000E-03 0.  1.
         11    1    4    4    0    0  0.69613413069E-01 -0.55005175749E-02  0.46339897028E-01  0.83808890640E-01  0.51100000000E-03 0. -1.
</event>
<event>
 8    1  0.1071333E+005  0.1043930E+01  0.7957747E-01            NaN
         13   -1    0    0    0    0  0.00000000000E+00  0.00000000000E+00  0.74505805969E-08  0.10566000000E+00  0.10566000000E+00 0.  1.
     999900   -1    0    0    0    0 -0.00000000000E+00 -0.00000000000E+00 -0.74505805969E-08  0.93827000000E+00  0.93827000000E+00 0.  1.
     999902    2    1    2    0    0 -0.14372005457E-01 -0.19314352164E-01 -0.25888555636E-02  0.10197163486E+01  0.10194288257E+01 0.  0.
     999903    2    3    3    0    0  0.26074862928E-01 -0.56853699658E-01 -0.11348301149E+00  0.13104168059E+00  0.19526559177E-01 0.  0.
         14    1    1    2    0    0  0.14372005457E-01  0.19314352164E-01  0.25888555636E-02  0.24213651387E-01  0.00000000000E+00 0. -1.
     999901    1    3    3    0    0 -0.40446868385E-01  0.37539347494E-01  0.11089415592E+00  0.88867466803E+00  0.88000000000E+00 0. -1.
        -11    1    4    4    0    0  0.22850354105E-01 -0.27390795727E-01 -0.67135535680E-01  0.76025230321E-01  0.51100000000E-03 0.  1.
         11    1    4    4    0    0  0.32245088234E-02 -0.29462903931E-01 -0.46347475808E-01  0.55016450267E-01  0.51100000000E-03 0. -1.
</event>
<event>
 8    1  0.1071333E+005  0.1043930E+01  0.7957747E-01            NaN
         13   -1    0    0    0    0  0.00000000000E+00  0.00000000000E+00  0.74505805969E-08  0.10566000000E+00  0.10566000000E+00 0.  1.
     999900   -1    0    0    0    0 -0.00000000000E+00 -0.00000000000E+00 -0.74505805969E-08  0.93827000000E+00  0.93827000000E+00 0.  1.
     999902    2    1    2    0    0 -0.12337720967E-01  0.67170283609E-02  0.16102450466E-01  0.10225611736E+01  0.10223378733E+01 0.  0.
     999903    2    3    3    0    0  0.11431278201E+00 -0.18604642948E-01 -0.56031710206E-01  0.13021321793E+00  0.20059529030E-01 0.  0.
         14    1    1    2    0    0  0.12337720967E-01 -0.67170283609E-02 -0.16102450466E-01  0.21368826352E-01  0.00000000000E+00 0. -1.
     999901    1    3    3    0    0 -0.12665050298E+00  0.25321671309E-01  0.72134160672E-01  0.89234795572E+00  0.88000000000E+00 0. -1.
        -11    1    4    4    0    0  0.71311093830E-01 -0.21173816707E-01 -0.37636760641E-01  0.83368995974E-01  0.51100000000E-03 0.  1.
         11    1    4    4    0    0  0.43001688178E-01  0.25691737595E-02 -0.18394949566E-01  0.46844221954E-01  0.51100000000E-03 0. -1.
</event>
<event>
 8    1  0.1071333E+005  0.1043930E+01  0.7957747E-01            NaN
         13   -1    0    0    0    0  0.00000000000E+00  0.00000000000E+00  0.74505805969E-08  0.10566000000E+00  0.10566000000E+00 0.  1.
     999900   -1    0    0    0    0 -0.00000000000E+00 -0.00000000000E+00 -0.74505805969E-08  0.93827000000E+00  0.93827000000E+00 0.  1.
     999902    2    1    2    0    0  0.11623251716E-01 -0.34539511026E-02 -0.18878525411E-01  0.10214927880E+01  0.10212463403E+01 0.  0.
     999903    2    3    3    0    0  0.10432432339E-01 -0.11938751360E+00  0.49877169778E-01  0.13122914474E+00  0.19265054289E-01 0.  0.
         14    1    1    2    0    0 -0.11623251716E-01  0.34539511026E-02  0.18878525411E-01  0.22437211956E-01  0.00000000000E+00 0.  1.
     999901    1    3    3    0    0  0.11908193774E-02  0.11593356250E+00 -0.68755695188E-01  0.89026364330E+00  0.88000000000E+00 0.  1.
        -11    1    4    4    0    0 -0.38687194109E-02 -0.31130376472E-01  0.18783263159E-01  0.36566917085E-01  0.51100000000E-03 0.  1.
         11    1    4    4    0    0  0.14301151750E-01 -0.88257137127E-01  0.31093906619E-01  0.94662227657E-01  0.51100000000E-03 0. -1.
</event>
<event>
 8    1  0.1071333E+005  0.1043930E+01  0.7957747E-01            NaN
         13   -1    0    0    0    0  0.00000000000E+00  0.00000000000E+00  0.74505805969E-08  0.10566000000E+00  0.10566000000E+00 0. -1.
     999900   -1    0    0    0    0 -0.00000000000E+00 -0.00000000000E+00 -0.74505805969E-08  0.93827000000E+00  0.93827000000E+00 0. -1.
     999902    2    1    2    0    0 -0.62588743185E-02  0.11731545539E-02  0.23680603297E-01  0.10194081572E+01  0.10191131784E+01 0.  0.
     999903    2    3    3    0    0  0.13984065979E-02  0.22883664497E-01 -0.12311639335E+00  0.12695124601E+00  0.20817178231E-01 0.  0.
         14    1    1    2    0    0  0.62588743185E-02 -0.11731545539E-02 -0.23680603297E-01  0.24521842750E-01  0.00000000000E+00 0.  1.
     999901    1    3    3    0    0 -0.76572809165E-02 -0.21710509943E-01  0.14679699665E+00  0.89245691124E+00  0.88000000000E+00 0.  1.
        -11    1    4    4    0    0  0.88748303591E-02  0.24855235582E-02 -0.35601240271E-01  0.36778388642E-01  0.51100000000E-03 0. -1.
         11    1    4    4    0    0 -0.74764237612E-02  0.20398140938E-01 -0.87515153082E-01  0.90172857369E-01  0.51100000000E-03 0.  1.
</event>
<event>
 8    1  0.1071333E+005  0.1043930E+01  0.7957747E-01            NaN
         13   -1    0    0    0    0  0.00000000000E+00  0.00000000000E+00  0.74505805969E-08  0.10566000000E+00  0.10566000000E+00 0. -1.
     999900   -1    0    0    0    0 -0.00000000000E+00 -0.00000000000E+00 -0.74505805969E-08  0.93827000000E+00  0.93827000000E+00 0. -1.
     999902    2    1    2    0    0 -0.21707226501E-04 -0.17209825751E-01 -0.16287425447E-01  0.10202348781E+01  0.10199596795E+01 0.  0.
     999903    2    3    3    0    0 -0.49033180580E-01 -0.69635819049E-01  0.95830775625E-01  0.13022302409E+00  0.22827578781E-01 0.  0.
         14    1    1    2    0    0  0.21707226501E-04  0.17209825751E-01  0.16287425447E-01  0.23695121888E-01  0.00000000000E+00 0. -1.
     999901    1    3    3    0    0  0.49011473354E-01  0.52425993298E-01 -0.11211820107E+00  0.89001185403E+00  0.88000000000E+00 0. -1.
        -11    1    4    4    0    0 -0.13638685004E-01 -0.21176297625E-01  0.14240564818E-01  0.28939663389E-01  0.51100000000E-03 0. -1.
         11    1    4    4    0    0 -0.35394495577E-01 -0.48459521424E-01  0.81590210807E-01  0.10128336070E+00  0.51100000000E-03 0.  1.
</event>
<event>
 8    1  0.1071333E+005  0.1043930E+01  0.7957747E-01            NaN
         13   -1    0    0    0    0  0.00000000000E+00  0.00000000000E+00  0.74505805969E-08  0.10566000000E+00  0.10566000000E+00 0.  1.
     999900   -1    0    0    0    0 -0.00000000000E+00 -0.00000000000E+00 -0.74505805969E-08  0.93827000000E+00  0.93827000000E+00 0. -1.
     999902    2    1    2    0    0  0.15520125973E-01  0.81473913552E-02  0.16868727992E-01  0.10196028900E+01  0.10193126336E+01 0.  0.
     999903    2    3    3    0    0  0.10014039126E+00  0.37770045962E-01 -0.72648228790E-01  0.13052956542E+00  0.17479358346E-01 0.  0.
         14    1    1    2    0    0 -0.15520125973E-01 -0.81473913552E-02 -0.16868727992E-01  0.24327109984E-01  0.00000000000E+00 0. -1.
     999901    1    3    3    0    0 -0.84620265286E-01 -0.29622654607E-01  0.89516956782E-01  0.88907332460E+00  0.88000000000E+00 0. -1.
        -11    1    4    4    0    0  0.74640095179E-01  0.22517383341E-01 -0.59287578591E-01  0.97946181431E-01  0.51100000000E-03 0. -1.
         11    1    4    4    0    0  0.25500296079E-01  0.15252662622E-01 -0.13360650199E-01  0.32583383985E-01  0.51100000000E-03 0.  1.
</event>
<event>
 8    1  0.1071333E+005  0.1043930E+01  0.7957747E-01            NaN
         13   -1    0    0    0    0  0.00000000000E+00  0.00000000000E+00  0.74505805969E-08  0.10566000000E+00  0.10566000000E+00 0. -1.
     999900   -1    0    0    0    0 -0.00000000000E+00 -0.00000000000E+00 -0.74505805969E-08  0.93827000000E+00  0.93827000000E+00 0. -1.
     999902    2    1    2    0    0 -0.14131723793E-01  0.75253230134E-02 -0.16499140963E-01  0.10209396160E+01  0.10206807247E+01 0.  0.
     999903    2    3    3    0    0  0.12358972519E+00 -0.18973670799E-01 -0.28380638488E-01  0.12975469458E+00  0.19909790785E-01 0.  0.
         14    1    1    2    0    0  0.14131723793E-01 -0.75253230134E-02  0.16499140963E-01  0.22990383997E-01  0.00000000000E+00 0. -1.
     999901    1    3    3    0    0 -0.13772144898E+00  0.26498993813E-01  0.11881497526E-01  0.89118492142E+00  0.88000000000E+00 0. -1.
        -11    1    4    4    0    0  0.51456264285E-01  0.19684524704E-02 -0.11125257945E-01  0.52684479922E-01  0.51100000000E-03 0. -1.
         11    1    4    4    0    0  0.72133460906E-01 -0.20942123270E-01 -0.17255380543E-01  0.77070214662E-01  0.51100000000E-03 0.  1.
</event>
<event>
 8    1  0.1071333E+005  0.1043930E+01  0.7957747E-01            NaN
         13   -1    0    0    0    0  0.00000000000E+00  0.00000000000E+00  0.74505805969E-08  0.10566000000E+00  0.10566000000E+00 0. -1.
     999900   -1    0    0    0    0 -0.00000000000E+00 -0.00000000000E+00 -0.74505805969E-08  0.93827000000E+00  0.93827000000E+00 0. -1.
     999902    2    1    2    0    0  0.12349736009E-01  0.68554104982E-03 -0.20336750697E-01  0.10201272822E+01  0.10198495490E+01 0.  0.
     999903    2    3    3    0    0  0.10829705168E-01 -0.12667777926E+00 -0.23629575597E-01  0.13095093942E+00  0.20621576540E-01 0.  0.
         14    1    1    2    0    0 -0.12349736009E-01 -0.68554104982E-03  0.20336750697E-01  0.23802717805E-01  0.00000000000E+00 0. -1.
     999901    1    3    3    0    0  0.15200308412E-02  0.12736332031E+00  0.32928249005E-02  0.88917634277E+00  0.88000000000E+00 0. -1.
        -11    1    4    4    0    0 -0.12006239916E-03 -0.98338326636E-01 -0.19955722763E-01  0.10034407253E+00  0.51100000000E-03 0. -1.
         11    1    4    4    0    0  0.10949767567E-01 -0.28339452626E-01 -0.36738528345E-02  0.30606866886E-01  0.51100000000E-03 0.  1.
</event>
<event>
 8    1  0.1071333E+005  0.1043930E+01  0.7957747E-01            NaN
         13   -1    0    0    0    0  0.00000000000E+00  0.00000000000E+00  0.74505805969E-08  0.10566000000E+00  0.10566000000E+00 0. -1.
     999900   -1    0    0    0    0 -0.00000000000E+00 -0.00000000000E+00 -0.74505805969E-08  0.93827000000E+00  0.93827000000E+00 0.  1.
     999902    2    1    2    0    0  0.24349252861E-02 -0.19014887942E-02 -0.25074818165E-01  0.10186655778E+01  0.10183522320E+01 0.  0.
     999903    2    3    3    0    0 -0.78511405513E-01 -0.10032727831E+00  0.10731540799E-01  0.12876556107E+00  0.15355786568E-01 0.  0.
         14    1    1    2    0    0 -0.24349252861E-02  0.19014887942E-02  0.25074818165E-01  0.25264422155E-01  0.00000000000E+00 0. -1.
     999901    1    3    3    0    0  0.80946330799E-01  0.98425789517E-01 -0.35806358964E-01  0.88990001677E+00  0.88000000000E+00 0. -1.
        -11    1    4    4    0    0 -0.57024501098E-01 -0.64072384739E-01  0.24326707529E-02  0.85809342263E-01  0.51100000000E-03 0.  1.
         11    1    4    4    0    0 -0.21486904416E-01 -0.36254893572E-01  0.82988700463E-02  0.42956218809E-01  0.51100000000E-03 0. -1.
</event>
<event>
 8    1  0.1071333E+005  0.1043930E+01  0.7957747E-01            NaN
         13   -1    0    0    0    0  0.00000000000E+00  0.00000000000E+00  0.74505805969E-08  0.10566000000E+00  0.10566000000E+00 0. -1.
     999900   -1    0    0    0    0 -0.00000000000E+00 -0.00000000000E+00 -0.74505805969E-08  0.93827000000E+00  0.93827000000E+00 0.  1.
     999902    2    1    2    0    0  0.86574523846E-03 -0.22295419190E-01  0.42117905929E-02  0.10212237363E+01  0.10209712754E+01 0.  0.
     999903    2    3    3    0    0 -0.81300949342E-01 -0.75938121587E-01  0.70673448313E-01  0.13327888599E+00  0.19801072734E-01 0.  0.
         14    1    1    2    0    0 -0.86574523846E-03  0.22295419190E-01 -0.42117905929E-02  0.22706263710E-01  0.00000000000E+00 0.  1.
     999901    1    3    3    0    0  0.82166694580E-01  0.53642702397E-01 -0.66461657720E-01  0.88794485030E+00  0.88000000000E+00 0.  1.
        -11    1    4    4    0    0 -0.23156002763E-01 -0.12640943647E-01  0.22929775353E-01  0.34957540517E-01  0.51100000000E-03 0. -1.
         11    1    4    4    0    0 -0.58144946578E-01 -0.63297177940E-01  0.47743672960E-01  0.98321345478E-01  0.51100000000E-03 0.  1.
</event>
<event>
 8    1  0.1071333E+005  0.1043930E+01  0.7957747E-01            NaN
         13   -1    0    0    0    0  0.00000000000E+00  0.00000000000E+00  0.74505805969E-08  0.10566000000E+00  0.10566000000E+00 0.  1.
     999900   -1    0    0    0    0 -0.00000000000E+00 -0.00000000000E+00 -0.74505805969E-08  0.93827000000E+00  0.93827000000E+00 0. -1.
     999902    2    1    2    0    0 -0.59371514256E-02 -0.22962357373E-01  0.23880948862E-02  0.10200925794E+01  0.10198140262E+01 0.  0.
     999903    2    3    3    0    0  0.41880486798E-01  0.55417879987E-02  0.12173327015E+00  0.13029356633E+00  0.19306418003E-01 0.  0.
         14    1    1    2    0    0  0.59371514256E-02  0.22962357373E-01 -0.23880948862E-02  0.23837420589E-01  0.00000000000E+00 0.  1.
     999901    1    3    3    0    0 -0.47817638224E-01 -0.28504145371E-01 -0.11934517526E+00  0.88979901309E+00  0.88000000000E+00 0. -1.
        -11    1    4    4    0    0  0.34984260559E-01 -0.30486720993E-02  0.85918651445E-01  0.92819548995E-01  0.51100000000E-03 0.  1.
         11    1    4    4    0    0  0.68962262385E-02  0.85904600980E-02  0.35814618704E-01  0.37474017331E-01  0.51100000000E-03 0. -1.
</event>
<event>
 8    1  0.1071333E+005  0.1043930E+01  0.7957747E-01            NaN
         13   -1    0    0    0    0  0.00000000000E+00  0.00000000000E+00  0.74505805969E-08  0.10566000000E+00  0.10566000000E+00 0. -1.
     999900   -1    0    0    0    0 -0.00000000000E+00 -0.00000000000E+00 -0.74505805969E-08  0.93827000000E+00  0.93827000000E+00 0.  1.
     999902    2    1    2    0    0  0.56165535527E-02 -0.14359898782E-01  0.18294069534E-01  0.10200045878E+01  0.10197239498E+01 0.  0.
     999903    2    3    3    0    0  0.94296756328E-01  0.56951207117E-01 -0.63767080959E-01  0.12889096736E+00  0.20281089876E-01 0.  0.
         14    1    1    2    0    0 -0.56165535527E-02  0.14359898782E-01 -0.18294069534E-01  0.23925412158E-01  0.00000000000E+00 0.  1.
     999901    1    3    3    0    0 -0.88680202776E-01 -0.71311105899E-01  0.82061150493E-01  0.89111362048E+00  0.88000000000E+00 0. -1.
        -11    1    4    4    0    0  0.53414360344E-01  0.40583628704E-01 -0.30471051614E-01  0.73680872126E-01  0.51100000000E-03 0. -1.
         11    1    4    4    0    0  0.40882395984E-01  0.16367578414E-01 -0.33296029345E-01  0.55210095234E-01  0.51100000000E-03 0.  1.
</event>
<event>
 8    1  0.1071333E+005  0.1043930E+01  0.7957747E-01            NaN
         13   -1    0    0    0    0  0.00000000000E+00  0.00000000000E+00  0.74505805969E-08  0.10566000000E+00  0.10566000000E+00 0.  1.
     999900   -1    0    0    0    0 -0.00000000000E+00 -0.00000000000E+00 -0.74505805969E-08  0.93827000000E+00  0.93827000000E+00 0.  1.
     999902    2    1    2    0    0 -0.22840804425E-01 -0.82513239943E-02  0.40039317329E-02  0.10193166263E+01  0.10190194142E+01 0.  0.
     999903    2    3    3    0    0 -0.91487922503E-03 -0.60705511573E-01  0.11399737545E+00  0.13064866490E+00  0.19689486866E-01 0.  0.
         14    1    1    2    0    0  0.22840804425E-01  0.82513239943E-02 -0.40039317329E-02  0.24613373677E-01  0.00000000000E+00 0.  1.
     999901    1    3    3    0    0 -0.21925925200E-01  0.52454187579E-01 -0.10999344372E+00  0.88866796142E+00  0.88000000000E+00 0.  1.
        -11    1    4    4    0    0 -0.28215190854E-02 -0.52061815073E-01  0.79826993667E-01  0.95346754520E-01  0.51100000000E-03 0.  1.
         11    1    4    4    0    0  0.19066398604E-02 -0.86436965000E-02  0.34170381781E-01  0.35301910385E-01  0.51100000000E-03 0. -1.
</event>
<event>
 8    1  0.1071333E+005  0.1043930E+01  0.7957747E-01            NaN
         13   -1    0    0    0    0  0.00000000000E+00  0.00000000000E+00  0.74505805969E-08  0.10566000000E+00  0.10566000000E+00 0.  1.
     999900   -1    0    0    0    0 -0.00000000000E+00 -0.00000000000E+00 -0.74505805969E-08  0.93827000000E+00  0.93827000000E+00 0. -1.
     999902    2    1    2    0    0 -0.80055598880E-02  0.68052358793E-02  0.21333483896E-01  0.10201493827E+01  0.10198721710E+01 0.  0.
     999903    2    3    3    0    0  0.72715461080E-01  0.13341194405E-01  0.10777605149E+00  0.13221305644E+00  0.19977218780E-01 0.  0.
         14    1    1    2    0    0  0.80055598880E-02 -0.68052358793E-02 -0.21333483896E-01  0.23780617310E-01  0.00000000000E+00 0. -1.
     999901    1    3    3    0    0 -0.80721020968E-01 -0.65359585262E-02 -0.86442567595E-01  0.88793632625E+00  0.88000000000E+00 0. -1.
        -11    1    4    4    0    0  0.28317382386E-01  0.12233099544E-01  0.32502481139E-01  0.44812891793E-01  0.51100000000E-03 0. -1.
         11    1    4    4    0    0  0.44398078694E-01  0.11080948618E-02  0.75273570353E-01  0.87400164649E-01  0.51100000000E-03 0.  1.
</event>
<event>
 8    1  0.1071333E+005  0.1043930E+01  0.7957747E-01            NaN
         13   -1    0    0    0    0  0.00000000000E+00  0.00000000000E+00  0.74505805969E-08  0.10566000000E+00  0.10566000000E+00 0. -1.
     999900   -1    0    0    0    0 -0.00000000000E+00 -0.00000000000E+00 -0.74505805969E-08  0.93827000000E+00  0.93827000000E+00 0. -1.
     999902    2    1    2    0    0  0.60931250493E-02  0.20722723277E-01 -0.43511532297E-02  0.10218961631E+01  0.10216585918E+01 0.  0.
     999903    2    3    3    0    0  0.52449267010E-01 -0.73126364306E-01 -0.93457458393E-01  0.13122423882E+00  0.19675201575E-01 0.  0.
         14    1    1    2    0    0 -0.60931250493E-02 -0.20722723277E-01  0.43511532297E-02  0.22033836873E-01  0.00000000000E+00 0. -1.
     999901    1    3    3    0    0 -0.46356141960E-01  0.93849087584E-01  0.89106305163E-01  0.89067192431E+00  0.88000000000E+00 0.  1.
        -11    1    4    4    0    0  0.43282445939E-01 -0.44685101652E-01 -0.61911359021E-01  0.87769048832E-01  0.51100000000E-03 0. -1.
         11    1    4    4    0    0  0.91668210705E-02 -0.28441262654E-01 -0.31546099372E-01  0.43455189983E-01  0.51100000000E-03 0.  1.
</event>
<event>
 8    1  0.1071333E+005  0.1043930E+01  0.7957747E-01            NaN
         13   -1    0    0    0    0  0.00000000000E+00  0.00000000000E+00  0.74505805969E-08  0.10566000000E+00  0.10566000000E+00 0. -1.
     999900   -1    0    0    0    0 -0.00000000000E+00 -0.00000000000E+00 -0.74505805969E-08  0.93827000000E+00  0.93827000000E+00 0. -1.
     999902    2    1    2    0    0 -0.27829100437E-02  0.22252283824E-01  0.72934061000E-02  0.10203481745E+01  0.10200756318E+01 0.  0.
     999903    2    3    3    0    0  0.94770559997E-01  0.15771327078E-01  0.87304369578E-01  0.13132599442E+00  0.19856234842E-01 0.  0.
         14    1    1    2    0    0  0.27829100437E-02 -0.22252283824E-01 -0.72934061000E-02  0.23581825549E-01  0.00000000000E+00 0.  1.
     999901    1    3    3    0    0 -0.97553470040E-01  0.64809567461E-02 -0.80010963478E-01  0.88902218003E+00  0.88000000000E+00 0. -1.
        -11    1    4    4    0    0  0.40642949899E-01  0.11873065963E-01  0.27112738573E-01  0.50281018146E-01  0.51100000000E-03 0.  1.
         11    1    4    4    0    0  0.54127610097E-01  0.38982611145E-02  0.60191631005E-01  0.81044976270E-01  0.51100000000E-03 0. -1.
</event>
<event>
 7    1  0.1071333E+005  0.1043930E+01  0.7957747E-01            NaN
         13   -1    0    0    0    0  0.00000000000E+00  0.00000000000E+00  0.74505805969E-08  0.10566000000E+00  0.10566000000E+00 0.  1.
     999900   -1    0    0    0    0 -0.00000000000E+00 -0.00000000000E+00 -0.74505805969E-08  0.93827000000E+00  0.93827000000E+00 0. -1.
     999903    2    1    2    0    0  0.99582317186E-01 -0.20536836303E-01 -0.34244974690E-01  0.10895783717E+00  0.18991904799E-01 0.  0.
         14    1    1    2    0    0  0.23091150388E-01  0.27300523167E-01 -0.26284382937E-01  0.44377793747E-01  0.00000000000E+00 0.  1.
     999901    1    1    2    0    0 -0.12267346757E+00 -0.67636868649E-02  0.60529357627E-01  0.89059436908E+00  0.88000000000E+00 0.  1.
        -11    1    3    3    0    0  0.26810920032E-01 -0.85782221849E-02 -0.18073907478E-01  0.33456517771E-01  0.51100000000E-03 0.  1.
         11    1    3    3    0    0  0.72771397154E-01 -0.11958614118E-01 -0.16171067212E-01  0.75501319400E-01  0.51100000000E-03 0. -1.
</event>
<event>
 8    1  0.1071333E+005  0.1043930E+01  0.7957747E-01            NaN
         13   -1    0    0    0    0  0.00000000000E+00  0.00000000000E+00  0.74505805969E-08  0.10566000000E+00  0.10566000000E+00 0. -1.
     999900   -1    0    0    0    0 -0.00000000000E+00 -0.00000000000E+00 -0.74505805969E-08  0.93827000000E+00  0.93827000000E+00 0.  1.
     999902    2    1    2    0    0  0.21002233015E-02 -0.21962316910E-02  0.24871041001E-01  0.10188740017E+01  0.10185658684E+01 0.  0.
     999903    2    3    3    0    0 -0.10301401067E+00 -0.71063815936E-01  0.28598747041E-01  0.12993888473E+00  0.20106543814E-01 0.  0.
         14    1    1    2    0    0 -0.21002233015E-02  0.21962316910E-02 -0.24871041001E-01  0.25055998324E-01  0.00000000000E+00 0.  1.
     999901    1    3    3    0    0  0.10511423397E+00  0.68867584245E-01 -0.37277060404E-02  0.88893511694E+00  0.88000000000E+00 0.  1.
        -11    1    4    4    0    0 -0.96277590350E-01 -0.60968387438E-01  0.29627934332E-01  0.11774801181E+00  0.51100000000E-03 0. -1.
         11    1    4    4    0    0 -0.67364203174E-02 -0.10095428498E-01 -0.10291872905E-02  0.12190872927E-01  0.51100000000E-03 0.  1.
</event>
<event>
 8    1  0.1071333E+005  0.1043930E+01  0.7957747E-01            NaN
         13   -1    0    0    0    0  0.00000000000E+00  0.00000000000E+00  0.74505805969E-08  0.10566000000E+00  0.10566000000E+00 0. -1.
     999900   -1    0    0    0    0 -0.00000000000E+00 -0.00000000000E+00 -0.74505805969E-08  0.93827000000E+00  0.93827000000E+00 0. -1.
     999902    2    1    2    0    0  0.87756245309E-02  0.17384284927E-01  0.14290184587E-01  0.10197756148E+01  0.10194895145E+01 0.  0.
     999903    2    3    3    0    0  0.18881341109E-01 -0.12151220533E+00  0.31852015553E-01  0.12865116872E+00  0.20367897112E-01 0.  0.
         14    1    1    2    0    0 -0.87756245309E-02 -0.17384284927E-01 -0.14290184587E-01  0.24154385189E-01  0.00000000000E+00 0.  1.
     999901    1    3    3    0    0 -0.10105716578E-01  0.13889649026E+00 -0.17561830966E-01  0.89112444609E+00  0.88000000000E+00 0.  1.
        -11    1    4    4    0    0  0.13257885464E-01 -0.48631152983E-01  0.21579854161E-01  0.54833491536E-01  0.51100000000E-03 0. -1.
         11    1    4    4    0    0  0.56234556441E-02 -0.72881052345E-01  0.10272161392E-01  0.73817677184E-01  0.51100000000E-03 0.  1.
</event>
<event>
 8    1  0.1071333E+005  0.1043930E+01  0.7957747E-01            NaN
         13   -1    0    0    0    0  0.00000000000E+00  0.00000000000E+00  0.74505805969E-08  0.10566000000E+00  0.10566000000E+00 0. -1.
     999900   -1    0    0    0    0 -0.00000000000E+00 -0.00000000000E+00 -0.74505805969E-08  0.93827000000E+00  0.93827000000E+00 0.  1.
     999902    2    1    2    0    0  0.10842848203E-01  0.79978736047E-02 -0.19691353200E-01  0.10200703535E+01  0.10197912744E+01 0.  0.
     999903    2    3    3    0    0  0.98917216579E-01 -0.73018281252E-01  0.37485383214E-01  0.13013221471E+00  0.20321275036E-01 0.  0.
         14    1    1    2    0    0 -0.10842848203E-01 -0.79978736047E-02  0.19691353200E-01  0.23859646481E-01  0.00000000000E+00 0. -1.
     999901    1    3    3    0    0 -0.88074368376E-01  0.81016154857E-01 -0.57176736413E-01  0.88993813880E+00  0.88000000000E+00 0.  1.
        -11    1    4    4    0    0  0.34237871460E-01 -0.20766410100E-01  0.31449298799E-02  0.40169980526E-01  0.51100000000E-03 0. -1.
         11    1    4    4    0    0  0.64679345119E-01 -0.52251871152E-01  0.34340453334E-01  0.89962234188E-01  0.51100000000E-03 0.  1.
</event>
<event>
 8    1  0.1071333E+005  0.1043930E+01  0.7957747E-01            NaN
         13   -1    0    0    0    0  0.00000000000E+00  0.00000000000E+00  0.74505805969E-08  0.10566000000E+00  0.10566000000E+00 0.  1.
     999900   -1    0    0    0    0 -0.00000000000E+00 -0.00000000000E+00 -0.74505805969E-08  0.93827000000E+00  0.93827000000E+00 0. -1.
     999902    2    1    2    0    0 -0.20002131789E-03  0.85380772298E-02  0.22826261563E-01  0.10195583569E+01  0.10192670239E+01 0.  0.
     999903    2    3    3    0    0 -0.12930379870E-01 -0.11183088558E+00  0.62431771738E-01  0.13039057425E+00  0.20751723729E-01 0.  0.
         14    1    1    2    0    0  0.20002131789E-03 -0.85380772298E-02 -0.22826261563E-01  0.24371643118E-01  0.00000000000E+00 0. -1.
     999901    1    3    3    0    0  0.12730358552E-01  0.12036896281E+00 -0.39605510175E-01  0.88916778263E+00  0.88000000000E+00 0.  1.
        -11    1    4    4    0    0 -0.82344307282E-02 -0.13235553133E-01  0.61584827704E-02  0.16768236258E-01  0.51100000000E-03 0.  1.
         11    1    4    4    0    0 -0.46959491416E-02 -0.98595332446E-01  0.56273288968E-01  0.11362233799E+00  0.51100000000E-03 0. -1.
</event>
<event>
 8    1  0.1071333E+005  0.1043930E+01  0.7957747E-01            NaN
         13   -1    0    0    0    0  0.00000000000E+00  0.00000000000E+00  0.74505805969E-08  0.10566000000E+00  0.10566000000E+00 0.  1.
     999900   -1    0    0    0    0 -0.00000000000E+00 -0.00000000000E+00 -0.74505805969E-08  0.93827000000E+00  0.93827000000E+00 0.  1.
     999902    2    1    2    0    0  0.72831183717E-02 -0.21734910701E-01 -0.57467956863E-02  0.10202979071E+01  0.10200241876E+01 0.  0.
     999903    2    3    3    0    0  0.16013071936E-01  0.12249456372E+00 -0.29727747762E-01  0.12819172534E+00  0.16971825087E-01 0.  0.
         14    1    1    2    0    0 -0.72831183717E-02  0.21734910701E-01  0.57467956863E-02  0.23632092947E-01  0.00000000000E+00 0.  1.
     999901    1    3    3    0    0 -0.87299535642E-02 -0.14422947442E+00  0.23980952075E-01  0.89210618171E+00  0.88000000000E+00 0. -1.
        -11    1    4    4    0    0  0.30445585868E-02  0.33242854184E-01 -0.52045936755E-03  0.33389948940E-01  0.51100000000E-03 0.  1.
         11    1    4    4    0    0  0.12968513349E-01  0.89251709533E-01 -0.29207288394E-01  0.94801776405E-01  0.51100000000E-03 0. -1.
</event>
<event>
 8    1  0.1071333E+005  0.1043930E+01  0.7957747E-01            NaN
         13   -1    0    0    0    0  0.00000000000E+00  0.00000000000E+00  0.74505805969E-08  0.10566000000E+00  0.10566000000E+00 0.  1.
     999900   -1    0    0    0    0 -0.00000000000E+00 -0.00000000000E+00 -0.74505805969E-08  0.93827000000E+00  0.93827000000E+00 0. -1.
     999902    2    1    2    0    0 -0.16095821918E-01 -0.82804189747E-02 -0.15560127040E-01  0.10200603880E+01  0.10197810730E+01 0.  0.
     999903    2    3    3    0    0 -0.73232715507E-02 -0.11201110324E+00 -0.67255984394E-01  0.13241773800E+00  0.20272452859E-01 0.  0.
         14    1    1    2    0    0  0.16095821918E-01  0.82804189747E-02  0.15560127040E-01  0.23869611960E-01  0.00000000000E+00 0.  1.
     999901    1    3    3    0    0 -0.87725503677E-02  0.10373068427E+00  0.51695857353E-01  0.88764265004E+00  0.88000000000E+00 0.  1.
        -11    1    4    4    0    0 -0.13491717394E-01 -0.81413809557E-01 -0.53160917219E-01  0.98166078995E-01  0.51100000000E-03 0.  1.
         11    1    4    4    0    0  0.61684458438E-02 -0.30597293686E-01 -0.14095067175E-01  0.34251659007E-01  0.51100000000E-03 0. -1.
</event>
<event>
 8    1  0.1071333E+005  0.1043930E+01  0.7957747E-01            NaN
         13   -1    0    0    0    0  0.00000000000E+00  0.00000000000E+00  0.74505805969E-08  0.10566000000E+00  0.10566000000E+00 0. -1.
     999900   -1    0    0    0    0 -0.00000000000E+00 -0.00000000000E+00 -0.74505805969E-08  0.93827000000E+00  0.93827000000E+00 0. -1.
     999902    2    1    2    0    0  0.34270504164E-02 -0.23314384865E-01 -0.81017391661E-03  0.10203511621E+01  0.10200786893E+01 0.  0.
     999903    2    3    3    0    0 -0.59370189207E-01  0.86270821116E-01 -0.71901589973E-01  0.12849556832E+00  0.19333869100E-01 0.  0.
         14    1    1    2    0    0 -0.34270504164E-02  0.23314384865E-01  0.81017391661E-03  0.23578837927E-01  0.00000000000E+00 0.  1.
     999901    1    3    3    0    0  0.62797239623E-01 -0.10958520598E+00  0.71091416056E-01  0.89185559375E+00  0.88000000000E+00 0.  1.
        -11    1    4    4    0    0 -0.37383803050E-01  0.53449873609E-01 -0.33203931847E-01  0.73192895355E-01  0.51100000000E-03 0.  1.
         11    1    4    4    0    0 -0.21986386157E-01  0.32820947507E-01 -0.38697658126E-01  0.55302672964E-01  0.51100000000E-03 0. -1.
</event>
<event>
 8    1  0.1071333E+005  0.1043930E+01  0.7957747E-01            NaN
         13   -1    0    0    0    0  0.00000000000E+00  0.00000000000E+00  0.74505805969E-08  0.10566000000E+00  0.10566000000E+00 0. -1.
     999900   -1    0    0    0    0 -0.00000000000E+00 -0.00000000000E+00 -0.74505805969E-08  0.93827000000E+00  0.93827000000E+00 0. -1.
     999902    2    1    2    0    0  0.10857862321E-01 -0.17871774202E-01  0.48029430996E-02  0.10224739577E+01  0.10222488114E+01 0.  0.
     999903    2    3    3    0    0 -0.29239820723E-01 -0.23370137998E-01 -0.12495537411E+00  0.13203851534E+00  0.20474216673E-01 0.  0.
         14    1    1    2    0    0 -0.10857862321E-01  0.17871774202E-01 -0.48029430996E-02  0.21456042266E-01  0.00000000000E+00 0. -1.
     999901    1    3    3    0    0  0.40097683044E-01  0.54983637960E-02  0.12975831721E+00  0.89043544240E+00  0.88000000000E+00 0.  1.
        -11    1    4    4    0    0 -0.26803220288E-02 -0.10143860157E-01 -0.55878665945E-01  0.56857439740E-01  0.51100000000E-03 0. -1.
         11    1    4    4    0    0 -0.26559498695E-01 -0.13226277841E-01 -0.69076708163E-01  0.75181075598E-01  0.51100000000E-03 0.  1.
</event>
<event>
 8    1  0.1071333E+005  0.1043930E+01  0.7957747E-01            NaN
         13   -1    0    0    0    0  0.00000000000E+00  0.00000000000E+00  0.74505805969E-08  0.10566000000E+00  0.10566000000E+00 0.  1.
     999900   -1    0    0    0    0 -0.00000000000E+00 -0.00000000000E+00 -0.74505805969E-08  0.93827000000E+00  0.93827000000E+00 0.  1.
     999902    2    1    2    0    0  0.41809857954E-02 -0.13494319015E-01  0.18373759420E-01  0.10207530217E+01  0.10204898623E+01 0.  0.
     999903    2    3    3    0    0 -0.37097112986E-01 -0.57651596329E-01 -0.10815000068E+00  0.12965145148E+00  0.20326678847E-01 0.  0.
         14    1    1    2    0    0 -0.41809857954E-02  0.13494319015E-01 -0.18373759420E-01  0.23176978300E-01  0.00000000000E+00 0. -1.
     999901    1    3    3    0    0  0.41278098782E-01  0.44157277314E-01  0.12652376010E+00  0.89110157022E+00  0.88000000000E+00 0. -1.
        -11    1    4    4    0    0 -0.92530527907E-02 -0.30808920914E-01 -0.57911040744E-01  0.66247704525E-01  0.51100000000E-03 0. -1.
         11    1    4    4    0    0 -0.27844060195E-01 -0.26842675415E-01 -0.50238959935E-01  0.63403746955E-01  0.51100000000E-03 0.  1.
</event>
<event>
 8    1  0.1071333E+005  0.1043930E+01  0.7957747E-01            NaN
         13   -1    0    0    0    0  0.00000000000E+00  0.00000000000E+00  0.74505805969E-08  0.10566000000E+00  0.10566000000E+00 0.  1.
     999900   -1    0    0    0    0 -0.00000000000E+00 -0.00000000000E+00 -0.74505805969E-08  0.93827000000E+00  0.93827000000E+00 0.  1.
     999902    2    1    2    0    0 -0.19465323517E-01 -0.13609890620E-01 -0.31315806185E-02  0.10199730649E+01  0.10196916781E+01 0.  0.
     999903    2    3    3    0    0 -0.72816733969E-01 -0.47976301473E-02  0.10734628455E+00  0.13141840275E+00  0.20549398400E-01 0.  0.
         14    1    1    2    0    0  0.19465323517E-01  0.13609890620E-01  0.31315806185E-02  0.23956935102E-01  0.00000000000E+00 0. -1.
     999901    1    3    3    0    0  0.53351410452E-01 -0.88122604724E-02 -0.11047786517E+00  0.88855466215E+00  0.88000000000E+00 0.  1.
        -11    1    4    4    0    0 -0.41982876089E-01 -0.12136699337E-01  0.55401411795E-01  0.70565139449E-01  0.51100000000E-03 0. -1.
         11    1    4    4    0    0 -0.30833857880E-01  0.73390691899E-02  0.51944872752E-01  0.60853263302E-01  0.51100000000E-03 0.  1.
</event>
<event>
 8    1  0.1071333E+005  0.1043930E+01  0.7957747E-01            NaN
         13   -1    0    0    0    0  0.00000000000E+00  0.00000000000E+00  0.74505805969E-08  0.10566000000E+00  0.10566000000E+00 0. -1.
     999900   -1    0    0    0    0 -0.00000000000E+00 -0.00000000000E+00 -0.74505805969E-08  0.93827000000E+00  0.93827000000E+00 0. -1.
     999902    2    1    2    0    0  0.12193319941E-02  0.19139555380E-01  0.15921947118E-01  0.10190037538E+01  0.10186988429E+01 0.  0.
     999903    2    3    3    0    0  0.27496748571E-01  0.51407966680E-02 -0.12300803490E+00  0.12760709248E+00  0.19237838485E-01 0.  0.
         14    1    1    2    0    0 -0.12193319941E-02 -0.19139555380E-01 -0.15921947118E-01  0.24926246221E-01  0.00000000000E+00 0.  1.
     999901    1    3    3    0    0 -0.26277416577E-01  0.13998758712E-01  0.13892998202E+00  0.89139666130E+00  0.88000000000E+00 0.  1.
        -11    1    4    4    0    0  0.15457917648E-01  0.12234882065E-01 -0.79386285527E-01  0.81799040385E-01  0.51100000000E-03 0.  1.
         11    1    4    4    0    0  0.12038830923E-01 -0.70940853970E-02 -0.43621749373E-01  0.45808052097E-01  0.51100000000E-03 0. -1.
</event>
<event>
 8    1  0.1071333E+005  0.1043930E+01  0.7957747E-01            NaN
         13   -1    0    0    0    0  0.00000000000E+00  0.00000000000E+00  0.74505805969E-08  0.10566000000E+00  0.10566000000E+00 0. -1.
     999900   -1    0    0    0    0 -0.00000000000E+00 -0.00000000000E+00 -0.74505805969E-08  0.93827000000E+00  0.93827000000E+00 0.  1.
     999902    2    1    2    0    0  0.19063911335E-01 -0.45895718886E-02  0.13434640018E-01  0.10201605566E+01  0.10198836085E+01 0.  0.
     999903    2    3    3    0    0  0.10110677898E+00 -0.74593313533E-01  0.39158243402E-01  0.13320325228E+00  0.20566847396E-01 0.  0.
         14    1    1    2    0    0 -0.19063911335E-01  0.45895718886E-02 -0.13434640018E-01  0.23769443365E-01  0.00000000000E+00 0.  1.
     999901    1    3    3    0    0 -0.82042867648E-01  0.70003741644E-01 -0.25723603385E-01  0.88695730435E+00  0.88000000000E+00 0.  1.
        -11    1    4    4    0    0  0.46410067921E-01 -0.35527680119E-01  0.28913344830E-01  0.65210068926E-01  0.51100000000E-03 0. -1.
         11    1    4    4    0    0  0.54696711061E-01 -0.39065633414E-01  0.10244898572E-01  0.67993183355E-01  0.51100000000E-03 0.  1.
</event>
<event>
 8    1  0.1071333E+005  0.1043930E+01  0.7957747E-01            NaN
         13   -1    0    0    0    0  0.00000000000E+00  0.00000000000E+00  0.74505805969E-08  0.10566000000E+00  0.10566000000E+00 0. -1.
     999900   -1    0    0    0    0 -0.00000000000E+00 -0.00000000000E+00 -0.74505805969E-08  0.93827000000E+00  0.93827000000E+00 0. -1.
     999902    2    1    2    0    0 -0.13950855639E-01  0.13460049478E-01 -0.96236361377E-02  0.10222871333E+01  0.10220580068E+01 0.  0.
     999903    2    3    3    0    0 -0.10253316568E+00 -0.73758825328E-01 -0.36946689449E-01  0.13312994418E+00  0.20127339609E-01 0.  0.
         14    1    1    2    0    0  0.13950855639E-01 -0.13460049478E-01  0.96236361377E-02  0.21642866666E-01  0.00000000000E+00 0. -1.
     999901    1    3    3    0    0  0.88582310039E-01  0.87218874806E-01  0.27323053311E-01  0.88915718915E+00  0.88000000000E+00 0. -1.
        -11    1    4    4    0    0 -0.63099063360E-01 -0.54963789211E-01 -0.29980353379E-01  0.88890902972E-01  0.51100000000E-03 0. -1.
         11    1    4    4    0    0 -0.39434102317E-01 -0.18795036117E-01 -0.69663360695E-02  0.44239041213E-01  0.51100000000E-03 0.  1.
</event>
<event>
 8    1  0.1071333E+005  0.1043930E+01  0.7957747E-01            NaN
         13   -1    0    0    0    0  0.00000000000E+00  0.00000000000E+00  0.74505805969E-08  0.10566000000E+00  0.10566000000E+00 0. -1.
     999900   -1    0    0    0    0 -0.00000000000E+00 -0.00000000000E+00 -0.74505805969E-08  0.93827000000E+00  0.93827000000E+00 0.  1.
     999902    2    1    2    0    0  0.22566838524E-01 -0.58746042601E-03 -0.68378471048E-02  0.10203426419E+01  0.10200699698E+01 0.  0.
     999903    2    3    3    0    0 -0.85642675190E-01  0.72332675905E-02 -0.92721995757E-01  0.12953034422E+00  0.28173633119E-01 0.  0.
         14    1    1    2    0    0 -0.22566838524E-01  0.58746042601E-03  0.68378471048E-02  0.23587358135E-01  0.00000000000E+00 0. -1.
     999901    1    3    3    0    0  0.10820951371E+00 -0.78207280165E-02  0.85884148652E-01  0.89081229764E+00  0.88000000000E+00 0. -1.
        -11    1    4    4    0    0 -0.61029438518E-01  0.17980148372E-02 -0.46022957702E-01  0.76460440620E-01  0.51100000000E-03 0.  1.
         11    1    4    4    0    0 -0.24613236672E-01  0.54352527532E-02 -0.46699038055E-01  0.53069903601E-01  0.51100000000E-03 0. -1.
</event>
<event>
 8    1  0.1227454E+005  0.1043930E+01  0.7957747E-01            NaN
         13   -1    0    0    0    0  0.00000000000E+00  0.00000000000E+00  0.74505805969E-08  0.10566000000E+00  0.10566000000E+00 0.  1.
     999900   -1    0    0    0    0 -0.00000000000E+00 -0.00000000000E+00 -0.74505805969E-08  0.93827000000E+00  0.93827000000E+00 0. -1.
     999902    2    1    2    0    0  0.10742281782E-01  0.14855292631E-01 -0.16376256782E-01  0.10193483377E+01  0.10190519002E+01 0.  0.
     999903    2    3    3    0    0  0.73510569437E-01  0.99431447984E-01 -0.44501526409E-01  0.13262176494E+00  0.17824982881E-01 0.  0.
         14    1    1    2    0    0 -0.10742281782E-01 -0.14855292631E-01  0.16376256782E-01  0.24581662337E-01  0.00000000000E+00 0.  1.
     999901    1    3    3    0    0 -0.62768287655E-01 -0.84576155353E-01  0.28125269628E-01  0.88672657273E+00  0.88000000000E+00 0.  1.
        -11    1    4    4    0    0  0.29640766748E-01  0.48077605155E-01 -0.12350547599E-01  0.57817197423E-01  0.51100000000E-03 0. -1.
         11    1    4    4    0    0  0.43869802689E-01  0.51353842830E-01 -0.32150978811E-01  0.74804567513E-01  0.51100000000E-03 0.  1.
</event>
<event>
 8    1  0.1071333E+005  0.1043930E+01  0.7957747E-01            NaN
         13   -1    0    0    0    0  0.00000000000E+00  0.00000000000E+00  0.74505805969E-08  0.10566000000E+00  0.10566000000E+00 0.  1.
     999900   -1    0    0    0    0 -0.00000000000E+00 -0.00000000000E+00 -0.74505805969E-08  0.93827000000E+00  0.93827000000E+00 0.  1.
     999902    2    1    2    0    0 -0.57766253525E-02  0.22364025933E-01 -0.52737058984E-02  0.10202375744E+01  0.10199624391E+01 0.  0.
     999903    2    3    3    0    0 -0.10503306063E-02  0.90970027186E-02  0.12816575931E+00  0.13006655565E+00  0.20173953138E-01 0.  0.
         14    1    1    2    0    0  0.57766253525E-02 -0.22364025933E-01  0.52737058984E-02  0.23692425589E-01  0.00000000000E+00 0.  1.
     999901    1    3    3    0    0 -0.47262947462E-02  0.13267023215E-01 -0.13343946521E+00  0.89017101876E+00  0.88000000000E+00 0.  1.
        -11    1    4    4    0    0 -0.54155962037E-02  0.11678172069E-01  0.46785074929E-01  0.48526412831E-01  0.51100000000E-03 0.  1.
         11    1    4    4    0    0  0.43652655974E-02 -0.25811693508E-02  0.81380684384E-01  0.81540142818E-01  0.51100000000E-03 0. -1.
</event>
<event>
 8    1  0.1071333E+005  0.1043930E+01  0.7957747E-01            NaN
         13   -1    0    0    0    0  0.00000000000E+00  0.00000000000E+00  0.74505805969E-08  0.10566000000E+00  0.10566000000E+00 0. -1.
     999900   -1    0    0    0    0 -0.00000000000E+00 -0.00000000000E+00 -0.74505805969E-08  0.93827000000E+00  0.93827000000E+00 0.  1.
     999902    2    1    2    0    0 -0.10815982207E-01  0.20074201748E-01  0.52285931812E-02  0.10205356153E+01  0.10202674380E+01 0.  0.
     999903    2    3    3    0    0  0.24036868468E-01  0.10697178000E+00  0.72230600517E-01  0.13303621856E+00  0.21462596183E-01 0.  0.
         14    1    1    2    0    0  0.10815982207E-01 -0.20074201748E-01 -0.52285931812E-02  0.23394384659E-01  0.00000000000E+00 0.  1.
     999901    1    3    3    0    0 -0.34852850675E-01 -0.86897578250E-01 -0.67002007336E-01  0.88749939678E+00  0.88000000000E+00 0.  1.
        -11    1    4    4    0    0  0.52335092935E-02  0.79837660991E-02  0.93814598503E-03  0.96057992660E-02  0.51100000000E-03 0.  1.
         11    1    4    4    0    0  0.18803359175E-01  0.98988013899E-01  0.71292454532E-01  0.12343041929E+00  0.51100000000E-03 0. -1.
</event>
<event>
 8    1  0.1071333E+005  0.1043930E+01  0.7957747E-01            NaN
         13   -1    0    0    0    0  0.00000000000E+00  0.00000000000E+00  0.74505805969E-08  0.10566000000E+00  0.10566000000E+00 0. -1.
     999900   -1    0    0    0    0 -0.00000000000E+00 -0.00000000000E+00 -0.74505805969E-08  0.93827000000E+00  0.93827000000E+00 0. -1.
     999902    2    1    2    0    0 -0.35407761938E-03  0.23995939654E-01  0.10480143603E-02  0.10199085757E+01  0.10196256538E+01 0.  0.
     999903    2    3    3    0    0  0.83029109714E-01 -0.29277731352E-01  0.92912661452E-01  0.12961089890E+00  0.20376551274E-01 0.  0.
         14    1    1    2    0    0  0.35407761938E-03 -0.23995939654E-01 -0.10480143603E-02  0.24021424290E-01  0.00000000000E+00 0. -1.
     999901    1    3    3    0    0 -0.83383187333E-01  0.53273671006E-01 -0.91864647092E-01  0.89029767681E+00  0.88000000000E+00 0. -1.
        -11    1    4    4    0    0  0.49835507517E-01 -0.27954256907E-01  0.58520205432E-01  0.81791771307E-01  0.51100000000E-03 0. -1.
         11    1    4    4    0    0  0.33193602197E-01 -0.13234744449E-02  0.34392456021E-01  0.47819127591E-01  0.51100000000E-03 0.  1.
</event>
<event>
 8    1  0.1071333E+005  0.1043930E+01  0.7957747E-01            NaN
         13   -1    0    0    0    0  0.00000000000E+00  0.00000000000E+00  0.74505805969E-08  0.10566000000E+00  0.10566000000E+00 0.  1.
     999900   -1    0    0    0    0 -0.00000000000E+00 -0.00000000000E+00 -0.74505805969E-08  0.93827000000E+00  0.93827000000E+00 0. -1.
     999902    2    1    2    0    0 -0.12763276941E-01 -0.72751306768E-03  0.21417186793E-01  0.10189875381E+01  0.10186822255E+01 0.  0.
     999903    2    3    3    0    0 -0.30019251046E-02  0.36126090180E-01  0.12527637669E+00  0.13206014349E+00  0.20775105185E-01 0.  0.
         14    1    1    2    0    0  0.12763276941E-01  0.72751306768E-03 -0.21417186793E-01  0.24942461860E-01  0.00000000000E+00 0. -1.
     999901    1    3    3    0    0 -0.97613518363E-02 -0.36853603248E-01 -0.10385918989E+00  0.88692739465E+00  0.88000000000E+00 0. -1.
        -11    1    4    4    0    0  0.88312495950E-02  0.14031883325E-01  0.54969063188E-01  0.57417277433E-01  0.51100000000E-03 0.  1.
         11    1    4    4    0    0 -0.11833174700E-01  0.22094206856E-01  0.70307313500E-01  0.74642866053E-01  0.51100000000E-03 0. -1.
</event>
<event>
 8    1  0.1171931E+005  0.1043930E+01  0.7957747E-01            NaN
         13   -1    0    0    0    0  0.00000000000E+00  0.00000000000E+00  0.74505805969E-08  0.10566000000E+00  0.10566000000E+00 0. -1.
     999900   -1    0    0    0    0 -0.00000000000E+00 -0.00000000000E+00 -0.74505805969E-08  0.93827000000E+00  0.93827000000E+00 0. -1.
     999902    2    1    2    0    0 -0.22005283024E-01 -0.98725141068E-02  0.40206852008E-02  0.10194787234E+01  0.10191854604E+01 0.  0.
     999903    2    3    3    0    0  0.11682853678E+00  0.39567639986E-01  0.23128827901E-01  0.12701904398E+00  0.19605859125E-01 0.  0.
         14    1    1    2    0    0  0.22005283024E-01  0.98725141068E-02 -0.40206852008E-02  0.24451276557E-01  0.00000000000E+00 0. -1.
     999901    1    3    3    0    0 -0.13883381980E+00 -0.49440154093E-01 -0.19108142700E-01  0.89245967947E+00  0.88000000000E+00 0.  1.
        -11    1    4    4    0    0  0.82090648933E-01  0.29919782239E-01  0.25101221942E-01  0.90908748069E-01  0.51100000000E-03 0.  1.
         11    1    4    4    0    0  0.34737887848E-01  0.96478577463E-02 -0.19723940408E-02  0.36110295907E-01  0.51100000000E-03 0. -1.
</event>
<event>
 8    1  0.1071333E+005  0.1043930E+01  0.7957747E-01            NaN
         13   -1    0    0    0    0  0.00000000000E+00  0.00000000000E+00  0.74505805969E-08  0.10566000000E+00  0.10566000000E+00 0.  1.
     999900   -1    0    0    0    0 -0.00000000000E+00 -0.00000000000E+00 -0.74505805969E-08  0.93827000000E+00  0.93827000000E+00 0. -1.
     999902    2    1    2    0    0 -0.33984552003E-02  0.21042068297E-01  0.10939436343E-01  0.10199719240E+01  0.10196905101E+01 0.  0.
     999903    2    3    3    0    0 -0.56517238588E-01 -0.10674910613E+00 -0.37004910185E-01  0.12786719377E+00  0.19775893126E-01 0.  0.
         14    1    1    2    0    0  0.33984552003E-02 -0.21042068297E-01 -0.10939436343E-01  0.23958075955E-01  0.00000000000E+00 0. -1.
     999901    1    3    3    0    0  0.53118783387E-01  0.12779117442E+00  0.47944346529E-01  0.89210473027E+00  0.88000000000E+00 0. -1.
        -11    1    4    4    0    0 -0.37516152564E-01 -0.69200242605E-01 -0.33776345198E-01  0.85657678556E-01  0.51100000000E-03 0. -1.
         11    1    4    4    0    0 -0.19001086024E-01 -0.37548863523E-01 -0.32285649875E-02  0.42209515217E-01  0.51100000000E-03 0.  1.
</event>
<event>
 8    1  0.1071333E+005  0.1043930E+01  0.7957747E-01            NaN
         13   -1    0    0    0    0  0.00000000000E+00  0.00000000000E+00  0.74505805969E-08  0.10566000000E+00  0.10566000000E+00 0.  1.
     999900   -1    0    0    0    0 -0.00000000000E+00 -0.00000000000E+00 -0.74505805969E-08  0.93827000000E+00  0.93827000000E+00 0. -1.
     999902    2    1    2    0    0  0.20396067794E-01 -0.71155287657E-02 -0.65265888693E-02  0.10213639482E+01  0.10211146302E+01 0.  0.
     999903    2    3    3    0    0 -0.17418226232E-02 -0.79600150770E-01  0.10252687102E+00  0.13139947491E+00  0.20367738623E-01 0.  0.
         14    1    1    2    0    0 -0.20396067794E-01  0.71155287657E-02  0.65265888693E-02  0.22566051789E-01  0.00000000000E+00 0.  1.
     999901    1    3    3    0    0  0.22137890417E-01  0.72484622004E-01 -0.10905345989E+00  0.88996447330E+00  0.88000000000E+00 0. -1.
        -11    1    4    4    0    0 -0.10235480142E-01 -0.33002764574E-01  0.38160760351E-01  0.51482543398E-01  0.51100000000E-03 0. -1.
         11    1    4    4    0    0  0.84936575186E-02 -0.46597386196E-01  0.64366110673E-01  0.79916931514E-01  0.51100000000E-03 0.  1.
</event>
<event>
 8    1  0.1071333E+005  0.1043930E+01  0.7957747E-01            NaN
         13   -1    0    0    0    0  0.00000000000E+00  0.00000000000E+00  0.74505805969E-08  0.10566000000E+00  0.10566000000E+00 0. -1.
     999900   -1    0    0    0    0 -0.00000000000E+00 -0.00000000000E+00 -0.74505805969E-08  0.93827000000E+00  0.93827000000E+00 0.  1.
     999902    2    1    2    0    0 -0.20119637352E-02  0.21022741934E-01 -0.78250286926E-02  0.10214081273E+01  0.10211597954E+01 0.  0.
     999903    2    3    3    0    0  0.85457979253E-01 -0.94059487996E-01  0.13715122378E-01  0.12935494015E+00  0.19858057797E-01 0.  0.
         14    1    1    2    0    0  0.20119637352E-02 -0.21022741934E-01  0.78250286926E-02  0.22521872714E-01  0.00000000000E+00 0.  1.
     999901    1    3    3    0    0 -0.87469942988E-01  0.11508222993E+00 -0.21540151071E-01  0.89205318714E+00  0.88000000000E+00 0. -1.
        -11    1    4    4    0    0  0.43639050729E-01 -0.60144182551E-01  0.13401318733E-01  0.75508581685E-01  0.51100000000E-03 0.  1.
         11    1    4    4    0    0  0.41818928524E-01 -0.33915305444E-01  0.31380364580E-03  0.53846358465E-01  0.51100000000E-03 0. -1.
</event>
<event>
 8    1  0.1071333E+005  0.1043930E+01  0.7957747E-01            NaN
         13   -1    0    0    0    0  0.00000000000E+00  0.00000000000E+00  0.74505805969E-08  0.10566000000E+00  0.10566000000E+00 0. -1.
     999900   -1    0    0    0    0 -0.00000000000E+00 -0.00000000000E+00 -0.74505805969E-08  0.93827000000E+00  0.93827000000E+00 0. -1.
     999902    2    1    2    0    0 -0.18910945828E-01  0.69798198805E-02  0.11428668640E-01  0.10207576841E+01  0.10204946317E+01 0.  0.
     999903    2    3    3    0    0 -0.83705276504E-01 -0.94889296997E-01  0.33181906127E-01  0.13224835628E+00  0.19443169655E-01 0.  0.
         14    1    1    2    0    0  0.18910945828E-01 -0.69798198805E-02 -0.11428668640E-01  0.23172315908E-01  0.00000000000E+00 0.  1.
     999901    1    3    3    0    0  0.64794330677E-01  0.10186911688E+00 -0.21753237488E-01  0.88850932781E+00  0.88000000000E+00 0. -1.
        -11    1    4    4    0    0 -0.30995058458E-01 -0.28781390789E-01  0.27582205084E-02  0.42390222999E-01  0.51100000000E-03 0.  1.
         11    1    4    4    0    0 -0.52710218047E-01 -0.66107906208E-01  0.30423685619E-01  0.89858133285E-01  0.51100000000E-03 0. -1.
</event>
<event>
 8    1  0.1071333E+005  0.1043930E+01  0.7957747E-01            NaN
         13   -1    0    0    0    0  0.00000000000E+00  0.00000000000E+00  0.74505805969E-08  0.10566000000E+00  0.10566000000E+00 0.  1.
     999900   -1    0    0    0    0 -0.00000000000E+00 -0.00000000000E+00 -0.74505805969E-08  0.93827000000E+00  0.93827000000E+00 0. -1.
     999902    2    1    2    0    0  0.14081712946E-01  0.14509527862E-01 -0.10039743529E-01  0.10213552910E+01  0.10211057795E+01 0.  0.
     999903    2    3    3    0    0 -0.48715155632E-01  0.17987473574E-01  0.11739408537E+00  0.12995475048E+00  0.20252167780E-01 0.  0.
         14    1    1    2    0    0 -0.14081712946E-01 -0.14509527862E-01  0.10039743529E-01  0.22574709043E-01  0.00000000000E+00 0. -1.
     999901    1    3    3    0    0  0.62796868578E-01 -0.34779457122E-02 -0.12743382890E+00  0.89140054047E+00  0.88000000000E+00 0. -1.
        -11    1    4    4    0    0 -0.17530030079E-01  0.16831223634E-01  0.57193000841E-01  0.62144126913E-01  0.51100000000E-03 0.  1.
         11    1    4    4    0    0 -0.31185125553E-01  0.11562499400E-02  0.60201084528E-01  0.67810623570E-01  0.51100000000E-03 0. -1.
</event>
<event>
 8    1  0.1071333E+005  0.1043930E+01  0.7957747E-01            NaN
         13   -1    0    0    0    0  0.00000000000E+00  0.00000000000E+00  0.74505805969E-08  0.10566000000E+00  0.10566000000E+00 0.  1.
     999900   -1    0    0    0    0 -0.00000000000E+00 -0.00000000000E+00 -0.74505805969E-08  0.93827000000E+00  0.93827000000E+00 0. -1.
     999902    2    1    2    0    0  0.19277999922E-01 -0.18576324275E-01 -0.93660412608E-02  0.10155672809E+01  0.10151711473E+01 0.  0.
     999903    2    3    3    0    0 -0.21269218331E-01  0.59012871682E-01  0.10501548733E+00  0.12385696119E+00  0.19426671935E-01 0.  0.
         14    1    1    2    0    0 -0.19277999922E-01  0.18576324275E-01  0.93660412608E-02  0.28362719078E-01  0.00000000000E+00 0.  1.
     999901    1    3    3    0    0  0.40547218253E-01 -0.77589195957E-01 -0.11438152859E+00  0.89171031973E+00  0.88000000000E+00 0. -1.
        -11    1    4    4    0    0 -0.11107050207E-01  0.21112990510E-01  0.24029938768E-01  0.33864790133E-01  0.51100000000E-03 0.  1.
         11    1    4    4    0    0 -0.10162168123E-01  0.37899881172E-01  0.80985548565E-01  0.89992171055E-01  0.51100000000E-03 0. -1.
</event>
<event>
 8    1  0.1071333E+005  0.1043930E+01  0.7957747E-01            NaN
         13   -1    0    0    0    0  0.00000000000E+00  0.00000000000E+00  0.74505805969E-08  0.10566000000E+00  0.10566000000E+00 0. -1.
     999900   -1    0    0    0    0 -0.00000000000E+00 -0.00000000000E+00 -0.74505805969E-08  0.93827000000E+00  0.93827000000E+00 0. -1.
     999902    2    1    2    0    0  0.34110744681E-02 -0.17088496291E-01 -0.15928865717E-01  0.10203210844E+01  0.10200479078E+01 0.  0.
     999903    2    3    3    0    0 -0.84716961995E-01  0.50447065717E-01  0.79377454287E-01  0.12823874647E+00  0.20555431354E-01 0.  0.
         14    1    1    2    0    0 -0.34110744681E-02  0.17088496291E-01  0.15928865717E-01  0.23608915637E-01  0.00000000000E+00 0. -1.
     999901    1    3    3    0    0  0.88128036464E-01 -0.67535562008E-01 -0.95306320004E-01  0.89208233789E+00  0.88000000000E+00 0. -1.
        -11    1    4    4    0    0 -0.60939616028E-01  0.26633155548E-01  0.46201856445E-01  0.80980457124E-01  0.51100000000E-03 0.  1.
         11    1    4    4    0    0 -0.23777345967E-01  0.23813910169E-01  0.33175597842E-01  0.47258289347E-01  0.51100000000E-03 0. -1.
</event>
<event>
 8    1  0.1071333E+005  0.1043930E+01  0.7957747E-01            NaN
         13   -1    0    0    0    0  0.00000000000E+00  0.00000000000E+00  0.74505805969E-08  0.10566000000E+00  0.10566000000E+00 0.  1.
     999900   -1    0    0    0    0 -0.00000000000E+00 -0.00000000000E+00 -0.74505805969E-08  0.93827000000E+00  0.93827000000E+00 0. -1.
     999902    2    1    2    0    0  0.47891767316E-02 -0.10496203596E-01  0.20601669031E-01  0.10203178152E+01  0.10200445621E+01 0.  0.
     999903    2    3    3    0    0 -0.10009456351E+00  0.59448516434E-05  0.83378270291E-01  0.13180681598E+00  0.20054403573E-01 0.  0.
         14    1    1    2    0    0 -0.47891767316E-02  0.10496203596E-01 -0.20601669031E-01  0.23612184790E-01  0.00000000000E+00 0. -1.
     999901    1    3    3    0    0  0.10488374024E+00 -0.10502148448E-01 -0.62776601260E-01  0.88851099923E+00  0.88000000000E+00 0. -1.
        -11    1    4    4    0    0 -0.79989978369E-01  0.48041693553E-02  0.57236932770E-01  0.98477430290E-01  0.51100000000E-03 0.  1.
         11    1    4    4    0    0 -0.20104585138E-01 -0.47982245036E-02  0.26141337522E-01  0.33329385689E-01  0.51100000000E-03 0. -1.
</event>
<event>
 8    1  0.1071333E+005  0.1043930E+01  0.7957747E-01            NaN
         13   -1    0    0    0    0  0.00000000000E+00  0.00000000000E+00  0.74505805969E-08  0.10566000000E+00  0.10566000000E+00 0. -1.
     999900   -1    0    0    0    0 -0.00000000000E+00 -0.00000000000E+00 -0.74505805969E-08  0.93827000000E+00  0.93827000000E+00 0. -1.
     999902    2    1    2    0    0  0.16161540704E-01  0.93706605042E-02 -0.14876500055E-01  0.10200487327E+01  0.10197691416E+01 0.  0.
     999903    2    3    3    0    0  0.11356435189E+00  0.61252558001E-01  0.22779599617E-01  0.13235676989E+00  0.18726091282E-01 0.  0.
         14    1    1    2    0    0 -0.16161540704E-01 -0.93706605042E-02  0.14876500055E-01  0.23881267346E-01  0.00000000000E+00 0. -1.
     999901    1    3    3    0    0 -0.97402811186E-01 -0.51881897497E-01 -0.37656099672E-01  0.88769196276E+00  0.88000000000E+00 0. -1.
        -11    1    4    4    0    0  0.81804949939E-01  0.45307688939E-01  0.24833878078E-01  0.96756494009E-01  0.51100000000E-03 0. -1.
         11    1    4    4    0    0  0.31759401951E-01  0.15944869062E-01 -0.20542784608E-02  0.35600275879E-01  0.51100000000E-03 0.  1.
</event>
<event>
 8    1  0.1071333E+005  0.1043930E+01  0.7957747E-01            NaN
         13   -1    0    0    0    0  0.00000000000E+00  0.00000000000E+00  0.74505805969E-08  0.10566000000E+00  0.10566000000E+00 0.  1.
     999900   -1    0    0    0    0 -0.00000000000E+00 -0.00000000000E+00 -0.74505805969E-08  0.93827000000E+00  0.93827000000E+00 0.  1.
     999902    2    1    2    0    0 -0.87496160625E-03 -0.13327448487E-01  0.19133512989E-01  0.10205959528E+01  0.10203291729E+01 0.  0.
     999903    2    3    3    0    0 -0.75582114381E-01 -0.10177075210E+00  0.34551050643E-01  0.13287917524E+00  0.19828215105E-01 0.  0.
         14    1    1    2    0    0  0.87496160625E-03  0.13327448487E-01 -0.19133512989E-01  0.23334047234E-01  0.00000000000E+00 0. -1.
     999901    1    3    3    0    0  0.74707152775E-01  0.88443303618E-01 -0.15417537653E-01  0.88771677752E+00  0.88000000000E+00 0. -1.
        -11    1    4    4    0    0 -0.17966265151E-01 -0.15074798811E-01  0.12076224004E-01  0.26384323942E-01  0.51100000000E-03 0.  1.
         11    1    4    4    0    0 -0.57615849230E-01 -0.86695953294E-01  0.22474826638E-01  0.10649485130E+00  0.51100000000E-03 0. -1.
</event>
<event>
 8    1  0.1071333E+005  0.1043930E+01  0.7957747E-01            NaN
         13   -1    0    0    0    0  0.00000000000E+00  0.00000000000E+00  0.74505805969E-08  0.10566000000E+00  0.10566000000E+00 0.  1.
     999900   -1    0    0    0    0 -0.00000000000E+00 -0.00000000000E+00 -0.74505805969E-08  0.93827000000E+00  0.93827000000E+00 0.  1.
     999902    2    1    2    0    0 -0.16419052297E-01 -0.18311252774E-01  0.38363063503E-02  0.10190381438E+01  0.10187340841E+01 0.  0.
     999903    2    3    3    0    0  0.16552037857E-01  0.12051192727E+00  0.30717929624E-01  0.12714039759E+00  0.20591137084E-01 0.  0.
         14    1    1    2    0    0  0.16419052297E-01  0.18311252774E-01 -0.38363063503E-02  0.24891856156E-01  0.00000000000E+00 0. -1.
     999901    1    3    3    0    0 -0.32971090154E-01 -0.13882318005E+00 -0.26881623274E-01  0.89189774625E+00  0.88000000000E+00 0.  1.
        -11    1    4    4    0    0  0.41087175480E-02  0.72598825101E-01  0.97101460207E-02  0.73362245213E-01  0.51100000000E-03 0.  1.
         11    1    4    4    0    0  0.12443320309E-01  0.47913102172E-01  0.21007783604E-01  0.53778152376E-01  0.51100000000E-03 0. -1.
</event>
<event>
 8    1  0.1071333E+005  0.1043930E+01  0.7957747E-01            NaN
         13   -1    0    0    0    0  0.00000000000E+00  0.00000000000E+00  0.74505805969E-08  0.10566000000E+00  0.10566000000E+00 0.  1.
     999900   -1    0    0    0    0 -0.00000000000E+00 -0.00000000000E+00 -0.74505805969E-08  0.93827000000E+00  0.93827000000E+00 0.  1.
     999902    2    1    2    0    0 -0.18120352771E-01 -0.10528723199E-01 -0.99734755604E-02  0.10207207042E+01  0.10204568019E+01 0.  0.
     999903    2    3    3    0    0  0.12343539708E+00 -0.16170885286E-01 -0.31794589318E-01  0.12912324721E+00  0.12811021703E-01 0.  0.
         14    1    1    2    0    0  0.18120352771E-01  0.10528723199E-01  0.99734755604E-02  0.23209295800E-01  0.00000000000E+00 0.  1.
     999901    1    3    3    0    0 -0.14155574985E+00  0.56421620872E-02  0.21821113758E-01  0.89159745699E+00  0.88000000000E+00 0. -1.
        -11    1    4    4    0    0  0.38135396736E-01 -0.66082488630E-02 -0.40674892923E-02  0.38920213609E-01  0.51100000000E-03 0.  1.
         11    1    4    4    0    0  0.85300000342E-01 -0.95626364233E-02 -0.27727100026E-01  0.90203033600E-01  0.51100000000E-03 0. -1.
</event>
<event>
 8    1  0.1071333E+005  0.1043930E+01  0.7957747E-01            NaN
         13   -1    0    0    0    0  0.00000000000E+00  0.00000000000E+00  0.74505805969E-08  0.10566000000E+00  0.10566000000E+00 0. -1.
     999900   -1    0    0    0    0 -0.00000000000E+00 -0.00000000000E+00 -0.74505805969E-08  0.93827000000E+00  0.93827000000E+00 0. -1.
     999902    2    1    2    0    0  0.20805083824E-01  0.13551745798E-01  0.73132985055E-03  0.10190897872E+01  0.10187870034E+01 0.  0.
     999903    2    3    3    0    0 -0.61876551763E-01  0.10310787197E+00 -0.43875337166E-01  0.12956951914E+00  0.20081687163E-01 0.  0.
         14    1    1    2    0    0 -0.20805083824E-01 -0.13551745798E-01 -0.73132985055E-03  0.24840212770E-01  0.00000000000E+00 0. -1.
     999901    1    3    3    0    0  0.82681635587E-01 -0.89556126170E-01  0.44606667016E-01  0.88952026809E+00  0.88000000000E+00 0. -1.
        -11    1    4    4    0    0 -0.45495110458E-01  0.89369259396E-01 -0.32979940901E-01  0.10556802178E+00  0.51100000000E-03 0.  1.
         11    1    4    4    0    0 -0.16381441305E-01  0.13738612572E-01 -0.10895396265E-01  0.24001497358E-01  0.51100000000E-03 0. -1.
</event>
<event>
 8    1  0.1071333E+005  0.1043930E+01  0.7957747E-01            NaN
         13   -1    0    0    0    0  0.00000000000E+00  0.00000000000E+00  0.74505805969E-08  0.10566000000E+00  0.10566000000E+00 0. -1.
     999900   -1    0    0    0    0 -0.00000000000E+00 -0.00000000000E+00 -0.74505805969E-08  0.93827000000E+00  0.93827000000E+00 0. -1.
     999902    2    1    2    0    0 -0.26321858889E-01 -0.30610880897E-02 -0.24892394940E-02  0.10173140869E+01  0.10169658522E+01 0.  0.
     999903    2    3    3    0    0 -0.92051491307E-01 -0.87014839379E-01 -0.24805197291E-01  0.13059732329E+00  0.19882246206E-01 0.  0.
         14    1    1    2    0    0  0.26321858889E-01  0.30610880897E-02  0.24892394940E-02  0.26615913077E-01  0.00000000000E+00 0. -1.
     999901    1    3    3    0    0  0.65729632418E-01  0.83953751289E-01  0.22315957796E-01  0.88671676363E+00  0.88000000000E+00 0.  1.
        -11    1    4    4    0    0 -0.22101138356E-01 -0.23543706130E-01  0.21594480768E-02  0.32368051408E-01  0.51100000000E-03 0.  1.
         11    1    4    4    0    0 -0.69950352951E-01 -0.63471133249E-01 -0.26964645367E-01  0.98229271883E-01  0.51100000000E-03 0. -1.
</event>
<event>
 8    1  0.1071333E+005  0.1043930E+01  0.7957747E-01            NaN
         13   -1    0    0    0    0  0.00000000000E+00  0.00000000000E+00  0.74505805969E-08  0.10566000000E+00  0.10566000000E+00 0.  1.
     999900   -1    0    0    0    0 -0.00000000000E+00 -0.00000000000E+00 -0.74505805969E-08  0.93827000000E+00  0.93827000000E+00 0.  1.
     999902    2    1    2    0    0  0.22098426894E-01  0.48913984218E-02 -0.83139874432E-02  0.10198179981E+01  0.10195329129E+01 0.  0.
     999903    2    3    3    0    0  0.59581132199E-01  0.90582812392E-01  0.71363770706E-01  0.13128183293E+00  0.19671671838E-01 0.  0.
         14    1    1    2    0    0 -0.22098426894E-01 -0.48913984218E-02  0.83139874432E-02  0.24112001927E-01  0.00000000000E+00 0.  1.
     999901    1    3    3    0    0 -0.37482705305E-01 -0.85691413970E-01 -0.79677758150E-01  0.88853616514E+00  0.88000000000E+00 0.  1.
        -11    1    4    4    0    0  0.73751213711E-02  0.20586832108E-01  0.21761208933E-01  0.30854844136E-01  0.51100000000E-03 0.  1.
         11    1    4    4    0    0  0.52206010827E-01  0.69995980284E-01  0.49602561774E-01  0.10042698879E+00  0.51100000000E-03 0. -1.
</event>
<event>
 8    1  0.1071333E+005  0.1043930E+01  0.7957747E-01            NaN
         13   -1    0    0    0    0  0.00000000000E+00  0.00000000000E+00  0.74505805969E-08  0.10566000000E+00  0.10566000000E+00 0.  1.
     999900   -1    0    0    0    0 -0.00000000000E+00 -0.00000000000E+00 -0.74505805969E-08  0.93827000000E+00  0.93827000000E+00 0.  1.
     999902    2    1    2    0    0  0.13651135203E-02  0.44671185784E-02 -0.23108803995E-01  0.10203538361E+01  0.10200814258E+01 0.  0.
     999903    2    3    3    0    0  0.11499268352E+00 -0.50352537744E-01 -0.34202282159E-01  0.13128719929E+00  0.17545292024E-01 0.  0.
         14    1    1    2    0    0 -0.13651135203E-02 -0.44671185784E-02  0.23108803995E-01  0.23576163925E-01  0.00000000000E+00 0.  1.
     999901    1    3    3    0    0 -0.11362757000E+00  0.54819656323E-01  0.11093478164E-01  0.88906663678E+00  0.88000000000E+00 0.  1.
        -11    1    4    4    0    0  0.70469841879E-01 -0.21637181554E-01 -0.21770741675E-01  0.76866068939E-01  0.51100000000E-03 0. -1.
         11    1    4    4    0    0  0.44522841643E-01 -0.28715356190E-01 -0.12431540484E-01  0.54421130353E-01  0.51100000000E-03 0.  1.
</event>
<event>
 8    1  0.1071333E+005  0.1043930E+01  0.7957747E-01            NaN
         13   -1    0    0    0    0  0.00000000000E+00  0.00000000000E+00  0.74505805969E-08  0.10566000000E+00  0.10566000000E+00 0. -1.
     999900   -1    0    0    0    0 -0.00000000000E+00 -0.00000000000E+00 -0.74505805969E-08  0.93827000000E+00  0.93827000000E+00 0. -1.
     999902    2    1    2    0    0 -0.47089063422E-02  0.21891627919E-01 -0.63205253306E-02  0.10206627223E+01  0.10203974845E+01 0.  0.
     999903    2    3    3    0    0 -0.93877574213E-01 -0.26543512853E-01 -0.85519312090E-01  0.13129808277E+00  0.20200910482E-01 0.  0.
         14    1    1    2    0    0  0.47089063422E-02 -0.21891627919E-01  0.63205253306E-02  0.23267277716E-01  0.00000000000E+00 0.  1.
     999901    1    3    3    0    0  0.89168667871E-01  0.48435140772E-01  0.79198786759E-01  0.88936463951E+00  0.88000000000E+00 0.  1.
        -11    1    4    4    0    0 -0.24297843629E-01  0.12650445578E-02 -0.16327942833E-01  0.29306115078E-01  0.51100000000E-03 0.  1.
         11    1    4    4    0    0 -0.69579730584E-01 -0.27808557411E-01 -0.69191369256E-01  0.10199196769E+00  0.51100000000E-03 0. -1.
</event>
<event>
 8    1  0.1071333E+005  0.1043930E+01  0.7957747E-01            NaN
         13   -1    0    0    0    0  0.00000000000E+00  0.00000000000E+00  0.74505805969E-08  0.10566000000E+00  0.10566000000E+00 0. -1.
     999900   -1    0    0    0    0 -0.00000000000E+00 -0.00000000000E+00 -0.74505805969E-08  0.93827000000E+00  0.93827000000E+00 0.  1.
     999902    2    1    2    0    0  0.10974573041E-01  0.21713221944E-01 -0.25648605465E-02  0.10194660721E+01  0.10191725017E+01 0.  0.
     999903    2    3    3    0    0 -0.88605725869E-01 -0.61028232404E-01  0.65654935482E-01  0.12738069231E+00  0.18435032208E-01 0.  0.
         14    1    1    2    0    0 -0.10974573041E-01 -0.21713221944E-01  0.25648605465E-02  0.24463927940E-01  0.00000000000E+00 0.  1.
     999901    1    3    3    0    0  0.99580298909E-01  0.82741454348E-01 -0.68219796028E-01  0.89208537975E+00  0.88000000000E+00 0.  1.
        -11    1    4    4    0    0 -0.32187193825E-01 -0.30330580279E-01  0.33912885527E-01  0.55734230704E-01  0.51100000000E-03 0.  1.
         11    1    4    4    0    0 -0.56418532044E-01 -0.30697652125E-01  0.31742049955E-01  0.71646461604E-01  0.51100000000E-03 0. -1.
</event>
<event>
 8    1  0.1071333E+005  0.1043930E+01  0.7957747E-01            NaN
         13   -1    0    0    0    0  0.00000000000E+00  0.00000000000E+00  0.74505805969E-08  0.10566000000E+00  0.10566000000E+00 0. -1.
     999900   -1    0    0    0    0 -0.00000000000E+00 -0.00000000000E+00 -0.74505805969E-08  0.93827000000E+00  0.93827000000E+00 0. -1.
     999902    2    1    2    0    0 -0.87995315880E-02 -0.21481670074E-01  0.39943040479E-02  0.10203747804E+01  0.10201028596E+01 0.  0.
     999903    2    3    3    0    0 -0.42289818199E-01  0.11132890806E+00  0.41980225063E-01  0.12896960925E+00  0.26234830307E-01 0.  0.
         14    1    1    2    0    0  0.87995315880E-02  0.21481670074E-01 -0.39943040479E-02  0.23555219595E-01  0.00000000000E+00 0.  1.
     999901    1    3    3    0    0  0.33490286611E-01 -0.13281057813E+00 -0.37985921015E-01  0.89140517115E+00  0.88000000000E+00 0. -1.
        -11    1    4    4    0    0 -0.45104018882E-01  0.95452229666E-01  0.33604989968E-01  0.11079285690E+00  0.51100000000E-03 0. -1.
         11    1    4    4    0    0  0.28142006832E-02  0.15876678394E-01  0.83752350944E-02  0.18176752355E-01  0.51100000000E-03 0.  1.
</event>
<event>
 8    1  0.1071333E+005  0.1043930E+01  0.7957747E-01            NaN
         13   -1    0    0    0    0  0.00000000000E+00  0.00000000000E+00  0.74505805969E-08  0.10566000000E+00  0.10566000000E+00 0.  1.
     999900   -1    0    0    0    0 -0.00000000000E+00 -0.00000000000E+00 -0.74505805969E-08  0.93827000000E+00  0.93827000000E+00 0. -1.
     999902    2    1    2    0    0  0.12667133849E-01 -0.20337671911E-01  0.91865544358E-03  0.10199524875E+01  0.10196706113E+01 0.  0.
     999903    2    3    3    0    0  0.11264082372E+00  0.55533204213E-01  0.29625503667E-01  0.13058461554E+00  0.20069364949E-01 0.  0.
         14    1    1    2    0    0 -0.12667133849E-01  0.20337671911E-01 -0.91865544358E-03  0.23977512518E-01  0.00000000000E+00 0.  1.
     999901    1    3    3    0    0 -0.99973689871E-01 -0.75870876124E-01 -0.28706848223E-01  0.88936787194E+00  0.88000000000E+00 0.  1.
        -11    1    4    4    0    0  0.65249506076E-01  0.42975934211E-01  0.17139949078E-01  0.79990424051E-01  0.51100000000E-03 0. -1.
         11    1    4    4    0    0  0.47391317644E-01  0.12557270002E-01  0.12485554589E-01  0.50594191488E-01  0.51100000000E-03 0.  1.
</event>
<event>
 8    1  0.1071333E+005  0.1043930E+01  0.7957747E-01            NaN
         13   -1    0    0    0    0  0.00000000000E+00  0.00000000000E+00  0.74505805969E-08  0.10566000000E+00  0.10566000000E+00 0.  1.
     999900   -1    0    0    0    0 -0.00000000000E+00 -0.00000000000E+00 -0.74505805969E-08  0.93827000000E+00  0.93827000000E+00 0.  1.
     999902    2    1    2    0    0  0.11077094422E-01 -0.22788455427E-01 -0.58617384386E-02  0.10179227760E+01  0.10175904885E+01 0.  0.
     999903    2    3    3    0    0 -0.80040931514E-01  0.31907856475E-02  0.96355721746E-01  0.12695373908E+00  0.20398404914E-01 0.  0.
         14    1    1    2    0    0 -0.11077094422E-01  0.22788455427E-01  0.58617384386E-02  0.26007223980E-01  0.00000000000E+00 0.  1.
     999901    1    3    3    0    0  0.91118025936E-01 -0.25979241075E-01 -0.10221746018E+00  0.89096903694E+00  0.88000000000E+00 0.  1.
        -11    1    4    4    0    0 -0.59080903918E-01  0.29952430131E-02  0.55920799839E-01  0.81405906813E-01  0.51100000000E-03 0.  1.
         11    1    4    4    0    0 -0.20960027596E-01  0.19554263444E-03  0.40434921907E-01  0.45547832269E-01  0.51100000000E-03 0. -1.
</event>
<event>
 8    1  0.1071333E+005  0.1043930E+01  0.7957747E-01            NaN
         13   -1    0    0    0    0  0.00000000000E+00  0.00000000000E+00  0.74505805969E-08  0.10566000000E+00  0.10566000000E+00 0. -1.
     999900   -1    0    0    0    0 -0.00000000000E+00 -0.00000000000E+00 -0.74505805969E-08  0.93827000000E+00  0.93827000000E+00 0.  1.
     999902    2    1    2    0    0  0.10558440230E-01 -0.10367003596E-01 -0.18333828469E-01  0.10203697646E+01  0.10200977266E+01 0.  0.
     999903    2    3    3    0    0  0.10025394758E+00 -0.82090797286E-01  0.17107996155E-01  0.13219989939E+00  0.19858923993E-01 0.  0.
         14    1    1    2    0    0 -0.10558440230E-01  0.10367003596E-01  0.18333828469E-01  0.23560235355E-01  0.00000000000E+00 0. -1.
     999901    1    3    3    0    0 -0.89695507345E-01  0.71723793689E-01 -0.35441824624E-01  0.88816986526E+00  0.88000000000E+00 0.  1.
        -11    1    4    4    0    0  0.55556037998E-01 -0.34103520050E-01  0.39394761549E-02  0.65309295136E-01  0.51100000000E-03 0. -1.
         11    1    4    4    0    0  0.44697909577E-01 -0.47987277236E-01  0.13168520000E-01  0.66890604251E-01  0.51100000000E-03 0.  1.
</event>
<event>
 8    1  0.1071333E+005  0.1043930E+01  0.7957747E-01            NaN
         13   -1    0    0    0    0  0.00000000000E+00  0.00000000000E+00  0.74505805969E-08  0.10566000000E+00  0.10566000000E+00 0. -1.
     999900   -1    0    0    0    0 -0.00000000000E+00 -0.00000000000E+00 -0.74505805969E-08  0.93827000000E+00  0.93827000000E+00 0.  1.
     999902    2    1    2    0    0  0.18936142828E-01 -0.13217285795E-02  0.13969028467E-01  0.10203618387E+01  0.10200896155E+01 0.  0.
     999903    2    3    3    0    0  0.73290795003E-01  0.10777928181E+00  0.97136043815E-03  0.13186513185E+00  0.19988877815E-01 0.  0.
         14    1    1    2    0    0 -0.18936142828E-01  0.13217285795E-02 -0.13969028467E-01  0.23568161319E-01  0.00000000000E+00 0.  1.
     999901    1    3    3    0    0 -0.54354652175E-01 -0.10910101039E+00  0.12997668029E-01  0.88849670683E+00  0.88000000000E+00 0. -1.
        -11    1    4    4    0    0  0.34889039684E-01  0.52398700068E-01 -0.94875346060E-02  0.63664301557E-01  0.51100000000E-03 0.  1.
         11    1    4    4    0    0  0.38401755319E-01  0.55380581741E-01  0.10458895044E-01  0.68200830289E-01  0.51100000000E-03 0. -1.
</event>
<event>
 8    1  0.1071333E+005  0.1043930E+01  0.7957747E-01            NaN
         13   -1    0    0    0    0  0.00000000000E+00  0.00000000000E+00  0.74505805969E-08  0.10566000000E+00  0.10566000000E+00 0.  1.
     999900   -1    0    0    0    0 -0.00000000000E+00 -0.00000000000E+00 -0.74505805969E-08  0.93827000000E+00  0.93827000000E+00 0. -1.
     999902    2    1    2    0    0  0.10841465792E-01 -0.55222684954E-02 -0.17305551178E-01  0.10227754513E+01  0.10225566531E+01 0.  0.
     999903    2    3    3    0    0 -0.46807310149E-01  0.19077874863E-01 -0.12289730126E+00  0.13424961254E+00  0.19087226584E-01 0.  0.
         14    1    1    2    0    0 -0.10841465792E-01  0.55222684954E-02  0.17305551178E-01  0.21154548717E-01  0.00000000000E+00 0.  1.
     999901    1    3    3    0    0  0.57648775941E-01 -0.24600143359E-01  0.10559175008E+00  0.88852583874E+00  0.88000000000E+00 0.  1.
        -11    1    4    4    0    0 -0.44820023685E-01  0.14428105933E-01 -0.96597344843E-01  0.10746307699E+00  0.51100000000E-03 0.  1.
         11    1    4    4    0    0 -0.19872864637E-02  0.46497689309E-02 -0.26299956417E-01  0.26786535557E-01  0.51100000000E-03 0. -1.
</event>
<event>
 8    1  0.1071333E+005  0.1043930E+01  0.7957747E-01            NaN
         13   -1    0    0    0    0  0.00000000000E+00  0.00000000000E+00  0.74505805969E-08  0.10566000000E+00  0.10566000000E+00 0.  1.
     999900   -1    0    0    0    0 -0.00000000000E+00 -0.00000000000E+00 -0.74505805969E-08  0.93827000000E+00  0.93827000000E+00 0.  1.
     999902    2    1    2    0    0 -0.73175057299E-02  0.21718264599E-01 -0.70431356019E-02  0.10199542901E+01  0.10196724568E+01 0.  0.
     999903    2    3    3    0    0 -0.70517315433E-01 -0.60761940330E-02 -0.10843016337E+00  0.13144650886E+00  0.22615756752E-01 0.  0.
         14    1    1    2    0    0  0.73175057299E-02 -0.21718264599E-01  0.70431356019E-02  0.23975709925E-01  0.00000000000E+00 0. -1.
     999901    1    3    3    0    0  0.63199809703E-01  0.27794458632E-01  0.10138702777E+00  0.88850778121E+00  0.88000000000E+00 0. -1.
        -11    1    4    4    0    0 -0.17259149166E-01  0.12752215992E-02 -0.12083888547E-01  0.21113642592E-01  0.51100000000E-03 0.  1.
         11    1    4    4    0    0 -0.53258166266E-01 -0.73514156322E-02 -0.96346274824E-01  0.11033286627E+00  0.51100000000E-03 0. -1.
</event>
<event>
 8    1  0.1071333E+005  0.1043930E+01  0.7957747E-01            NaN
         13   -1    0    0    0    0  0.00000000000E+00  0.00000000000E+00  0.74505805969E-08  0.10566000000E+00  0.10566000000E+00 0.  1.
     999900   -1    0    0    0    0 -0.00000000000E+00 -0.00000000000E+00 -0.74505805969E-08  0.93827000000E+00  0.93827000000E+00 0. -1.
     999902    2    1    2    0    0 -0.16066640626E-01  0.18962368334E-01  0.14283187811E-02  0.10190352526E+01  0.10187311213E+01 0.  0.
     999903    2    3    3    0    0  0.13315624617E-01  0.12823292239E+00  0.17586358501E-01  0.13164331340E+00  0.19992341375E-01 0.  0.
         14    1    1    2    0    0  0.16066640626E-01 -0.18962368334E-01 -0.14283187811E-02  0.24894747406E-01  0.00000000000E+00 0.  1.
     999901    1    3    3    0    0 -0.29382265243E-01 -0.10927055406E+00 -0.16158039720E-01  0.88739193919E+00  0.88000000000E+00 0.  1.
        -11    1    4    4    0    0  0.87459494488E-02  0.17981841214E-01  0.72527834911E-03  0.20015628766E-01  0.51100000000E-03 0. -1.
         11    1    4    4    0    0  0.45696751678E-02  0.11025108118E+00  0.16861080152E-01  0.11162768464E+00  0.51100000000E-03 0.  1.
</event>
<event>
 8    1  0.1071333E+005  0.1043930E+01  0.7957747E-01            NaN
         13   -1    0    0    0    0  0.00000000000E+00  0.00000000000E+00  0.74505805969E-08  0.10566000000E+00  0.10566000000E+00 0. -1.
     999900   -1    0    0    0    0 -0.00000000000E+00 -0.00000000000E+00 -0.74505805969E-08  0.93827000000E+00  0.93827000000E+00 0.  1.
     999902    2    1    2    0    0 -0.13526196272E-01  0.21908160562E-01 -0.27760060675E-02  0.10180334424E+01  0.10177040131E+01 0.  0.
     999903    2    3    3    0    0  0.10574117038E+00 -0.42285872192E-01 -0.51015973080E-01  0.12636496535E+00  0.19904392903E-01 0.  0.
         14    1    1    2    0    0  0.13526196272E-01 -0.21908160562E-01  0.27760060675E-02  0.25896557580E-01  0.00000000000E+00 0.  1.
     999901    1    3    3    0    0 -0.11926736665E+00  0.64194032754E-01  0.48239967012E-01  0.89166847707E+00  0.88000000000E+00 0. -1.
        -11    1    4    4    0    0  0.67799199411E-01 -0.22582642587E-01 -0.41228466377E-01  0.82503059021E-01  0.51100000000E-03 0. -1.
         11    1    4    4    0    0  0.37941970971E-01 -0.19703229605E-01 -0.97875067029E-02  0.43861906326E-01  0.51100000000E-03 0.  1.
</event>
<event>
 8    1  0.1071333E+005  0.1043930E+01  0.7957747E-01            NaN
         13   -1    0    0    0    0  0.00000000000E+00  0.00000000000E+00  0.74505805969E-08  0.10566000000E+00  0.10566000000E+00 0.  1.
     999900   -1    0    0    0    0 -0.00000000000E+00 -0.00000000000E+00 -0.74505805969E-08  0.93827000000E+00  0.93827000000E+00 0. -1.
     999902    2    1    2    0    0 -0.27930208052E-02 -0.15759711934E-01 -0.17211273784E-01  0.10204268634E+01  0.10201561577E+01 0.  0.
     999903    2    3    3    0    0 -0.42623385568E-01 -0.12060827014E+00  0.26561136252E-01  0.13222885506E+00  0.20392849948E-01 0.  0.
         14    1    1    2    0    0  0.27930208052E-02  0.15759711934E-01  0.17211273784E-01  0.23503136614E-01  0.00000000000E+00 0.  1.
     999901    1    3    3    0    0  0.39830364762E-01  0.10484855820E+00 -0.43772410035E-01  0.88819800833E+00  0.88000000000E+00 0. -1.
        -11    1    4    4    0    0 -0.89915335760E-02 -0.20767603821E-01  0.12730846272E-01  0.25970687560E-01  0.51100000000E-03 0. -1.
         11    1    4    4    0    0 -0.33631851992E-01 -0.99840666314E-01  0.13830289980E-01  0.10625816750E+00  0.51100000000E-03 0.  1.
</event>
<event>
 8    1  0.1071333E+005  0.1043930E+01  0.7957747E-01            NaN
         13   -1    0    0    0    0  0.00000000000E+00  0.00000000000E+00  0.74505805969E-08  0.10566000000E+00  0.10566000000E+00 0. -1.
     999900   -1    0    0    0    0 -0.00000000000E+00 -0.00000000000E+00 -0.74505805969E-08  0.93827000000E+00  0.93827000000E+00 0. -1.
     999902    2    1    2    0    0  0.18174708639E-01 -0.55200026695E-02 -0.14103011919E-01  0.10202723288E+01  0.10199980095E+01 0.  0.
     999903    2    3    3    0    0 -0.91349265009E-01  0.83484255248E-01  0.26529011103E-01  0.12810181813E+00  0.19798441512E-01 0.  0.
         14    1    1    2    0    0 -0.18174708639E-01  0.55200026695E-02  0.14103011919E-01  0.23657671246E-01  0.00000000000E+00 0. -1.
     999901    1    3    3    0    0  0.10952397365E+00 -0.89004257917E-01 -0.40632023022E-01  0.89217051062E+00  0.88000000000E+00 0. -1.
        -11    1    4    4    0    0 -0.58236325042E-01  0.62296713449E-01  0.11676830423E-01  0.86075313248E-01  0.51100000000E-03 0.  1.
         11    1    4    4    0    0 -0.33112939967E-01  0.21187541798E-01  0.14852180679E-01  0.42026504882E-01  0.51100000000E-03 0. -1.
</event>
<event>
 8    1  0.1071333E+005  0.1043930E+01  0.7957747E-01            NaN
         13   -1    0    0    0    0  0.00000000000E+00  0.00000000000E+00  0.74505805969E-08  0.10566000000E+00  0.10566000000E+00 0.  1.
     999900   -1    0    0    0    0 -0.00000000000E+00 -0.00000000000E+00 -0.74505805969E-08  0.93827000000E+00  0.93827000000E+00 0.  1.
     999902    2    1    2    0    0 -0.33086178913E-02 -0.10588748843E-01  0.21582675487E-01  0.10196631412E+01  0.10193743381E+01 0.  0.
     999903    2    3    3    0    0  0.10728472017E+00 -0.17464293711E-01  0.70969484014E-01  0.13134044286E+00  0.19965759038E-01 0.  0.
         14    1    1    2    0    0  0.33086178913E-02  0.10588748843E-01 -0.21582675487E-01  0.24266858791E-01  0.00000000000E+00 0. -1.
     999901    1    3    3    0    0 -0.11059333806E+00  0.68755448682E-02 -0.49386808527E-01  0.88832269835E+00  0.88000000000E+00 0.  1.
        -11    1    4    4    0    0  0.17021098470E-01 -0.43190941263E-02  0.35774452776E-02  0.17928513683E-01  0.51100000000E-03 0. -1.
         11    1    4    4    0    0  0.90263621698E-01 -0.13145199585E-01  0.67392038737E-01  0.11341192918E+00  0.51100000000E-03 0.  1.
</event>
<event>
 8    1  0.1071333E+005  0.1043930E+01  0.7957747E-01            NaN
         13   -1    0    0    0    0  0.00000000000E+00  0.00000000000E+00  0.74505805969E-08  0.10566000000E+00  0.10566000000E+00 0.  1.
     999900   -1    0    0    0    0 -0.00000000000E+00 -0.00000000000E+00 -0.74505805969E-08  0.93827000000E+00  0.93827000000E+00 0.  1.
     999902    2    1    2    0    0  0.15464384346E-01 -0.54091045206E-02  0.17781411068E-01  0.10197518244E+01  0.10194651535E+01 0.  0.
     999903    2    3    3    0    0  0.22389263848E-01 -0.12609782635E+00 -0.17933428110E-01  0.13076966978E+00  0.19420549548E-01 0.  0.
         14    1    1    2    0    0 -0.15464384346E-01  0.54091045206E-02 -0.17781411068E-01  0.24178175582E-01  0.00000000000E+00 0. -1.
     999901    1    3    3    0    0 -0.69248795026E-02  0.12068872183E+00  0.35714839178E-01  0.88898215464E+00  0.88000000000E+00 0. -1.
        -11    1    4    4    0    0  0.14745213323E-01 -0.79254898015E-01 -0.17971832644E-02  0.80636537401E-01  0.51100000000E-03 0.  1.
         11    1    4    4    0    0  0.76440505251E-02 -0.46842928332E-01 -0.16136244846E-01  0.50133132376E-01  0.51100000000E-03 0. -1.
</event>
<event>
 8    1  0.1071333E+005  0.1043930E+01  0.7957747E-01            NaN
         13   -1    0    0    0    0  0.00000000000E+00  0.00000000000E+00  0.74505805969E-08  0.10566000000E+00  0.10566000000E+00 0.  1.
     999900   -1    0    0    0    0 -0.00000000000E+00 -0.00000000000E+00 -0.74505805969E-08  0.93827000000E+00  0.93827000000E+00 0.  1.
     999902    2    1    2    0    0  0.61055486671E-03 -0.31048894751E-02  0.23064590818E-01  0.10206493543E+01  0.10203838081E+01 0.  0.
     999903    2    3    3    0    0 -0.11312015918E+00  0.90448774677E-02 -0.58814572197E-01  0.12947794007E+00  0.20673723437E-01 0.  0.
         14    1    1    2    0    0 -0.61055486671E-03  0.31048894751E-02 -0.23064590818E-01  0.23280645727E-01  0.00000000000E+00 0. -1.
     999901    1    3    3    0    0  0.11373071405E+00 -0.12149766943E-01  0.81879163014E-01  0.89117141420E+00  0.88000000000E+00 0. -1.
        -11    1    4    4    0    0 -0.29749380220E-01  0.32309632732E-03 -0.58645523513E-02  0.30327942726E-01  0.51100000000E-03 0. -1.
         11    1    4    4    0    0 -0.83370778961E-01  0.87217811404E-02 -0.52950019846E-01  0.99149997345E-01  0.51100000000E-03 0.  1.
</event>
<event>
 8    1  0.1071333E+005  0.1043930E+01  0.7957747E-01            NaN
         13   -1    0    0    0    0  0.00000000000E+00  0.00000000000E+00  0.74505805969E-08  0.10566000000E+00  0.10566000000E+00 0.  1.
     999900   -1    0    0    0    0 -0.00000000000E+00 -0.00000000000E+00 -0.74505805969E-08  0.93827000000E+00  0.93827000000E+00 0. -1.
     999902    2    1    2    0    0 -0.75289738264E-02  0.19616843568E-01 -0.10513256618E-01  0.10204345842E+01  0.10201640584E+01 0.  0.
     999903    2    3    3    0    0  0.90778671657E-01  0.93771541701E-01  0.70907201484E-02  0.13168646893E+00  0.16036786655E-01 0.  0.
         14    1    1    2    0    0  0.75289738264E-02 -0.19616843568E-01  0.10513256618E-01  0.23495415790E-01  0.00000000000E+00 0.  1.
     999901    1    3    3    0    0 -0.98307645484E-01 -0.74154698133E-01 -0.17603976766E-01  0.88874811528E+00  0.88000000000E+00 0.  1.
        -11    1    4    4    0    0  0.43773089400E-01  0.56656857899E-01  0.34191337855E-02  0.71680084399E-01  0.51100000000E-03 0. -1.
         11    1    4    4    0    0  0.47005582257E-01  0.37114683801E-01  0.36715863629E-02  0.60006384530E-01  0.51100000000E-03 0.  1.
</event>
<event>
 8    1  0.1071333E+005  0.1043930E+01  0.7957747E-01            NaN
         13   -1    0    0    0    0  0.00000000000E+00  0.00000000000E+00  0.74505805969E-08  0.10566000000E+00  0.10566000000E+00 0.  1.
     999900   -1    0    0    0    0 -0.00000000000E+00 -0.00000000000E+00 -0.74505805969E-08  0.93827000000E+00  0.93827000000E+00 0. -1.
     999902    2    1    2    0    0 -0.14118791874E-01  0.17072594139E-01  0.98428615579E-02  0.10196875645E+01  0.10193993494E+01 0.  0.
     999903    2    3    3    0    0  0.75998336555E-01  0.16440680676E-01  0.10257943617E+00  0.13023741503E+00  0.19829281586E-01 0.  0.
         14    1    1    2    0    0  0.14118791874E-01 -0.17072594139E-01 -0.98428615579E-02  0.24242435485E-01  0.00000000000E+00 0.  1.
     999901    1    3    3    0    0 -0.90117128428E-01  0.63191346322E-03 -0.92736574611E-01  0.88945014949E+00  0.88000000000E+00 0.  1.
        -11    1    4    4    0    0  0.95172059514E-02 -0.44408613534E-02  0.12020373513E-01  0.15970252317E-01  0.51100000000E-03 0. -1.
         11    1    4    4    0    0  0.66481130603E-01  0.20881542030E-01  0.90559062657E-01  0.11426716271E+00  0.51100000000E-03 0.  1.
</event>
<event>
 8    1  0.1071333E+005  0.1043930E+01  0.7957747E-01            NaN
         13   -1    0    0    0    0  0.00000000000E+00  0.00000000000E+00  0.74505805969E-08  0.10566000000E+00  0.10566000000E+00 0. -1.
     999900   -1    0    0    0    0 -0.00000000000E+00 -0.00000000000E+00 -0.74505805969E-08  0.93827000000E+00  0.93827000000E+00 0. -1.
     999902    2    1    2    0    0 -0.18361413505E-01  0.28684289095E-01  0.32449362369E-02  0.10097180203E+01  0.10091382566E+01 0.  0.
     999903    2    3    3    0    0 -0.18263050422E-02 -0.11508300754E+00  0.12170857122E-01  0.11785361495E+00  0.22224103553E-01 0.  0.
         14    1    1    2    0    0  0.18361413505E-01 -0.28684289095E-01 -0.32449362369E-02  0.34211979744E-01  0.00000000000E+00 0.  1.
     999901    1    3    3    0    0 -0.16535108463E-01  0.14376729663E+00 -0.89259208854E-02  0.89186440531E+00  0.88000000000E+00 0.  1.
        -11    1    4    4    0    0  0.21683194245E-02 -0.98375218931E-02 -0.48035925901E-02  0.11172021701E-01  0.51100000000E-03 0. -1.
         11    1    4    4    0    0 -0.39946244667E-02 -0.10524548565E+00  0.16974449712E-01  0.10668159325E+00  0.51100000000E-03 0.  1.
</event>
<event>
 8    1  0.1071333E+005  0.1043930E+01  0.7957747E-01            NaN
         13   -1    0    0    0    0  0.00000000000E+00  0.00000000000E+00  0.74505805969E-08  0.10566000000E+00  0.10566000000E+00 0. -1.
     999900   -1    0    0    0    0 -0.00000000000E+00 -0.00000000000E+00 -0.74505805969E-08  0.93827000000E+00  0.93827000000E+00 0. -1.
     999902    2    1    2    0    0  0.85611809526E-02  0.18725865273E-01 -0.12888990492E-01  0.10196384804E+01  0.10193490829E+01 0.  0.
     999903    2    3    3    0    0 -0.46898938047E-01 -0.39160846097E-01  0.11002224552E+00  0.12748722185E+00  0.20371916233E-01 0.  0.
         14    1    1    2    0    0 -0.85611809526E-02 -0.18725865273E-01  0.12888990492E-01  0.24291519620E-01  0.00000000000E+00 0.  1.
     999901    1    3    3    0    0  0.55460118999E-01  0.57886711370E-01 -0.12291123601E+00  0.89215125853E+00  0.88000000000E+00 0. -1.
        -11    1    4    4    0    0 -0.43682708036E-01 -0.32978112434E-01  0.81879178482E-01  0.98489572397E-01  0.51100000000E-03 0.  1.
         11    1    4    4    0    0 -0.32162300112E-02 -0.61827336629E-02  0.28143067033E-01  0.28997649457E-01  0.51100000000E-03 0. -1.
</event>
<event>
 8    1  0.1071333E+005  0.1043930E+01  0.7957747E-01            NaN
         13   -1    0    0    0    0  0.00000000000E+00  0.00000000000E+00  0.74505805969E-08  0.10566000000E+00  0.10566000000E+00 0.  1.
     999900   -1    0    0    0    0 -0.00000000000E+00 -0.00000000000E+00 -0.74505805969E-08  0.93827000000E+00  0.93827000000E+00 0.  1.
     999902    2    1    2    0    0  0.98852391229E-02  0.17795147653E-01  0.93500604945E-02  0.10215289093E+01  0.10212832632E+01 0.  0.
     999903    2    3    3    0    0  0.10569990279E+00  0.21875397789E-02 -0.76641423344E-01  0.13202422552E+00  0.19473920339E-01 0.  0.
         14    1    1    2    0    0 -0.98852391229E-02 -0.17795147653E-01 -0.93500604945E-02  0.22401090682E-01  0.00000000000E+00 0. -1.
     999901    1    3    3    0    0 -0.95814663666E-01  0.15607607874E-01  0.85991483839E-01  0.88950468379E+00  0.88000000000E+00 0. -1.
        -11    1    4    4    0    0  0.43535948474E-01  0.54904264218E-02 -0.21528790591E-01  0.48880195756E-01  0.51100000000E-03 0. -1.
         11    1    4    4    0    0  0.62163954315E-01 -0.33028866428E-02 -0.55112632753E-01  0.83144029769E-01  0.51100000000E-03 0.  1.
</event>
<event>
 8    1  0.1071333E+005  0.1043930E+01  0.7957747E-01            NaN
         13   -1    0    0    0    0  0.00000000000E+00  0.00000000000E+00  0.74505805969E-08  0.10566000000E+00  0.10566000000E+00 0. -1.
     999900   -1    0    0    0    0 -0.00000000000E+00 -0.00000000000E+00 -0.74505805969E-08  0.93827000000E+00  0.93827000000E+00 0. -1.
     999902    2    1    2    0    0 -0.23093714722E-01  0.28691264766E-02 -0.12684401618E-02  0.10206241963E+01  0.10203580693E+01 0.  0.
     999903    2    3    3    0    0  0.18615420552E-01 -0.70474436619E-01  0.10591914784E+00  0.13011416870E+00  0.19941186442E-01 0.  0.
         14    1    1    2    0    0  0.23093714722E-01 -0.28691264766E-02  0.12684401618E-02  0.23305803716E-01  0.00000000000E+00 0.  1.
     999901    1    3    3    0    0 -0.41709135274E-01  0.73343563096E-01 -0.10718758800E+00  0.89051002759E+00  0.88000000000E+00 0. -1.
        -11    1    4    4    0    0  0.67751941527E-02 -0.52202012419E-01  0.63945876822E-01  0.82826865448E-01  0.51100000000E-03 0.  1.
         11    1    4    4    0    0  0.11840226399E-01 -0.18272424200E-01  0.41973271020E-01  0.47287303248E-01  0.51100000000E-03 0. -1.
</event>
<event>
 8    1  0.1071333E+005  0.1043930E+01  0.7957747E-01            NaN
         13   -1    0    0    0    0  0.00000000000E+00  0.00000000000E+00  0.74505805969E-08  0.10566000000E+00  0.10566000000E+00 0.  1.
     999900   -1    0    0    0    0 -0.00000000000E+00 -0.00000000000E+00 -0.74505805969E-08  0.93827000000E+00  0.93827000000E+00 0.  1.
     999902    2    1    2    0    0  0.16386969604E-01 -0.14215270264E-02  0.15123929664E-01  0.10215852744E+01  0.10213408766E+01 0.  0.
     999903    2    3    3    0    0 -0.15381171137E-01  0.37537450399E-01  0.12511812035E+00  0.13331406660E+00  0.21736046222E-01 0.  0.
         14    1    1    2    0    0 -0.16386969604E-01  0.14215270264E-02 -0.15123929664E-01  0.22344725561E-01  0.00000000000E+00 0.  1.
     999901    1    3    3    0    0  0.31768140741E-01 -0.38958977425E-01 -0.10999419069E+00  0.88827120784E+00  0.88000000000E+00 0.  1.
        -11    1    4    4    0    0 -0.75684210915E-02  0.32745805747E-01  0.72650368102E-01  0.80049396613E-01  0.51100000000E-03 0. -1.
         11    1    4    4    0    0 -0.78127500453E-02  0.47916446523E-02  0.52467752251E-01  0.53264669989E-01  0.51100000000E-03 0.  1.
</event>
<event>
 8    1  0.1071333E+005  0.1043930E+01  0.7957747E-01            NaN
         13   -1    0    0    0    0  0.00000000000E+00  0.00000000000E+00  0.74505805969E-08  0.10566000000E+00  0.10566000000E+00 0.  1.
     999900   -1    0    0    0    0 -0.00000000000E+00 -0.00000000000E+00 -0.74505805969E-08  0.93827000000E+00  0.93827000000E+00 0. -1.
     999902    2    1    2    0    0 -0.59295583098E-02  0.17668538362E-01  0.14222644203E-01  0.10204860132E+01  0.10202166841E+01 0.  0.
     999903    2    3    3    0    0 -0.89287014577E-01 -0.67722415886E-01  0.64665415135E-01  0.13100045753E+00  0.20518464197E-01 0.  0.
         14    1    1    2    0    0  0.59295583098E-02 -0.17668538362E-01 -0.14222644203E-01  0.23443986813E-01  0.00000000000E+00 0. -1.
     999901    1    3    3    0    0  0.83357456267E-01  0.85390954248E-01 -0.50442770933E-01  0.88948555566E+00  0.88000000000E+00 0. -1.
        -11    1    4    4    0    0 -0.37272382067E-01 -0.41059158703E-01  0.32683522726E-01  0.64370480479E-01  0.51100000000E-03 0.  1.
         11    1    4    4    0    0 -0.52014632510E-01 -0.26663257184E-01  0.31981892410E-01  0.66629977051E-01  0.51100000000E-03 0. -1.
</event>
<event>
 8    1  0.1071333E+005  0.1043930E+01  0.7957747E-01            NaN
         13   -1    0    0    0    0  0.00000000000E+00  0.00000000000E+00  0.74505805969E-08  0.10566000000E+00  0.10566000000E+00 0.  1.
     999900   -1    0    0    0    0 -0.00000000000E+00 -0.00000000000E+00 -0.74505805969E-08  0.93827000000E+00  0.93827000000E+00 0. -1.
     999902    2    1    2    0    0 -0.19708479172E-01 -0.88007926123E-02  0.10590446766E-01  0.10198876277E+01  0.10196042063E+01 0.  0.
     999903    2    3    3    0    0 -0.11489198659E+00 -0.15159699665E-02  0.64131242143E-01  0.13310716702E+00  0.20055795774E-01 0.  0.
         14    1    1    2    0    0  0.19708479172E-01  0.88007926123E-02 -0.10590446766E-01  0.24042372274E-01  0.00000000000E+00 0. -1.
     999901    1    3    3    0    0  0.95183507422E-01 -0.72848226459E-02 -0.53540795377E-01  0.88678046071E+00  0.88000000000E+00 0. -1.
        -11    1    4    4    0    0 -0.43091592865E-01 -0.10179849576E-01  0.25952881436E-01  0.51325703978E-01  0.51100000000E-03 0.  1.
         11    1    4    4    0    0 -0.71800393728E-01  0.86638796097E-02  0.38178360707E-01  0.81781463038E-01  0.51100000000E-03 0. -1.
</event>
<event>
 8    1  0.1071333E+005  0.1043930E+01  0.7957747E-01            NaN
         13   -1    0    0    0    0  0.00000000000E+00  0.00000000000E+00  0.74505805969E-08  0.10566000000E+00  0.10566000000E+00 0.  1.
     999900   -1    0    0    0    0 -0.00000000000E+00 -0.00000000000E+00 -0.74505805969E-08  0.93827000000E+00  0.93827000000E+00 0. -1.
     999902    2    1    2    0    0 -0.38434941256E-02  0.43408675887E-02  0.23398904660E-01  0.10198234798E+01  0.10195385258E+01 0.  0.
     999903    2    3    3    0    0  0.96359892403E-01 -0.61585204689E-01  0.60251839106E-01  0.13092241415E+00  0.20794905873E-01 0.  0.
         14    1    1    2    0    0  0.38434941256E-02 -0.43408675887E-02 -0.23398904660E-01  0.24106520234E-01  0.00000000000E+00 0. -1.
     999901    1    3    3    0    0 -0.10020338653E+00  0.65926072278E-01 -0.36852934446E-01  0.88890106562E+00  0.88000000000E+00 0.  1.
        -11    1    4    4    0    0  0.18707784317E-01 -0.35346507260E-02  0.68860730637E-02  0.20252260937E-01  0.51100000000E-03 0.  1.
         11    1    4    4    0    0  0.77652108086E-01 -0.58050553963E-01  0.53365766043E-01  0.11067015321E+00  0.51100000000E-03 0. -1.
</event>
<event>
 8    1  0.1071333E+005  0.1043930E+01  0.7957747E-01            NaN
         13   -1    0    0    0    0  0.00000000000E+00  0.00000000000E+00  0.74505805969E-08  0.10566000000E+00  0.10566000000E+00 0.  1.
     999900   -1    0    0    0    0 -0.00000000000E+00 -0.00000000000E+00 -0.74505805969E-08  0.93827000000E+00  0.93827000000E+00 0. -1.
     999902    2    1    2    0    0  0.17256666925E-01  0.57232890535E-03  0.15165017782E-01  0.10209496197E+01  0.10206909562E+01 0.  0.
     999903    2    3    3    0    0  0.79829709257E-01 -0.68131923438E-01  0.79813023632E-01  0.13369823224E+00  0.22144008021E-01 0.  0.
         14    1    1    2    0    0 -0.17256666925E-01 -0.57232890535E-03 -0.15165017782E-01  0.22980380285E-01  0.00000000000E+00 0. -1.
     999901    1    3    3    0    0 -0.62573042332E-01  0.68704252343E-01 -0.64648005850E-01  0.88725138748E+00  0.88000000000E+00 0. -1.
        -11    1    4    4    0    0  0.22483945900E-01 -0.32927548607E-01  0.32439993054E-01  0.51403944896E-01  0.51100000000E-03 0. -1.
         11    1    4    4    0    0  0.57345763356E-01 -0.35204374830E-01  0.47373030578E-01  0.82294287343E-01  0.51100000000E-03 0.  1.
</event>
<event>
 8    1  0.1071333E+005  0.1043930E+01  0.7957747E-01            NaN
         13   -1    0    0    0    0  0.00000000000E+00  0.00000000000E+00  0.74505805969E-08  0.10566000000E+00  0.10566000000E+00 0.  1.
     999900   -1    0    0    0    0 -0.00000000000E+00 -0.00000000000E+00 -0.74505805969E-08  0.93827000000E+00  0.93827000000E+00 0.  1.
     999902    2    1    2    0    0 -0.12424223506E-01 -0.17667726524E-01 -0.10186353675E-01  0.10200496380E+01  0.10197700683E+01 0.  0.
     999903    2    3    3    0    0 -0.22999196372E-02 -0.74969967453E-01 -0.10763334372E+00  0.13276052824E+00  0.20362601203E-01 0.  0.
         14    1    1    2    0    0  0.12424223506E-01  0.17667726524E-01  0.10186353675E-01  0.23880362046E-01  0.00000000000E+00 0.  1.
     999901    1    3    3    0    0 -0.10124303869E-01  0.57302240929E-01  0.97446990049E-01  0.88728910971E+00  0.88000000000E+00 0. -1.
        -11    1    4    4    0    0  0.34153507185E-02 -0.68864500609E-01 -0.91385020822E-01  0.11447911258E+00  0.51100000000E-03 0.  1.
         11    1    4    4    0    0 -0.57152703557E-02 -0.61054668434E-02 -0.16248322901E-01  0.18281415665E-01  0.51100000000E-03 0. -1.
</event>
<event>
 8    1  0.1071333E+005  0.1043930E+01  0.7957747E-01            NaN
         13   -1    0    0    0    0  0.00000000000E+00  0.00000000000E+00  0.74505805969E-08  0.10566000000E+00  0.10566000000E+00 0. -1.
     999900   -1    0    0    0    0 -0.00000000000E+00 -0.00000000000E+00 -0.74505805969E-08  0.93827000000E+00  0.93827000000E+00 0.  1.
     999902    2    1    2    0    0  0.10745405720E-01  0.14978269512E-01  0.14899912540E-01  0.10202272640E+01  0.10199518863E+01 0.  0.
     999903    2    3    3    0    0  0.11627195121E+00  0.37596170970E-01  0.48554587908E-01  0.13299558146E+00  0.19940861877E-01 0.  0.
         14    1    1    2    0    0 -0.10745405720E-01 -0.14978269512E-01 -0.14899912540E-01  0.23702736031E-01  0.00000000000E+00 0.  1.
     999901    1    3    3    0    0 -0.10552654549E+00 -0.22617901458E-01 -0.33654675368E-01  0.88723168251E+00  0.88000000000E+00 0.  1.
        -11    1    4    4    0    0  0.40658298975E-01  0.13682926828E-01  0.70250771026E-02  0.43473354959E-01  0.51100000000E-03 0. -1.
         11    1    4    4    0    0  0.75613652233E-01  0.23913244142E-01  0.41529510805E-01  0.89522226503E-01  0.51100000000E-03 0.  1.
</event>
<event>
 8    1  0.1071333E+005  0.1043930E+01  0.7957747E-01            NaN
         13   -1    0    0    0    0  0.00000000000E+00  0.00000000000E+00  0.74505805969E-08  0.10566000000E+00  0.10566000000E+00 0.  1.
     999900   -1    0    0    0    0 -0.00000000000E+00 -0.00000000000E+00 -0.74505805969E-08  0.93827000000E+00  0.93827000000E+00 0.  1.
     999902    2    1    2    0    0 -0.61977507510E-02 -0.20744850772E-01 -0.98294875067E-02  0.10201522841E+01  0.10198751409E+01 0.  0.
     999903    2    3    3    0    0  0.11231090471E+00 -0.52859091204E-01 -0.37294690403E-01  0.13120348738E+00  0.20387209903E-01 0.  0.
         14    1    1    2    0    0  0.61977507510E-02  0.20744850772E-01  0.98294875067E-02  0.23777715882E-01  0.00000000000E+00 0.  1.
     999901    1    3    3    0    0 -0.11850865546E+00  0.32114240432E-01  0.27465202897E-01  0.88894879674E+00  0.88000000000E+00 0. -1.
        -11    1    4    4    0    0  0.69189898947E-01 -0.43256954893E-01 -0.25005594690E-01  0.85346043550E-01  0.51100000000E-03 0. -1.
         11    1    4    4    0    0  0.43121005764E-01 -0.96021363110E-02 -0.12289095714E-01  0.45857443826E-01  0.51100000000E-03 0.  1.
</event>
<event>
 8    1  0.1071333E+005  0.1043930E+01  0.7957747E-01            NaN
         13   -1    0    0    0    0  0.00000000000E+00  0.00000000000E+00  0.74505805969E-08  0.10566000000E+00  0.10566000000E+00 0. -1.
     999900   -1    0    0    0    0 -0.00000000000E+00 -0.00000000000E+00 -0.74505805969E-08  0.93827000000E+00  0.93827000000E+00 0. -1.
     999902    2    1    2    0    0 -0.94860737786E-04  0.14970774503E-01  0.18923691417E-01  0.10198003671E+01  0.10195148599E+01 0.  0.
     999903    2    3    3    0    0 -0.43912450069E-03 -0.12573867273E+00  0.18680935349E-01  0.12862175088E+00  0.19600275595E-01 0.  0.
         14    1    1    2    0    0  0.94860737786E-04 -0.14970774503E-01 -0.18923691417E-01  0.24129632915E-01  0.00000000000E+00 0.  1.
     999901    1    3    3    0    0  0.34426376290E-03  0.14070944723E+00  0.24275606837E-03  0.89117861621E+00  0.88000000000E+00 0. -1.
        -11    1    4    4    0    0  0.35098382125E-02 -0.10865815660E+00  0.10357266847E-01  0.10920827834E+00  0.51100000000E-03 0. -1.
         11    1    4    4    0    0 -0.39489627131E-02 -0.17080516130E-01  0.83236685014E-02  0.19413472541E-01  0.51100000000E-03 0.  1.
</event>
<event>
 8    1  0.1071333E+005  0.1043930E+01  0.7957747E-01            NaN
         13   -1    0    0    0    0  0.00000000000E+00  0.00000000000E+00  0.74505805969E-08  0.10566000000E+00  0.10566000000E+00 0.  1.
     999900   -1    0    0    0    0 -0.00000000000E+00 -0.00000000000E+00 -0.74505805969E-08  0.93827000000E+00  0.93827000000E+00 0.  1.
     999902    2    1    2    0    0  0.79702103720E-02 -0.22389336175E-01 -0.74080052942E-02  0.10190365235E+01  0.10187324237E+01 0.  0.
     999903    2    3    3    0    0  0.12586597026E+00 -0.10503796923E-01 -0.27532873798E-01  0.13086667122E+00  0.20382695541E-01 0.  0.
         14    1    1    2    0    0 -0.79702103720E-02  0.22389336175E-01  0.74080052942E-02  0.24893476458E-01  0.00000000000E+00 0. -1.
     999901    1    3    3    0    0 -0.11789575989E+00 -0.11885539252E-01  0.20124868504E-01  0.88816985232E+00  0.88000000000E+00 0. -1.
        -11    1    4    4    0    0  0.91013165620E-01 -0.96838966024E-02 -0.28873984854E-01  0.95974696102E-01  0.51100000000E-03 0. -1.
         11    1    4    4    0    0  0.34852804639E-01 -0.81990032055E-03  0.13411110558E-02  0.34891975117E-01  0.51100000000E-03 0.  1.
</event>
<event>
 8    1  0.1071333E+005  0.1043930E+01  0.7957747E-01            NaN
         13   -1    0    0    0    0  0.00000000000E+00  0.00000000000E+00  0.74505805969E-08  0.10566000000E+00  0.10566000000E+00 0. -1.
     999900   -1    0    0    0    0 -0.00000000000E+00 -0.00000000000E+00 -0.74505805969E-08  0.93827000000E+00  0.93827000000E+00 0.  1.
     999902    2    1    2    0    0  0.83009682534E-02  0.92357002293E-02 -0.14321832936E-01  0.10249742850E+01  0.10247989880E+01 0.  0.
     999903    2    3    3    0    0  0.11570189990E+00  0.69351219163E-01 -0.17424189727E-02  0.13631964038E+00  0.19582826387E-01 0.  0.
         14    1    1    2    0    0 -0.83009682534E-02 -0.92357002293E-02  0.14321832936E-01  0.18955715004E-01  0.00000000000E+00 0. -1.
     999901    1    3    3    0    0 -0.10740093165E+00 -0.60115518934E-01 -0.12579413963E-01  0.88865464461E+00  0.88000000000E+00 0. -1.
        -11    1    4    4    0    0  0.22903143586E-01  0.55401202821E-02 -0.24422525543E-02  0.23695413847E-01  0.51100000000E-03 0.  1.
         11    1    4    4    0    0  0.92798756319E-01  0.63811098881E-01  0.69983358166E-03  0.11262422654E+00  0.51100000000E-03 0. -1.
</event>
<event>
 8    1  0.1071333E+005  0.1043930E+01  0.7957747E-01            NaN
         13   -1    0    0    0    0  0.00000000000E+00  0.00000000000E+00  0.74505805969E-08  0.10566000000E+00  0.10566000000E+00 0. -1.
     999900   -1    0    0    0    0 -0.00000000000E+00 -0.00000000000E+00 -0.74505805969E-08  0.93827000000E+00  0.93827000000E+00 0.  1.
     999902    2    1    2    0    0 -0.21931322577E-01  0.84749380512E-02  0.39295993966E-02  0.10200920211E+01  0.10198134547E+01 0.  0.
     999903    2    3    3    0    0  0.49168545937E-01 -0.22000439007E-01 -0.11514265603E+00  0.12870986856E+00  0.20170121545E-01 0.  0.
         14    1    1    2    0    0  0.21931322577E-01 -0.84749380512E-02 -0.39295993966E-02  0.23837978865E-01  0.00000000000E+00 0.  1.
     999901    1    3    3    0    0 -0.71099868513E-01  0.30475377058E-01  0.11907225542E+00  0.89138215257E+00  0.88000000000E+00 0. -1.
        -11    1    4    4    0    0  0.46404268215E-01 -0.25556672948E-01 -0.10552643911E+00  0.11807874539E+00  0.51100000000E-03 0. -1.
         11    1    4    4    0    0  0.27642777211E-02  0.35562339409E-02 -0.96162169212E-02  0.10631123179E-01  0.51100000000E-03 0.  1.
</event>
<event>
 8    1  0.1071333E+005  0.1043930E+01  0.7957747E-01            NaN
         13   -1    0    0    0    0  0.00000000000E+00  0.00000000000E+00  0.74505805969E-08  0.10566000000E+00  0.10566000000E+00 0. -1.
     999900   -1    0    0    0    0 -0.00000000000E+00 -0.00000000000E+00 -0.74505805969E-08  0.93827000000E+00  0.93827000000E+00 0.  1.
     999902    2    1    2    0    0 -0.31260541532E-02  0.23500189664E-01 -0.29312589441E-02  0.10200422750E+01  0.10197625308E+01 0.  0.
     999903    2    3    3    0    0  0.53474100613E-02  0.96599702660E-01  0.88024114967E-01  0.13229894581E+00  0.19866275411E-01 0.  0.
         14    1    1    2    0    0  0.31260541532E-02 -0.23500189664E-01  0.29312589441E-02  0.23887725045E-01  0.00000000000E+00 0. -1.
     999901    1    3    3    0    0 -0.84734642146E-02 -0.73099512996E-01 -0.90955373911E-01  0.88774332914E+00  0.88000000000E+00 0.  1.
        -11    1    4    4    0    0  0.91981133045E-02  0.19517774964E-01  0.18755355032E-01  0.28593238559E-01  0.51100000000E-03 0.  1.
         11    1    4    4    0    0 -0.38507032431E-02  0.77081927696E-01  0.69268759935E-01  0.10370570725E+00  0.51100000000E-03 0. -1.
</event>
<event>
 8    1  0.1071333E+005  0.1043930E+01  0.7957747E-01            NaN
         13   -1    0    0    0    0  0.00000000000E+00  0.00000000000E+00  0.74505805969E-08  0.10566000000E+00  0.10566000000E+00 0. -1.
     999900   -1    0    0    0    0 -0.00000000000E+00 -0.00000000000E+00 -0.74505805969E-08  0.93827000000E+00  0.93827000000E+00 0. -1.
     999902    2    1    2    0    0 -0.30779778807E-02 -0.19958376605E-01  0.15118893152E-01  0.10187031953E+01  0.10183907936E+01 0.  0.
     999903    2    3    3    0    0  0.76302020864E-01 -0.10328497681E+00  0.18018628912E-01  0.13120507421E+00  0.20007890602E-01 0.  0.
         14    1    1    2    0    0  0.30779778807E-02  0.19958376605E-01 -0.15118893152E-01  0.25226804686E-01  0.00000000000E+00 0.  1.
     999901    1    3    3    0    0 -0.79379998745E-01  0.83326600207E-01 -0.28997357603E-02  0.88749812111E+00  0.88000000000E+00 0.  1.
        -11    1    4    4    0    0  0.35878681900E-01 -0.60747171395E-01  0.16718452549E-01  0.72507009482E-01  0.51100000000E-03 0. -1.
         11    1    4    4    0    0  0.40423338964E-01 -0.42537805417E-01  0.13001763633E-02  0.58698064724E-01  0.51100000000E-03 0.  1.
</event>
<event>
 8    1  0.1071333E+005  0.1043930E+01  0.7957747E-01            NaN
         13   -1    0    0    0    0  0.00000000000E+00  0.00000000000E+00  0.74505805969E-08  0.10566000000E+00  0.10566000000E+00 0. -1.
     999900   -1    0    0    0    0 -0.00000000000E+00 -0.00000000000E+00 -0.74505805969E-08  0.93827000000E+00  0.93827000000E+00 0.  1.
     999902    2    1    2    0    0 -0.14215431689E-02  0.14028054246E-01  0.21898256003E-01  0.10178850253E+01  0.10175517599E+01 0.  0.
     999903    2    3    3    0    0  0.40647315381E-02  0.11710427410E+00 -0.50279711244E-01  0.12891682269E+00  0.19014856111E-01 0.  0.
         14    1    1    2    0    0  0.14215431689E-02 -0.14028054246E-01 -0.21898256003E-01  0.26044974695E-01  0.00000000000E+00 0.  1.
     999901    1    3    3    0    0 -0.54862747069E-02 -0.10307621986E+00  0.72177967247E-01  0.88896820262E+00  0.88000000000E+00 0.  1.
        -11    1    4    4    0    0  0.48468664921E-02  0.23957098508E-01 -0.35605235032E-02  0.24705730759E-01  0.51100000000E-03 0.  1.
         11    1    4    4    0    0 -0.78213495408E-03  0.93147175596E-01 -0.46719187741E-01  0.10421109193E+00  0.51100000000E-03 0. -1.
</event>
<event>
 8    1  0.1071333E+005  0.1043930E+01  0.7957747E-01            NaN
         13   -1    0    0    0    0  0.00000000000E+00  0.00000000000E+00  0.74505805969E-08  0.10566000000E+00  0.10566000000E+00 0.  1.
     999900   -1    0    0    0    0 -0.00000000000E+00 -0.00000000000E+00 -0.74505805969E-08  0.93827000000E+00  0.93827000000E+00 0.  1.
     999902    2    1    2    0    0 -0.34025371428E-02  0.27686598488E-02 -0.22047793279E-01  0.10214500551E+01  0.10212026572E+01 0.  0.
     999903    2    3    3    0    0  0.76576752095E-01  0.44277130324E-01  0.92610341040E-01  0.12944886246E+00  0.18864503505E-01 0.  0.
         14    1    1    2    0    0  0.34025371428E-02 -0.27686598488E-02  0.22047793279E-01  0.22479944947E-01  0.00000000000E+00 0.  1.
     999901    1    3    3    0    0 -0.79979289238E-01 -0.41508470476E-01 -0.11465813432E+00  0.89200119260E+00  0.88000000000E+00 0. -1.
        -11    1    4    4    0    0  0.44698767586E-01  0.24104427733E-01  0.66010600226E-01  0.83286635922E-01  0.51100000000E-03 0.  1.
         11    1    4    4    0    0  0.31877984510E-01  0.20172702592E-01  0.26599740814E-01  0.46162226534E-01  0.51100000000E-03 0. -1.
</event>
<event>
 8    1  0.1071333E+005  0.1043930E+01  0.7957747E-01            NaN
         13   -1    0    0    0    0  0.00000000000E+00  0.00000000000E+00  0.74505805969E-08  0.10566000000E+00  0.10566000000E+00 0. -1.
     999900   -1    0    0    0    0 -0.00000000000E+00 -0.00000000000E+00 -0.74505805969E-08  0.93827000000E+00  0.93827000000E+00 0.  1.
     999902    2    1    2    0    0  0.20166614394E-01  0.13173354571E-01  0.41504394289E-02  0.10194870919E+01  0.10191940320E+01 0.  0.
     999903    2    3    3    0    0 -0.11473599159E+00  0.52021571139E-01 -0.11466290099E-01  0.12822294520E+00  0.20953668801E-01 0.  0.
         14    1    1    2    0    0 -0.20166614394E-01 -0.13173354571E-01 -0.41504394289E-02  0.24442908056E-01  0.00000000000E+00 0.  1.
     999901    1    3    3    0    0  0.13490260599E+00 -0.38848216568E-01  0.15616729528E-01  0.89126414675E+00  0.88000000000E+00 0. -1.
        -11    1    4    4    0    0 -0.49639470493E-01  0.33570400326E-01 -0.26263244237E-02  0.59985060722E-01  0.51100000000E-03 0. -1.
         11    1    4    4    0    0 -0.65096521100E-01  0.18451170813E-01 -0.88399656750E-02  0.68237884477E-01  0.51100000000E-03 0.  1.
</event>
<event>
 8    1  0.1071333E+005  0.1043930E+01  0.7957747E-01            NaN
         13   -1    0    0    0    0  0.00000000000E+00  0.00000000000E+00  0.74505805969E-08  0.10566000000E+00  0.10566000000E+00 0. -1.
     999900   -1    0    0    0    0 -0.00000000000E+00 -0.00000000000E+00 -0.74505805969E-08  0.93827000000E+00  0.93827000000E+00 0. -1.
     999902    2    1    2    0    0 -0.12526323615E-01  0.20357784576E-01 -0.74259741682E-04  0.10200269941E+01  0.10197468877E+01 0.  0.
     999903    2    3    3    0    0  0.69869096469E-01  0.10975363318E+00 -0.38467721950E-02  0.13166059737E+00  0.19803146405E-01 0.  0.
         14    1    1    2    0    0  0.12526323615E-01 -0.20357784576E-01  0.74259741682E-04  0.23903005891E-01  0.00000000000E+00 0.  1.
     999901    1    3    3    0    0 -0.82395420084E-01 -0.89395848601E-01  0.37725124533E-02  0.88836639674E+00  0.88000000000E+00 0.  1.
        -11    1    4    4    0    0  0.18312859239E-01  0.21487241777E-01  0.63170871885E-02  0.28934911167E-01  0.51100000000E-03 0. -1.
         11    1    4    4    0    0  0.51556237230E-01  0.88266391400E-01 -0.10163859383E-01  0.10272568621E+00  0.51100000000E-03 0.  1.
</event>
<event>
 8    1  0.1071333E+005  0.1043930E+01  0.7957747E-01            NaN
         13   -1    0    0    0    0  0.00000000000E+00  0.00000000000E+00  0.74505805969E-08  0.10566000000E+00  0.10566000000E+00 0.  1.
     999900   -1    0    0    0    0 -0.00000000000E+00 -0.00000000000E+00 -0.74505805969E-08  0.93827000000E+00  0.93827000000E+00 0. -1.
     999902    2    1    2    0    0 -0.14112324921E-01  0.16005690969E-01  0.11955760120E-01  0.10194702359E+01  0.10191767668E+01 0.  0.
     999903    2    3    3    0    0 -0.88616278675E-01 -0.83285084047E-01  0.42242869293E-01  0.13024202782E+00  0.19730071795E-01 0.  0.
         14    1    1    2    0    0  0.14112324921E-01 -0.16005690969E-01 -0.11955760120E-01  0.24459764065E-01  0.00000000000E+00 0.  1.
     999901    1    3    3    0    0  0.74503953754E-01  0.99290775017E-01 -0.30287109173E-01  0.88922820812E+00  0.88000000000E+00 0.  1.
        -11    1    4    4    0    0 -0.40822087435E-01 -0.43058437104E-01  0.30353717790E-01  0.66648939475E-01  0.51100000000E-03 0. -1.
         11    1    4    4    0    0 -0.47794191240E-01 -0.40226646943E-01  0.11889151502E-01  0.63593088343E-01  0.51100000000E-03 0.  1.
</event>
<event>
 8    1  0.1096684E+005  0.1043930E+01  0.7957747E-01            NaN
         13   -1    0    0    0    0  0.00000000000E+00  0.00000000000E+00  0.74505805969E-08  0.10566000000E+00  0.10566000000E+00 0. -1.
     999900   -1    0    0    0    0 -0.00000000000E+00 -0.00000000000E+00 -0.74505805969E-08  0.93827000000E+00  0.93827000000E+00 0. -1.
     999902    2    1    2    0    0 -0.83612510919E-02  0.16807385804E-01  0.15476921369E-01  0.10196003097E+01  0.10193099909E+01 0.  0.
     999903    2    3    3    0    0 -0.14756394180E-01  0.11348027133E+00 -0.60671546092E-01  0.13101427907E+00  0.19702326344E-01 0.  0.
         14    1    1    2    0    0  0.83612510919E-02 -0.16807385804E-01 -0.15476921369E-01  0.24329690348E-01  0.00000000000E+00 0. -1.
     999901    1    3    3    0    0  0.63951430882E-02 -0.96672885530E-01  0.76148467461E-01  0.88858603058E+00  0.88000000000E+00 0.  1.
        -11    1    4    4    0    0  0.12037222228E-02  0.49865562687E-01 -0.19406169970E-01  0.53524609697E-01  0.51100000000E-03 0.  1.
         11    1    4    4    0    0 -0.15960116403E-01  0.63614708647E-01 -0.41265376122E-01  0.77489669371E-01  0.51100000000E-03 0. -1.
</event>
<event>
 8    1  0.1071333E+005  0.1043930E+01  0.7957747E-01            NaN
         13   -1    0    0    0    0  0.00000000000E+00  0.00000000000E+00  0.74505805969E-08  0.10566000000E+00  0.10566000000E+00 0. -1.
     999900   -1    0    0    0    0 -0.00000000000E+00 -0.00000000000E+00 -0.74505805969E-08  0.93827000000E+00  0.93827000000E+00 0.  1.
     999902    2    1    2    0    0  0.43260540062E-02 -0.12891643335E-01 -0.18939268111E-01  0.10206146598E+01  0.10203483125E+01 0.  0.
     999903    2    3    3    0    0 -0.71418392823E-01 -0.55855347393E-01  0.90463005882E-01  0.12957484104E+00  0.19638669306E-01 0.  0.
         14    1    1    2    0    0 -0.43260540062E-02  0.12891643335E-01  0.18939268111E-01  0.23315340180E-01  0.00000000000E+00 0. -1.
     999901    1    3    3    0    0  0.75744446830E-01  0.42963704058E-01 -0.10940227399E+00  0.89103981878E+00  0.88000000000E+00 0.  1.
        -11    1    4    4    0    0 -0.38844696503E-01 -0.33538128592E-01  0.37747347422E-01  0.63709025061E-01  0.51100000000E-03 0.  1.
         11    1    4    4    0    0 -0.32573696321E-01 -0.22317218801E-01  0.52715658461E-01  0.65865815982E-01  0.51100000000E-03 0. -1.
</event>
<event>
 8    1  0.1071333E+005  0.1043930E+01  0.7957747E-01            NaN
         13   -1    0    0    0    0  0.00000000000E+00  0.00000000000E+00  0.74505805969E-08  0.10566000000E+00  0.10566000000E+00 0.  1.
     999900   -1    0    0    0    0 -0.00000000000E+00 -0.00000000000E+00 -0.74505805969E-08  0.93827000000E+00  0.93827000000E+00 0.  1.
     999902    2    1    2    0    0 -0.34028792669E-02  0.12824888928E-01  0.34223355024E-01  0.10072244774E+01  0.10065554393E+01 0.  0.
     999903    2    3    3    0    0  0.87803157838E-01 -0.73625248756E-01  0.20333674827E-01  0.11818843156E+00  0.20614927654E-01 0.  0.
         14    1    1    2    0    0  0.34028792669E-02 -0.12824888928E-01 -0.34223355024E-01  0.36705522642E-01  0.00000000000E+00 0. -1.
     999901    1    3    3    0    0 -0.91206037105E-01  0.86450137684E-01  0.13889680197E-01  0.88903604580E+00  0.88000000000E+00 0. -1.
        -11    1    4    4    0    0  0.20957150082E-01 -0.15202263206E-01 -0.38340577269E-02  0.26177701690E-01  0.51100000000E-03 0. -1.
         11    1    4    4    0    0  0.66846007756E-01 -0.58422985551E-01  0.24167732554E-01  0.92010729871E-01  0.51100000000E-03 0.  1.
</event>
<event>
 8    1  0.1071333E+005  0.1043930E+01  0.7957747E-01            NaN
         13   -1    0    0    0    0  0.00000000000E+00  0.00000000000E+00  0.74505805969E-08  0.10566000000E+00  0.10566000000E+00 0.  1.
     999900   -1    0    0    0    0 -0.00000000000E+00 -0.00000000000E+00 -0.74505805969E-08  0.93827000000E+00  0.93827000000E+00 0. -1.
     999902    2    1    2    0    0  0.14635215600E-01 -0.92891328182E-02  0.15081237518E-01  0.10209534631E+01  0.10206948871E+01 0.  0.
     999903    2    3    3    0    0 -0.12433732318E+00  0.26938186002E-01  0.12040537666E-01  0.12930609386E+00  0.19739695094E-01 0.  0.
         14    1    1    2    0    0 -0.14635215600E-01  0.92891328182E-02 -0.15081237518E-01  0.22976536929E-01  0.00000000000E+00 0.  1.
     999901    1    3    3    0    0  0.13897253878E+00 -0.36227318820E-01  0.30406998527E-02  0.89164736921E+00  0.88000000000E+00 0. -1.
        -11    1    4    4    0    0 -0.59630417411E-01  0.28612388432E-02  0.56159968102E-02  0.59964772237E-01  0.51100000000E-03 0.  1.
         11    1    4    4    0    0 -0.64706905766E-01  0.24076947158E-01  0.64245408554E-02  0.69341321624E-01  0.51100000000E-03 0. -1.
</event>
<event>
 8    1  0.1071333E+005  0.1043930E+01  0.7957747E-01            NaN
         13   -1    0    0    0    0  0.00000000000E+00  0.00000000000E+00  0.74505805969E-08  0.10566000000E+00  0.10566000000E+00 0.  1.
     999900   -1    0    0    0    0 -0.00000000000E+00 -0.00000000000E+00 -0.74505805969E-08  0.93827000000E+00  0.93827000000E+00 0.  1.
     999902    2    1    2    0    0 -0.17954959688E-02 -0.22686774848E-01  0.71235070473E-02  0.10200834507E+01  0.10198046816E+01 0.  0.
     999903    2    3    3    0    0  0.89836651349E-01  0.87914221889E-01  0.15525800648E-01  0.12839985807E+00  0.21117261458E-01 0.  0.
         14    1    1    2    0    0  0.17954959688E-02  0.22686774848E-01 -0.71235070473E-02  0.23846549256E-01  0.00000000000E+00 0. -1.
     999901    1    3    3    0    0 -0.91632147317E-01 -0.11060099674E+00 -0.84022936003E-02  0.89168359267E+00  0.88000000000E+00 0.  1.
        -11    1    4    4    0    0  0.29317361516E-01  0.18086893359E-01 -0.12971105972E-02  0.34475890337E-01  0.51100000000E-03 0. -1.
         11    1    4    4    0    0  0.60519289833E-01  0.69827328530E-01  0.16822911245E-01  0.93923967736E-01  0.51100000000E-03 0.  1.
</event>
<event>
 8    1  0.1071333E+005  0.1043930E+01  0.7957747E-01            NaN
         13   -1    0    0    0    0  0.00000000000E+00  0.00000000000E+00  0.74505805969E-08  0.10566000000E+00  0.10566000000E+00 0.  1.
     999900   -1    0    0    0    0 -0.00000000000E+00 -0.00000000000E+00 -0.74505805969E-08  0.93827000000E+00  0.93827000000E+00 0. -1.
     999902    2    1    2    0    0  0.83135967881E-02  0.19687117112E-01  0.11319797391E-01  0.10197466114E+01  0.10194598154E+01 0.  0.
     999903    2    3    3    0    0  0.33818275443E-01 -0.90134711022E-01  0.83586244138E-01  0.12961529417E+00  0.23356420719E-01 0.  0.
         14    1    1    2    0    0 -0.83135967881E-02 -0.19687117112E-01 -0.11319797391E-01  0.24183388611E-01  0.00000000000E+00 0. -1.
     999901    1    3    3    0    0 -0.25504678655E-01  0.10982182813E+00 -0.72266446746E-01  0.89013131722E+00  0.88000000000E+00 0.  1.
        -11    1    4    4    0    0  0.20181116806E-01 -0.60753538805E-01  0.68881949381E-01  0.94038577320E-01  0.51100000000E-03 0.  1.
         11    1    4    4    0    0  0.13637158638E-01 -0.29381172217E-01  0.14704294757E-01  0.35576716850E-01  0.51100000000E-03 0. -1.
</event>
<event>
 8    1  0.1071333E+005  0.1043930E+01  0.7957747E-01            NaN
         13   -1    0    0    0    0  0.00000000000E+00  0.00000000000E+00  0.74505805969E-08  0.10566000000E+00  0.10566000000E+00 0.  1.
     999900   -1    0    0    0    0 -0.00000000000E+00 -0.00000000000E+00 -0.74505805969E-08  0.93827000000E+00  0.93827000000E+00 0. -1.
     999902    2    1    2    0    0 -0.20001373658E-01 -0.11188137645E-01 -0.68929154896E-02  0.10199979784E+01  0.10197171835E+01 0.  0.
     999903    2    3    3    0    0 -0.96111231127E-03  0.44855635552E-01 -0.12110513545E+00  0.13064547956E+00  0.19718917817E-01 0.  0.
         14    1    1    2    0    0  0.20001373658E-01  0.11188137645E-01  0.68929154896E-02  0.23932021563E-01  0.00000000000E+00 0.  1.
     999901    1    3    3    0    0 -0.19040261346E-01 -0.56043773197E-01  0.11421221996E+00  0.88935249887E+00  0.88000000000E+00 0.  1.
        -11    1    4    4    0    0 -0.58192601190E-02  0.43463742801E-01 -0.10619331673E+00  0.11489230768E+00  0.51100000000E-03 0. -1.
         11    1    4    4    0    0  0.48581478077E-02  0.13918927502E-02 -0.14911818725E-01  0.15753171878E-01  0.51100000000E-03 0.  1.
</event>
<event>
 8    1  0.1071333E+005  0.1043930E+01  0.7957747E-01            NaN
         13   -1    0    0    0    0  0.00000000000E+00  0.00000000000E+00  0.74505805969E-08  0.10566000000E+00  0.10566000000E+00 0. -1.
     999900   -1    0    0    0    0 -0.00000000000E+00 -0.00000000000E+00 -0.74505805969E-08  0.93827000000E+00  0.93827000000E+00 0. -1.
     999902    2    1    2    0    0  0.13438696165E-01 -0.72745169306E-02 -0.16098687974E-01  0.10217334934E+01  0.10214923625E+01 0.  0.
     999903    2    3    3    0    0 -0.11641167131E+00  0.70015116382E-03 -0.57350126386E-01  0.13121319916E+00  0.19382961811E-01 0.  0.
         14    1    1    2    0    0 -0.13438696165E-01  0.72745169306E-02  0.16098687974E-01  0.22196506610E-01  0.00000000000E+00 0. -1.
     999901    1    3    3    0    0  0.12985036748E+00 -0.79746680944E-02  0.41251438412E-01  0.89052029423E+00  0.88000000000E+00 0.  1.
        -11    1    4    4    0    0 -0.54891499051E-01 -0.59241821721E-02 -0.35257006557E-01  0.65509466757E-01  0.51100000000E-03 0.  1.
         11    1    4    4    0    0 -0.61520172258E-01  0.66243333359E-02 -0.22093119829E-01  0.65703732403E-01  0.51100000000E-03 0. -1.
</event>
<event>
 8    1  0.1071333E+005  0.1043930E+01  0.7957747E-01            NaN
         13   -1    0    0    0    0  0.00000000000E+00  0.00000000000E+00  0.74505805969E-08  0.10566000000E+00  0.10566000000E+00 0. -1.
     999900   -1    0    0    0    0 -0.00000000000E+00 -0.00000000000E+00 -0.74505805969E-08  0.93827000000E+00  0.93827000000E+00 0.  1.
     999902    2    1    2    0    0 -0.14984665682E-02 -0.19879148175E-01  0.13314373216E-01  0.10199571306E+01  0.10196753649E+01 0.  0.
     999903    2    3    3    0    0 -0.19171958805E-01 -0.11567421105E+00  0.60235888446E-01  0.13333958338E+00  0.20074738683E-01 0.  0.
         14    1    1    2    0    0  0.14984665682E-02  0.19879148175E-01 -0.13314373216E-01  0.23972869423E-01  0.00000000000E+00 0.  1.
     999901    1    3    3    0    0  0.17673492237E-01  0.95795062877E-01 -0.46921515229E-01  0.88661754719E+00  0.88000000000E+00 0.  1.
        -11    1    4    4    0    0 -0.13489439958E-01 -0.11004547271E+00  0.54967159708E-01  0.12374821542E+00  0.51100000000E-03 0. -1.
         11    1    4    4    0    0 -0.56825188471E-02 -0.56287383466E-02  0.52687287374E-02  0.95913679593E-02  0.51100000000E-03 0.  1.
</event>
<event>
 8    1  0.1071333E+005  0.1043930E+01  0.7957747E-01            NaN
         13   -1    0    0    0    0  0.00000000000E+00  0.00000000000E+00  0.74505805969E-08  0.10566000000E+00  0.10566000000E+00 0. -1.
     999900   -1    0    0    0    0 -0.00000000000E+00 -0.00000000000E+00 -0.74505805969E-08  0.93827000000E+00  0.93827000000E+00 0. -1.
     999902    2    1    2    0    0 -0.10947028242E-01 -0.64017053282E-02  0.19776858142E-01  0.10204365248E+01  0.10201660442E+01 0.  0.
     999903    2    3    3    0    0 -0.92423579107E-01 -0.92323467336E-01  0.90717296798E-02  0.13244126733E+00  0.19815459062E-01 0.  0.
         14    1    1    2    0    0  0.10947028242E-01  0.64017053282E-02 -0.19776858142E-01  0.23493475188E-01  0.00000000000E+00 0.  1.
     999901    1    3    3    0    0  0.81476550865E-01  0.85921762008E-01  0.10705128462E-01  0.88799525748E+00  0.88000000000E+00 0.  1.
        -11    1    4    4    0    0 -0.32261447501E-01 -0.45163065197E-01  0.40136157354E-03  0.55506086738E-01  0.51100000000E-03 0.  1.
         11    1    4    4    0    0 -0.60162131606E-01 -0.47160402139E-01  0.86703681063E-02  0.76935180596E-01  0.51100000000E-03 0. -1.
</event>
<event>
 8    1  0.1071333E+005  0.1043930E+01  0.7957747E-01            NaN
         13   -1    0    0    0    0  0.00000000000E+00  0.00000000000E+00  0.74505805969E-08  0.10566000000E+00  0.10566000000E+00 0. -1.
     999900   -1    0    0    0    0 -0.00000000000E+00 -0.00000000000E+00 -0.74505805969E-08  0.93827000000E+00  0.93827000000E+00 0.  1.
     999902    2    1    2    0    0 -0.11607520232E-01 -0.88758012077E-03 -0.18445010120E-01  0.10221185186E+01  0.10218857692E+01 0.  0.
     999903    2    3    3    0    0 -0.10138551687E+00 -0.76649187965E-01  0.32316570111E-01  0.13286228556E+00  0.21305050426E-01 0.  0.
         14    1    1    2    0    0  0.11607520232E-01  0.88758012077E-03  0.18445010120E-01  0.21811481442E-01  0.00000000000E+00 0. -1.
     999901    1    3    3    0    0  0.89777996635E-01  0.75761607844E-01 -0.50761580231E-01  0.88925623300E+00  0.88000000000E+00 0.  1.
        -11    1    4    4    0    0 -0.12740622152E-01 -0.16777685618E-01  0.11062605702E-01  0.23800347759E-01  0.51100000000E-03 0. -1.
         11    1    4    4    0    0 -0.88644894714E-01 -0.59871502347E-01  0.21253964409E-01  0.10906193780E+00  0.51100000000E-03 0.  1.
</event>
<event>
 8    1  0.1071333E+005  0.1043930E+01  0.7957747E-01            NaN
         13   -1    0    0    0    0  0.00000000000E+00  0.00000000000E+00  0.74505805969E-08  0.10566000000E+00  0.10566000000E+00 0.  1.
     999900   -1    0    0    0    0 -0.00000000000E+00 -0.00000000000E+00 -0.74505805969E-08  0.93827000000E+00  0.93827000000E+00 0.  1.
     999902    2    1    2    0    0 -0.46630431516E-02  0.12537648557E-01 -0.18795362815E-01  0.10208604906E+01  0.10205997937E+01 0.  0.
     999903    2    3    3    0    0  0.86653635722E-01 -0.38324278756E-01  0.84917704611E-01  0.12862617612E+00  0.18869915256E-01 0.  0.
         14    1    1    2    0    0  0.46630431516E-02 -0.12537648557E-01  0.18795362815E-01  0.23069509447E-01  0.00000000000E+00 0.  1.
     999901    1    3    3    0    0 -0.91316678873E-01  0.50861927313E-01 -0.10371306743E+00  0.89223431443E+00  0.88000000000E+00 0.  1.
        -11    1    4    4    0    0  0.50522775203E-02 -0.81527306109E-02  0.87949178217E-02  0.13023218690E-01  0.51100000000E-03 0. -1.
         11    1    4    4    0    0  0.81601358201E-01 -0.30171548145E-01  0.76122786789E-01  0.11560295743E+00  0.51100000000E-03 0.  1.
</event>
<event>
 8    1  0.1071333E+005  0.1043930E+01  0.7957747E-01            NaN
         13   -1    0    0    0    0  0.00000000000E+00  0.00000000000E+00  0.74505805969E-08  0.10566000000E+00  0.10566000000E+00 0.  1.
     999900   -1    0    0    0    0 -0.00000000000E+00 -0.00000000000E+00 -0.74505805969E-08  0.93827000000E+00  0.93827000000E+00 0. -1.
     999902    2    1    2    0    0  0.80330591586E-02  0.14935879710E-01  0.16675692505E-01  0.10201457770E+01  0.10198684803E+01 0.  0.
     999903    2    3    3    0    0  0.21476020951E-02  0.51082770492E-01  0.12131510777E+00  0.13318994749E+00  0.20202601353E-01 0.  0.
         14    1    1    2    0    0 -0.80330591586E-02 -0.14935879710E-01 -0.16675692505E-01  0.23784222978E-01  0.00000000000E+00 0. -1.
     999901    1    3    3    0    0  0.58854570634E-02 -0.36146890782E-01 -0.10463941527E+00  0.88695582953E+00  0.88000000000E+00 0. -1.
        -11    1    4    4    0    0 -0.62404115760E-02  0.28414022114E-01  0.82296874388E-01  0.87288808242E-01  0.51100000000E-03 0.  1.
         11    1    4    4    0    0  0.83880136712E-02  0.22668748378E-01  0.39018233386E-01  0.45901139244E-01  0.51100000000E-03 0. -1.
</event>
<event>
 8    1  0.1071333E+005  0.1043930E+01  0.7957747E-01            NaN
         13   -1    0    0    0    0  0.00000000000E+00  0.00000000000E+00  0.74505805969E-08  0.10566000000E+00  0.10566000000E+00 0. -1.
     999900   -1    0    0    0    0 -0.00000000000E+00 -0.00000000000E+00 -0.74505805969E-08  0.93827000000E+00  0.93827000000E+00 0.  1.
     999902    2    1    2    0    0  0.19436391164E-01 -0.10095931626E-02 -0.14076447603E-01  0.10199104464E+01  0.10196275691E+01 0.  0.
     999903    2    3    3    0    0 -0.12081902124E+00  0.29441450209E-01  0.20435765622E-01  0.12761568586E+00  0.20102434612E-01 0.  0.
         14    1    1    2    0    0 -0.19436391164E-01  0.10095931626E-02  0.14076447603E-01  0.24019553638E-01  0.00000000000E+00 0. -1.
     999901    1    3    3    0    0  0.14025541241E+00 -0.30451043372E-01 -0.34512213225E-01  0.89229476050E+00  0.88000000000E+00 0.  1.
        -11    1    4    4    0    0 -0.44526233977E-01  0.65405814720E-02 -0.13693264157E-02  0.45027779137E-01  0.51100000000E-03 0.  1.
         11    1    4    4    0    0 -0.76292787266E-01  0.22900868737E-01  0.21805092038E-01  0.82587906727E-01  0.51100000000E-03 0. -1.
</event>
<event>
 8    1  0.1071333E+005  0.1043930E+01  0.7957747E-01            NaN
         13   -1    0    0    0    0  0.00000000000E+00  0.00000000000E+00  0.74505805969E-08  0.10566000000E+00  0.10566000000E+00 0. -1.
     999900   -1    0    0    0    0 -0.00000000000E+00 -0.00000000000E+00 -0.74505805969E-08  0.93827000000E+00  0.93827000000E+00 0. -1.
     999902    2    1    2    0    0  0.19926323217E-01  0.80946210255E-02  0.10154926289E-01  0.10201454720E+01  0.10198681680E+01 0.  0.
     999903    2    3    3    0    0  0.28310392341E-01  0.99077178111E-01 -0.78317836309E-01  0.13100231811E+00  0.20252365999E-01 0.  0.
         14    1    1    2    0    0 -0.19926323217E-01 -0.80946210255E-02 -0.10154926289E-01  0.23784528047E-01  0.00000000000E+00 0. -1.
     999901    1    3    3    0    0 -0.83840691240E-02 -0.90982557085E-01  0.88472762598E-01  0.88914315385E+00  0.88000000000E+00 0.  1.
        -11    1    4    4    0    0  0.45392611211E-02  0.35659875656E-01 -0.17538417416E-01  0.40001110357E-01  0.51100000000E-03 0. -1.
         11    1    4    4    0    0  0.23771131220E-01  0.63417302454E-01 -0.60779418893E-01  0.91001207750E-01  0.51100000000E-03 0.  1.
</event>
<event>
 8    1  0.1071333E+005  0.1043930E+01  0.7957747E-01            NaN
         13   -1    0    0    0    0  0.00000000000E+00  0.00000000000E+00  0.74505805969E-08  0.10566000000E+00  0.10566000000E+00 0. -1.
     999900   -1    0    0    0    0 -0.00000000000E+00 -0.00000000000E+00 -0.74505805969E-08  0.93827000000E+00  0.93827000000E+00 0.  1.
     999902    2    1    2    0    0 -0.21576055370E-01  0.30563764074E-02  0.10676194898E-01  0.10196637943E+01  0.10193750069E+01 0.  0.
     999903    2    3    3    0    0  0.11953296802E+00  0.16760396167E-01  0.37740657108E-01  0.12790595622E+00  0.19145106783E-01 0.  0.
         14    1    1    2    0    0  0.21576055370E-01 -0.30563764074E-02 -0.10676194898E-01  0.24266205710E-01  0.00000000000E+00 0.  1.
     999901    1    3    3    0    0 -0.14110902339E+00 -0.13704019760E-01 -0.27064462209E-01  0.89175783807E+00  0.88000000000E+00 0.  1.
        -11    1    4    4    0    0  0.96768268523E-01  0.13799589647E-01  0.38177838730E-01  0.10493967295E+00  0.51100000000E-03 0. -1.
         11    1    4    4    0    0  0.22764699502E-01  0.29608065202E-02 -0.43718162255E-03  0.22966283274E-01  0.51100000000E-03 0.  1.
</event>
<event>
 8    1  0.1071333E+005  0.1043930E+01  0.7957747E-01            NaN
         13   -1    0    0    0    0  0.00000000000E+00  0.00000000000E+00  0.74505805969E-08  0.10566000000E+00  0.10566000000E+00 0.  1.
     999900   -1    0    0    0    0 -0.00000000000E+00 -0.00000000000E+00 -0.74505805969E-08  0.93827000000E+00  0.93827000000E+00 0.  1.
     999902    2    1    2    0    0 -0.63869058503E-03  0.20103653297E-01  0.15829362573E-01  0.10183344238E+01  0.10180127038E+01 0.  0.
     999903    2    3    3    0    0  0.43193711471E-01  0.80680737184E-01  0.92755627225E-01  0.13181961132E+00  0.19943055989E-01 0.  0.
         14    1    1    2    0    0  0.63869058503E-03 -0.20103653297E-01 -0.15829362573E-01  0.25595576200E-01  0.00000000000E+00 0. -1.
     999901    1    3    3    0    0 -0.43832402056E-01 -0.60577083887E-01 -0.76926264652E-01  0.88651481249E+00  0.88000000000E+00 0.  1.
        -11    1    4    4    0    0  0.16152120347E-01  0.21039372797E-01  0.38615650883E-01  0.46850568978E-01  0.51100000000E-03 0. -1.
         11    1    4    4    0    0  0.27041591125E-01  0.59641364387E-01  0.54139976341E-01  0.84969042337E-01  0.51100000000E-03 0.  1.
</event>
<event>
 8    1  0.1071333E+005  0.1043930E+01  0.7957747E-01            NaN
         13   -1    0    0    0    0  0.00000000000E+00  0.00000000000E+00  0.74505805969E-08  0.10566000000E+00  0.10566000000E+00 0. -1.
     999900   -1    0    0    0    0 -0.00000000000E+00 -0.00000000000E+00 -0.74505805969E-08  0.93827000000E+00  0.93827000000E+00 0.  1.
     999902    2    1    2    0    0  0.10854201031E-01  0.15079726815E-01  0.16459045199E-01  0.10191083963E+01  0.10188060715E+01 0.  0.
     999903    2    3    3    0    0 -0.10628045113E+00  0.47442423574E-01 -0.50165326349E-01  0.12826235026E+00  0.19706665902E-01 0.  0.
         14    1    1    2    0    0 -0.10854201031E-01 -0.15079726815E-01 -0.16459045199E-01  0.24821603689E-01  0.00000000000E+00 0.  1.
     999901    1    3    3    0    0  0.11713465216E+00 -0.32362696760E-01  0.66624371547E-01  0.89084604605E+00  0.88000000000E+00 0. -1.
        -11    1    4    4    0    0 -0.16647941233E-01  0.19588933651E-02 -0.22794860877E-02  0.16924786213E-01  0.51100000000E-03 0. -1.
         11    1    4    4    0    0 -0.89632509892E-01  0.45483530209E-01 -0.47885840261E-01  0.11133756405E+00  0.51100000000E-03 0.  1.
</event>
<event>
 8    1  0.1071333E+005  0.1043930E+01  0.7957747E-01            NaN
         13   -1    0    0    0    0  0.00000000000E+00  0.00000000000E+00  0.74505805969E-08  0.10566000000E+00  0.10566000000E+00 0.  1.
     999900   -1    0    0    0    0 -0.00000000000E+00 -0.00000000000E+00 -0.74505805969E-08  0.93827000000E+00  0.93827000000E+00 0. -1.
     999902    2    1    2    0    0 -0.60812434464E-02 -0.12754089611E-01 -0.19353712627E-01  0.10199672265E+01  0.10196857009E+01 0.  0.
     999903    2    3    3    0    0  0.79407679046E-01  0.98708605011E-01  0.79454204506E-02  0.12840818139E+00  0.19405235058E-01 0.  0.
         14    1    1    2    0    0  0.60812434464E-02  0.12754089611E-01  0.19353712627E-01  0.23962773548E-01  0.00000000000E+00 0.  1.
     999901    1    3    3    0    0 -0.85488922493E-01 -0.11146269462E+00 -0.27299133078E-01  0.89155904506E+00  0.88000000000E+00 0.  1.
        -11    1    4    4    0    0  0.46918586027E-01  0.45566517218E-01  0.95467605821E-02  0.66098887772E-01  0.51100000000E-03 0. -1.
         11    1    4    4    0    0  0.32489093020E-01  0.53142087793E-01 -0.16013401315E-02  0.62309293620E-01  0.51100000000E-03 0.  1.
</event>
<event>
 8    1  0.1071333E+005  0.1043930E+01  0.7957747E-01            NaN
         13   -1    0    0    0    0  0.00000000000E+00  0.00000000000E+00  0.74505805969E-08  0.10566000000E+00  0.10566000000E+00 0.  1.
     999900   -1    0    0    0    0 -0.00000000000E+00 -0.00000000000E+00 -0.74505805969E-08  0.93827000000E+00  0.93827000000E+00 0.  1.
     999902    2    1    2    0    0 -0.45561961523E-02 -0.22353130153E-01  0.92309513404E-03  0.10210985862E+01  0.10208433030E+01 0.  0.
     999903    2    3    3    0    0 -0.32702867700E-02 -0.11885632858E+00  0.58551455429E-01  0.13394834596E+00  0.19400124565E-01 0.  0.
         14    1    1    2    0    0  0.45561961523E-02  0.22353130153E-01 -0.92309513404E-03  0.22831413790E-01  0.00000000000E+00 0. -1.
     999901    1    3    3    0    0 -0.12859093823E-02  0.96503198426E-01 -0.57628360295E-01  0.88715024025E+00  0.88000000000E+00 0.  1.
        -11    1    4    4    0    0 -0.29491622263E-02 -0.83841924437E-02  0.96682365005E-02  0.13142608523E-01  0.51100000000E-03 0. -1.
         11    1    4    4    0    0 -0.32112454368E-03 -0.11047213614E+00  0.48883218929E-01  0.12080573743E+00  0.51100000000E-03 0.  1.
</event>
<event>
 8    1  0.1071333E+005  0.1043930E+01  0.7957747E-01            NaN
         13   -1    0    0    0    0  0.00000000000E+00  0.00000000000E+00  0.74505805969E-08  0.10566000000E+00  0.10566000000E+00 0. -1.
     999900   -1    0    0    0    0 -0.00000000000E+00 -0.00000000000E+00 -0.74505805969E-08  0.93827000000E+00  0.93827000000E+00 0. -1.
     999902    2    1    2    0    0 -0.12354354537E-01  0.94962108164E-02  0.17026049310E-01  0.10208498256E+01  0.10205888849E+01 0.  0.
     999903    2    3    3    0    0 -0.15593820621E-01 -0.93595912081E-01 -0.85060956048E-01  0.12896405005E+00  0.19824176176E-01 0.  0.
         14    1    1    2    0    0  0.12354354537E-01 -0.94962108164E-02 -0.17026049310E-01  0.23080174414E-01  0.00000000000E+00 0.  1.
     999901    1    3    3    0    0  0.32394660844E-02  0.10309212290E+00  0.10208700536E+00  0.89188577554E+00  0.88000000000E+00 0.  1.
        -11    1    4    4    0    0 -0.16454051349E-01 -0.39856565877E-01 -0.40195305413E-01  0.58950872322E-01  0.51100000000E-03 0. -1.
         11    1    4    4    0    0  0.86023072742E-03 -0.53739346204E-01 -0.44865650635E-01  0.70013177726E-01  0.51100000000E-03 0.  1.
</event>
<event>
 8    1  0.1071333E+005  0.1043930E+01  0.7957747E-01            NaN
         13   -1    0    0    0    0  0.00000000000E+00  0.00000000000E+00  0.74505805969E-08  0.10566000000E+00  0.10566000000E+00 0. -1.
     999900   -1    0    0    0    0 -0.00000000000E+00 -0.00000000000E+00 -0.74505805969E-08  0.93827000000E+00  0.93827000000E+00 0.  1.
     999902    2    1    2    0    0  0.13822736734E-01  0.55717809059E-02  0.19772222387E-01  0.10191700814E+01  0.10188692758E+01 0.  0.
     999903    2    3    3    0    0  0.10011906472E+00  0.74763575736E-01 -0.33069468214E-01  0.13067314553E+00  0.19195360346E-01 0.  0.
         14    1    1    2    0    0 -0.13822736734E-01 -0.55717809059E-02 -0.19772222387E-01  0.24759918647E-01  0.00000000000E+00 0.  1.
     999901    1    3    3    0    0 -0.86296327985E-01 -0.69191794830E-01  0.52841690601E-01  0.88849693582E+00  0.88000000000E+00 0. -1.
        -11    1    4    4    0    0  0.75705311464E-01  0.65532724615E-01 -0.29055310279E-01  0.10426075175E+00  0.51100000000E-03 0. -1.
         11    1    4    4    0    0  0.24413753255E-01  0.92308511204E-02 -0.40141579351E-02  0.26412393782E-01  0.51100000000E-03 0.  1.
</event>
<event>
 8    1  0.1071333E+005  0.1043930E+01  0.7957747E-01            NaN
         13   -1    0    0    0    0  0.00000000000E+00  0.00000000000E+00  0.74505805969E-08  0.10566000000E+00  0.10566000000E+00 0. -1.
     999900   -1    0    0    0    0 -0.00000000000E+00 -0.00000000000E+00 -0.74505805969E-08  0.93827000000E+00  0.93827000000E+00 0. -1.
     999902    2    1    2    0    0  0.17813257188E-01  0.36641027019E-02  0.11345078958E-01  0.10224952479E+01  0.10222705529E+01 0.  0.
     999903    2    3    3    0    0 -0.12699386875E+00  0.21031247501E-01  0.73502334152E-02  0.13048253487E+00  0.20047690728E-01 0.  0.
         14    1    1    2    0    0 -0.17813257188E-01 -0.36641027019E-02 -0.11345078958E-01  0.21434752082E-01  0.00000000000E+00 0.  1.
     999901    1    3    3    0    0  0.14480712594E+00 -0.17367144799E-01  0.39948455428E-02  0.89201271304E+00  0.88000000000E+00 0. -1.
        -11    1    4    4    0    0 -0.84372696321E-01  0.16458543969E-01 -0.42578625875E-02  0.86069890606E-01  0.51100000000E-03 0.  1.
         11    1    4    4    0    0 -0.42621172432E-01  0.45727035313E-02  0.11608096003E-01  0.44412644268E-01  0.51100000000E-03 0. -1.
</event>
<event>
 8    1  0.1071333E+005  0.1043930E+01  0.7957747E-01            NaN
         13   -1    0    0    0    0  0.00000000000E+00  0.00000000000E+00  0.74505805969E-08  0.10566000000E+00  0.10566000000E+00 0. -1.
     999900   -1    0    0    0    0 -0.00000000000E+00 -0.00000000000E+00 -0.74505805969E-08  0.93827000000E+00  0.93827000000E+00 0.  1.
     999902    2    1    2    0    0  0.86746277179E-02  0.21668139733E-01  0.11042835944E-02  0.10205638517E+01  0.10202963287E+01 0.  0.
     999903    2    3    3    0    0  0.11036842332E+00 -0.59551686569E-01  0.29841052184E-01  0.13052784671E+00  0.20480188770E-01 0.  0.
         14    1    1    2    0    0 -0.86746277179E-02 -0.21668139733E-01 -0.11042835944E-02  0.23366148330E-01  0.00000000000E+00 0. -1.
     999901    1    3    3    0    0 -0.10169379561E+00  0.81219826302E-01 -0.28736768590E-01  0.89003600496E+00  0.88000000000E+00 0.  1.
        -11    1    4    4    0    0  0.40299699834E-01 -0.31835884027E-01  0.73030873620E-02  0.51876637560E-01  0.51100000000E-03 0.  1.
         11    1    4    4    0    0  0.70068723489E-01 -0.27715802541E-01  0.22537964822E-01  0.78651209153E-01  0.51100000000E-03 0. -1.
</event>
<event>
 8    1  0.1071333E+005  0.1043930E+01  0.7957747E-01            NaN
         13   -1    0    0    0    0  0.00000000000E+00  0.00000000000E+00  0.74505805969E-08  0.10566000000E+00  0.10566000000E+00 0. -1.
     999900   -1    0    0    0    0 -0.00000000000E+00 -0.00000000000E+00 -0.74505805969E-08  0.93827000000E+00  0.93827000000E+00 0.  1.
     999902    2    1    2    0    0 -0.19177887059E-01  0.12456458484E-01  0.48272693425E-02  0.10205578533E+01  0.10202901915E+01 0.  0.
     999903    2    3    3    0    0 -0.46107125773E-01  0.42317632660E-01  0.11551436558E+00  0.13271298689E+00  0.18775493363E-01 0.  0.
         14    1    1    2    0    0  0.19177887059E-01 -0.12456458484E-01 -0.48272693425E-02  0.23372146656E-01  0.00000000000E+00 0.  1.
     999901    1    3    3    0    0  0.26929238714E-01 -0.29861174176E-01 -0.11068709624E+00  0.88784486646E+00  0.88000000000E+00 0.  1.
        -11    1    4    4    0    0 -0.32767978880E-01  0.37840901077E-01  0.78411211070E-01  0.93028239673E-01  0.51100000000E-03 0.  1.
         11    1    4    4    0    0 -0.13339146893E-01  0.44767315833E-02  0.37103154513E-01  0.39684747213E-01  0.51100000000E-03 0. -1.
</event>
<event>
 8    1  0.1071333E+005  0.1043930E+01  0.7957747E-01            NaN
         13   -1    0    0    0    0  0.00000000000E+00  0.00000000000E+00  0.74505805969E-08  0.10566000000E+00  0.10566000000E+00 0.  1.
     999900   -1    0    0    0    0 -0.00000000000E+00 -0.00000000000E+00 -0.74505805969E-08  0.93827000000E+00  0.93827000000E+00 0. -1.
     999902    2    1    2    0    0 -0.64591957598E-02  0.18487737230E-01  0.12665291628E-01  0.10206077520E+01  0.10203412450E+01 0.  0.
     999903    2    3    3    0    0  0.15426463723E-01 -0.12381697581E+00 -0.20780204674E-01  0.12828033754E+00  0.21340309540E-01 0.  0.
         14    1    1    2    0    0  0.64591957598E-02 -0.18487737230E-01 -0.12665291628E-01  0.23322247957E-01  0.00000000000E+00 0. -1.
     999901    1    3    3    0    0 -0.21885659482E-01  0.14230471304E+00  0.33445496302E-01  0.89232741450E+00  0.88000000000E+00 0.  1.
        -11    1    4    4    0    0  0.12039497978E-01 -0.11061778371E+00 -0.11673923833E-01  0.11188290845E+00  0.51100000000E-03 0.  1.
         11    1    4    4    0    0  0.33869657449E-02 -0.13199192107E-01 -0.91062808411E-02  0.16397429097E-01  0.51100000000E-03 0. -1.
</event>
<event>
 8    1  0.1071333E+005  0.1043930E+01  0.7957747E-01            NaN
         13   -1    0    0    0    0  0.00000000000E+00  0.00000000000E+00  0.74505805969E-08  0.10566000000E+00  0.10566000000E+00 0.  1.
     999900   -1    0    0    0    0 -0.00000000000E+00 -0.00000000000E+00 -0.74505805969E-08  0.93827000000E+00  0.93827000000E+00 0.  1.
     999902    2    1    2    0    0 -0.22396978545E-01  0.81687330271E-02 -0.48329527078E-02  0.10196049043E+01  0.10193146966E+01 0.  0.
     999903    2    3    3    0    0 -0.13470561325E-01 -0.78873445949E-01 -0.10007819364E+00  0.13015132052E+00  0.22830788262E-01 0.  0.
         14    1    1    2    0    0  0.22396978545E-01 -0.81687330271E-02  0.48329527078E-02  0.24325095664E-01  0.00000000000E+00 0. -1.
     999901    1    3    3    0    0 -0.89264172196E-02  0.87042178976E-01  0.95245240930E-01  0.88945358382E+00  0.88000000000E+00 0. -1.
        -11    1    4    4    0    0 -0.95942857084E-03 -0.61661522930E-01 -0.69818203248E-01  0.93155281864E-01  0.51100000000E-03 0. -1.
         11    1    4    4    0    0 -0.12511132754E-01 -0.17211923018E-01 -0.30259990390E-01  0.36996038655E-01  0.51100000000E-03 0.  1.
</event>
<event>
 8    1  0.1071333E+005  0.1043930E+01  0.7957747E-01            NaN
         13   -1    0    0    0    0  0.00000000000E+00  0.00000000000E+00  0.74505805969E-08  0.10566000000E+00  0.10566000000E+00 0. -1.
     999900   -1    0    0    0    0 -0.00000000000E+00 -0.00000000000E+00 -0.74505805969E-08  0.93827000000E+00  0.93827000000E+00 0.  1.
     999902    2    1    2    0    0 -0.11975200989E-01  0.14610228641E-01  0.15269307799E-01  0.10196397554E+01  0.10193503887E+01 0.  0.
     999903    2    3    3    0    0  0.12631007434E+00 -0.33033954238E-02 -0.10249164825E-01  0.12829531712E+00  0.19735645785E-01 0.  0.
         14    1    1    2    0    0  0.11975200989E-01 -0.14610228641E-01 -0.15269307799E-01  0.24290244551E-01  0.00000000000E+00 0.  1.
     999901    1    3    3    0    0 -0.13828527533E+00  0.17913624065E-01  0.25518472624E-01  0.89134443833E+00  0.88000000000E+00 0. -1.
        -11    1    4    4    0    0  0.70111303809E-01 -0.58657454931E-03  0.40749507575E-02  0.70233932939E-01  0.51100000000E-03 0.  1.
         11    1    4    4    0    0  0.56198770528E-01 -0.27168208745E-02 -0.14324115583E-01  0.58061384179E-01  0.51100000000E-03 0. -1.
</event>
<event>
 8    1  0.1071333E+005  0.1043930E+01  0.7957747E-01            NaN
         13   -1    0    0    0    0  0.00000000000E+00  0.00000000000E+00  0.74505805969E-08  0.10566000000E+00  0.10566000000E+00 0.  1.
     999900   -1    0    0    0    0 -0.00000000000E+00 -0.00000000000E+00 -0.74505805969E-08  0.93827000000E+00  0.93827000000E+00 0.  1.
     999902    2    1    2    0    0 -0.15714340010E-02  0.22461127871E-01 -0.68267842450E-02  0.10204017903E+01  0.10201305000E+01 0.  0.
     999903    2    3    3    0    0 -0.55414958197E-01 -0.81751720195E-01  0.79960715925E-01  0.12838636832E+00  0.18307980045E-01 0.  0.
         14    1    1    2    0    0  0.15714340010E-02 -0.22461127871E-01  0.68267842450E-02  0.23528209732E-01  0.00000000000E+00 0. -1.
     999901    1    3    3    0    0  0.53843524196E-01  0.10421284807E+00 -0.86787500170E-01  0.89201542194E+00  0.88000000000E+00 0.  1.
        -11    1    4    4    0    0 -0.12572665901E-01 -0.22750336001E-01  0.11719374368E-01  0.28517618635E-01  0.51100000000E-03 0.  1.
         11    1    4    4    0    0 -0.42842292296E-01 -0.59001384194E-01  0.68241341557E-01  0.99868749689E-01  0.51100000000E-03 0. -1.
</event>
<event>
 8    1  0.1071333E+005  0.1043930E+01  0.7957747E-01            NaN
         13   -1    0    0    0    0  0.00000000000E+00  0.00000000000E+00  0.74505805969E-08  0.10566000000E+00  0.10566000000E+00 0. -1.
     999900   -1    0    0    0    0 -0.00000000000E+00 -0.00000000000E+00 -0.74505805969E-08  0.93827000000E+00  0.93827000000E+00 0. -1.
     999902    2    1    2    0    0 -0.80553170098E-02  0.77311032475E-02  0.22102338841E-01  0.10191677006E+01  0.10188668365E+01 0.  0.
     999903    2    3    3    0    0 -0.10972194577E+00  0.55890547448E-01 -0.36429020098E-01  0.13007751650E+00  0.20746761606E-01 0.  0.
         14    1    1    2    0    0  0.80553170098E-02 -0.77311032475E-02 -0.22102338841E-01  0.24762299404E-01  0.00000000000E+00 0.  1.
     999901    1    3    3    0    0  0.10166662876E+00 -0.48159444201E-01  0.58531358939E-01  0.88909018409E+00  0.88000000000E+00 0.  1.
        -11    1    4    4    0    0 -0.10018258060E+00  0.51247109935E-01 -0.26657410641E-01  0.11564469030E+00  0.51100000000E-03 0. -1.
         11    1    4    4    0    0 -0.95393651711E-02  0.46434375132E-02 -0.97716094563E-02  0.14432826202E-01  0.51100000000E-03 0.  1.
</event>
<event>
 8    1  0.1071333E+005  0.1043930E+01  0.7957747E-01            NaN
         13   -1    0    0    0    0  0.00000000000E+00  0.00000000000E+00  0.74505805969E-08  0.10566000000E+00  0.10566000000E+00 0. -1.
     999900   -1    0    0    0    0 -0.00000000000E+00 -0.00000000000E+00 -0.74505805969E-08  0.93827000000E+00  0.93827000000E+00 0.  1.
     999902    2    1    2    0    0 -0.61572321416E-02  0.29656791740E-02  0.23225214955E-01  0.10197201390E+01  0.10194327072E+01 0.  0.
     999903    2    3    3    0    0 -0.37307196940E-01 -0.93137778296E-01 -0.77168913289E-01  0.12826897609E+00  0.20770564731E-01 0.  0.
         14    1    1    2    0    0  0.61572321416E-02 -0.29656791740E-02 -0.23225214955E-01  0.24209861014E-01  0.00000000000E+00 0.  1.
     999901    1    3    3    0    0  0.31149964798E-01  0.96103457470E-01  0.10039412824E+00  0.89145116290E+00  0.88000000000E+00 0. -1.
        -11    1    4    4    0    0 -0.17653737104E-01 -0.24721581853E-01 -0.31099151429E-01  0.43476768322E-01  0.51100000000E-03 0.  1.
         11    1    4    4    0    0 -0.19653459835E-01 -0.68416196443E-01 -0.46069761860E-01  0.84792207768E-01  0.51100000000E-03 0. -1.
</event>
<event>
 8    1  0.1071333E+005  0.1043930E+01  0.7957747E-01            NaN
         13   -1    0    0    0    0  0.00000000000E+00  0.00000000000E+00  0.74505805969E-08  0.10566000000E+00  0.10566000000E+00 0.  1.
     999900   -1    0    0    0    0 -0.00000000000E+00 -0.00000000000E+00 -0.74505805969E-08  0.93827000000E+00  0.93827000000E+00 0. -1.
     999902    2    1    2    0    0  0.73878034752E-02  0.13473319286E-01  0.13613889094E-01  0.10234008025E+01  0.10231948762E+01 0.  0.
     999903    2    3    3    0    0 -0.10779751646E+00 -0.38661488827E-01  0.64350105817E-01  0.13291786623E+00  0.20278258547E-01 0.  0.
         14    1    1    2    0    0 -0.73878034752E-02 -0.13473319286E-01 -0.13613889094E-01  0.20529197477E-01  0.00000000000E+00 0.  1.
     999901    1    3    3    0    0  0.11518531994E+00  0.52134808113E-01 -0.50736216724E-01  0.89048293630E+00  0.88000000000E+00 0. -1.
        -11    1    4    4    0    0 -0.69635418935E-01 -0.33532317736E-01  0.37033753156E-01  0.85704538368E-01  0.51100000000E-03 0. -1.
         11    1    4    4    0    0 -0.38162097529E-01 -0.51291710911E-02  0.27316352662E-01  0.47213327860E-01  0.51100000000E-03 0.  1.
</event>
<event>
 8    1  0.1071333E+005  0.1043930E+01  0.7957747E-01            NaN
         13   -1    0    0    0    0  0.00000000000E+00  0.00000000000E+00  0.74505805969E-08  0.10566000000E+00  0.10566000000E+00 0. -1.
     999900   -1    0    0    0    0 -0.00000000000E+00 -0.00000000000E+00 -0.74505805969E-08  0.93827000000E+00  0.93827000000E+00 0. -1.
     999902    2    1    2    0    0 -0.18911546608E-01  0.54492737175E-02  0.12253004564E-01  0.10207464433E+01  0.10204831328E+01 0.  0.
     999903    2    3    3    0    0 -0.50800749005E-01  0.11780200611E+00 -0.24649618929E-01  0.13226354460E+00  0.20688469610E-01 0.  0.
         14    1    1    2    0    0  0.18911546608E-01 -0.54492737175E-02 -0.12253004564E-01  0.23183556673E-01  0.00000000000E+00 0.  1.
     999901    1    3    3    0    0  0.31889202397E-01 -0.11235273239E+00  0.36902623493E-01  0.88848289872E+00  0.88000000000E+00 0.  1.
        -11    1    4    4    0    0 -0.21073190892E-01  0.44537716829E-01  0.55101237648E-03  0.49277300356E-01  0.51100000000E-03 0. -1.
         11    1    4    4    0    0 -0.29727558113E-01  0.73264289280E-01 -0.25200631305E-01  0.82986244247E-01  0.51100000000E-03 0.  1.
</event>
<event>
 8    1  0.1071333E+005  0.1043930E+01  0.7957747E-01            NaN
         13   -1    0    0    0    0  0.00000000000E+00  0.00000000000E+00  0.74505805969E-08  0.10566000000E+00  0.10566000000E+00 0.  1.
     999900   -1    0    0    0    0 -0.00000000000E+00 -0.00000000000E+00 -0.74505805969E-08  0.93827000000E+00  0.93827000000E+00 0. -1.
     999902    2    1    2    0    0  0.33364490494E-02  0.14102703648E-01  0.18404248904E-01  0.10205049169E+01  0.10202360270E+01 0.  0.
     999903    2    3    3    0    0 -0.81118386837E-01  0.78810002522E-02 -0.97933691143E-01  0.12881783879E+00  0.18992758673E-01 0.  0.
         14    1    1    2    0    0 -0.33364490494E-02 -0.14102703648E-01 -0.18404248904E-01  0.23425083141E-01  0.00000000000E+00 0.  1.
     999901    1    3    3    0    0  0.84454835887E-01  0.62217033955E-02  0.11633794005E+00  0.89168707807E+00  0.88000000000E+00 0.  1.
        -11    1    4    4    0    0 -0.67239005388E-01  0.71559000186E-02 -0.68448403140E-01  0.96217128226E-01  0.51100000000E-03 0. -1.
         11    1    4    4    0    0 -0.13879381449E-01  0.72510023361E-03 -0.29485288003E-01  0.32600710565E-01  0.51100000000E-03 0.  1.
</event>
<event>
 8    1  0.1071333E+005  0.1043930E+01  0.7957747E-01            NaN
         13   -1    0    0    0    0  0.00000000000E+00  0.00000000000E+00  0.74505805969E-08  0.10566000000E+00  0.10566000000E+00 0. -1.
     999900   -1    0    0    0    0 -0.00000000000E+00 -0.00000000000E+00 -0.74505805969E-08  0.93827000000E+00  0.93827000000E+00 0. -1.
     999902    2    1    2    0    0 -0.15661753504E-01 -0.25888460228E-02  0.14297308542E-01  0.10225663468E+01  0.10223431557E+01 0.  0.
     999903    2    3    3    0    0 -0.11975515791E+00  0.78158819565E-02  0.59032519561E-01  0.13524175325E+00  0.20077539707E-01 0.  0.
         14    1    1    2    0    0  0.15661753504E-01  0.25888460228E-02 -0.14297308542E-01  0.21363653201E-01  0.00000000000E+00 0.  1.
     999901    1    3    3    0    0  0.10409340441E+00 -0.10404727979E-01 -0.44735211019E-01  0.88732459355E+00  0.88000000000E+00 0. -1.
        -11    1    4    4    0    0 -0.60427468652E-01  0.13566779965E-01  0.26883570451E-01  0.67516842103E-01  0.51100000000E-03 0. -1.
         11    1    4    4    0    0 -0.59327689257E-01 -0.57508980083E-02  0.32148949110E-01  0.67724911151E-01  0.51100000000E-03 0.  1.
</event>
<event>
 8    1  0.1071333E+005  0.1043930E+01  0.7957747E-01            NaN
         13   -1    0    0    0    0  0.00000000000E+00  0.00000000000E+00  0.74505805969E-08  0.10566000000E+00  0.10566000000E+00 0.  1.
     999900   -1    0    0    0    0 -0.00000000000E+00 -0.00000000000E+00 -0.74505805969E-08  0.93827000000E+00  0.93827000000E+00 0.  1.
     999902    2    1    2    0    0  0.23564994899E-01  0.40359773857E-02 -0.70876692267E-03  0.10200113786E+01  0.10197309018E+01 0.  0.
     999903    2    3    3    0    0  0.11579920994E+00  0.49221021113E-01  0.38485149369E-01  0.13317148232E+00  0.20527324211E-01 0.  0.
         14    1    1    2    0    0 -0.23564994899E-01 -0.40359773857E-02  0.70876692267E-03  0.23918621377E-01  0.00000000000E+00 0.  1.
     999901    1    3    3    0    0 -0.92234215040E-01 -0.45185043727E-01 -0.39193916292E-01  0.88683989630E+00  0.88000000000E+00 0.  1.
        -11    1    4    4    0    0  0.82651943136E-01  0.34056872449E-01  0.17447248338E-01  0.91081731762E-01  0.51100000000E-03 0. -1.
         11    1    4    4    0    0  0.33147266804E-01  0.15164148664E-01  0.21037901031E-01  0.42089750558E-01  0.51100000000E-03 0.  1.
</event>
<event>
 8    1  0.1071333E+005  0.1043930E+01  0.7957747E-01            NaN
         13   -1    0    0    0    0  0.00000000000E+00  0.00000000000E+00  0.74505805969E-08  0.10566000000E+00  0.10566000000E+00 0.  1.
     999900   -1    0    0    0    0 -0.00000000000E+00 -0.00000000000E+00 -0.74505805969E-08  0.93827000000E+00  0.93827000000E+00 0. -1.
     999902    2    1    2    0    0 -0.19761384132E-01 -0.30954146167E-02 -0.13106376923E-01  0.10200161753E+01  0.10197358123E+01 0.  0.
     999903    2    3    3    0    0  0.63094717430E-02 -0.12586737897E+00 -0.29673408717E-01  0.13095649718E+00  0.19664344557E-01 0.  0.
         14    1    1    2    0    0  0.19761384132E-01  0.30954146167E-02  0.13106376923E-01  0.23913824674E-01  0.00000000000E+00 0.  1.
     999901    1    3    3    0    0 -0.26070855875E-01  0.12277196435E+00  0.16567031794E-01  0.88905967814E+00  0.88000000000E+00 0.  1.
        -11    1    4    4    0    0 -0.54123772074E-02 -0.13388864327E-01 -0.28175034509E-02  0.14722600372E-01  0.51100000000E-03 0. -1.
         11    1    4    4    0    0  0.11721848950E-01 -0.11247851464E+00 -0.26855905266E-01  0.11623389681E+00  0.51100000000E-03 0.  1.
</event>
<event>
 8    1  0.1071333E+005  0.1043930E+01  0.7957747E-01            NaN
         13   -1    0    0    0    0  0.00000000000E+00  0.00000000000E+00  0.74505805969E-08  0.10566000000E+00  0.10566000000E+00 0. -1.
     999900   -1    0    0    0    0 -0.00000000000E+00 -0.00000000000E+00 -0.74505805969E-08  0.93827000000E+00  0.93827000000E+00 0. -1.
     999902    2    1    2    0    0 -0.28242741663E-03 -0.22793082152E-01  0.79223484344E-02  0.10197976987E+01  0.10195121276E+01 0.  0.
     999903    2    3    3    0    0 -0.39542833688E-01 -0.11522719565E+00 -0.47770777390E-01  0.13233661841E+00  0.19748192015E-01 0.  0.
         14    1    1    2    0    0  0.28242741663E-03  0.22793082152E-01 -0.79223484344E-02  0.24132301256E-01  0.00000000000E+00 0.  1.
     999901    1    3    3    0    0  0.39260406271E-01  0.92434113495E-01  0.55693125825E-01  0.88746108033E+00  0.88000000000E+00 0.  1.
        -11    1    4    4    0    0 -0.37896345530E-01 -0.84192954963E-01 -0.35457966180E-01  0.98904576014E-01  0.51100000000E-03 0.  1.
         11    1    4    4    0    0 -0.16464881581E-02 -0.31034240683E-01 -0.12312811211E-01  0.33432042399E-01  0.51100000000E-03 0. -1.
</event>
<event>
 8    1  0.1071333E+005  0.1043930E+01  0.7957747E-01            NaN
         13   -1    0    0    0    0  0.00000000000E+00  0.00000000000E+00  0.74505805969E-08  0.10566000000E+00  0.10566000000E+00 0. -1.
     999900   -1    0    0    0    0 -0.00000000000E+00 -0.00000000000E+00 -0.74505805969E-08  0.93827000000E+00  0.93827000000E+00 0. -1.
     999902    2    1    2    0    0 -0.23588209009E-01 -0.24546353012E-02  0.13727572930E-02  0.10201747206E+01  0.10198981063E+01 0.  0.
     999903    2    3    3    0    0  0.78793074195E-01  0.32852793714E-01  0.94200192390E-01  0.12868973785E+00  0.19992943381E-01 0.  0.
         14    1    1    2    0    0  0.23588209009E-01  0.24546353012E-02 -0.13727572930E-02  0.23755279441E-01  0.00000000000E+00 0.  1.
     999901    1    3    3    0    0 -0.10238128320E+00 -0.35307429015E-01 -0.92827435097E-01  0.89148498271E+00  0.88000000000E+00 0. -1.
        -11    1    4    4    0    0  0.31621010452E-01  0.23533094132E-01  0.38458815485E-01  0.55073010004E-01  0.51100000000E-03 0.  1.
         11    1    4    4    0    0  0.47172063743E-01  0.93196995818E-02  0.55741376905E-01  0.73616727843E-01  0.51100000000E-03 0. -1.
</event>
<event>
 8    1  0.1071333E+005  0.1043930E+01  0.7957747E-01            NaN
         13   -1    0    0    0    0  0.00000000000E+00  0.00000000000E+00  0.74505805969E-08  0.10566000000E+00  0.10566000000E+00 0.  1.
     999900   -1    0    0    0    0 -0.00000000000E+00 -0.00000000000E+00 -0.74505805969E-08  0.93827000000E+00  0.93827000000E+00 0. -1.
     999902    2    1    2    0    0  0.14042908918E-01 -0.15357136907E-01 -0.11382810298E-01  0.10202105288E+01  0.10199347576E+01 0.  0.
     999903    2    3    3    0    0 -0.11966025959E+00  0.41229215230E-01  0.27036958261E-02  0.12820325180E+00  0.20256798567E-01 0.  0.
         14    1    1    2    0    0 -0.14042908918E-01  0.15357136907E-01  0.11382810298E-01  0.23719471224E-01  0.00000000000E+00 0.  1.
     999901    1    3    3    0    0  0.13370316851E+00 -0.56586352137E-01 -0.14086506124E-01  0.89200727697E+00  0.88000000000E+00 0. -1.
        -11    1    4    4    0    0 -0.32452901949E-01  0.42655003768E-02  0.66391614198E-02  0.33402468827E-01  0.51100000000E-03 0.  1.
         11    1    4    4    0    0 -0.87207357641E-01  0.36963714853E-01 -0.39354655937E-02  0.94800782976E-01  0.51100000000E-03 0. -1.
</event>
<event>
 8    1  0.1071333E+005  0.1043930E+01  0.7957747E-01            NaN
         13   -1    0    0    0    0  0.00000000000E+00  0.00000000000E+00  0.74505805969E-08  0.10566000000E+00  0.10566000000E+00 0. -1.
     999900   -1    0    0    0    0 -0.00000000000E+00 -0.00000000000E+00 -0.74505805969E-08  0.93827000000E+00  0.93827000000E+00 0. -1.
     999902    2    1    2    0    0  0.15035157458E-01 -0.11813391919E-01 -0.14539164415E-01  0.10199091863E+01  0.10196262790E+01 0.  0.
     999903    2    3    3    0    0 -0.63606789640E-01 -0.41015219520E-01  0.10166013231E+00  0.12831534428E+00  0.20049268235E-01 0.  0.
         14    1    1    2    0    0 -0.15035157458E-01  0.11813391919E-01  0.14539164415E-01  0.24020813690E-01  0.00000000000E+00 0. -1.
     999901    1    3    3    0    0  0.78641947098E-01  0.29201827601E-01 -0.11619929673E+00  0.89159384203E+00  0.88000000000E+00 0. -1.
        -11    1    4    4    0    0 -0.37540024389E-01 -0.35290521658E-01  0.64262252480E-01  0.82368516830E-01  0.51100000000E-03 0.  1.
         11    1    4    4    0    0 -0.26066765250E-01 -0.57246978623E-02  0.37397879831E-01  0.45946827454E-01  0.51100000000E-03 0. -1.
</event>
<event>
 8    1  0.1071333E+005  0.1043930E+01  0.7957747E-01            NaN
         13   -1    0    0    0    0  0.00000000000E+00  0.00000000000E+00  0.74505805969E-08  0.10566000000E+00  0.10566000000E+00 0.  1.
     999900   -1    0    0    0    0 -0.00000000000E+00 -0.00000000000E+00 -0.74505805969E-08  0.93827000000E+00  0.93827000000E+00 0. -1.
     999902    2    1    2    0    0  0.20955133873E-01  0.64402208630E-02 -0.89437576598E-02  0.10202533262E+01  0.10199785609E+01 0.  0.
     999903    2    3    3    0    0  0.89928808944E-01  0.71595355670E-01 -0.64677718396E-01  0.13339999346E+00  0.19981625709E-01 0.  0.
         14    1    1    2    0    0 -0.20955133873E-01 -0.64402208630E-02  0.89437576598E-02  0.23676673784E-01  0.00000000000E+00 0.  1.
     999901    1    3    3    0    0 -0.68973675071E-01 -0.65155134807E-01  0.55733960737E-01  0.88685333276E+00  0.88000000000E+00 0.  1.
        -11    1    4    4    0    0  0.48719785485E-01  0.51229507574E-01 -0.39686469082E-01  0.81076241238E-01  0.51100000000E-03 0.  1.
         11    1    4    4    0    0  0.41209023459E-01  0.20365848095E-01 -0.24991249315E-01  0.52323752220E-01  0.51100000000E-03 0. -1.
</event>
<event>
 8    1  0.1071333E+005  0.1043930E+01  0.7957747E-01            NaN
         13   -1    0    0    0    0  0.00000000000E+00  0.00000000000E+00  0.74505805969E-08  0.10566000000E+00  0.10566000000E+00 0.  1.
     999900   -1    0    0    0    0 -0.00000000000E+00 -0.00000000000E+00 -0.74505805969E-08  0.93827000000E+00  0.93827000000E+00 0. -1.
     999902    2    1    2    0    0  0.42374151309E-02 -0.21269619456E-01 -0.77590075917E-02  0.10208962292E+01  0.10206363486E+01 0.  0.
     999903    2    3    3    0    0 -0.52194559896E-01 -0.90093075426E-01 -0.81020721199E-01  0.13337805215E+00  0.19603908020E-01 0.  0.
         14    1    1    2    0    0 -0.42374151309E-02  0.21269619456E-01  0.77590075917E-02  0.23033770807E-01  0.00000000000E+00 0.  1.
     999901    1    3    3    0    0  0.56431975027E-01  0.68823455970E-01  0.73261713608E-01  0.88751817704E+00  0.88000000000E+00 0.  1.
        -11    1    4    4    0    0 -0.19245287818E-01 -0.52672996027E-01 -0.42118659200E-01  0.70136069090E-01  0.51100000000E-03 0. -1.
         11    1    4    4    0    0 -0.32949272078E-01 -0.37420079399E-01 -0.38902062000E-01  0.63241983061E-01  0.51100000000E-03 0.  1.
</event>
<event>
 8    1  0.1071333E+005  0.1043930E+01  0.7957747E-01            NaN
         13   -1    0    0    0    0  0.00000000000E+00  0.00000000000E+00  0.74505805969E-08  0.10566000000E+00  0.10566000000E+00 0. -1.
     999900   -1    0    0    0    0 -0.00000000000E+00 -0.00000000000E+00 -0.74505805969E-08  0.93827000000E+00  0.93827000000E+00 0. -1.
     999902    2    1    2    0    0  0.10011435244E-01  0.14227016409E-01  0.63756804622E-02  0.10254020176E+01  0.10252346129E+01 0.  0.
     999903    2    3    3    0    0 -0.11979275714E+00  0.58941065919E-01 -0.18784804786E-03  0.13473285650E+00  0.18126042496E-01 0.  0.
         14    1    1    2    0    0 -0.10011435244E-01 -0.14227016409E-01 -0.63756804622E-02  0.18527982429E-01  0.00000000000E+00 0.  1.
     999901    1    3    3    0    0  0.12980419239E+00 -0.44714049511E-01  0.65635285101E-02  0.89066916108E+00  0.88000000000E+00 0. -1.
        -11    1    4    4    0    0 -0.71203672539E-01  0.40719629012E-01  0.70767377820E-02  0.82330993609E-01  0.51100000000E-03 0. -1.
         11    1    4    4    0    0 -0.48589084605E-01  0.18221436907E-01 -0.72645858299E-02  0.52401862887E-01  0.51100000000E-03 0.  1.
</event>
<event>
 8    1  0.1071333E+005  0.1043930E+01  0.7957747E-01            NaN
         13   -1    0    0    0    0  0.00000000000E+00  0.00000000000E+00  0.74505805969E-08  0.10566000000E+00  0.10566000000E+00 0.  1.
     999900   -1    0    0    0    0 -0.00000000000E+00 -0.00000000000E+00 -0.74505805969E-08  0.93827000000E+00  0.93827000000E+00 0. -1.
     999902    2    1    2    0    0  0.14753676174E-02  0.14701745668E-01 -0.22390731337E-01  0.10171034668E+01  0.10167496247E+01 0.  0.
     999903    2    3    3    0    0  0.16576861641E-01  0.11056336057E+00  0.59132712167E-01  0.12802328131E+00  0.19855323433E-01 0.  0.
         14    1    1    2    0    0 -0.14753676174E-02 -0.14701745668E-01  0.22390731337E-01  0.26826533229E-01  0.00000000000E+00 0.  1.
     999901    1    3    3    0    0 -0.15101494024E-01 -0.95861614897E-01 -0.81523443504E-01  0.88908018546E+00  0.88000000000E+00 0. -1.
        -11    1    4    4    0    0  0.56089986211E-02  0.25785500089E-01  0.50677607497E-02  0.26875568838E-01  0.51100000000E-03 0.  1.
         11    1    4    4    0    0  0.10967863020E-01  0.84777860477E-01  0.54064951417E-01  0.10114771248E+00  0.51100000000E-03 0. -1.
</event>
<event>
 8    1  0.1071333E+005  0.1043930E+01  0.7957747E-01            NaN
         13   -1    0    0    0    0  0.00000000000E+00  0.00000000000E+00  0.74505805969E-08  0.10566000000E+00  0.10566000000E+00 0.  1.
     999900   -1    0    0    0    0 -0.00000000000E+00 -0.00000000000E+00 -0.74505805969E-08  0.93827000000E+00  0.93827000000E+00 0.  1.
     999902    2    1    2    0    0  0.10872663636E-01  0.19231982730E-01 -0.58047042941E-02  0.10210875271E+01  0.10208319938E+01 0.  0.
     999903    2    3    3    0    0 -0.11565284440E+00 -0.34842457455E-01  0.41216414946E-01  0.12915494285E+00  0.19814871775E-01 0.  0.
         14    1    1    2    0    0 -0.10872663636E-01 -0.19231982730E-01  0.58047042941E-02  0.22842472857E-01  0.00000000000E+00 0.  1.
     999901    1    3    3    0    0  0.12652550803E+00  0.54074440185E-01 -0.47021119240E-01  0.89193258429E+00  0.88000000000E+00 0.  1.
        -11    1    4    4    0    0 -0.92408286998E-01 -0.27704611085E-01  0.41022671272E-01  0.10483299891E+00  0.51100000000E-03 0. -1.
         11    1    4    4    0    0 -0.23244557400E-01 -0.71378463702E-02  0.19374367377E-03  0.24321943942E-01  0.51100000000E-03 0.  1.
</event>
<event>
 8    1  0.1071333E+005  0.1043930E+01  0.7957747E-01            NaN
         13   -1    0    0    0    0  0.00000000000E+00  0.00000000000E+00  0.74505805969E-08  0.10566000000E+00  0.10566000000E+00 0. -1.
     999900   -1    0    0    0    0 -0.00000000000E+00 -0.00000000000E+00 -0.74505805969E-08  0.93827000000E+00  0.93827000000E+00 0. -1.
     999902    2    1    2    0    0  0.62368375788E-02  0.14299855127E-01  0.15379916503E-01  0.10220227904E+01  0.10217879713E+01 0.  0.
     999903    2    3    3    0    0  0.92291753252E-01 -0.85552973395E-01  0.34904125837E-01  0.13199063897E+00  0.19135093425E-01 0.  0.
         14    1    1    2    0    0 -0.62368375788E-02 -0.14299855127E-01 -0.15379916503E-01  0.21907209573E-01  0.00000000000E+00 0.  1.
     999901    1    3    3    0    0 -0.86054915673E-01  0.99852828522E-01 -0.19524209333E-01  0.89003215146E+00  0.88000000000E+00 0. -1.
        -11    1    4    4    0    0  0.77890844877E-01 -0.64905169895E-01  0.33467369977E-01  0.10677073929E+00  0.51100000000E-03 0.  1.
         11    1    4    4    0    0  0.14400908376E-01 -0.20647803500E-01  0.14367558594E-02  0.25219899679E-01  0.51100000000E-03 0. -1.
</event>
<event>
 8    1  0.1071333E+005  0.1043930E+01  0.7957747E-01            NaN
         13   -1    0    0    0    0  0.00000000000E+00  0.00000000000E+00  0.74505805969E-08  0.10566000000E+00  0.10566000000E+00 0. -1.
     999900   -1    0    0    0    0 -0.00000000000E+00 -0.00000000000E+00 -0.74505805969E-08  0.93827000000E+00  0.93827000000E+00 0.  1.
     999902    2    1    2    0    0  0.34512326373E-02 -0.16528618037E-01  0.15782543845E-01  0.10208173431E+01  0.10205556589E+01 0.  0.
     999903    2    3    3    0    0 -0.10511490095E+00 -0.56224280685E-01 -0.50148954448E-01  0.13081211079E+00  0.19661601060E-01 0.  0.
         14    1    1    2    0    0 -0.34512326373E-02  0.16528618037E-01 -0.15782543845E-01  0.23112656947E-01  0.00000000000E+00 0. -1.
     999901    1    3    3    0    0  0.10856613359E+00  0.39695662648E-01  0.65931498293E-01  0.89000523227E+00  0.88000000000E+00 0. -1.
        -11    1    4    4    0    0 -0.92128696898E-01 -0.41924162599E-01 -0.38798483855E-01  0.10840164054E+00  0.51100000000E-03 0. -1.
         11    1    4    4    0    0 -0.12986204051E-01 -0.14300118085E-01 -0.11350470593E-01  0.22410470245E-01  0.51100000000E-03 0.  1.
</event>
<event>
 8    1  0.1071333E+005  0.1043930E+01  0.7957747E-01            NaN
         13   -1    0    0    0    0  0.00000000000E+00  0.00000000000E+00  0.74505805969E-08  0.10566000000E+00  0.10566000000E+00 0. -1.
     999900   -1    0    0    0    0 -0.00000000000E+00 -0.00000000000E+00 -0.74505805969E-08  0.93827000000E+00  0.93827000000E+00 0.  1.
     999902    2    1    2    0    0  0.19537952747E-01 -0.12652645192E-01 -0.71363726626E-02  0.10195835661E+01  0.10192928428E+01 0.  0.
     999903    2    3    3    0    0  0.33345579371E-01 -0.10302454855E+00  0.71576340187E-01  0.13135306527E+00  0.20111439895E-01 0.  0.
         14    1    1    2    0    0 -0.19537952747E-01  0.12652645192E-01  0.71363726626E-02  0.24346433880E-01  0.00000000000E+00 0. -1.
     999901    1    3    3    0    0 -0.13807626624E-01  0.90371903358E-01 -0.78712712849E-01  0.88823050085E+00  0.88000000000E+00 0.  1.
        -11    1    4    4    0    0  0.56658642860E-02 -0.43204950149E-01  0.21621010884E-01  0.48646674790E-01  0.51100000000E-03 0.  1.
         11    1    4    4    0    0  0.27679715085E-01 -0.59819598402E-01  0.49955329302E-01  0.82706390483E-01  0.51100000000E-03 0. -1.
</event>
<event>
 8    1  0.1071333E+005  0.1043930E+01  0.7957747E-01            NaN
         13   -1    0    0    0    0  0.00000000000E+00  0.00000000000E+00  0.74505805969E-08  0.10566000000E+00  0.10566000000E+00 0. -1.
     999900   -1    0    0    0    0 -0.00000000000E+00 -0.00000000000E+00 -0.74505805969E-08  0.93827000000E+00  0.93827000000E+00 0. -1.
     999902    2    1    2    0    0 -0.19511971030E-01  0.10658752012E-01  0.51960681676E-02  0.10210974545E+01  0.10208421457E+01 0.  0.
     999903    2    3    3    0    0 -0.45839906183E-01 -0.65844493089E-01  0.10291005117E+00  0.13200019936E+00  0.19919330577E-01 0.  0.
         14    1    1    2    0    0  0.19511971030E-01 -0.10658752012E-01 -0.51960681676E-02  0.22832545463E-01  0.00000000000E+00 0.  1.
     999901    1    3    3    0    0  0.26327935153E-01  0.76503245101E-01 -0.97713983006E-01  0.88909725517E+00  0.88000000000E+00 0. -1.
        -11    1    4    4    0    0 -0.31489100456E-01 -0.31160968886E-01  0.46365851179E-01  0.64129733400E-01  0.51100000000E-03 0.  1.
         11    1    4    4    0    0 -0.14350805727E-01 -0.34683524203E-01  0.56544199994E-01  0.67870465964E-01  0.51100000000E-03 0. -1.
</event>
<event>
 8    1  0.1071333E+005  0.1043930E+01  0.7957747E-01            NaN
         13   -1    0    0    0    0  0.00000000000E+00  0.00000000000E+00  0.74505805969E-08  0.10566000000E+00  0.10566000000E+00 0.  1.
     999900   -1    0    0    0    0 -0.00000000000E+00 -0.00000000000E+00 -0.74505805969E-08  0.93827000000E+00  0.93827000000E+00 0. -1.
     999902    2    1    2    0    0 -0.96833169640E-02 -0.11404633368E-01  0.17716742911E-01  0.10207413116E+01  0.10204778831E+01 0.  0.
     999903    2    3    3    0    0  0.45964310836E-01 -0.15851125844E-01  0.12183181596E+00  0.13284696080E+00  0.21008273391E-01 0.  0.
         14    1    1    2    0    0  0.96833169640E-02  0.11404633368E-01 -0.17716742911E-01  0.23188688386E-01  0.00000000000E+00 0. -1.
     999901    1    3    3    0    0 -0.55647627800E-01  0.44464924765E-02 -0.10411507305E+00  0.88789435082E+00  0.88000000000E+00 0. -1.
        -11    1    4    4    0    0  0.40518048443E-02 -0.22162977024E-02  0.36586174118E-01  0.36880053628E-01  0.51100000000E-03 0. -1.
         11    1    4    4    0    0  0.41912505992E-01 -0.13634828142E-01  0.85245641846E-01  0.95966907170E-01  0.51100000000E-03 0.  1.
</event>
<event>
 8    1  0.1071333E+005  0.1043930E+01  0.7957747E-01            NaN
         13   -1    0    0    0    0  0.00000000000E+00  0.00000000000E+00  0.74505805969E-08  0.10566000000E+00  0.10566000000E+00 0. -1.
     999900   -1    0    0    0    0 -0.00000000000E+00 -0.00000000000E+00 -0.74505805969E-08  0.93827000000E+00  0.93827000000E+00 0. -1.
     999902    2    1    2    0    0  0.69238271845E-02  0.17441427985E-01 -0.13820520688E-01  0.10206244302E+01  0.10203583086E+01 0.  0.
     999903    2    3    3    0    0 -0.98508755135E-01 -0.51369697303E-01 -0.64823896103E-01  0.13020186493E+00  0.20188300741E-01 0.  0.
         14    1    1    2    0    0 -0.69238271845E-02 -0.17441427985E-01  0.13820520688E-01  0.23305569831E-01  0.00000000000E+00 0. -1.
     999901    1    3    3    0    0  0.10543258232E+00  0.68811125288E-01  0.51003375415E-01  0.89042256524E+00  0.88000000000E+00 0.  1.
        -11    1    4    4    0    0 -0.46096616662E-01 -0.12806780045E-01 -0.27377327182E-01  0.55124321741E-01  0.51100000000E-03 0. -1.
         11    1    4    4    0    0 -0.52412138474E-01 -0.38562917258E-01 -0.37446568921E-01  0.75077543192E-01  0.51100000000E-03 0.  1.
</event>
<event>
 8    1  0.1071333E+005  0.1043930E+01  0.7957747E-01            NaN
         13   -1    0    0    0    0  0.00000000000E+00  0.00000000000E+00  0.74505805969E-08  0.10566000000E+00  0.10566000000E+00 0. -1.
     999900   -1    0    0    0    0 -0.00000000000E+00 -0.00000000000E+00 -0.74505805969E-08  0.93827000000E+00  0.93827000000E+00 0. -1.
     999902    2    1    2    0    0  0.12195946637E-01 -0.20289567889E-01  0.14082025303E-02  0.10202152216E+01  0.10199395608E+01 0.  0.
     999903    2    3    3    0    0  0.12731396221E-01  0.12566279333E+00 -0.12801750395E-01  0.12808053379E+00  0.16956186116E-01 0.  0.
         14    1    1    2    0    0 -0.12195946637E-01  0.20289567889E-01 -0.14082025303E-02  0.23714778385E-01  0.00000000000E+00 0.  1.
     999901    1    3    3    0    0 -0.53544958390E-03 -0.14595236122E+00  0.14209952925E-01  0.89213468782E+00  0.88000000000E+00 0.  1.
        -11    1    4    4    0    0 -0.29174254490E-02  0.89974171899E-02  0.11639694844E-02  0.95436278899E-02  0.51100000000E-03 0. -1.
         11    1    4    4    0    0  0.15648821670E-01  0.11666537614E+00 -0.13965719880E-01  0.11853690590E+00  0.51100000000E-03 0.  1.
</event>
<event>
 8    1  0.1071333E+005  0.1043930E+01  0.7957747E-01            NaN
         13   -1    0    0    0    0  0.00000000000E+00  0.00000000000E+00  0.74505805969E-08  0.10566000000E+00  0.10566000000E+00 0.  1.
     999900   -1    0    0    0    0 -0.00000000000E+00 -0.00000000000E+00 -0.74505805969E-08  0.93827000000E+00  0.93827000000E+00 0. -1.
     999902    2    1    2    0    0  0.93837426357E-02 -0.10573201203E-01  0.18103482841E-01  0.10209608185E+01  0.10207024099E+01 0.  0.
     999903    2    3    3    0    0  0.42307130499E-01 -0.11685472340E+00 -0.40014516157E-01  0.13205282928E+00  0.19795669880E-01 0.  0.
         14    1    1    2    0    0 -0.93837426357E-02  0.10573201203E-01 -0.18103482841E-01  0.22969181538E-01  0.00000000000E+00 0. -1.
     999901    1    3    3    0    0 -0.32923387863E-01  0.10628152219E+00  0.58117998998E-01  0.88890798918E+00  0.88000000000E+00 0.  1.
        -11    1    4    4    0    0  0.17430360371E-01 -0.54660431134E-01 -0.28573517308E-01  0.64095921921E-01  0.51100000000E-03 0.  1.
         11    1    4    4    0    0  0.24876770128E-01 -0.62194292262E-01 -0.11440998848E-01  0.67956907357E-01  0.51100000000E-03 0. -1.
</event>
<event>
 8    1  0.1071333E+005  0.1043930E+01  0.7957747E-01            NaN
         13   -1    0    0    0    0  0.00000000000E+00  0.00000000000E+00  0.74505805969E-08  0.10566000000E+00  0.10566000000E+00 0.  1.
     999900   -1    0    0    0    0 -0.00000000000E+00 -0.00000000000E+00 -0.74505805969E-08  0.93827000000E+00  0.93827000000E+00 0.  1.
     999902    2    1    2    0    0 -0.50692221898E-02  0.10890853367E-01 -0.15927745667E-01  0.10239800430E+01  0.10237856845E+01 0.  0.
     999903    2    3    3    0    0  0.68887812530E-02 -0.92856687276E-01 -0.94622537577E-01  0.13431751359E+00  0.20443829391E-01 0.  0.
         14    1    1    2    0    0  0.50692221898E-02 -0.10890853367E-01  0.15927745667E-01  0.19949956960E-01  0.00000000000E+00 0.  1.
     999901    1    3    3    0    0 -0.11958003443E-01  0.10374754064E+00  0.78694791910E-01  0.88966252945E+00  0.88000000000E+00 0. -1.
        -11    1    4    4    0    0 -0.52241676414E-02 -0.55712913809E-01 -0.50445273358E-01  0.75340609354E-01  0.51100000000E-03 0. -1.
         11    1    4    4    0    0  0.12112948894E-01 -0.37143773467E-01 -0.44177264219E-01  0.58976904235E-01  0.51100000000E-03 0.  1.
</event>
<event>
 8    1  0.1071333E+005  0.1043930E+01  0.7957747E-01            NaN
         13   -1    0    0    0    0  0.00000000000E+00  0.00000000000E+00  0.74505805969E-08  0.10566000000E+00  0.10566000000E+00 0.  1.
     999900   -1    0    0    0    0 -0.00000000000E+00 -0.00000000000E+00 -0.74505805969E-08  0.93827000000E+00  0.93827000000E+00 0.  1.
     999902    2    1    2    0    0 -0.67146035776E-02  0.17907719649E-01 -0.16701562411E-01  0.10185387710E+01  0.10182222319E+01 0.  0.
     999903    2    3    3    0    0 -0.29135242845E-01  0.12582207355E+00  0.51587684330E-02  0.13139387475E+00  0.23615267568E-01 0.  0.
         14    1    1    2    0    0  0.67146035776E-02 -0.17907719649E-01  0.16701562411E-01  0.25391229021E-01  0.00000000000E+00 0.  1.
     999901    1    3    3    0    0  0.22420639267E-01 -0.10791435390E+00 -0.21860330844E-01  0.88714489623E+00  0.88000000000E+00 0.  1.
        -11    1    4    4    0    0 -0.28405338564E-01  0.78657010072E-01 -0.21471984225E-02  0.83657994683E-01  0.51100000000E-03 0.  1.
         11    1    4    4    0    0 -0.72990428071E-03  0.47165063476E-01  0.73059668555E-02  0.47735880066E-01  0.51100000000E-03 0. -1.
</event>
<event>
 8    1  0.1071333E+005  0.1043930E+01  0.7957747E-01            NaN
         13   -1    0    0    0    0  0.00000000000E+00  0.00000000000E+00  0.74505805969E-08  0.10566000000E+00  0.10566000000E+00 0.  1.
     999900   -1    0    0    0    0 -0.00000000000E+00 -0.00000000000E+00 -0.74505805969E-08  0.93827000000E+00  0.93827000000E+00 0. -1.
     999902    2    1    2    0    0 -0.22034997656E-02 -0.19409088010E-01 -0.15616406398E-01  0.10189211964E+01  0.10186142372E+01 0.  0.
     999903    2    3    3    0    0  0.55588804028E-02  0.12513777823E+00 -0.95723335045E-02  0.12707447084E+00  0.19129215297E-01 0.  0.
         14    1    1    2    0    0  0.22034997656E-02  0.19409088010E-01  0.15616406398E-01  0.25008803598E-01  0.00000000000E+00 0.  1.
     999901    1    3    3    0    0 -0.77623801684E-02 -0.14454686624E+00 -0.60440728938E-02  0.89184672557E+00  0.88000000000E+00 0.  1.
        -11    1    4    4    0    0  0.71617814712E-02  0.53313635222E-01 -0.12283351818E-01  0.55179494990E-01  0.51100000000E-03 0. -1.
         11    1    4    4    0    0 -0.16029010684E-02  0.71824143008E-01  0.27110183135E-02  0.71894975847E-01  0.51100000000E-03 0.  1.
</event>
<event>
 8    1  0.1071333E+005  0.1043930E+01  0.7957747E-01            NaN
         13   -1    0    0    0    0  0.00000000000E+00  0.00000000000E+00  0.74505805969E-08  0.10566000000E+00  0.10566000000E+00 0. -1.
     999900   -1    0    0    0    0 -0.00000000000E+00 -0.00000000000E+00 -0.74505805969E-08  0.93827000000E+00  0.93827000000E+00 0.  1.
     999902    2    1    2    0    0 -0.43294475008E-02  0.16209146849E-01 -0.17078649432E-01  0.10199892226E+01  0.10197082197E+01 0.  0.
     999903    2    3    3    0    0  0.14451799486E-01 -0.23796531661E-02 -0.13002975401E+00  0.13237656452E+00  0.20032489768E-01 0.  0.
         14    1    1    2    0    0  0.43294475008E-02 -0.16209146849E-01  0.17078649432E-01  0.23940777423E-01  0.00000000000E+00 0. -1.
     999901    1    3    3    0    0 -0.18781246987E-01  0.18588800015E-01  0.11295110458E+00  0.88761265806E+00  0.88000000000E+00 0. -1.
        -11    1    4    4    0    0  0.91399091073E-02 -0.10503142189E-01 -0.55795093058E-01  0.57508325177E-01  0.51100000000E-03 0. -1.
         11    1    4    4    0    0  0.53118903786E-02  0.81234890232E-02 -0.74234660956E-01  0.74868239338E-01  0.51100000000E-03 0.  1.
</event>
<event>
 8    1  0.1071333E+005  0.1043930E+01  0.7957747E-01            NaN
         13   -1    0    0    0    0  0.00000000000E+00  0.00000000000E+00  0.74505805969E-08  0.10566000000E+00  0.10566000000E+00 0.  1.
     999900   -1    0    0    0    0 -0.00000000000E+00 -0.00000000000E+00 -0.74505805969E-08  0.93827000000E+00  0.93827000000E+00 0.  1.
     999902    2    1    2    0    0  0.67589092464E-02  0.66595241307E-02 -0.21976769877E-01  0.10199923616E+01  0.10197114333E+01 0.  0.
     999903    2    3    3    0    0  0.16699130550E-01 -0.12516120730E+00  0.18457366446E-01  0.12920033619E+00  0.20195636196E-01 0.  0.
         14    1    1    2    0    0 -0.67589092464E-02 -0.66595241307E-02  0.21976769877E-01  0.23937638356E-01  0.00000000000E+00 0.  1.
     999901    1    3    3    0    0 -0.99402213038E-02  0.13182073143E+00 -0.40434136323E-01  0.89079202546E+00  0.88000000000E+00 0.  1.
        -11    1    4    4    0    0  0.90194543390E-02 -0.10445208911E+00  0.91959811158E-02  0.10524455647E+00  0.51100000000E-03 0.  1.
         11    1    4    4    0    0  0.76796762112E-02 -0.20709118189E-01  0.92613853305E-02  0.23955779723E-01  0.51100000000E-03 0. -1.
</event>
<event>
 8    1  0.1071333E+005  0.1043930E+01  0.7957747E-01            NaN
         13   -1    0    0    0    0  0.00000000000E+00  0.00000000000E+00  0.74505805969E-08  0.10566000000E+00  0.10566000000E+00 0.  1.
     999900   -1    0    0    0    0 -0.00000000000E+00 -0.00000000000E+00 -0.74505805969E-08  0.93827000000E+00  0.93827000000E+00 0.  1.
     999902    2    1    2    0    0 -0.19399594487E-01 -0.10773036614E-01  0.68420748539E-02  0.10207089627E+01  0.10204447903E+01 0.  0.
     999903    2    3    3    0    0  0.61760800980E-01 -0.54230666853E-01  0.99943282155E-01  0.13102170856E+00  0.20558859401E-01 0.  0.
         14    1    1    2    0    0  0.19399594487E-01  0.10773036614E-01 -0.68420748539E-02  0.23221037282E-01  0.00000000000E+00 0. -1.
     999901    1    3    3    0    0 -0.81160395468E-01  0.43457630239E-01 -0.93101207301E-01  0.88968725416E+00  0.88000000000E+00 0.  1.
        -11    1    4    4    0    0  0.18062322290E-01 -0.48306079093E-02  0.20022021570E-01  0.27399356343E-01  0.51100000000E-03 0.  1.
         11    1    4    4    0    0  0.43698478690E-01 -0.49400058943E-01  0.79921260585E-01  0.10362235221E+00  0.51100000000E-03 0. -1.
</event>
<event>
 8    1  0.1071333E+005  0.1043930E+01  0.7957747E-01            NaN
         13   -1    0    0    0    0  0.00000000000E+00  0.00000000000E+00  0.74505805969E-08  0.10566000000E+00  0.10566000000E+00 0.  1.
     999900   -1    0    0    0    0 -0.00000000000E+00 -0.00000000000E+00 -0.74505805969E-08  0.93827000000E+00  0.93827000000E+00 0.  1.
     999902    2    1    2    0    0  0.26275508700E-02 -0.14886718460E-01  0.18381111167E-01  0.10201311837E+01  0.10198535426E+01 0.  0.
     999903    2    3    3    0    0 -0.78361404609E-01 -0.67257311527E-01  0.80928797710E-01  0.13265492878E+00  0.19590919982E-01 0.  0.
         14    1    1    2    0    0 -0.26275508700E-02  0.14886718460E-01 -0.18381111167E-01  0.23798816311E-01  0.00000000000E+00 0. -1.
     999901    1    3    3    0    0  0.80988955479E-01  0.52370593067E-01 -0.62547686543E-01  0.88747625490E+00  0.88000000000E+00 0.  1.
        -11    1    4    4    0    0 -0.23036067474E-01 -0.32251675314E-01  0.30585542423E-01  0.50065631840E-01  0.51100000000E-03 0. -1.
         11    1    4    4    0    0 -0.55325337135E-01 -0.35005636213E-01  0.50343255287E-01  0.82589296944E-01  0.51100000000E-03 0.  1.
</event>
<event>
 8    1  0.1071333E+005  0.1043930E+01  0.7957747E-01            NaN
         13   -1    0    0    0    0  0.00000000000E+00  0.00000000000E+00  0.74505805969E-08  0.10566000000E+00  0.10566000000E+00 0.  1.
     999900   -1    0    0    0    0 -0.00000000000E+00 -0.00000000000E+00 -0.74505805969E-08  0.93827000000E+00  0.93827000000E+00 0.  1.
     999902    2    1    2    0    0  0.23592034171E-02 -0.17471373601E-01  0.15890622609E-01  0.10201954972E+01  0.10199193722E+01 0.  0.
     999903    2    3    3    0    0  0.10322097940E+00  0.67974692282E-01 -0.31339997283E-01  0.12906988345E+00  0.20042704534E-01 0.  0.
         14    1    1    2    0    0 -0.23592034171E-02  0.17471373601E-01 -0.15890622609E-01  0.23734502800E-01  0.00000000000E+00 0. -1.
     999901    1    3    3    0    0 -0.10086177598E+00 -0.85446065883E-01  0.47230619891E-01  0.89112561375E+00  0.88000000000E+00 0. -1.
        -11    1    4    4    0    0  0.40277781440E-01  0.19594609268E-01 -0.19289069115E-01  0.48770664322E-01  0.51100000000E-03 0.  1.
         11    1    4    4    0    0  0.62943197958E-01  0.48380083014E-01 -0.12050928168E-01  0.80299219127E-01  0.51100000000E-03 0. -1.
</event>
<event>
 8    1  0.1071333E+005  0.1043930E+01  0.7957747E-01            NaN
         13   -1    0    0    0    0  0.00000000000E+00  0.00000000000E+00  0.74505805969E-08  0.10566000000E+00  0.10566000000E+00 0.  1.
     999900   -1    0    0    0    0 -0.00000000000E+00 -0.00000000000E+00 -0.74505805969E-08  0.93827000000E+00  0.93827000000E+00 0.  1.
     999902    2    1    2    0    0  0.17783461692E-01 -0.70263295476E-02 -0.11347960334E-01  0.10216949596E+01  0.10214529815E+01 0.  0.
     999903    2    3    3    0    0  0.46690639302E-01 -0.10173997101E+00  0.67791094514E-01  0.13261156152E+00  0.21427931615E-01 0.  0.
         14    1    1    2    0    0 -0.17783461692E-01  0.70263295476E-02  0.11347960334E-01  0.22235040373E-01  0.00000000000E+00 0.  1.
     999901    1    3    3    0    0 -0.28907177611E-01  0.94713641459E-01 -0.79139054847E-01  0.88908339811E+00  0.88000000000E+00 0.  1.
        -11    1    4    4    0    0  0.46188420226E-01 -0.92993473742E-01  0.56181694142E-01  0.11805846094E+00  0.51100000000E-03 0. -1.
         11    1    4    4    0    0  0.50221907689E-03 -0.87464972643E-02  0.11609400372E-01  0.14553100577E-01  0.51100000000E-03 0.  1.
</event>
<event>
 8    1  0.1071333E+005  0.1043930E+01  0.7957747E-01            NaN
         13   -1    0    0    0    0  0.00000000000E+00  0.00000000000E+00  0.74505805969E-08  0.10566000000E+00  0.10566000000E+00 0. -1.
     999900   -1    0    0    0    0 -0.00000000000E+00 -0.00000000000E+00 -0.74505805969E-08  0.93827000000E+00  0.93827000000E+00 0.  1.
     999902    2    1    2    0    0  0.24638182286E-01  0.45834166016E-02 -0.88829950437E-02  0.10173413683E+01  0.10169938566E+01 0.  0.
     999903    2    3    3    0    0  0.34910027512E-01  0.55584988182E-01  0.10806273458E+00  0.12808157793E+00  0.20467903356E-01 0.  0.
         14    1    1    2    0    0 -0.24638182286E-01 -0.45834166016E-02  0.88829950437E-02  0.26588631688E-01  0.00000000000E+00 0. -1.
     999901    1    3    3    0    0 -0.10271845226E-01 -0.51001571581E-01 -0.11694572963E+00  0.88925979038E+00  0.88000000000E+00 0.  1.
        -11    1    4    4    0    0 -0.15710733573E-02  0.10361607630E-01  0.19823754918E-01  0.22429301465E-01  0.51100000000E-03 0. -1.
         11    1    4    4    0    0  0.36481100869E-01  0.45223380553E-01  0.88238979666E-01  0.10565227647E+00  0.51100000000E-03 0.  1.
</event>
<event>
 8    1  0.1071333E+005  0.1043930E+01  0.7957747E-01            NaN
         13   -1    0    0    0    0  0.00000000000E+00  0.00000000000E+00  0.74505805969E-08  0.10566000000E+00  0.10566000000E+00 0. -1.
     999900   -1    0    0    0    0 -0.00000000000E+00 -0.00000000000E+00 -0.74505805969E-08  0.93827000000E+00  0.93827000000E+00 0. -1.
     999902    2    1    2    0    0  0.13570747125E-01 -0.16750959365E-01 -0.10008750797E-01  0.10201616406E+01  0.10198847180E+01 0.  0.
     999903    2    3    3    0    0  0.89047245088E-02  0.51152321187E-01 -0.11868469501E+00  0.13086805119E+00  0.18561678559E-01 0.  0.
         14    1    1    2    0    0 -0.13570747125E-01  0.16750959365E-01  0.10008750797E-01  0.23768359424E-01  0.00000000000E+00 0. -1.
     999901    1    3    3    0    0  0.46660226157E-02 -0.67903280552E-01  0.10867594421E+00  0.88929358939E+00  0.88000000000E+00 0.  1.
        -11    1    4    4    0    0 -0.31370351428E-02  0.12857394129E-02 -0.42560154918E-02  0.54652451173E-02  0.51100000000E-03 0.  1.
         11    1    4    4    0    0  0.12041759652E-01  0.49866581774E-01 -0.11442867952E+00  0.12540280607E+00  0.51100000000E-03 0. -1.
</event>
<event>
 8    1  0.1071333E+005  0.1043930E+01  0.7957747E-01            NaN
         13   -1    0    0    0    0  0.00000000000E+00  0.00000000000E+00  0.74505805969E-08  0.10566000000E+00  0.10566000000E+00 0.  1.
     999900   -1    0    0    0    0 -0.00000000000E+00 -0.00000000000E+00 -0.74505805969E-08  0.93827000000E+00  0.93827000000E+00 0. -1.
     999902    2    1    2    0    0  0.92823693062E-02 -0.51152582066E-02 -0.18825674042E-01  0.10223259668E+01  0.10220976706E+01 0.  0.
     999903    2    3    3    0    0  0.43850291675E-01 -0.49386266107E-01  0.11131402520E+00  0.13098360571E+00  0.20100780995E-01 0.  0.
         14    1    1    2    0    0 -0.92823693062E-02  0.51152582066E-02  0.18825674042E-01  0.21604033178E-01  0.00000000000E+00 0.  1.
     999901    1    3    3    0    0 -0.34567922369E-01  0.44271007901E-01 -0.13013969925E+00  0.89134236111E+00  0.88000000000E+00 0. -1.
        -11    1    4    4    0    0  0.33462392851E-01 -0.36462494238E-01  0.64387386397E-01  0.81211094497E-01  0.51100000000E-03 0. -1.
         11    1    4    4    0    0  0.10387898825E-01 -0.12923771869E-01  0.46926638808E-01  0.49772511210E-01  0.51100000000E-03 0.  1.
</event>
<event>
 8    1  0.1071333E+005  0.1043930E+01  0.7957747E-01            NaN
         13   -1    0    0    0    0  0.00000000000E+00  0.00000000000E+00  0.74505805969E-08  0.10566000000E+00  0.10566000000E+00 0. -1.
     999900   -1    0    0    0    0 -0.00000000000E+00 -0.00000000000E+00 -0.74505805969E-08  0.93827000000E+00  0.93827000000E+00 0. -1.
     999902    2    1    2    0    0 -0.20205895306E-01  0.14380416729E-01  0.16629321389E-04  0.10191292970E+01  0.10188274875E+01 0.  0.
     999903    2    3    3    0    0  0.65358570152E-01  0.61228897367E-01  0.90790628413E-01  0.12909784996E+00  0.20064797346E-01 0.  0.
         14    1    1    2    0    0  0.20205895306E-01 -0.14380416729E-01 -0.16629321389E-04  0.24800702952E-01  0.00000000000E+00 0.  1.
     999901    1    3    3    0    0 -0.85564465457E-01 -0.46848480638E-01 -0.90773999092E-01  0.89003144708E+00  0.88000000000E+00 0. -1.
        -11    1    4    4    0    0  0.46573049693E-01  0.30477508478E-01  0.57697077869E-01  0.80169454260E-01  0.51100000000E-03 0. -1.
         11    1    4    4    0    0  0.18785520459E-01  0.30751388889E-01  0.33093550544E-01  0.48928395704E-01  0.51100000000E-03 0.  1.
</event>
<event>
 8    1  0.1071333E+005  0.1043930E+01  0.7957747E-01            NaN
         13   -1    0    0    0    0  0.00000000000E+00  0.00000000000E+00  0.74505805969E-08  0.10566000000E+00  0.10566000000E+00 0.  1.
     999900   -1    0    0    0    0 -0.00000000000E+00 -0.00000000000E+00 -0.74505805969E-08  0.93827000000E+00  0.93827000000E+00 0.  1.
     999902    2    1    2    0    0 -0.19807788895E-01  0.66551364049E-02 -0.14140434967E-01  0.10186992402E+01  0.10183867392E+01 0.  0.
     999903    2    3    3    0    0 -0.65998823075E-01  0.10300423947E+00 -0.44441923685E-01  0.13171843905E+00  0.20222378918E-01 0.  0.
         14    1    1    2    0    0  0.19807788895E-01 -0.66551364049E-02  0.14140434967E-01  0.25230759848E-01  0.00000000000E+00 0. -1.
     999901    1    3    3    0    0  0.46191034180E-01 -0.96349103067E-01  0.30301488717E-01  0.88698080110E+00  0.88000000000E+00 0. -1.
        -11    1    4    4    0    0 -0.37244718884E-01  0.43581758092E-01 -0.27381223604E-01  0.63533701688E-01  0.51100000000E-03 0.  1.
         11    1    4    4    0    0 -0.28754104191E-01  0.59422481380E-01 -0.17060700080E-01  0.68184737364E-01  0.51100000000E-03 0. -1.
</event>
<event>
 7    1  0.1071333E+005  0.1043930E+01  0.7957747E-01            NaN
         13   -1    0    0    0    0  0.00000000000E+00  0.00000000000E+00  0.74505805969E-08  0.10566000000E+00  0.10566000000E+00 0.  1.
     999900   -1    0    0    0    0 -0.00000000000E+00 -0.00000000000E+00 -0.74505805969E-08  0.93827000000E+00  0.93827000000E+00 0. -1.
     999903    2    1    2    0    0  0.73027917280E-01 -0.45007630348E-01 -0.61847686463E-01  0.10732325134E+00  0.18286072980E-01 0.  0.
         14    1    1    2    0    0 -0.89159741166E-02 -0.76748546051E-02 -0.44775709650E-01  0.46295379492E-01  0.00000000000E+00 0. -1.
     999901    1    1    2    0    0 -0.64111943163E-01  0.52682484953E-01  0.10662339611E+00  0.89031136917E+00  0.88000000000E+00 0. -1.
        -11    1    3    3    0    0  0.55337550119E-01 -0.25309391622E-01 -0.47562364518E-01  0.77235027009E-01  0.51100000000E-03 0.  1.
         11    1    3    3    0    0  0.17690367160E-01 -0.19698238726E-01 -0.14285321945E-01  0.30088224328E-01  0.51100000000E-03 0. -1.
</event>
<event>
 8    1  0.1071333E+005  0.1043930E+01  0.7957747E-01            NaN
         13   -1    0    0    0    0  0.00000000000E+00  0.00000000000E+00  0.74505805969E-08  0.10566000000E+00  0.10566000000E+00 0.  1.
     999900   -1    0    0    0    0 -0.00000000000E+00 -0.00000000000E+00 -0.74505805969E-08  0.93827000000E+00  0.93827000000E+00 0.  1.
     999902    2    1    2    0    0 -0.19571016747E-01 -0.10551155566E-01 -0.10240532948E-01  0.10194510275E+01  0.10191570916E+01 0.  0.
     999903    2    3    3    0    0  0.10447871007E+00 -0.24239883495E-01  0.65800614756E-01  0.12739835407E+00  0.19931053866E-01 0.  0.
         14    1    1    2    0    0  0.19571016747E-01  0.10551155566E-01  0.10240532948E-01  0.24478972514E-01  0.00000000000E+00 0.  1.
     999901    1    3    3    0    0 -0.12404972682E+00  0.13688727928E-01 -0.76041147704E-01  0.89205267341E+00  0.88000000000E+00 0.  1.
        -11    1    4    4    0    0  0.59833560778E-01 -0.12943855956E-01  0.25937813654E-01  0.66487816181E-01  0.51100000000E-03 0.  1.
         11    1    4    4    0    0  0.44645149295E-01 -0.11296027538E-01  0.39862801102E-01  0.60910537894E-01  0.51100000000E-03 0. -1.
</event>
<event>
 8    1  0.1071333E+005  0.1043930E+01  0.7957747E-01            NaN
         13   -1    0    0    0    0  0.00000000000E+00  0.00000000000E+00  0.74505805969E-08  0.10566000000E+00  0.10566000000E+00 0.  1.
     999900   -1    0    0    0    0 -0.00000000000E+00 -0.00000000000E+00 -0.74505805969E-08  0.93827000000E+00  0.93827000000E+00 0. -1.
     999902    2    1    2    0    0 -0.61935164331E-02 -0.22715185178E-01 -0.15184176772E-02  0.10203366773E+01  0.10200638657E+01 0.  0.
     999903    2    3    3    0    0 -0.52923380222E-01 -0.11621803176E+00 -0.33715707119E-01  0.13356549603E+00  0.19886622227E-01 0.  0.
         14    1    1    2    0    0  0.61935164331E-02  0.22715185178E-01  0.15184176772E-02  0.23593322693E-01  0.00000000000E+00 0.  1.
     999901    1    3    3    0    0  0.46729863789E-01  0.93502846584E-01  0.32197289442E-01  0.88677118127E+00  0.88000000000E+00 0. -1.
        -11    1    4    4    0    0 -0.39183123978E-01 -0.75358013287E-01 -0.13704823270E-01  0.86036217217E-01  0.51100000000E-03 0.  1.
         11    1    4    4    0    0 -0.13740256244E-01 -0.40860018475E-01 -0.20010883849E-01  0.47529278816E-01  0.51100000000E-03 0. -1.
</event>
<event>
 8    1  0.1071333E+005  0.1043930E+01  0.7957747E-01            NaN
         13   -1    0    0    0    0  0.00000000000E+00  0.00000000000E+00  0.74505805969E-08  0.10566000000E+00  0.10566000000E+00 0. -1.
     999900   -1    0    0    0    0 -0.00000000000E+00 -0.00000000000E+00 -0.74505805969E-08  0.93827000000E+00  0.93827000000E+00 0.  1.
     999902    2    1    2    0    0  0.14211285011E-01  0.94022840698E-02 -0.15471317718E-01  0.10209142393E+01  0.10206547697E+01 0.  0.
     999903    2    3    3    0    0 -0.14107993117E-02 -0.29694709425E-02 -0.13151510297E+00  0.13307232213E+00  0.20030289465E-01 0.  0.
         14    1    1    2    0    0 -0.14211285011E-01 -0.94022840698E-02  0.15471317718E-01  0.23015760672E-01  0.00000000000E+00 0. -1.
     999901    1    3    3    0    0  0.15622084322E-01  0.12371755012E-01  0.11604378525E+00  0.88784191720E+00  0.88000000000E+00 0. -1.
        -11    1    4    4    0    0  0.72462105857E-02 -0.21042210500E-02 -0.23078856458E-01  0.24286416995E-01  0.51100000000E-03 0. -1.
         11    1    4    4    0    0 -0.86570098974E-02 -0.86524989248E-03 -0.10843624651E+00  0.10878590513E+00  0.51100000000E-03 0.  1.
</event>
<event>
 8    1  0.1071333E+005  0.1043930E+01  0.7957747E-01            NaN
         13   -1    0    0    0    0  0.00000000000E+00  0.00000000000E+00  0.74505805969E-08  0.10566000000E+00  0.10566000000E+00 0.  1.
     999900   -1    0    0    0    0 -0.00000000000E+00 -0.00000000000E+00 -0.74505805969E-08  0.93827000000E+00  0.93827000000E+00 0. -1.
     999902    2    1    2    0    0 -0.78102159789E-02  0.21082440364E-01  0.70508493159E-02  0.10203676733E+01  0.10200955864E+01 0.  0.
     999903    2    3    3    0    0  0.10385170874E+00  0.45962450672E-02 -0.74334896147E-01  0.12943343347E+00  0.20519113925E-01 0.  0.
         14    1    1    2    0    0  0.78102159789E-02 -0.21082440364E-01 -0.70508493159E-02  0.23562326740E-01  0.00000000000E+00 0.  1.
     999901    1    3    3    0    0 -0.11166192472E+00  0.16486195297E-01  0.81385745463E-01  0.89093423979E+00  0.88000000000E+00 0.  1.
        -11    1    4    4    0    0  0.55516570718E-01  0.56762346163E-02 -0.51590709881E-01  0.76001129799E-01  0.51100000000E-03 0. -1.
         11    1    4    4    0    0  0.48335138027E-01 -0.10799895491E-02 -0.22744186266E-01  0.53432303669E-01  0.51100000000E-03 0.  1.
</event>
<event>
 8    1  0.1071333E+005  0.1043930E+01  0.7957747E-01            NaN
         13   -1    0    0    0    0  0.00000000000E+00  0.00000000000E+00  0.74505805969E-08  0.10566000000E+00  0.10566000000E+00 0. -1.
     999900   -1    0    0    0    0 -0.00000000000E+00 -0.00000000000E+00 -0.74505805969E-08  0.93827000000E+00  0.93827000000E+00 0. -1.
     999902    2    1    2    0    0 -0.20916005235E-01 -0.11598612556E-01 -0.64448637885E-02  0.10191601926E+01  0.10188591438E+01 0.  0.
     999903    2    3    3    0    0  0.46302788709E-01 -0.96532270049E-01 -0.71192256624E-01  0.13015832687E+00  0.20258954747E-01 0.  0.
         14    1    1    2    0    0  0.20916005235E-01  0.11598612556E-01  0.64448637885E-02  0.24769807376E-01  0.00000000000E+00 0.  1.
     999901    1    3    3    0    0 -0.67218793944E-01  0.84933657493E-01  0.64747392835E-01  0.88900186575E+00  0.88000000000E+00 0. -1.
        -11    1    4    4    0    0  0.11798822616E-01 -0.44226280925E-01 -0.36399155767E-01  0.58483637037E-01  0.51100000000E-03 0. -1.
         11    1    4    4    0    0  0.34503966093E-01 -0.52305989124E-01 -0.34793100856E-01  0.71674689833E-01  0.51100000000E-03 0.  1.
</event>
<event>
 8    1  0.1071333E+005  0.1043930E+01  0.7957747E-01            NaN
         13   -1    0    0    0    0  0.00000000000E+00  0.00000000000E+00  0.74505805969E-08  0.10566000000E+00  0.10566000000E+00 0. -1.
     999900   -1    0    0    0    0 -0.00000000000E+00 -0.00000000000E+00 -0.74505805969E-08  0.93827000000E+00  0.93827000000E+00 0.  1.
     999902    2    1    2    0    0 -0.82002877827E-02 -0.19339002650E-01 -0.85483918567E-02  0.10212514474E+01  0.10209996093E+01 0.  0.
     999903    2    3    3    0    0 -0.56318278805E-01 -0.77924100570E-01 -0.91310913839E-01  0.13412282665E+00  0.20182558475E-01 0.  0.
         14    1    1    2    0    0  0.82002877827E-02  0.19339002650E-01  0.85483918567E-02  0.22678552568E-01  0.00000000000E+00 0.  1.
     999901    1    3    3    0    0  0.48117991022E-01  0.58585097919E-01  0.82762521982E-01  0.88712862078E+00  0.88000000000E+00 0. -1.
        -11    1    4    4    0    0  0.10960208193E-02 -0.45994612335E-02 -0.72223012483E-02  0.86474887451E-02  0.51100000000E-03 0.  1.
         11    1    4    4    0    0 -0.57414299624E-01 -0.73324639336E-01 -0.84088612590E-01  0.12547533791E+00  0.51100000000E-03 0. -1.
</event>
<event>
 8    1  0.1071333E+005  0.1043930E+01  0.7957747E-01            NaN
         13   -1    0    0    0    0  0.00000000000E+00  0.00000000000E+00  0.74505805969E-08  0.10566000000E+00  0.10566000000E+00 0.  1.
     999900   -1    0    0    0    0 -0.00000000000E+00 -0.00000000000E+00 -0.74505805969E-08  0.93827000000E+00  0.93827000000E+00 0.  1.
     999902    2    1    2    0    0  0.22573770557E-02  0.15171204887E-01 -0.17694178518E-01  0.10205132290E+01  0.10202445322E+01 0.  0.
     999903    2    3    3    0    0  0.12843855088E+00  0.57410676909E-02 -0.19449977021E-01  0.13146109393E+00  0.19346741354E-01 0.  0.
         14    1    1    2    0    0 -0.22573770557E-02 -0.15171204887E-01  0.17694178518E-01  0.23416770962E-01  0.00000000000E+00 0.  1.
     999901    1    3    3    0    0 -0.12618117382E+00  0.94301371959E-02  0.17557985035E-02  0.88905213511E+00  0.88000000000E+00 0. -1.
        -11    1    4    4    0    0  0.10420451214E+00  0.53033543168E-02 -0.79915273820E-02  0.10464622089E+00  0.51100000000E-03 0. -1.
         11    1    4    4    0    0  0.24234038741E-01  0.43771337417E-03 -0.11458449639E-01  0.26814873034E-01  0.51100000000E-03 0.  1.
</event>
<event>
 8    1  0.1071333E+005  0.1043930E+01  0.7957747E-01            NaN
         13   -1    0    0    0    0  0.00000000000E+00  0.00000000000E+00  0.74505805969E-08  0.10566000000E+00  0.10566000000E+00 0. -1.
     999900   -1    0    0    0    0 -0.00000000000E+00 -0.00000000000E+00 -0.74505805969E-08  0.93827000000E+00  0.93827000000E+00 0.  1.
     999902    2    1    2    0    0  0.82159131178E-02 -0.13287170838E-01  0.13225917319E-01  0.10234611205E+01  0.10232564147E+01 0.  0.
     999903    2    3    3    0    0  0.75212291247E-01  0.63735280997E-01 -0.85515351284E-01  0.13207410533E+00  0.20288400499E-01 0.  0.
         14    1    1    2    0    0 -0.82159131178E-02  0.13287170838E-01 -0.13225917319E-01  0.20468879456E-01  0.00000000000E+00 0.  1.
     999901    1    3    3    0    0 -0.66996378129E-01 -0.77022451835E-01  0.98741268603E-01  0.89138701522E+00  0.88000000000E+00 0. -1.
        -11    1    4    4    0    0  0.68941581961E-01  0.51493277243E-01 -0.67299139791E-01  0.10924254969E+00  0.51100000000E-03 0.  1.
         11    1    4    4    0    0  0.62707092858E-02  0.12242003754E-01 -0.18216211494E-01  0.22831555642E-01  0.51100000000E-03 0. -1.
</event>
<event>
 8    1  0.1071333E+005  0.1043930E+01  0.7957747E-01            NaN
         13   -1    0    0    0    0  0.00000000000E+00  0.00000000000E+00  0.74505805969E-08  0.10566000000E+00  0.10566000000E+00 0. -1.
     999900   -1    0    0    0    0 -0.00000000000E+00 -0.00000000000E+00 -0.74505805969E-08  0.93827000000E+00  0.93827000000E+00 0.  1.
     999902    2    1    2    0    0 -0.65884855024E-02  0.16738214194E-01 -0.19629625557E-01  0.10173048586E+01  0.10169563792E+01 0.  0.
     999903    2    3    3    0    0  0.10604345646E+00 -0.32192330693E-01  0.56137787769E-01  0.12555329369E+00  0.18182891090E-01 0.  0.
         14    1    1    2    0    0  0.65884855024E-02 -0.16738214194E-01  0.19629625557E-01  0.26625141411E-01  0.00000000000E+00 0. -1.
     999901    1    3    3    0    0 -0.11263194196E+00  0.48930544887E-01 -0.75767413326E-01  0.89175156490E+00  0.88000000000E+00 0.  1.
        -11    1    4    4    0    0  0.60727563280E-02 -0.63211523606E-02  0.22083007518E-02  0.90538969398E-02  0.51100000000E-03 0. -1.
         11    1    4    4    0    0  0.99970700131E-01 -0.25871178333E-01  0.53929487017E-01  0.11649939675E+00  0.51100000000E-03 0.  1.
</event>
<event>
 8    1  0.1071333E+005  0.1043930E+01  0.7957747E-01            NaN
         13   -1    0    0    0    0  0.00000000000E+00  0.00000000000E+00  0.74505805969E-08  0.10566000000E+00  0.10566000000E+00 0. -1.
     999900   -1    0    0    0    0 -0.00000000000E+00 -0.00000000000E+00 -0.74505805969E-08  0.93827000000E+00  0.93827000000E+00 0. -1.
     999902    2    1    2    0    0  0.16084748737E-01 -0.17980925177E-01  0.13763652918E-02  0.10197654145E+01  0.10194790696E+01 0.  0.
     999903    2    3    3    0    0  0.80442779517E-01 -0.82026054399E-01 -0.63105375619E-01  0.13274702142E+00  0.20980202289E-01 0.  0.
         14    1    1    2    0    0 -0.16084748737E-01  0.17980925177E-01 -0.13763652918E-02  0.24164585524E-01  0.00000000000E+00 0.  1.
     999901    1    3    3    0    0 -0.64358030781E-01  0.64045129222E-01  0.64481740911E-01  0.88701839305E+00  0.88000000000E+00 0. -1.
        -11    1    4    4    0    0  0.20394437801E-01 -0.14349951057E-01 -0.22441178066E-01  0.33551777636E-01  0.51100000000E-03 0.  1.
         11    1    4    4    0    0  0.60048341717E-01 -0.67676103341E-01 -0.40664197553E-01  0.99195243787E-01  0.51100000000E-03 0. -1.
</event>
<event>
 7    1  0.1071333E+005  0.1043930E+01  0.7957747E-01            NaN
         13   -1    0    0    0    0  0.00000000000E+00  0.00000000000E+00  0.74505805969E-08  0.10566000000E+00  0.10566000000E+00 0. -1.
     999900   -1    0    0    0    0 -0.00000000000E+00 -0.00000000000E+00 -0.74505805969E-08  0.93827000000E+00  0.93827000000E+00 0. -1.
     999903    2    1    2    0    0  0.63066394531E-03 -0.30767462437E-01  0.10520379727E+00  0.11124796101E+00  0.19006193404E-01 0.  0.
         14    1    1    2    0    0  0.42522746383E-01 -0.70362762709E-02  0.71347474975E-02  0.43687501251E-01  0.00000000000E+00 0.  1.
     999901    1    1    2    0    0 -0.43153410328E-01  0.37803738708E-01 -0.11233854477E+00  0.88899453774E+00  0.88000000000E+00 0. -1.
        -11    1    3    3    0    0 -0.76066276130E-02 -0.15584081892E-01  0.36639884873E-01  0.40539692606E-01  0.51100000000E-03 0. -1.
         11    1    3    3    0    0  0.82372915583E-02 -0.15183380545E-01  0.68563912397E-01  0.70708268408E-01  0.51100000000E-03 0.  1.
</event>
<event>
 8    1  0.1071333E+005  0.1043930E+01  0.7957747E-01            NaN
         13   -1    0    0    0    0  0.00000000000E+00  0.00000000000E+00  0.74505805969E-08  0.10566000000E+00  0.10566000000E+00 0. -1.
     999900   -1    0    0    0    0 -0.00000000000E+00 -0.00000000000E+00 -0.74505805969E-08  0.93827000000E+00  0.93827000000E+00 0.  1.
     999902    2    1    2    0    0  0.24498132978E-01 -0.17930882494E-04 -0.60558821246E-02  0.10186944586E+01  0.10183818377E+01 0.  0.
     999903    2    3    3    0    0 -0.58939523512E-01 -0.97528850206E-01  0.53181229756E-01  0.12741489678E+00  0.20507770955E-01 0.  0.
         14    1    1    2    0    0 -0.24498132978E-01  0.17930882493E-04  0.60558821246E-02  0.25235541389E-01  0.00000000000E+00 0. -1.
     999901    1    3    3    0    0  0.83437656490E-01  0.97510919323E-01 -0.59237111881E-01  0.89127956183E+00  0.88000000000E+00 0.  1.
        -11    1    4    4    0    0 -0.54895290130E-01 -0.76214606206E-01  0.40560384106E-01  0.10231111844E+00  0.51100000000E-03 0.  1.
         11    1    4    4    0    0 -0.40442333823E-02 -0.21314244000E-01  0.12620845650E-01  0.25103778338E-01  0.51100000000E-03 0. -1.
</event>
<event>
 8    1  0.1071333E+005  0.1043930E+01  0.7957747E-01            NaN
         13   -1    0    0    0    0  0.00000000000E+00  0.00000000000E+00  0.74505805969E-08  0.10566000000E+00  0.10566000000E+00 0. -1.
     999900   -1    0    0    0    0 -0.00000000000E+00 -0.00000000000E+00 -0.74505805969E-08  0.93827000000E+00  0.93827000000E+00 0. -1.
     999902    2    1    2    0    0  0.26257344368E-01 -0.13072509587E-01 -0.90804874835E-02  0.10132250510E+01  0.10127597001E+01 0.  0.
     999903    2    3    3    0    0 -0.14219291555E-01  0.10183769638E+00  0.62445989755E-01  0.12195699343E+00  0.20022536172E-01 0.  0.
         14    1    1    2    0    0 -0.26257344368E-01  0.13072509587E-01  0.90804874835E-02  0.30704949000E-01  0.00000000000E+00 0.  1.
     999901    1    3    3    0    0  0.40476635923E-01 -0.11491020597E+00 -0.71526477239E-01  0.89126805757E+00  0.88000000000E+00 0. -1.
        -11    1    4    4    0    0 -0.83409196695E-02  0.53897888205E-01  0.21467943452E-01  0.58614733736E-01  0.51100000000E-03 0.  1.
         11    1    4    4    0    0 -0.58783718852E-02  0.47939808174E-01  0.40978046303E-01  0.63342259697E-01  0.51100000000E-03 0. -1.
</event>
<event>
 8    1  0.1071333E+005  0.1043930E+01  0.7957747E-01            NaN
         13   -1    0    0    0    0  0.00000000000E+00  0.00000000000E+00  0.74505805969E-08  0.10566000000E+00  0.10566000000E+00 0. -1.
     999900   -1    0    0    0    0 -0.00000000000E+00 -0.00000000000E+00 -0.74505805969E-08  0.93827000000E+00  0.93827000000E+00 0.  1.
     999902    2    1    2    0    0 -0.17903325630E-01 -0.63807119474E-03  0.15868474022E-01  0.10199979154E+01  0.10197171190E+01 0.  0.
     999903    2    3    3    0    0 -0.23209933525E-01  0.13872386036E-02 -0.12505558787E+00  0.12876738792E+00  0.20037831474E-01 0.  0.
         14    1    1    2    0    0  0.17903325630E-01  0.63807119474E-03 -0.15868474022E-01  0.23932084557E-01  0.00000000000E+00 0.  1.
     999901    1    3    3    0    0  0.53066078952E-02 -0.20253097984E-02  0.14092406189E+00  0.89123052752E+00  0.88000000000E+00 0. -1.
        -11    1    4    4    0    0 -0.99054989979E-02  0.10454867154E-01 -0.65931063524E-01  0.67487698257E-01  0.51100000000E-03 0. -1.
         11    1    4    4    0    0 -0.13304434527E-01 -0.90676285499E-02 -0.59124524342E-01  0.61279689664E-01  0.51100000000E-03 0.  1.
</event>
<event>
 8    1  0.1071333E+005  0.1043930E+01  0.7957747E-01            NaN
         13   -1    0    0    0    0  0.00000000000E+00  0.00000000000E+00  0.74505805969E-08  0.10566000000E+00  0.10566000000E+00 0. -1.
     999900   -1    0    0    0    0 -0.00000000000E+00 -0.00000000000E+00 -0.74505805969E-08  0.93827000000E+00  0.93827000000E+00 0.  1.
     999902    2    1    2    0    0 -0.90405371780E-02 -0.21504489477E-02  0.21887825327E-01  0.10201511724E+01  0.10198740030E+01 0.  0.
     999903    2    3    3    0    0 -0.12419914192E-02 -0.10361179827E+00  0.80270279961E-01  0.13236531214E+00  0.18447512810E-01 0.  0.
         14    1    1    2    0    0  0.90405371780E-02  0.21504489477E-02 -0.21887825327E-01  0.23778827572E-01  0.00000000000E+00 0.  1.
     999901    1    3    3    0    0 -0.77985457588E-02  0.10146134932E+00 -0.58382454634E-01  0.88778586029E+00  0.88000000000E+00 0.  1.
        -11    1    4    4    0    0 -0.17098673439E-02 -0.85771464488E-01  0.56853321621E-01  0.10291855550E+00  0.51100000000E-03 0.  1.
         11    1    4    4    0    0  0.46787592467E-03 -0.17840333782E-01  0.23416958340E-01  0.29446756633E-01  0.51100000000E-03 0. -1.
</event>
<event>
 8    1  0.1071333E+005  0.1043930E+01  0.7957747E-01            NaN
         13   -1    0    0    0    0  0.00000000000E+00  0.00000000000E+00  0.74505805969E-08  0.10566000000E+00  0.10566000000E+00 0. -1.
     999900   -1    0    0    0    0 -0.00000000000E+00 -0.00000000000E+00 -0.74505805969E-08  0.93827000000E+00  0.93827000000E+00 0. -1.
     999902    2    1    2    0    0 -0.25546126612E-01 -0.10644276089E-02  0.29422935585E-03  0.10183600144E+01  0.10180389456E+01 0.  0.
     999903    2    3    3    0    0 -0.99871003489E-01 -0.51405840896E-01  0.65147387212E-01  0.13141899199E+00  0.20248248764E-01 0.  0.
         14    1    1    2    0    0  0.25546126612E-01  0.10644276089E-02 -0.29422935585E-03  0.25569985568E-01  0.00000000000E+00 0.  1.
     999901    1    3    3    0    0  0.74324876877E-01  0.50341413287E-01 -0.64853157856E-01  0.88694102245E+00  0.88000000000E+00 0. -1.
        -11    1    4    4    0    0 -0.38444925014E-01 -0.28698332782E-01  0.20599311647E-01  0.52213018732E-01  0.51100000000E-03 0. -1.
         11    1    4    4    0    0 -0.61426078475E-01 -0.22707508114E-01  0.44548075565E-01  0.79205973254E-01  0.51100000000E-03 0.  1.
</event>
<event>
 8    1  0.1071333E+005  0.1043930E+01  0.7957747E-01            NaN
         13   -1    0    0    0    0  0.00000000000E+00  0.00000000000E+00  0.74505805969E-08  0.10566000000E+00  0.10566000000E+00 0.  1.
     999900   -1    0    0    0    0 -0.00000000000E+00 -0.00000000000E+00 -0.74505805969E-08  0.93827000000E+00  0.93827000000E+00 0. -1.
     999902    2    1    2    0    0  0.10711271041E-01 -0.16788395168E-01  0.11471993997E-01  0.10209476549E+01  0.10206889467E+01 0.  0.
     999903    2    3    3    0    0  0.46926551435E-01  0.11482852906E+00 -0.31104316183E-01  0.12940556198E+00  0.19764328188E-01 0.  0.
         14    1    1    2    0    0 -0.10711271041E-01  0.16788395168E-01 -0.11471993997E-01  0.22982345092E-01  0.00000000000E+00 0. -1.
     999901    1    3    3    0    0 -0.36215280394E-01 -0.13161692423E+00  0.42576310180E-01  0.89154209293E+00  0.88000000000E+00 0.  1.
        -11    1    4    4    0    0  0.76066361973E-02  0.42629484356E-01 -0.83753974728E-02  0.44108301424E-01  0.51100000000E-03 0. -1.
         11    1    4    4    0    0  0.39319915238E-01  0.72199044708E-01 -0.22728918710E-01  0.85297260553E-01  0.51100000000E-03 0.  1.
</event>
<event>
 8    1  0.1071333E+005  0.1043930E+01  0.7957747E-01            NaN
         13   -1    0    0    0    0  0.00000000000E+00  0.00000000000E+00  0.74505805969E-08  0.10566000000E+00  0.10566000000E+00 0. -1.
     999900   -1    0    0    0    0 -0.00000000000E+00 -0.00000000000E+00 -0.74505805969E-08  0.93827000000E+00  0.93827000000E+00 0. -1.
     999902    2    1    2    0    0  0.20942733652E-01 -0.66425662433E-02  0.14485097551E-01  0.10176138485E+01  0.10172735152E+01 0.  0.
     999903    2    3    3    0    0  0.60241919350E-01  0.10610871304E+00 -0.34005343557E-01  0.12822720599E+00  0.19942545895E-01 0.  0.
         14    1    1    2    0    0 -0.20942733652E-01  0.66425662433E-02 -0.14485097551E-01  0.26316151507E-01  0.00000000000E+00 0.  1.
     999901    1    3    3    0    0 -0.39299185698E-01 -0.11275127928E+00  0.48490441107E-01  0.88938664250E+00  0.88000000000E+00 0.  1.
        -11    1    4    4    0    0  0.26872052036E-01  0.66451296245E-01 -0.16902101763E-01  0.73646616475E-01  0.51100000000E-03 0.  1.
         11    1    4    4    0    0  0.33369867314E-01  0.39657416795E-01 -0.17103241794E-01  0.54580589519E-01  0.51100000000E-03 0. -1.
</event>
<event>
 8    1  0.1071333E+005  0.1043930E+01  0.7957747E-01            NaN
         13   -1    0    0    0    0  0.00000000000E+00  0.00000000000E+00  0.74505805969E-08  0.10566000000E+00  0.10566000000E+00 0. -1.
     999900   -1    0    0    0    0 -0.00000000000E+00 -0.00000000000E+00 -0.74505805969E-08  0.93827000000E+00  0.93827000000E+00 0. -1.
     999902    2    1    2    0    0  0.43088768128E-02  0.22133977198E-01 -0.66207075516E-02  0.10204286568E+01  0.10201579929E+01 0.  0.
     999903    2    3    3    0    0 -0.56162415728E-01 -0.11215415389E+00  0.15186870762E-01  0.12792339075E+00  0.20024527000E-01 0.  0.
         14    1    1    2    0    0 -0.43088768128E-02 -0.22133977198E-01  0.66207075516E-02  0.23501343248E-01  0.00000000000E+00 0. -1.
     999901    1    3    3    0    0  0.60471292541E-01  0.13428813109E+00 -0.21807578313E-01  0.89250526600E+00  0.88000000000E+00 0.  1.
        -11    1    4    4    0    0 -0.20663308826E-01 -0.59381549047E-01  0.13437341298E-01  0.64295909365E-01  0.51100000000E-03 0. -1.
         11    1    4    4    0    0 -0.35499106902E-01 -0.52772604843E-01  0.17495294636E-02  0.63627481383E-01  0.51100000000E-03 0.  1.
</event>
<event>
 7    1  0.1071333E+005  0.1043930E+01  0.7957747E-01            NaN
         13   -1    0    0    0    0  0.00000000000E+00  0.00000000000E+00  0.74505805969E-08  0.10566000000E+00  0.10566000000E+00 0. -1.
     999900   -1    0    0    0    0 -0.00000000000E+00 -0.00000000000E+00 -0.74505805969E-08  0.93827000000E+00  0.93827000000E+00 0.  1.
     999902    2    1    2    0    0 -0.42182681717E-02  0.10081481133E-01  0.17545975192E-01  0.10232589745E+01  0.10230501638E+01 0.  0.
         14    1    1    2    0    0  0.42182681717E-02 -0.10081481133E-01 -0.17545975192E-01  0.20671025462E-01  0.00000000000E+00 0.  1.
     999901    1    3    3    0    0 -0.73674985764E-01  0.11593488710E+00  0.34898140459E-02  0.89066328114E+00  0.88000000000E+00 0. -1.
        -11    1    3    3    0    0  0.84105932723E-03 -0.25614416550E-01  0.79653328724E-02  0.26842380013E-01  0.51100000000E-03 0.  1.
         11    1    3    3    0    0  0.68615658265E-01 -0.80238989414E-01  0.60908282738E-02  0.10575331338E+00  0.51100000000E-03 0. -1.
</event>
<event>
 8    1  0.1071333E+005  0.1043930E+01  0.7957747E-01            NaN
         13   -1    0    0    0    0  0.00000000000E+00  0.00000000000E+00  0.74505805969E-08  0.10566000000E+00  0.10566000000E+00 0.  1.
     999900   -1    0    0    0    0 -0.00000000000E+00 -0.00000000000E+00 -0.74505805969E-08  0.93827000000E+00  0.93827000000E+00 0.  1.
     999902    2    1    2    0    0  0.21268401890E-01  0.86016648501E-02 -0.43148919308E-02  0.10205857962E+01  0.10203187814E+01 0.  0.
     999903    2    3    3    0    0  0.28264581092E-01 -0.11531636191E+00  0.49614034496E-01  0.13024150722E+00  0.20113376529E-01 0.  0.
         14    1    1    2    0    0 -0.21268401890E-01 -0.86016648501E-02  0.43148919308E-02  0.23344203767E-01  0.00000000000E+00 0. -1.
     999901    1    3    3    0    0 -0.69961792023E-02  0.12391802676E+00 -0.53928926427E-01  0.89034428902E+00  0.88000000000E+00 0.  1.
        -11    1    4    4    0    0  0.17973865422E-01 -0.10065812499E+00  0.39134059457E-01  0.10948449066E+00  0.51100000000E-03 0. -1.
         11    1    4    4    0    0  0.10290715670E-01 -0.14658236921E-01  0.10479975039E-01  0.20757016559E-01  0.51100000000E-03 0.  1.
</event>
<event>
 8    1  0.1071333E+005  0.1043930E+01  0.7957747E-01            NaN
         13   -1    0    0    0    0  0.00000000000E+00  0.00000000000E+00  0.74505805969E-08  0.10566000000E+00  0.10566000000E+00 0.  1.
     999900   -1    0    0    0    0 -0.00000000000E+00 -0.00000000000E+00 -0.74505805969E-08  0.93827000000E+00  0.93827000000E+00 0.  1.
     999902    2    1    2    0    0 -0.68369585078E-02  0.21030192878E-01  0.40445286634E-02  0.10214495368E+01  0.10212021274E+01 0.  0.
     999903    2    3    3    0    0 -0.83202261925E-01  0.36031640193E-01 -0.95316555314E-01  0.13244485289E+00  0.15345939365E-01 0.  0.
         14    1    1    2    0    0  0.68369585078E-02 -0.21030192878E-01 -0.40445286634E-02  0.22480463212E-01  0.00000000000E+00 0. -1.
     999901    1    3    3    0    0  0.76365303417E-01 -0.15001447315E-01  0.99361083977E-01  0.88900468390E+00  0.88000000000E+00 0. -1.
        -11    1    4    4    0    0 -0.56104289790E-01  0.23221819844E-01 -0.73665041978E-01  0.95465929945E-01  0.51100000000E-03 0.  1.
         11    1    4    4    0    0 -0.27097972135E-01  0.12809820349E-01 -0.21651513336E-01  0.36978922942E-01  0.51100000000E-03 0. -1.
</event>
<event>
 8    1  0.1071333E+005  0.1043930E+01  0.7957747E-01            NaN
         13   -1    0    0    0    0  0.00000000000E+00  0.00000000000E+00  0.74505805969E-08  0.10566000000E+00  0.10566000000E+00 0.  1.
     999900   -1    0    0    0    0 -0.00000000000E+00 -0.00000000000E+00 -0.74505805969E-08  0.93827000000E+00  0.93827000000E+00 0.  1.
     999902    2    1    2    0    0 -0.10643118563E-01 -0.16669329927E-01 -0.14631360768E-01  0.10193287957E+01  0.10190318810E+01 0.  0.
     999903    2    3    3    0    0  0.67065672276E-01  0.76926136454E-01 -0.75945511576E-01  0.12884679559E+00  0.20453389418E-01 0.  0.
         14    1    1    2    0    0  0.10643118563E-01  0.16669329927E-01  0.14631360768E-01  0.24601204257E-01  0.00000000000E+00 0.  1.
     999901    1    3    3    0    0 -0.77708790839E-01 -0.93595466381E-01  0.61314150808E-01  0.89048200015E+00  0.88000000000E+00 0. -1.
        -11    1    4    4    0    0  0.52991959458E-01  0.70925890220E-01 -0.61520029900E-01  0.10781282331E+00  0.51100000000E-03 0.  1.
         11    1    4    4    0    0  0.14073712818E-01  0.60002462341E-02 -0.14425481676E-01  0.21033972282E-01  0.51100000000E-03 0. -1.
</event>
<event>
 8    1  0.1071333E+005  0.1043930E+01  0.7957747E-01            NaN
         13   -1    0    0    0    0  0.00000000000E+00  0.00000000000E+00  0.74505805969E-08  0.10566000000E+00  0.10566000000E+00 0.  1.
     999900   -1    0    0    0    0 -0.00000000000E+00 -0.00000000000E+00 -0.74505805969E-08  0.93827000000E+00  0.93827000000E+00 0.  1.
     999902    2    1    2    0    0  0.69150162306E-02 -0.13561956804E-01  0.18431016186E-01  0.10200250532E+01  0.10197449008E+01 0.  0.
     999903    2    3    3    0    0  0.59483952947E-02  0.10915555320E+00  0.67677032784E-01  0.13014545927E+00  0.20182705473E-01 0.  0.
         14    1    1    2    0    0 -0.69150162306E-02  0.13561956804E-01 -0.18431016186E-01  0.23904946757E-01  0.00000000000E+00 0. -1.
     999901    1    3    3    0    0  0.96662093586E-03 -0.12271751001E+00 -0.49246016598E-01  0.88987959397E+00  0.88000000000E+00 0.  1.
        -11    1    4    4    0    0  0.94584064790E-02  0.25597684456E-01  0.20393387541E-01  0.34071311672E-01  0.51100000000E-03 0.  1.
         11    1    4    4    0    0 -0.35100111842E-02  0.83557868748E-01  0.47283645243E-01  0.96074147598E-01  0.51100000000E-03 0. -1.
</event>
<event>
 8    1  0.1071333E+005  0.1043930E+01  0.7957747E-01            NaN
         13   -1    0    0    0    0  0.00000000000E+00  0.00000000000E+00  0.74505805969E-08  0.10566000000E+00  0.10566000000E+00 0. -1.
     999900   -1    0    0    0    0 -0.00000000000E+00 -0.00000000000E+00 -0.74505805969E-08  0.93827000000E+00  0.93827000000E+00 0. -1.
     999902    2    1    2    0    0 -0.32212891139E-02 -0.57430001747E-02  0.22749410991E-01  0.10202467896E+01  0.10199718708E+01 0.  0.
     999903    2    3    3    0    0 -0.11660838628E+00  0.43042483790E-01  0.38545850575E-01  0.13149137625E+00  0.18815638952E-01 0.  0.
         14    1    1    2    0    0  0.32212891139E-02  0.57430001747E-02 -0.22749410991E-01  0.23683210403E-01  0.00000000000E+00 0.  1.
     999901    1    3    3    0    0  0.11338709717E+00 -0.48785483964E-01 -0.15796439584E-01  0.88875541335E+00  0.88000000000E+00 0.  1.
        -11    1    4    4    0    0 -0.24464944560E-01  0.44956874890E-02  0.14343815106E-01  0.28718476128E-01  0.51100000000E-03 0.  1.
         11    1    4    4    0    0 -0.92143441723E-01  0.38546796301E-01  0.24202035470E-01  0.10277290012E+00  0.51100000000E-03 0. -1.
</event>
<event>
 8    1  0.1071333E+005  0.1043930E+01  0.7957747E-01            NaN
         13   -1    0    0    0    0  0.00000000000E+00  0.00000000000E+00  0.74505805969E-08  0.10566000000E+00  0.10566000000E+00 0.  1.
     999900   -1    0    0    0    0 -0.00000000000E+00 -0.00000000000E+00 -0.74505805969E-08  0.93827000000E+00  0.93827000000E+00 0. -1.
     999902    2    1    2    0    0  0.85250164229E-02  0.23784164737E-02  0.21764504373E-01  0.10204347575E+01  0.10201642357E+01 0.  0.
     999903    2    3    3    0    0 -0.41834847336E-01 -0.12113217068E+00  0.11896891706E-01  0.13032894873E+00  0.20516861835E-01 0.  0.
         14    1    1    2    0    0 -0.85250164229E-02 -0.23784164737E-02 -0.21764504373E-01  0.23495242508E-01  0.00000000000E+00 0. -1.
     999901    1    3    3    0    0  0.50359863759E-01  0.12351058715E+00  0.98676126671E-02  0.89010580876E+00  0.88000000000E+00 0. -1.
        -11    1    4    4    0    0 -0.32666228251E-01 -0.81030164968E-01 -0.47268081427E-03  0.87369643762E-01  0.51100000000E-03 0. -1.
         11    1    4    4    0    0 -0.91686190853E-02 -0.40102005709E-01  0.12369572520E-01  0.42959304966E-01  0.51100000000E-03 0.  1.
</event>
<event>
 8    1  0.1071333E+005  0.1043930E+01  0.7957747E-01            NaN
         13   -1    0    0    0    0  0.00000000000E+00  0.00000000000E+00  0.74505805969E-08  0.10566000000E+00  0.10566000000E+00 0.  1.
     999900   -1    0    0    0    0 -0.00000000000E+00 -0.00000000000E+00 -0.74505805969E-08  0.93827000000E+00  0.93827000000E+00 0.  1.
     999902    2    1    2    0    0 -0.76437471892E-02 -0.15156092232E-01 -0.12299534550E-01  0.10229678304E+01  0.10227530345E+01 0.  0.
     999903    2    3    3    0    0 -0.20691008822E-01  0.10167512676E+00  0.76903077141E-01  0.13068039317E+00  0.19933204388E-01 0.  0.
         14    1    1    2    0    0  0.76437471892E-02  0.15156092232E-01  0.12299534550E-01  0.20962169567E-01  0.00000000000E+00 0.  1.
     999901    1    3    3    0    0  0.13047261633E-01 -0.11683121899E+00 -0.89202611691E-01  0.89228743726E+00  0.88000000000E+00 0.  1.
        -11    1    4    4    0    0 -0.17143668806E-01  0.39741269201E-01  0.36761911354E-01  0.56788846663E-01  0.51100000000E-03 0. -1.
         11    1    4    4    0    0 -0.35473400154E-02  0.61933857558E-01  0.40141165788E-01  0.73891546506E-01  0.51100000000E-03 0.  1.
</event>
<event>
 8    1  0.1071333E+005  0.1043930E+01  0.7957747E-01            NaN
         13   -1    0    0    0    0  0.00000000000E+00  0.00000000000E+00  0.74505805969E-08  0.10566000000E+00  0.10566000000E+00 0. -1.
     999900   -1    0    0    0    0 -0.00000000000E+00 -0.00000000000E+00 -0.74505805969E-08  0.93827000000E+00  0.93827000000E+00 0. -1.
     999902    2    1    2    0    0  0.68821816274E-02  0.22261829922E-01 -0.45483326697E-02  0.10201888790E+01  0.10199125982E+01 0.  0.
     999903    2    3    3    0    0  0.10308744723E+00 -0.51106742901E-02  0.77707224776E-01  0.13071111997E+00  0.19845486426E-01 0.  0.
         14    1    1    2    0    0 -0.68821816274E-02 -0.22261829922E-01  0.45483326697E-02  0.23741120982E-01  0.00000000000E+00 0.  1.
     999901    1    3    3    0    0 -0.96205265606E-01  0.27372504212E-01 -0.82255557445E-01  0.88947775905E+00  0.88000000000E+00 0. -1.
        -11    1    4    4    0    0  0.59485566308E-01 -0.18757747226E-02  0.32477837446E-01  0.67802080912E-01  0.51100000000E-03 0.  1.
         11    1    4    4    0    0  0.43601880926E-01 -0.32348995675E-02  0.45229387330E-01  0.62909039054E-01  0.51100000000E-03 0. -1.
</event>
<event>
 7    1  0.1071333E+005  0.1043930E+01  0.7957747E-01            NaN
         13   -1    0    0    0    0  0.00000000000E+00  0.00000000000E+00  0.74505805969E-08  0.10566000000E+00  0.10566000000E+00 0.  1.
     999900   -1    0    0    0    0 -0.00000000000E+00 -0.00000000000E+00 -0.74505805969E-08  0.93827000000E+00  0.93827000000E+00 0.  1.
     999903    2    1    2    0    0  0.47167266497E-01 -0.32474426456E-01  0.92972267619E-01  0.11140885515E+00  0.22107714897E-01 0.  0.
         14    1    1    2    0    0 -0.44122560920E-01 -0.13733783958E-01 -0.10981229022E-01  0.47497416717E-01  0.00000000000E+00 0.  1.
     999901    1    1    2    0    0 -0.30447055776E-02  0.46208210414E-01 -0.81991038598E-01  0.88502372813E+00  0.88000000000E+00 0.  1.
        -11    1    3    3    0    0  0.23874744731E-01 -0.18227193279E-01  0.28578426726E-01  0.41463497271E-01  0.51100000000E-03 0.  1.
         11    1    3    3    0    0  0.23292521767E-01 -0.14247233177E-01  0.64393840893E-01  0.69945357883E-01  0.51100000000E-03 0. -1.
</event>
<event>
 8    1  0.1071333E+005  0.1043930E+01  0.7957747E-01            NaN
         13   -1    0    0    0    0  0.00000000000E+00  0.00000000000E+00  0.74505805969E-08  0.10566000000E+00  0.10566000000E+00 0.  1.
     999900   -1    0    0    0    0 -0.00000000000E+00 -0.00000000000E+00 -0.74505805969E-08  0.93827000000E+00  0.93827000000E+00 0. -1.
     999902    2    1    2    0    0 -0.18285595354E-01  0.68961606161E-02 -0.14520375231E-01  0.10195833098E+01  0.10192925803E+01 0.  0.
     999903    2    3    3    0    0  0.42392700927E-01 -0.31353980002E-01 -0.11788389419E+00  0.13063508520E+00  0.19715471672E-01 0.  0.
         14    1    1    2    0    0  0.18285595354E-01 -0.68961606161E-02  0.14520375231E-01  0.24346690238E-01  0.00000000000E+00 0.  1.
     999901    1    3    3    0    0 -0.60678296281E-01  0.38250140618E-01  0.10336351896E+00  0.88894822456E+00  0.88000000000E+00 0.  1.
        -11    1    4    4    0    0  0.33837839996E-01 -0.13401998716E-01 -0.75759885956E-01  0.84050189924E-01  0.51100000000E-03 0.  1.
         11    1    4    4    0    0  0.85548609313E-02 -0.17951981287E-01 -0.42124008230E-01  0.46584895278E-01  0.51100000000E-03 0. -1.
</event>
<event>
 8    1  0.1071333E+005  0.1043930E+01  0.7957747E-01            NaN
         13   -1    0    0    0    0  0.00000000000E+00  0.00000000000E+00  0.74505805969E-08  0.10566000000E+00  0.10566000000E+00 0. -1.
     999900   -1    0    0    0    0 -0.00000000000E+00 -0.00000000000E+00 -0.74505805969E-08  0.93827000000E+00  0.93827000000E+00 0. -1.
     999902    2    1    2    0    0  0.17748192240E-01  0.30547242232E-02 -0.13339291983E-01  0.10215186998E+01  0.10212728272E+01 0.  0.
     999903    2    3    3    0    0  0.44802679826E-01 -0.11751659050E-01 -0.12389524778E+00  0.13406515526E+00  0.21864396244E-01 0.  0.
         14    1    1    2    0    0 -0.17748192240E-01 -0.30547242232E-02  0.13339291983E-01  0.22411300240E-01  0.00000000000E+00 0.  1.
     999901    1    3    3    0    0 -0.27054487586E-01  0.14806383273E-01  0.11055595579E+00  0.88745354450E+00  0.88000000000E+00 0.  1.
        -11    1    4    4    0    0  0.15676304516E-01 -0.22708274072E-02 -0.72672284161E-01  0.74380274177E-01  0.51100000000E-03 0.  1.
         11    1    4    4    0    0  0.29126375310E-01 -0.94808316427E-02 -0.51222963616E-01  0.59684881083E-01  0.51100000000E-03 0. -1.
</event>
<event>
 8    1  0.1071333E+005  0.1043930E+01  0.7957747E-01            NaN
         13   -1    0    0    0    0  0.00000000000E+00  0.00000000000E+00  0.74505805969E-08  0.10566000000E+00  0.10566000000E+00 0. -1.
     999900   -1    0    0    0    0 -0.00000000000E+00 -0.00000000000E+00 -0.74505805969E-08  0.93827000000E+00  0.93827000000E+00 0. -1.
     999902    2    1    2    0    0 -0.93197930856E-02 -0.19806473153E-01  0.34199338390E-02  0.10217748455E+01  0.10215346221E+01 0.  0.
     999903    2    3    3    0    0 -0.97290249519E-01 -0.89767890030E-01 -0.14279514365E-01  0.13444927309E+00  0.18682499051E-01 0.  0.
         14    1    1    2    0    0  0.93197930856E-02  0.19806473153E-01 -0.34199338390E-02  0.22155154465E-01  0.00000000000E+00 0.  1.
     999901    1    3    3    0    0  0.87970456433E-01  0.69961416877E-01  0.17699448204E-01  0.88732557245E+00  0.88000000000E+00 0.  1.
        -11    1    4    4    0    0 -0.32775902660E-01 -0.42615832913E-01 -0.47961376949E-02  0.53978079512E-01  0.51100000000E-03 0. -1.
         11    1    4    4    0    0 -0.64514346859E-01 -0.47152057117E-01 -0.94833766701E-02  0.80471193573E-01  0.51100000000E-03 0.  1.
</event>
<event>
 8    1  0.1071333E+005  0.1043930E+01  0.7957747E-01            NaN
         13   -1    0    0    0    0  0.00000000000E+00  0.00000000000E+00  0.74505805969E-08  0.10566000000E+00  0.10566000000E+00 0. -1.
     999900   -1    0    0    0    0 -0.00000000000E+00 -0.00000000000E+00 -0.74505805969E-08  0.93827000000E+00  0.93827000000E+00 0.  1.
     999902    2    1    2    0    0 -0.46247514478E-03 -0.73787100229E-02 -0.24707967767E-01  0.10181396352E+01  0.10178129366E+01 0.  0.
     999903    2    3    3    0    0  0.12024940235E+00  0.23210000999E-01 -0.36707641617E-01  0.12929149363E+00  0.19241009870E-01 0.  0.
         14    1    1    2    0    0  0.46247514478E-03  0.73787100229E-02  0.24707967767E-01  0.25790364791E-01  0.00000000000E+00 0. -1.
     999901    1    3    3    0    0 -0.12071187750E+00 -0.30588711022E-01  0.11999673849E-01  0.88884814158E+00  0.88000000000E+00 0. -1.
        -11    1    4    4    0    0  0.41627544160E-01  0.10683496424E-01 -0.22167241951E-01  0.48359458903E-01  0.51100000000E-03 0. -1.
         11    1    4    4    0    0  0.78621858190E-01  0.12526504575E-01 -0.14540399666E-01  0.80932034730E-01  0.51100000000E-03 0.  1.
</event>
<event>
 8    1  0.1071333E+005  0.1043930E+01  0.7957747E-01            NaN
         13   -1    0    0    0    0  0.00000000000E+00  0.00000000000E+00  0.74505805969E-08  0.10566000000E+00  0.10566000000E+00 0.  1.
     999900   -1    0    0    0    0 -0.00000000000E+00 -0.00000000000E+00 -0.74505805969E-08  0.93827000000E+00  0.93827000000E+00 0.  1.
     999902    2    1    2    0    0  0.41837576159E-02  0.17816099924E-01 -0.14431583963E-01  0.10206236090E+01  0.10203574685E+01 0.  0.
     999903    2    3    3    0    0 -0.68218837637E-01  0.50175714218E-01  0.96720916903E-01  0.13009334066E+00  0.19948168135E-01 0.  0.
         14    1    1    2    0    0 -0.41837576159E-02 -0.17816099924E-01  0.14431583963E-01  0.23306390968E-01  0.00000000000E+00 0.  1.
     999901    1    3    3    0    0  0.72402595253E-01 -0.32359614294E-01 -0.11115250087E+00  0.89053026837E+00  0.88000000000E+00 0.  1.
        -11    1    4    4    0    0 -0.35615627077E-01  0.38252675418E-01  0.59284949113E-01  0.79036108084E-01  0.51100000000E-03 0.  1.
         11    1    4    4    0    0 -0.32603210559E-01  0.11923038800E-01  0.37435967790E-01  0.51057232577E-01  0.51100000000E-03 0. -1.
</event>
<event>
 8    1  0.1071333E+005  0.1043930E+01  0.7957747E-01            NaN
         13   -1    0    0    0    0  0.00000000000E+00  0.00000000000E+00  0.74505805969E-08  0.10566000000E+00  0.10566000000E+00 0.  1.
     999900   -1    0    0    0    0 -0.00000000000E+00 -0.00000000000E+00 -0.74505805969E-08  0.93827000000E+00  0.93827000000E+00 0.  1.
     999902    2    1    2    0    0  0.18657131012E-01 -0.10283340045E-01 -0.11125081795E-01  0.10198966260E+01  0.10196134192E+01 0.  0.
     999903    2    3    3    0    0  0.61280952817E-02  0.91628787649E-01  0.87593556593E-01  0.12844363899E+00  0.19792649226E-01 0.  0.
         14    1    1    2    0    0 -0.18657131012E-01  0.10283340045E-01  0.11125081795E-01  0.24033373984E-01  0.00000000000E+00 0.  1.
     999901    1    3    3    0    0  0.12529035730E-01 -0.10191212769E+00 -0.98718638389E-01  0.89145298702E+00  0.88000000000E+00 0.  1.
        -11    1    4    4    0    0  0.36844146984E-02  0.12381380712E-01  0.22106063873E-01  0.25608839898E-01  0.51100000000E-03 0.  1.
         11    1    4    4    0    0  0.24436805833E-02  0.79247406937E-01  0.65487492721E-01  0.10283479909E+00  0.51100000000E-03 0. -1.
</event>
<event>
 8    1  0.1071333E+005  0.1043930E+01  0.7957747E-01            NaN
         13   -1    0    0    0    0  0.00000000000E+00  0.00000000000E+00  0.74505805969E-08  0.10566000000E+00  0.10566000000E+00 0.  1.
     999900   -1    0    0    0    0 -0.00000000000E+00 -0.00000000000E+00 -0.74505805969E-08  0.93827000000E+00  0.93827000000E+00 0. -1.
     999902    2    1    2    0    0  0.17523369276E-01  0.93433838951E-02 -0.12457304465E-01  0.10204874803E+01  0.10202181854E+01 0.  0.
     999903    2    3    3    0    0 -0.10448555425E+00 -0.71064913165E-01  0.85496152665E-02  0.12819102606E+00  0.19808844232E-01 0.  0.
         14    1    1    2    0    0 -0.17523369276E-01 -0.93433838951E-02  0.12457304465E-01  0.23442519658E-01  0.00000000000E+00 0.  1.
     999901    1    3    3    0    0  0.12200892353E+00  0.80408297061E-01 -0.21006919731E-01  0.89229645429E+00  0.88000000000E+00 0. -1.
        -11    1    4    4    0    0 -0.72312462440E-01 -0.57836614667E-01  0.10624019706E-02  0.92604298168E-01  0.51100000000E-03 0.  1.
         11    1    4    4    0    0 -0.32173091810E-01 -0.13228298498E-01  0.74872132960E-02  0.35586727887E-01  0.51100000000E-03 0. -1.
</event>
<event>
 8    1  0.1071333E+005  0.1043930E+01  0.7957747E-01            NaN
         13   -1    0    0    0    0  0.00000000000E+00  0.00000000000E+00  0.74505805969E-08  0.10566000000E+00  0.10566000000E+00 0. -1.
     999900   -1    0    0    0    0 -0.00000000000E+00 -0.00000000000E+00 -0.74505805969E-08  0.93827000000E+00  0.93827000000E+00 0.  1.
     999902    2    1    2    0    0 -0.26342542337E-02 -0.60888483951E-03 -0.23070866168E-01  0.10207012484E+01  0.10204368984E+01 0.  0.
     999903    2    3    3    0    0  0.11796908651E+00 -0.11601473250E-01  0.49253671510E-01  0.12946792228E+00  0.16873624015E-01 0.  0.
         14    1    1    2    0    0  0.26342542337E-02  0.60888483951E-03  0.23070866168E-01  0.23228751621E-01  0.00000000000E+00 0. -1.
     999901    1    3    3    0    0 -0.12060334075E+00  0.10992588410E-01 -0.72324537679E-01  0.89123332610E+00  0.88000000000E+00 0.  1.
        -11    1    4    4    0    0  0.51624856127E-01  0.14964839272E-02  0.15751234198E-01  0.53997478960E-01  0.51100000000E-03 0.  1.
         11    1    4    4    0    0  0.66344230388E-01 -0.13097957177E-01  0.33502437313E-01  0.75470443320E-01  0.51100000000E-03 0. -1.
</event>
<event>
 8    1  0.1071333E+005  0.1043930E+01  0.7957747E-01            NaN
         13   -1    0    0    0    0  0.00000000000E+00  0.00000000000E+00  0.74505805969E-08  0.10566000000E+00  0.10566000000E+00 0.  1.
     999900   -1    0    0    0    0 -0.00000000000E+00 -0.00000000000E+00 -0.74505805969E-08  0.93827000000E+00  0.93827000000E+00 0. -1.
     999902    2    1    2    0    0  0.16293519024E-01 -0.12016403223E-01 -0.12958599078E-01  0.10198925709E+01  0.10196092674E+01 0.  0.
     999903    2    3    3    0    0  0.48439017112E-01  0.96943414797E-01  0.67091561494E-01  0.12898651343E+00  0.19795933225E-01 0.  0.
         14    1    1    2    0    0 -0.16293519024E-01  0.12016403223E-01  0.12958599078E-01  0.24037429120E-01  0.00000000000E+00 0.  1.
     999901    1    3    3    0    0 -0.32145498088E-01 -0.10895981802E+00 -0.80050160573E-01  0.89090605745E+00  0.88000000000E+00 0. -1.
        -11    1    4    4    0    0  0.35097935267E-01  0.65694605008E-01  0.35196306436E-01  0.82381352835E-01  0.51100000000E-03 0.  1.
         11    1    4    4    0    0  0.13341081846E-01  0.31248809789E-01  0.31895255059E-01  0.46605160597E-01  0.51100000000E-03 0. -1.
</event>
<event>
 8    1  0.1071333E+005  0.1043930E+01  0.7957747E-01            NaN
         13   -1    0    0    0    0  0.00000000000E+00  0.00000000000E+00  0.74505805969E-08  0.10566000000E+00  0.10566000000E+00 0.  1.
     999900   -1    0    0    0    0 -0.00000000000E+00 -0.00000000000E+00 -0.74505805969E-08  0.93827000000E+00  0.93827000000E+00 0. -1.
     999902    2    1    2    0    0 -0.13209454324E-01  0.19842066520E-01  0.17525176032E-03  0.10200924666E+01  0.10198139106E+01 0.  0.
     999903    2    3    3    0    0 -0.34405563451E-01 -0.45957578957E-01 -0.11475758922E+00  0.12993044405E+00  0.20415047104E-01 0.  0.
         14    1    1    2    0    0  0.13209454324E-01 -0.19842066520E-01 -0.17525176032E-03  0.23837533440E-01  0.00000000000E+00 0. -1.
     999901    1    3    3    0    0  0.21196109127E-01  0.65799645477E-01  0.11493284098E+00  0.89016202251E+00  0.88000000000E+00 0.  1.
        -11    1    4    4    0    0 -0.36603284947E-02 -0.20582158651E-01 -0.35212598317E-01  0.40953772239E-01  0.51100000000E-03 0. -1.
         11    1    4    4    0    0 -0.30745234956E-01 -0.25375420306E-01 -0.79544990899E-01  0.88976671810E-01  0.51100000000E-03 0.  1.
</event>
<event>
 8    1  0.1071333E+005  0.1043930E+01  0.7957747E-01            NaN
         13   -1    0    0    0    0  0.00000000000E+00  0.00000000000E+00  0.74505805969E-08  0.10566000000E+00  0.10566000000E+00 0.  1.
     999900   -1    0    0    0    0 -0.00000000000E+00 -0.00000000000E+00 -0.74505805969E-08  0.93827000000E+00  0.93827000000E+00 0.  1.
     999902    2    1    2    0    0 -0.46419578385E-02  0.27832079415E-01 -0.49447655120E-02  0.10152834797E+01  0.10148792643E+01 0.  0.
     999903    2    3    3    0    0  0.32108856105E-01 -0.52294929337E-01 -0.10702550271E+00  0.12500743448E+00  0.20165866473E-01 0.  0.
         14    1    1    2    0    0  0.46419578385E-02 -0.27832079415E-01  0.49447655120E-02  0.28646520262E-01  0.00000000000E+00 0.  1.
     999901    1    3    3    0    0 -0.36750813944E-01  0.80127008753E-01  0.10208073719E+00  0.89027604526E+00  0.88000000000E+00 0. -1.
        -11    1    4    4    0    0  0.16150329832E-01 -0.18827756044E-01 -0.61337356678E-01  0.66165323218E-01  0.51100000000E-03 0. -1.
         11    1    4    4    0    0  0.15958526273E-01 -0.33467173293E-01 -0.45688146028E-01  0.58842111260E-01  0.51100000000E-03 0.  1.
</event>
<event>
 8    1  0.1071333E+005  0.1043930E+01  0.7957747E-01            NaN
         13   -1    0    0    0    0  0.00000000000E+00  0.00000000000E+00  0.74505805969E-08  0.10566000000E+00  0.10566000000E+00 0.  1.
     999900   -1    0    0    0    0 -0.00000000000E+00 -0.00000000000E+00 -0.74505805969E-08  0.93827000000E+00  0.93827000000E+00 0. -1.
     999902    2    1    2    0    0  0.10015942379E-01 -0.14051288133E-01 -0.35656025967E-03  0.10266706566E+01  0.10265255731E+01 0.  0.
     999903    2    3    3    0    0  0.69039655122E-01 -0.24068656142E-01 -0.11452805460E+00  0.13727801188E+00  0.19565353775E-01 0.  0.
         14    1    1    2    0    0 -0.10015942379E-01  0.14051288133E-01  0.35656025967E-03  0.17259343416E-01  0.00000000000E+00 0. -1.
     999901    1    3    3    0    0 -0.59023712743E-01  0.10017368009E-01  0.11417149434E+00  0.88939264470E+00  0.88000000000E+00 0.  1.
        -11    1    4    4    0    0  0.18581939942E-01  0.78142730880E-03 -0.20279825535E-01  0.27521474622E-01  0.51100000000E-03 0.  1.
         11    1    4    4    0    0  0.50457715180E-01 -0.24850083451E-01 -0.94248229065E-01  0.10975653726E+00  0.51100000000E-03 0. -1.
</event>
<event>
 8    1  0.1071333E+005  0.1043930E+01  0.7957747E-01            NaN
         13   -1    0    0    0    0  0.00000000000E+00  0.00000000000E+00  0.74505805969E-08  0.10566000000E+00  0.10566000000E+00 0. -1.
     999900   -1    0    0    0    0 -0.00000000000E+00 -0.00000000000E+00 -0.74505805969E-08  0.93827000000E+00  0.93827000000E+00 0.  1.
     999902    2    1    2    0    0  0.20125030974E-01 -0.10119751900E-01 -0.46483968578E-02  0.10209292643E+01  0.10206701371E+01 0.  0.
     999903    2    3    3    0    0 -0.37252413113E-02  0.39631923660E-01 -0.12335123532E+00  0.13124705778E+00  0.20632404698E-01 0.  0.
         14    1    1    2    0    0 -0.20125030974E-01  0.10119751900E-01  0.46483968578E-02  0.23000735718E-01  0.00000000000E+00 0. -1.
     999901    1    3    3    0    0  0.23850272286E-01 -0.49751675560E-01  0.11870283847E+00  0.88968220650E+00  0.88000000000E+00 0.  1.
        -11    1    4    4    0    0 -0.11923846214E-01  0.17103478542E-01 -0.57008834757E-01  0.60703998617E-01  0.51100000000E-03 0. -1.
         11    1    4    4    0    0  0.81986049024E-02  0.22528445118E-01 -0.66342400567E-01  0.70543059161E-01  0.51100000000E-03 0.  1.
</event>
<event>
 8    1  0.1071333E+005  0.1043930E+01  0.7957747E-01            NaN
         13   -1    0    0    0    0  0.00000000000E+00  0.00000000000E+00  0.74505805969E-08  0.10566000000E+00  0.10566000000E+00 0.  1.
     999900   -1    0    0    0    0 -0.00000000000E+00 -0.00000000000E+00 -0.74505805969E-08  0.93827000000E+00  0.93827000000E+00 0. -1.
     999902    2    1    2    0    0 -0.20992052074E-01 -0.43254967496E-02 -0.94879753776E-03  0.10224759470E+01  0.10222508429E+01 0.  0.
     999903    2    3    3    0    0  0.25430636178E-01  0.11580414502E+00  0.53131706951E-01  0.13145916953E+00  0.20030419599E-01 0.  0.
         14    1    1    2    0    0  0.20992052074E-01  0.43254967496E-02  0.94879753776E-03  0.21454052978E-01  0.00000000000E+00 0.  1.
     999901    1    3    3    0    0 -0.46422688252E-01 -0.12012964177E+00 -0.54080504489E-01  0.89101677750E+00  0.88000000000E+00 0.  1.
        -11    1    4    4    0    0  0.19027885122E-01  0.53492477506E-01  0.32949987866E-01  0.65646541290E-01  0.51100000000E-03 0. -1.
         11    1    4    4    0    0  0.64027510560E-02  0.62311667510E-01  0.20181719084E-01  0.65812628235E-01  0.51100000000E-03 0.  1.
</event>
<event>
 8    1  0.1071333E+005  0.1043930E+01  0.7957747E-01            NaN
         13   -1    0    0    0    0  0.00000000000E+00  0.00000000000E+00  0.74505805969E-08  0.10566000000E+00  0.10566000000E+00 0.  1.
     999900   -1    0    0    0    0 -0.00000000000E+00 -0.00000000000E+00 -0.74505805969E-08  0.93827000000E+00  0.93827000000E+00 0. -1.
     999902    2    1    2    0    0  0.47810118578E-02 -0.70565017106E-02  0.21957080392E-01  0.10203765359E+01  0.10201046561E+01 0.  0.
     999903    2    3    3    0    0  0.12223747153E-01  0.12502276452E+00 -0.22590207914E-01  0.12937441035E+00  0.21149678865E-01 0.  0.
         14    1    1    2    0    0 -0.47810118578E-02  0.70565017106E-02 -0.21957080392E-01  0.23553464079E-01  0.00000000000E+00 0. -1.
     999901    1    3    3    0    0 -0.74427352948E-02 -0.13207926623E+00  0.44547288306E-01  0.89100212557E+00  0.88000000000E+00 0.  1.
        -11    1    4    4    0    0  0.84470883510E-02  0.48318397876E-01  0.90379199718E-03  0.49062193549E-01  0.51100000000E-03 0.  1.
         11    1    4    4    0    0  0.37766588016E-02  0.76704366648E-01 -0.23493999911E-01  0.80312216800E-01  0.51100000000E-03 0. -1.
</event>
<event>
 8    1  0.1071333E+005  0.1043930E+01  0.7957747E-01            NaN
         13   -1    0    0    0    0  0.00000000000E+00  0.00000000000E+00  0.74505805969E-08  0.10566000000E+00  0.10566000000E+00 0.  1.
     999900   -1    0    0    0    0 -0.00000000000E+00 -0.00000000000E+00 -0.74505805969E-08  0.93827000000E+00  0.93827000000E+00 0.  1.
     999902    2    1    2    0    0 -0.14163104542E-01  0.12653298746E-01  0.24261114476E-01  0.10131192685E+01  0.10126506560E+01 0.  0.
     999903    2    3    3    0    0 -0.17438388466E-01 -0.11995911287E+00  0.46574616000E-02  0.12296137105E+00  0.20087823874E-01 0.  0.
         14    1    1    2    0    0  0.14163104542E-01 -0.12653298746E-01 -0.24261114476E-01  0.30810731492E-01  0.00000000000E+00 0. -1.
     999901    1    3    3    0    0  0.32752839231E-02  0.13261241162E+00  0.19603652876E-01  0.89015789746E+00  0.88000000000E+00 0.  1.
        -11    1    4    4    0    0 -0.13352634849E-01 -0.83227934813E-01 -0.59632755979E-02  0.84504460045E-01  0.51100000000E-03 0.  1.
         11    1    4    4    0    0 -0.40857536163E-02 -0.36731178062E-01  0.10620737198E-01  0.38456911005E-01  0.51100000000E-03 0. -1.
</event>
<event>
 8    1  0.1071333E+005  0.1043930E+01  0.7957747E-01            NaN
         13   -1    0    0    0    0  0.00000000000E+00  0.00000000000E+00  0.74505805969E-08  0.10566000000E+00  0.10566000000E+00 0. -1.
     999900   -1    0    0    0    0 -0.00000000000E+00 -0.00000000000E+00 -0.74505805969E-08  0.93827000000E+00  0.93827000000E+00 0.  1.
     999902    2    1    2    0    0  0.10172461818E-01  0.18929885348E-01 -0.10953896930E-01  0.10198093160E+01  0.10195240231E+01 0.  0.
     999903    2    3    3    0    0  0.89107763320E-01  0.79233601268E-01  0.52737578385E-01  0.13193324131E+00  0.20173520635E-01 0.  0.
         14    1    1    2    0    0 -0.10172461818E-01 -0.18929885348E-01  0.10953896930E-01  0.24120684001E-01  0.00000000000E+00 0. -1.
     999901    1    3    3    0    0 -0.78935301502E-01 -0.60303715919E-01 -0.63691475315E-01  0.88787607469E+00  0.88000000000E+00 0. -1.
        -11    1    4    4    0    0  0.45907726398E-01  0.50237226645E-01  0.22112431762E-01  0.71557802114E-01  0.51100000000E-03 0. -1.
         11    1    4    4    0    0  0.43200036922E-01  0.28996374623E-01  0.30625146624E-01  0.60375439196E-01  0.51100000000E-03 0.  1.
</event>
<event>
 8    1  0.1071333E+005  0.1043930E+01  0.7957747E-01            NaN
         13   -1    0    0    0    0  0.00000000000E+00  0.00000000000E+00  0.74505805969E-08  0.10566000000E+00  0.10566000000E+00 0.  1.
     999900   -1    0    0    0    0 -0.00000000000E+00 -0.00000000000E+00 -0.74505805969E-08  0.93827000000E+00  0.93827000000E+00 0. -1.
     999902    2    1    2    0    0 -0.35523062903E-02  0.22559385891E-01  0.67315269113E-02  0.10201212154E+01  0.10198433388E+01 0.  0.
     999903    2    3    3    0    0  0.10276114709E+00  0.66988901528E-01  0.43399268765E-01  0.13185264362E+00  0.21313301540E-01 0.  0.
         14    1    1    2    0    0  0.35523062903E-02 -0.22559385891E-01 -0.67315269113E-02  0.23808784646E-01  0.00000000000E+00 0. -1.
     999901    1    3    3    0    0 -0.10631345338E+00 -0.44429515637E-01 -0.36667741853E-01  0.88826857173E+00  0.88000000000E+00 0. -1.
        -11    1    4    4    0    0  0.21605716523E-01  0.88111023783E-02  0.97661063570E-03  0.23359310797E-01  0.51100000000E-03 0.  1.
         11    1    4    4    0    0  0.81155430566E-01  0.58177799150E-01  0.42422658129E-01  0.10849333283E+00  0.51100000000E-03 0. -1.
</event>
<event>
 8    1  0.1071333E+005  0.1043930E+01  0.7957747E-01            NaN
         13   -1    0    0    0    0  0.00000000000E+00  0.00000000000E+00  0.74505805969E-08  0.10566000000E+00  0.10566000000E+00 0. -1.
     999900   -1    0    0    0    0 -0.00000000000E+00 -0.00000000000E+00 -0.74505805969E-08  0.93827000000E+00  0.93827000000E+00 0. -1.
     999902    2    1    2    0    0 -0.13948274366E-01  0.17752576419E-01  0.84548329833E-02  0.10198220650E+01  0.10195370772E+01 0.  0.
     999903    2    3    3    0    0  0.47883764324E-02 -0.10493765007E+00  0.71828442118E-01  0.12885620257E+00  0.20242452714E-01 0.  0.
         14    1    1    2    0    0  0.13948274366E-01 -0.17752576419E-01 -0.84548329833E-02  0.24107934961E-01  0.00000000000E+00 0.  1.
     999901    1    3    3    0    0 -0.18736650799E-01  0.12269022649E+00 -0.63373609134E-01  0.89096586247E+00  0.88000000000E+00 0. -1.
        -11    1    4    4    0    0 -0.45865595749E-02 -0.65566654798E-01  0.36805790648E-01  0.75332264644E-01  0.51100000000E-03 0.  1.
         11    1    4    4    0    0  0.93749360072E-02 -0.39370995270E-01  0.35022651469E-01  0.53523937922E-01  0.51100000000E-03 0. -1.
</event>
<event>
 8    1  0.1071333E+005  0.1043930E+01  0.7957747E-01            NaN
         13   -1    0    0    0    0  0.00000000000E+00  0.00000000000E+00  0.74505805969E-08  0.10566000000E+00  0.10566000000E+00 0.  1.
     999900   -1    0    0    0    0 -0.00000000000E+00 -0.00000000000E+00 -0.74505805969E-08  0.93827000000E+00  0.93827000000E+00 0. -1.
     999902    2    1    2    0    0 -0.14180892324E-01 -0.39664174446E-02 -0.18692993490E-01  0.10201338201E+01  0.10198562412E+01 0.  0.
     999903    2    3    3    0    0 -0.38588667378E-01  0.46674667969E-01 -0.11653806207E+00  0.13292814127E+00  0.20522206317E-01 0.  0.
         14    1    1    2    0    0  0.14180892324E-01  0.39664174446E-02  0.18692993490E-01  0.23796179946E-01  0.00000000000E+00 0.  1.
     999901    1    3    3    0    0  0.24407775054E-01 -0.50641085414E-01  0.97845068577E-01  0.88720567878E+00  0.88000000000E+00 0.  1.
        -11    1    4    4    0    0 -0.83849159792E-02  0.24768048372E-01 -0.40216614175E-01  0.47972911240E-01  0.51100000000E-03 0.  1.
         11    1    4    4    0    0 -0.30203751399E-01  0.21906619597E-01 -0.76321447892E-01  0.84955230034E-01  0.51100000000E-03 0. -1.
</event>
<event>
 8    1  0.1071333E+005  0.1043930E+01  0.7957747E-01            NaN
         13   -1    0    0    0    0  0.00000000000E+00  0.00000000000E+00  0.74505805969E-08  0.10566000000E+00  0.10566000000E+00 0. -1.
     999900   -1    0    0    0    0 -0.00000000000E+00 -0.00000000000E+00 -0.74505805969E-08  0.93827000000E+00  0.93827000000E+00 0. -1.
     999902    2    1    2    0    0 -0.14080574267E-01 -0.11325444868E-01 -0.17034900919E-01  0.10190962302E+01  0.10187936053E+01 0.  0.
     999903    2    3    3    0    0  0.82915901797E-01  0.89960601637E-01  0.25922978396E-01  0.12695691430E+00  0.21865513057E-01 0.  0.
         14    1    1    2    0    0  0.14080574267E-01  0.11325444868E-01  0.17034900919E-01  0.24833769800E-01  0.00000000000E+00 0. -1.
     999901    1    3    3    0    0 -0.96996476063E-01 -0.10128604650E+00 -0.42957879316E-01  0.89213931590E+00  0.88000000000E+00 0.  1.
        -11    1    4    4    0    0  0.46640532081E-01  0.38858827791E-01  0.20394628513E-01  0.64043342536E-01  0.51100000000E-03 0. -1.
         11    1    4    4    0    0  0.36275369716E-01  0.51101773846E-01  0.55283498832E-02  0.62913571760E-01  0.51100000000E-03 0.  1.
</event>
<event>
 8    1  0.1071333E+005  0.1043930E+01  0.7957747E-01            NaN
         13   -1    0    0    0    0  0.00000000000E+00  0.00000000000E+00  0.74505805969E-08  0.10566000000E+00  0.10566000000E+00 0.  1.
     999900   -1    0    0    0    0 -0.00000000000E+00 -0.00000000000E+00 -0.74505805969E-08  0.93827000000E+00  0.93827000000E+00 0. -1.
     999902    2    1    2    0    0 -0.48379466007E-02 -0.98839171490E-02 -0.21888051986E-01  0.10194313395E+01  0.10191369249E+01 0.  0.
     999903    2    3    3    0    0 -0.87420589029E-01 -0.24367141469E-01 -0.93997771434E-01  0.13250999675E+00  0.22072635445E-01 0.  0.
         14    1    1    2    0    0  0.48379466007E-02  0.98839171490E-02  0.21888051986E-01  0.24498660479E-01  0.00000000000E+00 0.  1.
     999901    1    3    3    0    0  0.82582642428E-01  0.14483224320E-01  0.72109719448E-01  0.88692134277E+00  0.88000000000E+00 0.  1.
        -11    1    4    4    0    0 -0.33380220692E-01 -0.83071189777E-02 -0.51389628390E-01  0.61841752774E-01  0.51100000000E-03 0.  1.
         11    1    4    4    0    0 -0.54040368337E-01 -0.16060022491E-01 -0.42608143045E-01  0.70668243980E-01  0.51100000000E-03 0. -1.
</event>
<event>
 8    1  0.1071333E+005  0.1043930E+01  0.7957747E-01            NaN
         13   -1    0    0    0    0  0.00000000000E+00  0.00000000000E+00  0.74505805969E-08  0.10566000000E+00  0.10566000000E+00 0. -1.
     999900   -1    0    0    0    0 -0.00000000000E+00 -0.00000000000E+00 -0.74505805969E-08  0.93827000000E+00  0.93827000000E+00 0. -1.
     999902    2    1    2    0    0 -0.76009518381E-02 -0.22342556970E-01 -0.70001408612E-02  0.10193136174E+01  0.10190163317E+01 0.  0.
     999903    2    3    3    0    0 -0.56426190857E-01  0.46849316438E-01  0.10371632007E+00  0.12834248765E+00  0.18328819436E-01 0.  0.
         14    1    1    2    0    0  0.76009518381E-02  0.22342556970E-01  0.70001408612E-02  0.24616382612E-01  0.00000000000E+00 0.  1.
     999901    1    3    3    0    0  0.48825239018E-01 -0.69191873408E-01 -0.11071646093E+00  0.89097112974E+00  0.88000000000E+00 0. -1.
        -11    1    4    4    0    0 -0.28970692477E-01  0.35640939423E-01  0.63593868290E-01  0.78447554395E-01  0.51100000000E-03 0.  1.
         11    1    4    4    0    0 -0.27455498380E-01  0.11208377015E-01  0.40122451778E-01  0.49894933252E-01  0.51100000000E-03 0. -1.
</event>
<event>
 8    1  0.1071333E+005  0.1043930E+01  0.7957747E-01            NaN
         13   -1    0    0    0    0  0.00000000000E+00  0.00000000000E+00  0.74505805969E-08  0.10566000000E+00  0.10566000000E+00 0. -1.
     999900   -1    0    0    0    0 -0.00000000000E+00 -0.00000000000E+00 -0.74505805969E-08  0.93827000000E+00  0.93827000000E+00 0.  1.
     999902    2    1    2    0    0  0.68103149039E-02  0.12160831147E-02  0.22468595794E-01  0.10204204903E+01  0.10201496361E+01 0.  0.
     999903    2    3    3    0    0  0.39492112351E-01 -0.55383838082E-01  0.11296373146E+00  0.13336862008E+00  0.19984687572E-01 0.  0.
         14    1    1    2    0    0 -0.68103149039E-02 -0.12160831147E-02 -0.22468595794E-01  0.23509509654E-01  0.00000000000E+00 0.  1.
     999901    1    3    3    0    0 -0.32681797447E-01  0.56599921197E-01 -0.90495135668E-01  0.88705187027E+00  0.88000000000E+00 0.  1.
        -11    1    4    4    0    0  0.13225508775E-01 -0.63213965729E-02  0.31016068834E-01  0.34309354175E-01  0.51100000000E-03 0.  1.
         11    1    4    4    0    0  0.26266603576E-01 -0.49062441510E-01  0.81947662628E-01  0.99059265904E-01  0.51100000000E-03 0. -1.
</event>
<event>
 8    1  0.1071333E+005  0.1043930E+01  0.7957747E-01            NaN
         13   -1    0    0    0    0  0.00000000000E+00  0.00000000000E+00  0.74505805969E-08  0.10566000000E+00  0.10566000000E+00 0. -1.
     999900   -1    0    0    0    0 -0.00000000000E+00 -0.00000000000E+00 -0.74505805969E-08  0.93827000000E+00  0.93827000000E+00 0. -1.
     999902    2    1    2    0    0  0.72611355333E-02 -0.14886025263E-01 -0.16498511178E-01  0.10205522604E+01  0.10202844689E+01 0.  0.
     999903    2    3    3    0    0  0.10683106845E+00  0.40364083068E-01  0.58904960254E-01  0.13001734839E+00  0.19813635538E-01 0.  0.
         14    1    1    2    0    0 -0.72611355333E-02  0.14886025263E-01  0.16498511178E-01  0.23377739593E-01  0.00000000000E+00 0. -1.
     999901    1    3    3    0    0 -0.99569932914E-01 -0.55250108331E-01 -0.75403471432E-01  0.89053491201E+00  0.88000000000E+00 0. -1.
        -11    1    4    4    0    0  0.28401893019E-01  0.54327424231E-02  0.23009422794E-01  0.36957771519E-01  0.51100000000E-03 0. -1.
         11    1    4    4    0    0  0.78429175428E-01  0.34931340645E-01  0.35895537460E-01  0.93059576875E-01  0.51100000000E-03 0.  1.
</event>
<event>
 8    1  0.1071333E+005  0.1043930E+01  0.7957747E-01            NaN
         13   -1    0    0    0    0  0.00000000000E+00  0.00000000000E+00  0.74505805969E-08  0.10566000000E+00  0.10566000000E+00 0.  1.
     999900   -1    0    0    0    0 -0.00000000000E+00 -0.00000000000E+00 -0.74505805969E-08  0.93827000000E+00  0.93827000000E+00 0.  1.
     999902    2    1    2    0    0  0.22885194030E-01  0.70551151316E-02 -0.30634936941E-02  0.10197868488E+01  0.10195010178E+01 0.  0.
     999903    2    3    3    0    0  0.51583403048E-01 -0.11308404784E+00 -0.34676032738E-01  0.13059825335E+00  0.20115347057E-01 0.  0.
         14    1    1    2    0    0 -0.22885194030E-01 -0.70551151316E-02  0.30634936941E-02  0.24143151180E-01  0.00000000000E+00 0.  1.
     999901    1    3    3    0    0 -0.28698209018E-01  0.12013916297E+00  0.31612539044E-01  0.88918859546E+00  0.88000000000E+00 0. -1.
        -11    1    4    4    0    0  0.11988148171E-01 -0.14468443636E-01 -0.10806390169E-01  0.21681576218E-01  0.51100000000E-03 0.  1.
         11    1    4    4    0    0  0.39595254877E-01 -0.98615604204E-01 -0.23869642568E-01  0.10891667714E+00  0.51100000000E-03 0. -1.
</event>
<event>
 8    1  0.1071333E+005  0.1043930E+01  0.7957747E-01            NaN
         13   -1    0    0    0    0  0.00000000000E+00  0.00000000000E+00  0.74505805969E-08  0.10566000000E+00  0.10566000000E+00 0. -1.
     999900   -1    0    0    0    0 -0.00000000000E+00 -0.00000000000E+00 -0.74505805969E-08  0.93827000000E+00  0.93827000000E+00 0. -1.
     999902    2    1    2    0    0 -0.11038906993E-01  0.13121883355E-01  0.15942212811E-01  0.10205164262E+01  0.10202478035E+01 0.  0.
     999903    2    3    3    0    0 -0.50162211149E-01  0.66637305648E-01 -0.98497211967E-01  0.13063389724E+00  0.20167707116E-01 0.  0.
         14    1    1    2    0    0  0.11038906993E-01 -0.13121883355E-01 -0.15942212811E-01  0.23413573834E-01  0.00000000000E+00 0.  1.
     999901    1    3    3    0    0  0.39123304156E-01 -0.53515422294E-01  0.11443942478E+00  0.88988252893E+00  0.88000000000E+00 0. -1.
        -11    1    4    4    0    0 -0.26932938033E-01  0.50834120561E-01 -0.62124878751E-01  0.84671439371E-01  0.51100000000E-03 0. -1.
         11    1    4    4    0    0 -0.23229273116E-01  0.15803185087E-01 -0.36372333216E-01  0.45962457865E-01  0.51100000000E-03 0.  1.
</event>
<event>
 8    1  0.1071333E+005  0.1043930E+01  0.7957747E-01            NaN
         13   -1    0    0    0    0  0.00000000000E+00  0.00000000000E+00  0.74505805969E-08  0.10566000000E+00  0.10566000000E+00 0. -1.
     999900   -1    0    0    0    0 -0.00000000000E+00 -0.00000000000E+00 -0.74505805969E-08  0.93827000000E+00  0.93827000000E+00 0. -1.
     999902    2    1    2    0    0  0.75812209870E-03 -0.82731284705E-02  0.22239799597E-01  0.10201891472E+01  0.10199128728E+01 0.  0.
     999903    2    3    3    0    0 -0.92043136490E-01  0.27439736434E-01  0.88704397924E-01  0.13209848455E+00  0.18885478542E-01 0.  0.
         14    1    1    2    0    0 -0.75812209870E-03  0.82731284705E-02 -0.22239799597E-01  0.23740852763E-01  0.00000000000E+00 0.  1.
     999901    1    3    3    0    0  0.92801258588E-01 -0.35712864905E-01 -0.66464598327E-01  0.88809066268E+00  0.88000000000E+00 0. -1.
        -11    1    4    4    0    0 -0.74523302998E-01  0.28318348120E-01  0.66651661859E-01  0.10391514172E+00  0.51100000000E-03 0. -1.
         11    1    4    4    0    0 -0.17519833492E-01 -0.87861168543E-03  0.22052736066E-01  0.28183342830E-01  0.51100000000E-03 0.  1.
</event>
<event>
 8    1  0.1071333E+005  0.1043930E+01  0.7957747E-01            NaN
         13   -1    0    0    0    0  0.00000000000E+00  0.00000000000E+00  0.74505805969E-08  0.10566000000E+00  0.10566000000E+00 0.  1.
     999900   -1    0    0    0    0 -0.00000000000E+00 -0.00000000000E+00 -0.74505805969E-08  0.93827000000E+00  0.93827000000E+00 0.  1.
     999902    2    1    2    0    0 -0.16405427930E-03  0.14349203675E-01  0.15393502040E-01  0.10228851321E+01  0.10226686203E+01 0.  0.
     999903    2    3    3    0    0  0.13010069719E+00  0.14990154136E-01  0.46940799303E-02  0.13323138264E+00  0.24034783217E-01 0.  0.
         14    1    1    2    0    0  0.16405427930E-03 -0.14349203675E-01 -0.15393502040E-01  0.21044867900E-01  0.00000000000E+00 0. -1.
     999901    1    3    3    0    0 -0.13026475147E+00 -0.64095046081E-03  0.10699422109E-01  0.88965374946E+00  0.88000000000E+00 0. -1.
        -11    1    4    4    0    0  0.68276146185E-01  0.18278167926E-01 -0.35473949404E-02  0.70771241988E-01  0.51100000000E-03 0. -1.
         11    1    4    4    0    0  0.61824551003E-01 -0.32880137906E-02  0.82414748707E-02  0.62460140653E-01  0.51100000000E-03 0.  1.
</event>
<event>
 8    1  0.1071333E+005  0.1043930E+01  0.7957747E-01            NaN
         13   -1    0    0    0    0  0.00000000000E+00  0.00000000000E+00  0.74505805969E-08  0.10566000000E+00  0.10566000000E+00 0.  1.
     999900   -1    0    0    0    0 -0.00000000000E+00 -0.00000000000E+00 -0.74505805969E-08  0.93827000000E+00  0.93827000000E+00 0.  1.
     999902    2    1    2    0    0  0.23347023330E-01 -0.53574412707E-02  0.33185041446E-02  0.10197474000E+01  0.10194606229E+01 0.  0.
     999903    2    3    3    0    0  0.30574228194E-01  0.65327872767E-01  0.10727533929E+00  0.13078414442E+00  0.19848919929E-01 0.  0.
         14    1    1    2    0    0 -0.23347023330E-01  0.53574412707E-02 -0.33185041446E-02  0.24182600049E-01  0.00000000000E+00 0. -1.
     999901    1    3    3    0    0 -0.72272048638E-02 -0.70685314038E-01 -0.10395683514E+00  0.88896325553E+00  0.88000000000E+00 0.  1.
        -11    1    4    4    0    0  0.15210342480E-01  0.13343121628E-01  0.23691502958E-01  0.31159939771E-01  0.51100000000E-03 0. -1.
         11    1    4    4    0    0  0.15363885714E-01  0.51984751139E-01  0.83583836331E-01  0.99624204650E-01  0.51100000000E-03 0.  1.
</event>
<event>
 8    1  0.1071333E+005  0.1043930E+01  0.7957747E-01            NaN
         13   -1    0    0    0    0  0.00000000000E+00  0.00000000000E+00  0.74505805969E-08  0.10566000000E+00  0.10566000000E+00 0. -1.
     999900   -1    0    0    0    0 -0.00000000000E+00 -0.00000000000E+00 -0.74505805969E-08  0.93827000000E+00  0.93827000000E+00 0.  1.
     999902    2    1    2    0    0  0.59660741464E-02 -0.20452766354E-01  0.15579910916E-01  0.10175359985E+01  0.10171936221E+01 0.  0.
     999903    2    3    3    0    0 -0.11727970169E+00  0.13130438494E-01  0.41812451294E-01  0.12792625309E+00  0.26266105587E-01 0.  0.
         14    1    1    2    0    0 -0.59660741464E-02  0.20452766354E-01 -0.15579910916E-01  0.26394001523E-01  0.00000000000E+00 0. -1.
     999901    1    3    3    0    0  0.12324577584E+00 -0.33583204848E-01 -0.26232540378E-01  0.88960974539E+00  0.88000000000E+00 0. -1.
        -11    1    4    4    0    0 -0.29599993764E-01  0.14496237122E-01  0.15092805098E-01  0.36254026097E-01  0.51100000000E-03 0.  1.
         11    1    4    4    0    0 -0.87679707928E-01 -0.13657986276E-02  0.26719646196E-01  0.91672226994E-01  0.51100000000E-03 0. -1.
</event>
<event>
 8    1  0.1071333E+005  0.1043930E+01  0.7957747E-01            NaN
         13   -1    0    0    0    0  0.00000000000E+00  0.00000000000E+00  0.74505805969E-08  0.10566000000E+00  0.10566000000E+00 0. -1.
     999900   -1    0    0    0    0 -0.00000000000E+00 -0.00000000000E+00 -0.74505805969E-08  0.93827000000E+00  0.93827000000E+00 0. -1.
     999902    2    1    2    0    0  0.68385337662E-02 -0.18371540105E-01 -0.13829104771E-01  0.10199399360E+01  0.10196577612E+01 0.  0.
     999903    2    3    3    0    0  0.80581508010E-01 -0.80254805060E-01  0.62051465755E-01  0.13144377639E+00  0.22200648218E-01 0.  0.
         14    1    1    2    0    0 -0.68385337662E-02  0.18371540105E-01  0.13829104771E-01  0.23990063957E-01  0.00000000000E+00 0. -1.
     999901    1    3    3    0    0 -0.73742974244E-01  0.61883264955E-01 -0.75880570525E-01  0.88849615965E+00  0.88000000000E+00 0. -1.
        -11    1    4    4    0    0  0.69156268151E-01 -0.73162327745E-01  0.61502675636E-01  0.11797523408E+00  0.51100000000E-03 0. -1.
         11    1    4    4    0    0  0.11425239860E-01 -0.70924773149E-02  0.54879011859E-03  0.13468542308E-01  0.51100000000E-03 0.  1.
</event>
<event>
 8    1  0.1071333E+005  0.1043930E+01  0.7957747E-01            NaN
         13   -1    0    0    0    0  0.00000000000E+00  0.00000000000E+00  0.74505805969E-08  0.10566000000E+00  0.10566000000E+00 0. -1.
     999900   -1    0    0    0    0 -0.00000000000E+00 -0.00000000000E+00 -0.74505805969E-08  0.93827000000E+00  0.93827000000E+00 0. -1.
     999902    2    1    2    0    0 -0.12493170858E-01 -0.16525686669E-01 -0.10237822754E-01  0.10208217622E+01  0.10205601793E+01 0.  0.
     999903    2    3    3    0    0 -0.16289877192E-01 -0.12881034740E+00 -0.26895851743E-01  0.13352263007E+00  0.15730232114E-01 0.  0.
         14    1    1    2    0    0  0.12493170858E-01  0.16525686669E-01  0.10237822754E-01  0.23108237767E-01  0.00000000000E+00 0. -1.
     999901    1    3    3    0    0  0.37967063334E-02  0.11228466073E+00  0.16658028989E-01  0.88729913217E+00  0.88000000000E+00 0. -1.
        -11    1    4    4    0    0 -0.84851373106E-02 -0.21946173661E-01 -0.28421164944E-02  0.23705924169E-01  0.51100000000E-03 0. -1.
         11    1    4    4    0    0 -0.78047398809E-02 -0.10686417374E+00 -0.24053735249E-01  0.10981670590E+00  0.51100000000E-03 0.  1.
</event>
<event>
 8    1  0.1071333E+005  0.1043930E+01  0.7957747E-01            NaN
         13   -1    0    0    0    0  0.00000000000E+00  0.00000000000E+00  0.74505805969E-08  0.10566000000E+00  0.10566000000E+00 0. -1.
     999900   -1    0    0    0    0 -0.00000000000E+00 -0.00000000000E+00 -0.74505805969E-08  0.93827000000E+00  0.93827000000E+00 0. -1.
     999902    2    1    2    0    0 -0.27826134994E-02 -0.19122069338E-01  0.49920512687E-02  0.10239721181E+01  0.10237776036E+01 0.  0.
     999903    2    3    3    0    0 -0.27066182248E-01  0.68380741850E-01  0.10930306437E+00  0.13317066934E+00  0.19461839965E-01 0.  0.
         14    1    1    2    0    0  0.27826134994E-02  0.19122069338E-01 -0.49920512687E-02  0.19957881890E-01  0.00000000000E+00 0.  1.
     999901    1    3    3    0    0  0.24283568748E-01 -0.87502811189E-01 -0.10431101310E+00  0.89080144877E+00  0.88000000000E+00 0. -1.
        -11    1    4    4    0    0 -0.17923400109E-01  0.35385475357E-01  0.42715947858E-01  0.58294883653E-01  0.51100000000E-03 0.  1.
         11    1    4    4    0    0 -0.91427821387E-02  0.32995266494E-01  0.66587116509E-01  0.74875785687E-01  0.51100000000E-03 0. -1.
</event>
<event>
 8    1  0.1071333E+005  0.1043930E+01  0.7957747E-01            NaN
         13   -1    0    0    0    0  0.00000000000E+00  0.00000000000E+00  0.74505805969E-08  0.10566000000E+00  0.10566000000E+00 0. -1.
     999900   -1    0    0    0    0 -0.00000000000E+00 -0.00000000000E+00 -0.74505805969E-08  0.93827000000E+00  0.93827000000E+00 0.  1.
     999902    2    1    2    0    0 -0.64104938018E-02  0.20062897796E-01 -0.89490006190E-02  0.10210455312E+01  0.10207890467E+01 0.  0.
     999903    2    3    3    0    0  0.12840315519E+00 -0.76336684474E-02 -0.19478995017E-02  0.13032063815E+00  0.20833416901E-01 0.  0.
         14    1    1    2    0    0  0.64104938018E-02 -0.20062897796E-01  0.89490006190E-02  0.22884468769E-01  0.00000000000E+00 0. -1.
     999901    1    3    3    0    0 -0.13481364899E+00  0.27696566243E-01 -0.70011011174E-02  0.89072489308E+00  0.88000000000E+00 0. -1.
        -11    1    4    4    0    0  0.10053018065E+00 -0.10992619649E-02  0.56511615031E-02  0.10069618834E+00  0.51100000000E-03 0. -1.
         11    1    4    4    0    0  0.27872974537E-01 -0.65344064826E-02 -0.75990610047E-02  0.29624449814E-01  0.51100000000E-03 0.  1.
</event>
<event>
 8    1  0.1071333E+005  0.1043930E+01  0.7957747E-01            NaN
         13   -1    0    0    0    0  0.00000000000E+00  0.00000000000E+00  0.74505805969E-08  0.10566000000E+00  0.10566000000E+00 0. -1.
     999900   -1    0    0    0    0 -0.00000000000E+00 -0.00000000000E+00 -0.74505805969E-08  0.93827000000E+00  0.93827000000E+00 0.  1.
     999902    2    1    2    0    0 -0.18576868811E-02  0.30835660149E-02 -0.20295027699E-01  0.10233181702E+01  0.10231105658E+01 0.  0.
     999903    2    3    3    0    0  0.84678011006E-01 -0.76238827117E-01  0.62872915366E-01  0.13163584118E+00  0.19805728703E-01 0.  0.
         14    1    1    2    0    0  0.18576868811E-02 -0.30835660149E-02  0.20295027699E-01  0.20611829837E-01  0.00000000000E+00 0. -1.
     999901    1    3    3    0    0 -0.86535697887E-01  0.79322393132E-01 -0.83167943065E-01  0.89168232898E+00  0.88000000000E+00 0.  1.
        -11    1    4    4    0    0  0.47497638623E-01 -0.36494210501E-01  0.22992863579E-01  0.64162184902E-01  0.51100000000E-03 0.  1.
         11    1    4    4    0    0  0.37180372383E-01 -0.39744616616E-01  0.39880051787E-01  0.67473656282E-01  0.51100000000E-03 0. -1.
</event>
<event>
 8    1  0.1071333E+005  0.1043930E+01  0.7957747E-01            NaN
         13   -1    0    0    0    0  0.00000000000E+00  0.00000000000E+00  0.74505805969E-08  0.10566000000E+00  0.10566000000E+00 0.  1.
     999900   -1    0    0    0    0 -0.00000000000E+00 -0.00000000000E+00 -0.74505805969E-08  0.93827000000E+00  0.93827000000E+00 0. -1.
     999902    2    1    2    0    0  0.20509532479E-01 -0.19496668258E-01 -0.18548321676E-01  0.10100950886E+01  0.10095282496E+01 0.  0.
     999903    2    3    3    0    0  0.38490498867E-01 -0.91187771410E-01 -0.73944791911E-01  0.12526081122E+00  0.20632751140E-01 0.  0.
         14    1    1    2    0    0 -0.20509532479E-01  0.19496668258E-01  0.18548321676E-01  0.33834911447E-01  0.00000000000E+00 0. -1.
     999901    1    3    3    0    0 -0.17980966389E-01  0.71691103153E-01  0.55396470234E-01  0.88483427733E+00  0.88000000000E+00 0.  1.
        -11    1    4    4    0    0  0.24206601819E-01 -0.61986575491E-01 -0.37359110403E-01  0.76316835389E-01  0.51100000000E-03 0. -1.
         11    1    4    4    0    0  0.14283897049E-01 -0.29201195919E-01 -0.36585681507E-01  0.48943975833E-01  0.51100000000E-03 0.  1.
</event>
<event>
 8    1  0.1071333E+005  0.1043930E+01  0.7957747E-01            NaN
         13   -1    0    0    0    0  0.00000000000E+00  0.00000000000E+00  0.74505805969E-08  0.10566000000E+00  0.10566000000E+00 0.  1.
     999900   -1    0    0    0    0 -0.00000000000E+00 -0.00000000000E+00 -0.74505805969E-08  0.93827000000E+00  0.93827000000E+00 0. -1.
     999902    2    1    2    0    0  0.45656892571E-02  0.30191462879E-01  0.62847060408E-02  0.10127552108E+01  0.10122752835E+01 0.  0.
     999903    2    3    3    0    0  0.61460560540E-01  0.67190526112E-02 -0.10508702593E+00  0.12360300615E+00  0.20294677635E-01 0.  0.
         14    1    1    2    0    0 -0.45656892571E-02 -0.30191462879E-01 -0.62847060408E-02  0.31174789160E-01  0.00000000000E+00 0.  1.
     999901    1    3    3    0    0 -0.56894871283E-01  0.23472410268E-01  0.11137173197E+00  0.88915220469E+00  0.88000000000E+00 0.  1.
        -11    1    4    4    0    0  0.38874289141E-01  0.13573548840E-01 -0.61111399276E-01  0.73690676661E-01  0.51100000000E-03 0.  1.
         11    1    4    4    0    0  0.22586271399E-01 -0.68544962286E-02 -0.43975626655E-01  0.49912329489E-01  0.51100000000E-03 0. -1.
</event>
<event>
 8    1  0.1071333E+005  0.1043930E+01  0.7957747E-01            NaN
         13   -1    0    0    0    0  0.00000000000E+00  0.00000000000E+00  0.74505805969E-08  0.10566000000E+00  0.10566000000E+00 0. -1.
     999900   -1    0    0    0    0 -0.00000000000E+00 -0.00000000000E+00 -0.74505805969E-08  0.93827000000E+00  0.93827000000E+00 0.  1.
     999902    2    1    2    0    0  0.15474904855E-01  0.10565302490E-01 -0.15000345307E-01  0.10199277364E+01  0.10196452711E+01 0.  0.
     999903    2    3    3    0    0  0.86047989870E-01  0.55295743371E-01 -0.83105879895E-01  0.13335019526E+00  0.20342357473E-01 0.  0.
         14    1    1    2    0    0 -0.15474904855E-01 -0.10565302490E-01  0.15000345307E-01  0.24002263566E-01  0.00000000000E+00 0.  1.
     999901    1    3    3    0    0 -0.70573085015E-01 -0.44730440881E-01  0.68105534588E-01  0.88657754117E+00  0.88000000000E+00 0. -1.
        -11    1    4    4    0    0  0.67504352803E-01  0.52450557533E-01 -0.66876397290E-01  0.10853852896E+00  0.51100000000E-03 0. -1.
         11    1    4    4    0    0  0.18543637067E-01  0.28451858375E-02 -0.16229482605E-01  0.24811666303E-01  0.51100000000E-03 0.  1.
</event>
<event>
 8    1  0.1071333E+005  0.1043930E+01  0.7957747E-01            NaN
         13   -1    0    0    0    0  0.00000000000E+00  0.00000000000E+00  0.74505805969E-08  0.10566000000E+00  0.10566000000E+00 0.  1.
     999900   -1    0    0    0    0 -0.00000000000E+00 -0.00000000000E+00 -0.74505805969E-08  0.93827000000E+00  0.93827000000E+00 0.  1.
     999902    2    1    2    0    0  0.69392803572E-03 -0.92134508791E-02 -0.23989442290E-01  0.10182227529E+01  0.10178981835E+01 0.  0.
     999903    2    3    3    0    0 -0.64522510432E-01 -0.29155540783E-01 -0.10907058133E+00  0.13149299077E+00  0.19514481741E-01 0.  0.
         14    1    1    2    0    0 -0.69392803572E-03  0.92134508791E-02  0.23989442290E-01  0.25707247122E-01  0.00000000000E+00 0.  1.
     999901    1    3    3    0    0  0.65216438467E-01  0.19942089904E-01  0.85081139042E-01  0.88672976211E+00  0.88000000000E+00 0. -1.
        -11    1    4    4    0    0 -0.35157422717E-01 -0.10990151676E-01 -0.71697669288E-01  0.80607969261E-01  0.51100000000E-03 0.  1.
         11    1    4    4    0    0 -0.29365087715E-01 -0.18165389107E-01 -0.37372912043E-01  0.50885021504E-01  0.51100000000E-03 0. -1.
</event>
<event>
 8    1  0.1071333E+005  0.1043930E+01  0.7957747E-01            NaN
         13   -1    0    0    0    0  0.00000000000E+00  0.00000000000E+00  0.74505805969E-08  0.10566000000E+00  0.10566000000E+00 0.  1.
     999900   -1    0    0    0    0 -0.00000000000E+00 -0.00000000000E+00 -0.74505805969E-08  0.93827000000E+00  0.93827000000E+00 0. -1.
     999902    2    1    2    0    0 -0.11165653325E-01 -0.29047622450E-02 -0.21104583583E-01  0.10198777048E+01  0.10195940466E+01 0.  0.
     999903    2    3    3    0    0  0.12093143822E+00 -0.20888735163E-01 -0.36264955039E-01  0.12970755151E+00  0.21169552421E-01 0.  0.
         14    1    1    2    0    0  0.11165653325E-01  0.29047622450E-02  0.21104583583E-01  0.24052295236E-01  0.00000000000E+00 0.  1.
     999901    1    3    3    0    0 -0.13209709154E+00  0.17983972918E-01  0.15160371456E-01  0.89017015325E+00  0.88000000000E+00 0. -1.
        -11    1    4    4    0    0  0.76175266859E-01 -0.82120881187E-02 -0.13066786019E-01  0.77724588710E-01  0.51100000000E-03 0. -1.
         11    1    4    4    0    0  0.44756171358E-01 -0.12676647044E-01 -0.23198169020E-01  0.51982962803E-01  0.51100000000E-03 0.  1.
</event>
<event>
 8    1  0.1071333E+005  0.1043930E+01  0.7957747E-01            NaN
         13   -1    0    0    0    0  0.00000000000E+00  0.00000000000E+00  0.74505805969E-08  0.10566000000E+00  0.10566000000E+00 0.  1.
     999900   -1    0    0    0    0 -0.00000000000E+00 -0.00000000000E+00 -0.74505805969E-08  0.93827000000E+00  0.93827000000E+00 0.  1.
     999902    2    1    2    0    0  0.79453087660E-02  0.19917810712E-01  0.12320667189E-01  0.10191985230E+01  0.10188984166E+01 0.  0.
     999903    2    3    3    0    0  0.52313618173E-01 -0.10705892004E+00 -0.40563571060E-01  0.12740909735E+00  0.19731897657E-01 0.  0.
         14    1    1    2    0    0 -0.79453087660E-02 -0.19917810712E-01 -0.12320667189E-01  0.24731477006E-01  0.00000000000E+00 0.  1.
     999901    1    3    3    0    0 -0.44368309407E-01  0.12697673075E+00  0.52884238249E-01  0.89178942564E+00  0.88000000000E+00 0. -1.
        -11    1    4    4    0    0  0.53859844981E-01 -0.10088144984E+00 -0.37762096683E-01  0.12043332965E+00  0.51100000000E-03 0.  1.
         11    1    4    4    0    0 -0.15462268083E-02 -0.61774701975E-02 -0.28014743772E-02  0.69757677047E-02  0.51100000000E-03 0. -1.
</event>
<event>
 8    1  0.1071333E+005  0.1043930E+01  0.7957747E-01            NaN
         13   -1    0    0    0    0  0.00000000000E+00  0.00000000000E+00  0.74505805969E-08  0.10566000000E+00  0.10566000000E+00 0.  1.
     999900   -1    0    0    0    0 -0.00000000000E+00 -0.00000000000E+00 -0.74505805969E-08  0.93827000000E+00  0.93827000000E+00 0.  1.
     999902    2    1    2    0    0  0.16525156658E-01  0.82546713165E-02  0.16091620590E-01  0.10194318234E+01  0.10191374206E+01 0.  0.
     999903    2    3    3    0    0  0.56306516936E-01  0.13613100026E-01 -0.11339492283E+00  0.12905098678E+00  0.20976375370E-01 0.  0.
         14    1    1    2    0    0 -0.16525156658E-01 -0.82546713165E-02 -0.16091620590E-01  0.24498176551E-01  0.00000000000E+00 0. -1.
     999901    1    3    3    0    0 -0.39781360278E-01 -0.53584287096E-02  0.12948654342E+00  0.89038083667E+00  0.88000000000E+00 0. -1.
        -11    1    4    4    0    0  0.26013435644E-01  0.33452100133E-02 -0.72697808119E-01  0.77285973438E-01  0.51100000000E-03 0.  1.
         11    1    4    4    0    0  0.30293081293E-01  0.10267890013E-01 -0.40697114708E-01  0.51765013340E-01  0.51100000000E-03 0. -1.
</event>
<event>
 8    1  0.1071333E+005  0.1043930E+01  0.7957747E-01            NaN
         13   -1    0    0    0    0  0.00000000000E+00  0.00000000000E+00  0.74505805969E-08  0.10566000000E+00  0.10566000000E+00 0.  1.
     999900   -1    0    0    0    0 -0.00000000000E+00 -0.00000000000E+00 -0.74505805969E-08  0.93827000000E+00  0.93827000000E+00 0. -1.
     999902    2    1    2    0    0 -0.57308678946E-02  0.76936386624E-02  0.22219886941E-01  0.10197275559E+01  0.10194403023E+01 0.  0.
     999903    2    3    3    0    0 -0.10847654589E+00 -0.44329339309E-01 -0.50682132127E-01  0.12923456385E+00  0.20016059684E-01 0.  0.
         14    1    1    2    0    0  0.57308678946E-02 -0.76936386624E-02 -0.22219886941E-01  0.24202444058E-01  0.00000000000E+00 0. -1.
     999901    1    3    3    0    0  0.10274567799E+00  0.52022977971E-01  0.72902019068E-01  0.89049299209E+00  0.88000000000E+00 0.  1.
        -11    1    4    4    0    0 -0.49015443535E-01 -0.13965442855E-01 -0.30877117867E-01  0.59591986272E-01  0.51100000000E-03 0.  1.
         11    1    4    4    0    0 -0.59461102351E-01 -0.30363896454E-01 -0.19805014260E-01  0.69642577577E-01  0.51100000000E-03 0. -1.
</event>
<event>
 8    1  0.1071333E+005  0.1043930E+01  0.7957747E-01            NaN
         13   -1    0    0    0    0  0.00000000000E+00  0.00000000000E+00  0.74505805969E-08  0.10566000000E+00  0.10566000000E+00 0.  1.
     999900   -1    0    0    0    0 -0.00000000000E+00 -0.00000000000E+00 -0.74505805969E-08  0.93827000000E+00  0.93827000000E+00 0. -1.
     999902    2    1    2    0    0  0.14044305099E-01 -0.18241624211E-01  0.63255244022E-02  0.10200550839E+01  0.10197756433E+01 0.  0.
     999903    2    3    3    0    0  0.21116406041E-02  0.95061112382E-01  0.85111797024E-01  0.12921998393E+00  0.20315317866E-01 0.  0.
         14    1    1    2    0    0 -0.14044305099E-01  0.18241624211E-01 -0.63255244022E-02  0.23874916095E-01  0.00000000000E+00 0. -1.
     999901    1    3    3    0    0  0.11932664495E-01 -0.11330273659E+00 -0.78786272621E-01  0.89083509998E+00  0.88000000000E+00 0. -1.
        -11    1    4    4    0    0 -0.27312243567E-02  0.51315968196E-01  0.33303168259E-01  0.61238470878E-01  0.51100000000E-03 0.  1.
         11    1    4    4    0    0  0.48428649608E-02  0.43745144186E-01  0.51808628765E-01  0.67981513048E-01  0.51100000000E-03 0. -1.
</event>
<event>
 8    1  0.1071333E+005  0.1043930E+01  0.7957747E-01            NaN
         13   -1    0    0    0    0  0.00000000000E+00  0.00000000000E+00  0.74505805969E-08  0.10566000000E+00  0.10566000000E+00 0.  1.
     999900   -1    0    0    0    0 -0.00000000000E+00 -0.00000000000E+00 -0.74505805969E-08  0.93827000000E+00  0.93827000000E+00 0.  1.
     999902    2    1    2    0    0  0.68995994036E-02 -0.19350442822E-01 -0.12212019466E-01  0.10200306793E+01  0.10197506603E+01 0.  0.
     999903    2    3    3    0    0 -0.12384708844E+00 -0.38869030173E-02  0.30445073817E-01  0.12921451139E+00  0.20402894527E-01 0.  0.
         14    1    1    2    0    0 -0.68995994036E-02  0.19350442822E-01  0.12212019466E-01  0.23899320676E-01  0.00000000000E+00 0.  1.
     999901    1    3    3    0    0  0.13074668784E+00 -0.15463539804E-01 -0.42657093283E-01  0.89081616793E+00  0.88000000000E+00 0.  1.
        -11    1    4    4    0    0 -0.10240363241E+00 -0.67230288215E-02  0.32064152064E-01  0.10751778465E+00  0.51100000000E-03 0. -1.
         11    1    4    4    0    0 -0.21443456029E-01  0.28361258042E-02 -0.16190782474E-02  0.21696726744E-01  0.51100000000E-03 0.  1.
</event>
<event>
 8    1  0.1071333E+005  0.1043930E+01  0.7957747E-01            NaN
         13   -1    0    0    0    0  0.00000000000E+00  0.00000000000E+00  0.74505805969E-08  0.10566000000E+00  0.10566000000E+00 0.  1.
     999900   -1    0    0    0    0 -0.00000000000E+00 -0.00000000000E+00 -0.74505805969E-08  0.93827000000E+00  0.93827000000E+00 0. -1.
     999902    2    1    2    0    0  0.10376660209E-01 -0.18852383466E-01 -0.11726278694E-02  0.10223786080E+01  0.10221514348E+01 0.  0.
     999903    2    3    3    0    0  0.48160591087E-01  0.79639802200E-01  0.90537768983E-01  0.13134598632E+00  0.19817665906E-01 0.  0.
         14    1    1    2    0    0 -0.10376660209E-01  0.18852383466E-01  0.11726278694E-02  0.21551391963E-01  0.00000000000E+00 0.  1.
     999901    1    3    3    0    0 -0.37783930879E-01 -0.98492185666E-01 -0.91710396853E-01  0.89103262172E+00  0.88000000000E+00 0. -1.
        -11    1    4    4    0    0  0.22540607137E-01  0.41786179337E-01  0.32822192529E-01  0.57721063720E-01  0.51100000000E-03 0. -1.
         11    1    4    4    0    0  0.25619983950E-01  0.37853622863E-01  0.57715576455E-01  0.73624922601E-01  0.51100000000E-03 0.  1.
</event>
<event>
 8    1  0.1071333E+005  0.1043930E+01  0.7957747E-01            NaN
         13   -1    0    0    0    0  0.00000000000E+00  0.00000000000E+00  0.74505805969E-08  0.10566000000E+00  0.10566000000E+00 0. -1.
     999900   -1    0    0    0    0 -0.00000000000E+00 -0.00000000000E+00 -0.74505805969E-08  0.93827000000E+00  0.93827000000E+00 0. -1.
     999902    2    1    2    0    0 -0.12497226682E-01  0.17983388528E-01  0.65373584101E-02  0.10210756789E+01  0.10208198774E+01 0.  0.
     999903    2    3    3    0    0 -0.12678115454E+00  0.35553810837E-01  0.10164042976E-01  0.13350444867E+00  0.19560046848E-01 0.  0.
         14    1    1    2    0    0  0.12497226682E-01 -0.17983388528E-01 -0.65373584101E-02  0.22854321094E-01  0.00000000000E+00 0.  1.
     999901    1    3    3    0    0  0.11428392786E+00 -0.17570422309E-01 -0.36266845661E-02  0.88757123024E+00  0.88000000000E+00 0.  1.
        -11    1    4    4    0    0 -0.11484618129E+00  0.31173893304E-01  0.14891333585E-01  0.11993110488E+00  0.51100000000E-03 0.  1.
         11    1    4    4    0    0 -0.11934973248E-01  0.43799175332E-02 -0.47272906088E-02  0.13573343786E-01  0.51100000000E-03 0. -1.
</event>
<event>
 8    1  0.1071333E+005  0.1043930E+01  0.7957747E-01            NaN
         13   -1    0    0    0    0  0.00000000000E+00  0.00000000000E+00  0.74505805969E-08  0.10566000000E+00  0.10566000000E+00 0.  1.
     999900   -1    0    0    0    0 -0.00000000000E+00 -0.00000000000E+00 -0.74505805969E-08  0.93827000000E+00  0.93827000000E+00 0. -1.
     999902    2    1    2    0    0 -0.27260651515E-01 -0.78456503165E-02 -0.89817544217E-02  0.10141748448E+01  0.10137382535E+01 0.  0.
     999903    2    3    3    0    0  0.11749259292E+00  0.13156074005E-01 -0.22715443936E-01  0.12199594544E+00  0.19733920940E-01 0.  0.
         14    1    1    2    0    0  0.27260651515E-01  0.78456503165E-02  0.89817544217E-02  0.29755155224E-01  0.00000000000E+00 0.  1.
     999901    1    3    3    0    0 -0.14475324443E+00 -0.21001724321E-01  0.13733689515E-01  0.89217889934E+00  0.88000000000E+00 0. -1.
        -11    1    4    4    0    0  0.10500369405E+00  0.53858293394E-02 -0.20147895841E-01  0.10705597484E+00  0.51100000000E-03 0. -1.
         11    1    4    4    0    0  0.12488898872E-01  0.77702446651E-02 -0.25675480957E-02  0.14939970596E-01  0.51100000000E-03 0.  1.
</event>
<event>
 8    1  0.1071333E+005  0.1043930E+01  0.7957747E-01            NaN
         13   -1    0    0    0    0  0.00000000000E+00  0.00000000000E+00  0.74505805969E-08  0.10566000000E+00  0.10566000000E+00 0.  1.
     999900   -1    0    0    0    0 -0.00000000000E+00 -0.00000000000E+00 -0.74505805969E-08  0.93827000000E+00  0.93827000000E+00 0.  1.
     999902    2    1    2    0    0 -0.96608328477E-02 -0.22736358446E-01 -0.10399902061E-02  0.10192044006E+01  0.10189044386E+01 0.  0.
     999903    2    3    3    0    0 -0.11009742506E+00 -0.47717194637E-01 -0.51040578818E-01  0.13172955019E+00  0.18685824501E-01 0.  0.
         14    1    1    2    0    0  0.96608328477E-02  0.22736358446E-01  0.10399902061E-02  0.24725599413E-01  0.00000000000E+00 0. -1.
     999901    1    3    3    0    0  0.10043659221E+00  0.24980836191E-01  0.50000588612E-01  0.88747485040E+00  0.88000000000E+00 0. -1.
        -11    1    4    4    0    0 -0.54669232228E-01 -0.14172630023E-01 -0.20296640800E-01  0.60015024310E-01  0.51100000000E-03 0. -1.
         11    1    4    4    0    0 -0.55428192832E-01 -0.33544564614E-01 -0.30743938018E-01  0.71714525876E-01  0.51100000000E-03 0.  1.
</event>
<event>
 8    1  0.1071333E+005  0.1043930E+01  0.7957747E-01            NaN
         13   -1    0    0    0    0  0.00000000000E+00  0.00000000000E+00  0.74505805969E-08  0.10566000000E+00  0.10566000000E+00 0. -1.
     999900   -1    0    0    0    0 -0.00000000000E+00 -0.00000000000E+00 -0.74505805969E-08  0.93827000000E+00  0.93827000000E+00 0.  1.
     999902    2    1    2    0    0 -0.19924102005E-01  0.32521213769E-02  0.10438859913E-01  0.10212030132E+01  0.10209500860E+01 0.  0.
     999903    2    3    3    0    0 -0.24604008927E-01 -0.12238100859E+00 -0.34543908315E-01  0.13113052493E+00  0.20480831245E-01 0.  0.
         14    1    1    2    0    0  0.19924102005E-01 -0.32521213769E-02 -0.10438859913E-01  0.22726986831E-01  0.00000000000E+00 0.  1.
     999901    1    3    3    0    0  0.46799069224E-02  0.12563312997E+00  0.44982768228E-01  0.89007248823E+00  0.88000000000E+00 0. -1.
        -11    1    4    4    0    0 -0.41861481984E-02 -0.51975812121E-01 -0.22695262436E-01  0.56871301554E-01  0.51100000000E-03 0. -1.
         11    1    4    4    0    0 -0.20417860729E-01 -0.70405196472E-01 -0.11848645879E-01  0.74259223381E-01  0.51100000000E-03 0.  1.
</event>
<event>
 8    1  0.1153705E+005  0.1043930E+01  0.7957747E-01            NaN
         13   -1    0    0    0    0  0.00000000000E+00  0.00000000000E+00  0.74505805969E-08  0.10566000000E+00  0.10566000000E+00 0.  1.
     999900   -1    0    0    0    0 -0.00000000000E+00 -0.00000000000E+00 -0.74505805969E-08  0.93827000000E+00  0.93827000000E+00 0.  1.
     999902    2    1    2    0    0  0.70405912706E-02 -0.22232724994E-01  0.37214137034E-02  0.10203140540E+01  0.10200407128E+01 0.  0.
     999903    2    3    3    0    0 -0.10240254017E+00 -0.32299305405E-01 -0.70930032184E-01  0.13034103561E+00  0.20692770152E-01 0.  0.
         14    1    1    2    0    0 -0.70405912706E-02  0.22232724994E-01 -0.37214137034E-02  0.23615946012E-01  0.00000000000E+00 0.  1.
     999901    1    3    3    0    0  0.10944313144E+00  0.10066580411E-01  0.74651445887E-01  0.88997301837E+00  0.88000000000E+00 0. -1.
        -11    1    4    4    0    0 -0.52577434380E-01 -0.25710118366E-01 -0.31560280621E-01  0.66495933908E-01  0.51100000000E-03 0. -1.
         11    1    4    4    0    0 -0.49825105789E-01 -0.65891870381E-02 -0.39369751563E-01  0.63845101706E-01  0.51100000000E-03 0.  1.
</event>
<event>
 8    1  0.1071333E+005  0.1043930E+01  0.7957747E-01            NaN
         13   -1    0    0    0    0  0.00000000000E+00  0.00000000000E+00  0.74505805969E-08  0.10566000000E+00  0.10566000000E+00 0.  1.
     999900   -1    0    0    0    0 -0.00000000000E+00 -0.00000000000E+00 -0.74505805969E-08  0.93827000000E+00  0.93827000000E+00 0. -1.
     999902    2    1    2    0    0 -0.12434705924E-01  0.73992882811E-02 -0.18538984278E-01  0.10204126592E+01  0.10201416224E+01 0.  0.
     999903    2    3    3    0    0 -0.10675860500E+00 -0.63734211281E-02  0.72600408541E-01  0.13058510606E+00  0.18537269661E-01 0.  0.
         14    1    1    2    0    0  0.12434705924E-01 -0.73992882811E-02  0.18538984278E-01  0.23517340763E-01  0.00000000000E+00 0.  1.
     999901    1    3    3    0    0  0.94323899078E-01  0.13772709409E-01 -0.91139392820E-01  0.88982755317E+00  0.88000000000E+00 0. -1.
        -11    1    4    4    0    0 -0.23478273922E-01 -0.91731701821E-02  0.17239782580E-01  0.30542554280E-01  0.51100000000E-03 0. -1.
         11    1    4    4    0    0 -0.83280331081E-01  0.27997490540E-02  0.55360625962E-01  0.10004255178E+00  0.51100000000E-03 0.  1.
</event>
<event>
 8    1  0.1071333E+005  0.1043930E+01  0.7957747E-01            NaN
         13   -1    0    0    0    0  0.00000000000E+00  0.00000000000E+00  0.74505805969E-08  0.10566000000E+00  0.10566000000E+00 0.  1.
     999900   -1    0    0    0    0 -0.00000000000E+00 -0.00000000000E+00 -0.74505805969E-08  0.93827000000E+00  0.93827000000E+00 0.  1.
     999902    2    1    2    0    0 -0.12040207253E-01  0.27458481552E-02 -0.20223467705E-01  0.10202341160E+01  0.10199588994E+01 0.  0.
     999903    2    3    3    0    0 -0.54234085774E-01 -0.38004294469E-01  0.10864002927E+00  0.12891672114E+00  0.20765417719E-01 0.  0.
         14    1    1    2    0    0  0.12040207253E-01 -0.27458481552E-02  0.20223467705E-01  0.23695884006E-01  0.00000000000E+00 0.  1.
     999901    1    3    3    0    0  0.42193878520E-01  0.40750142624E-01 -0.12886349698E+00  0.89131739485E+00  0.88000000000E+00 0.  1.
        -11    1    4    4    0    0 -0.29069472360E-01 -0.25850369040E-01  0.79669347179E-01  0.88660824515E-01  0.51100000000E-03 0. -1.
         11    1    4    4    0    0 -0.25164613414E-01 -0.12153925429E-01  0.28970682091E-01  0.40255896629E-01  0.51100000000E-03 0.  1.
</event>
<event>
 8    1  0.1071333E+005  0.1043930E+01  0.7957747E-01            NaN
         13   -1    0    0    0    0  0.00000000000E+00  0.00000000000E+00  0.74505805969E-08  0.10566000000E+00  0.10566000000E+00 0.  1.
     999900   -1    0    0    0    0 -0.00000000000E+00 -0.00000000000E+00 -0.74505805969E-08  0.93827000000E+00  0.93827000000E+00 0.  1.
     999902    2    1    2    0    0 -0.12535621842E-01  0.18469923762E-01  0.67543709669E-02  0.10206083057E+01  0.10203418115E+01 0.  0.
     999903    2    3    3    0    0  0.11774509003E+00  0.52190395085E-01 -0.36616428679E-02  0.13031698964E+00  0.19528609631E-01 0.  0.
         14    1    1    2    0    0  0.12535621842E-01 -0.18469923762E-01 -0.67543709669E-02  0.23321694319E-01  0.00000000000E+00 0.  1.
     999901    1    3    3    0    0 -0.13028071188E+00 -0.33720471323E-01  0.10416013835E-01  0.89029131604E+00  0.88000000000E+00 0. -1.
        -11    1    4    4    0    0  0.18749991405E-01  0.16654777523E-01 -0.83965120735E-03  0.25098006439E-01  0.51100000000E-03 0.  1.
         11    1    4    4    0    0  0.98995098629E-01  0.35535617562E-01 -0.28219916605E-02  0.10521898320E+00  0.51100000000E-03 0. -1.
</event>
<event>
 8    1  0.1071333E+005  0.1043930E+01  0.7957747E-01            NaN
         13   -1    0    0    0    0  0.00000000000E+00  0.00000000000E+00  0.74505805969E-08  0.10566000000E+00  0.10566000000E+00 0.  1.
     999900   -1    0    0    0    0 -0.00000000000E+00 -0.00000000000E+00 -0.74505805969E-08  0.93827000000E+00  0.93827000000E+00 0. -1.
     999902    2    1    2    0    0  0.28126510725E-02 -0.19493504769E-01  0.65195120349E-02  0.10231836323E+01  0.10229732810E+01 0.  0.
     999903    2    3    3    0    0 -0.10764286105E+00 -0.77520607873E-01 -0.44614303792E-02  0.13431460601E+00  0.20593174772E-01 0.  0.
         14    1    1    2    0    0 -0.28126510725E-02  0.19493504769E-01 -0.65195120349E-02  0.20746367668E-01  0.00000000000E+00 0. -1.
     999901    1    3    3    0    0  0.11045551212E+00  0.58027103104E-01  0.10980942414E-01  0.88886902632E+00  0.88000000000E+00 0.  1.
        -11    1    4    4    0    0 -0.29001865282E-01 -0.22086019955E-01  0.79096530576E-02  0.37305819918E-01  0.51100000000E-03 0. -1.
         11    1    4    4    0    0 -0.78640995769E-01 -0.55434587918E-01 -0.12371083437E-01  0.97008786095E-01  0.51100000000E-03 0.  1.
</event>
<event>
 8    1  0.1071333E+005  0.1043930E+01  0.7957747E-01            NaN
         13   -1    0    0    0    0  0.00000000000E+00  0.00000000000E+00  0.74505805969E-08  0.10566000000E+00  0.10566000000E+00 0. -1.
     999900   -1    0    0    0    0 -0.00000000000E+00 -0.00000000000E+00 -0.74505805969E-08  0.93827000000E+00  0.93827000000E+00 0. -1.
     999902    2    1    2    0    0  0.93393731304E-02  0.35620986731E-02 -0.34185130172E-01  0.10083134931E+01  0.10076842585E+01 0.  0.
     999903    2    3    3    0    0  0.39990429930E-01 -0.10745604726E+00  0.24068700622E-01  0.11889906508E+00  0.20289128791E-01 0.  0.
         14    1    1    2    0    0 -0.93393731304E-02 -0.35620986731E-02  0.34185130172E-01  0.35616506880E-01  0.00000000000E+00 0. -1.
     999901    1    3    3    0    0 -0.30651056799E-01  0.11101814594E+00 -0.58253830794E-01  0.88941442804E+00  0.88000000000E+00 0. -1.
        -11    1    4    4    0    0  0.14850439405E-01 -0.33792764594E-01  0.17301395357E-01  0.40768687637E-01  0.51100000000E-03 0.  1.
         11    1    4    4    0    0  0.25139990525E-01 -0.73663282670E-01  0.67673052652E-02  0.78130377439E-01  0.51100000000E-03 0. -1.
</event>
<event>
 8    1  0.1071333E+005  0.1043930E+01  0.7957747E-01            NaN
         13   -1    0    0    0    0  0.00000000000E+00  0.00000000000E+00  0.74505805969E-08  0.10566000000E+00  0.10566000000E+00 0.  1.
     999900   -1    0    0    0    0 -0.00000000000E+00 -0.00000000000E+00 -0.74505805969E-08  0.93827000000E+00  0.93827000000E+00 0. -1.
     999902    2    1    2    0    0 -0.22770689431E-01 -0.16282591882E-02  0.80661371259E-02  0.10197180589E+01  0.10194305771E+01 0.  0.
     999903    2    3    3    0    0  0.55060196660E-01 -0.11142698640E+00  0.29205444016E-01  0.12923488799E+00  0.20027475081E-01 0.  0.
         14    1    1    2    0    0  0.22770689431E-01  0.16282591882E-02 -0.80661371259E-02  0.24211941130E-01  0.00000000000E+00 0. -1.
     999901    1    3    3    0    0 -0.77830886091E-01  0.10979872721E+00 -0.21139306890E-01  0.89048317088E+00  0.88000000000E+00 0. -1.
        -11    1    4    4    0    0  0.30398349839E-01 -0.52296631845E-01  0.48260190555E-02  0.60684009065E-01  0.51100000000E-03 0.  1.
         11    1    4    4    0    0  0.24661846821E-01 -0.59130354558E-01  0.24379424961E-01  0.68550878923E-01  0.51100000000E-03 0. -1.
</event>
<event>
 8    1  0.1071333E+005  0.1043930E+01  0.7957747E-01            NaN
         13   -1    0    0    0    0  0.00000000000E+00  0.00000000000E+00  0.74505805969E-08  0.10566000000E+00  0.10566000000E+00 0.  1.
     999900   -1    0    0    0    0 -0.00000000000E+00 -0.00000000000E+00 -0.74505805969E-08  0.93827000000E+00  0.93827000000E+00 0.  1.
     999902    2    1    2    0    0  0.18279344588E-01 -0.10862154182E-01 -0.96718757041E-02  0.10205705049E+01  0.10203031361E+01 0.  0.
     999903    2    3    3    0    0  0.93511725847E-01  0.82953077594E-01 -0.37383878714E-01  0.13195969919E+00  0.19752262379E-01 0.  0.
         14    1    1    2    0    0 -0.18279344588E-01  0.10862154182E-01  0.96718757041E-02  0.23359495108E-01  0.00000000000E+00 0. -1.
     999901    1    3    3    0    0 -0.75232381259E-01 -0.93815231776E-01  0.27712003010E-01  0.88861080570E+00  0.88000000000E+00 0. -1.
        -11    1    4    4    0    0  0.75484096169E-01  0.76300924166E-01 -0.31690771467E-01  0.11191177740E+00  0.51100000000E-03 0.  1.
         11    1    4    4    0    0  0.18027629677E-01  0.66521534280E-02 -0.56931072470E-02  0.20047921791E-01  0.51100000000E-03 0. -1.
</event>
<event>
 8    1  0.1071333E+005  0.1043930E+01  0.7957747E-01            NaN
         13   -1    0    0    0    0  0.00000000000E+00  0.00000000000E+00  0.74505805969E-08  0.10566000000E+00  0.10566000000E+00 0. -1.
     999900   -1    0    0    0    0 -0.00000000000E+00 -0.00000000000E+00 -0.74505805969E-08  0.93827000000E+00  0.93827000000E+00 0.  1.
     999902    2    1    2    0    0 -0.36949949913E-02  0.19316294760E-01 -0.12238565374E-01  0.10207663493E+01  0.10205034959E+01 0.  0.
     999903    2    3    3    0    0 -0.33463083186E-01  0.17655620708E-01 -0.12583947241E+00  0.13296340777E+00  0.20302613405E-01 0.  0.
         14    1    1    2    0    0  0.36949949913E-02 -0.19316294760E-01  0.12238565374E-01  0.23163650698E-01  0.00000000000E+00 0.  1.
     999901    1    3    3    0    0  0.29768088195E-01  0.16606740525E-02  0.11360090703E+00  0.88780294153E+00  0.88000000000E+00 0. -1.
        -11    1    4    4    0    0 -0.30465041206E-01  0.19751463414E-01 -0.91743678984E-01  0.98668144795E-01  0.51100000000E-03 0.  1.
         11    1    4    4    0    0 -0.29980419804E-02 -0.20958427064E-02 -0.34095793424E-01  0.34295262975E-01  0.51100000000E-03 0. -1.
</event>
<event>
 8    1  0.1071333E+005  0.1043930E+01  0.7957747E-01            NaN
         13   -1    0    0    0    0  0.00000000000E+00  0.00000000000E+00  0.74505805969E-08  0.10566000000E+00  0.10566000000E+00 0. -1.
     999900   -1    0    0    0    0 -0.00000000000E+00 -0.00000000000E+00 -0.74505805969E-08  0.93827000000E+00  0.93827000000E+00 0. -1.
     999902    2    1    2    0    0  0.10078537359E-01  0.12663360455E-01  0.15817154263E-01  0.10212999319E+01  0.10210491814E+01 0.  0.
     999903    2    3    3    0    0 -0.26683352619E-01 -0.18075286534E-01 -0.12339497161E+00  0.12906884246E+00  0.19842625472E-01 0.  0.
         14    1    1    2    0    0 -0.10078537359E-01 -0.12663360455E-01 -0.15817154263E-01  0.22630068102E-01  0.00000000000E+00 0.  1.
     999901    1    3    3    0    0  0.36761889979E-01  0.30738646990E-01  0.13921212587E+00  0.89223108944E+00  0.88000000000E+00 0.  1.
        -11    1    4    4    0    0  0.42958090715E-03 -0.50427569874E-02 -0.41711648569E-01  0.42020669737E-01  0.51100000000E-03 0.  1.
         11    1    4    4    0    0 -0.27112933527E-01 -0.13032529547E-01 -0.81683323037E-01  0.87048172722E-01  0.51100000000E-03 0. -1.
</event>
<event>
 8    1  0.1071333E+005  0.1043930E+01  0.7957747E-01            NaN
         13   -1    0    0    0    0  0.00000000000E+00  0.00000000000E+00  0.74505805969E-08  0.10566000000E+00  0.10566000000E+00 0. -1.
     999900   -1    0    0    0    0 -0.00000000000E+00 -0.00000000000E+00 -0.74505805969E-08  0.93827000000E+00  0.93827000000E+00 0. -1.
     999902    2    1    2    0    0 -0.18348274651E-01 -0.12605661236E-01  0.76613481149E-02  0.10203873125E+01  0.10201156844E+01 0.  0.
     999903    2    3    3    0    0  0.69375577376E-01  0.57788975678E-01  0.90753781502E-01  0.12934565717E+00  0.18480089972E-01 0.  0.
         14    1    1    2    0    0  0.18348274651E-01  0.12605661236E-01 -0.76613481149E-02  0.23542687460E-01  0.00000000000E+00 0.  1.
     999901    1    3    3    0    0 -0.87723852028E-01 -0.70394636915E-01 -0.83092433387E-01  0.89104165537E+00  0.88000000000E+00 0. -1.
        -11    1    4    4    0    0  0.31023304310E-01  0.14328230512E-01  0.35020420236E-01  0.48932959796E-01  0.51100000000E-03 0. -1.
         11    1    4    4    0    0  0.38352273066E-01  0.43460745166E-01  0.55733361266E-01  0.80412697373E-01  0.51100000000E-03 0.  1.
</event>
<event>
 8    1  0.1071333E+005  0.1043930E+01  0.7957747E-01            NaN
         13   -1    0    0    0    0  0.00000000000E+00  0.00000000000E+00  0.74505805969E-08  0.10566000000E+00  0.10566000000E+00 0. -1.
     999900   -1    0    0    0    0 -0.00000000000E+00 -0.00000000000E+00 -0.74505805969E-08  0.93827000000E+00  0.93827000000E+00 0.  1.
     999902    2    1    2    0    0  0.16185615646E-01  0.10230550482E-01  0.12637756216E-01  0.10209876549E+01  0.10207298566E+01 0.  0.
     999903    2    3    3    0    0 -0.90881070274E-01  0.90704323435E-01 -0.12696910512E-01  0.13049276512E+00  0.19506588327E-01 0.  0.
         14    1    1    2    0    0 -0.16185615646E-01 -0.10230550482E-01 -0.12637756216E-01  0.22942345111E-01  0.00000000000E+00 0.  1.
     999901    1    3    3    0    0  0.10706668592E+00 -0.80473772953E-01  0.25334666728E-01  0.89049488977E+00  0.88000000000E+00 0. -1.
        -11    1    4    4    0    0 -0.45951235830E-01  0.32557398693E-01 -0.76389428483E-02  0.56834099384E-01  0.51100000000E-03 0.  1.
         11    1    4    4    0    0 -0.44929834444E-01  0.58146924742E-01 -0.50579676639E-02  0.73658665736E-01  0.51100000000E-03 0. -1.
</event>
<event>
 8    1  0.1071333E+005  0.1043930E+01  0.7957747E-01            NaN
         13   -1    0    0    0    0  0.00000000000E+00  0.00000000000E+00  0.74505805969E-08  0.10566000000E+00  0.10566000000E+00 0.  1.
     999900   -1    0    0    0    0 -0.00000000000E+00 -0.00000000000E+00 -0.74505805969E-08  0.93827000000E+00  0.93827000000E+00 0. -1.
     999902    2    1    2    0    0  0.50107812464E-02  0.16997499251E-01  0.16168105504E-01  0.10199418666E+01  0.10196597377E+01 0.  0.
     999903    2    3    3    0    0 -0.78660690085E-01  0.97251507335E-01  0.37391524578E-01  0.13208373915E+00  0.20065597251E-01 0.  0.
         14    1    1    2    0    0 -0.50107812464E-02 -0.16997499251E-01 -0.16168105504E-01  0.23988133423E-01  0.00000000000E+00 0. -1.
     999901    1    3    3    0    0  0.83671471332E-01 -0.80254008083E-01 -0.21223419073E-01  0.88785812743E+00  0.88000000000E+00 0.  1.
        -11    1    4    4    0    0 -0.43390273886E-01  0.38147801871E-01  0.19308511436E-01  0.60918391233E-01  0.51100000000E-03 0. -1.
         11    1    4    4    0    0 -0.35270416199E-01  0.59103705463E-01  0.18083013142E-01  0.71165347914E-01  0.51100000000E-03 0.  1.
</event>
<event>
 8    1  0.1071333E+005  0.1043930E+01  0.7957747E-01            NaN
         13   -1    0    0    0    0  0.00000000000E+00  0.00000000000E+00  0.74505805969E-08  0.10566000000E+00  0.10566000000E+00 0.  1.
     999900   -1    0    0    0    0 -0.00000000000E+00 -0.00000000000E+00 -0.74505805969E-08  0.93827000000E+00  0.93827000000E+00 0.  1.
     999902    2    1    2    0    0  0.44809181427E-02 -0.23719796447E-01 -0.25600826874E-02  0.10196552931E+01  0.10193663009E+01 0.  0.
     999903    2    3    3    0    0 -0.57061118638E-02 -0.11018447069E+00 -0.71138615973E-01  0.13270381152E+00  0.19401587975E-01 0.  0.
         14    1    1    2    0    0 -0.44809181427E-02  0.23719796447E-01  0.25600826874E-02  0.24274706883E-01  0.00000000000E+00 0. -1.
     999901    1    3    3    0    0  0.10187030007E-01  0.86464674246E-01  0.68578533286E-01  0.88695148159E+00  0.88000000000E+00 0.  1.
        -11    1    4    4    0    0  0.53236208890E-02 -0.18979880313E-01 -0.17220556376E-01  0.26179867818E-01  0.51100000000E-03 0.  1.
         11    1    4    4    0    0 -0.11029732753E-01 -0.91204590380E-01 -0.53918059597E-01  0.10652394371E+00  0.51100000000E-03 0. -1.
</event>
<event>
 8    1  0.1071333E+005  0.1043930E+01  0.7957747E-01            NaN
         13   -1    0    0    0    0  0.00000000000E+00  0.00000000000E+00  0.74505805969E-08  0.10566000000E+00  0.10566000000E+00 0. -1.
     999900   -1    0    0    0    0 -0.00000000000E+00 -0.00000000000E+00 -0.74505805969E-08  0.93827000000E+00  0.93827000000E+00 0.  1.
     999902    2    1    2    0    0 -0.24458129182E-03  0.19879773436E-01 -0.93853808951E-02  0.10219447644E+01  0.10217082513E+01 0.  0.
     999903    2    3    3    0    0 -0.97900629881E-01  0.96173769211E-02 -0.87600312861E-01  0.13303554728E+00  0.18644429672E-01 0.  0.
         14    1    1    2    0    0  0.24458129182E-03 -0.19879773436E-01  0.93853808951E-02  0.21985235646E-01  0.00000000000E+00 0. -1.
     999901    1    3    3    0    0  0.97656048590E-01  0.10262396515E-01  0.78214931966E-01  0.88890921707E+00  0.88000000000E+00 0. -1.
        -11    1    4    4    0    0 -0.97452142698E-02 -0.46618421466E-03 -0.17147806040E-01  0.19735625196E-01  0.51100000000E-03 0.  1.
         11    1    4    4    0    0 -0.88155415612E-01  0.10083561136E-01 -0.70452506821E-01  0.11329992209E+00  0.51100000000E-03 0. -1.
</event>
<event>
 8    1  0.1071333E+005  0.1043930E+01  0.7957747E-01            NaN
         13   -1    0    0    0    0  0.00000000000E+00  0.00000000000E+00  0.74505805969E-08  0.10566000000E+00  0.10566000000E+00 0.  1.
     999900   -1    0    0    0    0 -0.00000000000E+00 -0.00000000000E+00 -0.74505805969E-08  0.93827000000E+00  0.93827000000E+00 0.  1.
     999902    2    1    2    0    0 -0.20876191174E-01 -0.10656281889E-01 -0.92793388856E-04  0.10204911367E+01  0.10202219267E+01 0.  0.
     999903    2    3    3    0    0  0.11098054362E-01 -0.12585229270E+00 -0.32262737342E-01  0.13182506974E+00  0.19364875512E-01 0.  0.
         14    1    1    2    0    0  0.20876191174E-01  0.10656281889E-01  0.92793388856E-04  0.23438863288E-01  0.00000000000E+00 0. -1.
     999901    1    3    3    0    0 -0.31974245536E-01  0.11519601081E+00  0.32169943953E-01  0.88866606697E+00  0.88000000000E+00 0.  1.
        -11    1    4    4    0    0  0.45549473524E-02 -0.93400880622E-01 -0.31606313595E-01  0.98710142469E-01  0.51100000000E-03 0.  1.
         11    1    4    4    0    0  0.65431070101E-02 -0.32451412080E-01 -0.65642374734E-03  0.33114927275E-01  0.51100000000E-03 0. -1.
</event>
<event>
 8    1  0.1071333E+005  0.1043930E+01  0.7957747E-01            NaN
         13   -1    0    0    0    0  0.00000000000E+00  0.00000000000E+00  0.74505805969E-08  0.10566000000E+00  0.10566000000E+00 0.  1.
     999900   -1    0    0    0    0 -0.00000000000E+00 -0.00000000000E+00 -0.74505805969E-08  0.93827000000E+00  0.93827000000E+00 0. -1.
     999902    2    1    2    0    0 -0.41388418532E-03 -0.42929719656E-02  0.24026127876E-01  0.10195198437E+01  0.10192275781E+01 0.  0.
     999903    2    3    3    0    0 -0.12312491792E-01 -0.12281893800E+00 -0.34177855931E-01  0.12958856255E+00  0.19722594211E-01 0.  0.
         14    1    1    2    0    0  0.41388418532E-03  0.42929719656E-02 -0.24026127876E-01  0.24410156271E-01  0.00000000000E+00 0. -1.
     999901    1    3    3    0    0  0.11898607607E-01  0.11852596604E+00  0.58203983807E-01  0.88993128118E+00  0.88000000000E+00 0.  1.
        -11    1    4    4    0    0 -0.15723994220E-01 -0.73573725906E-01 -0.15563462541E-01  0.76829809483E-01  0.51100000000E-03 0.  1.
         11    1    4    4    0    0  0.34115024281E-02 -0.49245212095E-01 -0.18614393390E-01  0.52758753069E-01  0.51100000000E-03 0. -1.
</event>
<event>
 8    1  0.1071333E+005  0.1043930E+01  0.7957747E-01            NaN
         13   -1    0    0    0    0  0.00000000000E+00  0.00000000000E+00  0.74505805969E-08  0.10566000000E+00  0.10566000000E+00 0.  1.
     999900   -1    0    0    0    0 -0.00000000000E+00 -0.00000000000E+00 -0.74505805969E-08  0.93827000000E+00  0.93827000000E+00 0.  1.
     999902    2    1    2    0    0 -0.88535881913E-02  0.13630553138E-01 -0.17885182696E-01  0.10197627130E+01  0.10194763033E+01 0.  0.
     999903    2    3    3    0    0  0.61556264313E-01 -0.27551256660E-01  0.10618101357E+00  0.12732453032E+00  0.19720115564E-01 0.  0.
         14    1    1    2    0    0  0.88535881913E-02 -0.13630553138E-01  0.17885182696E-01  0.24167287038E-01  0.00000000000E+00 0. -1.
     999901    1    3    3    0    0 -0.70409852504E-01  0.41181809798E-01 -0.12406619627E+00  0.89243818265E+00  0.88000000000E+00 0.  1.
        -11    1    4    4    0    0  0.17909709418E-01 -0.39827434766E-02  0.44734462087E-01  0.48353419282E-01  0.51100000000E-03 0.  1.
         11    1    4    4    0    0  0.43646554895E-01 -0.23568513183E-01  0.61446551483E-01  0.78971111034E-01  0.51100000000E-03 0. -1.
</event>
<event>
 8    1  0.1071333E+005  0.1043930E+01  0.7957747E-01            NaN
         13   -1    0    0    0    0  0.00000000000E+00  0.00000000000E+00  0.74505805969E-08  0.10566000000E+00  0.10566000000E+00 0.  1.
     999900   -1    0    0    0    0 -0.00000000000E+00 -0.00000000000E+00 -0.74505805969E-08  0.93827000000E+00  0.93827000000E+00 0. -1.
     999902    2    1    2    0    0 -0.18670029164E-01  0.15597074411E-01  0.62987275251E-02  0.10188000838E+01  0.10184901070E+01 0.  0.
     999903    2    3    3    0    0  0.22394553458E-01  0.12677234844E+00 -0.10981865649E-01  0.13068699394E+00  0.19640383339E-01 0.  0.
         14    1    1    2    0    0  0.18670029164E-01 -0.15597074411E-01 -0.62987275251E-02  0.25129916188E-01  0.00000000000E+00 0. -1.
     999901    1    3    3    0    0 -0.41064582622E-01 -0.11117527403E+00  0.17280593175E-01  0.88811308987E+00  0.88000000000E+00 0.  1.
        -11    1    4    4    0    0  0.89984996536E-02  0.66595427487E-01 -0.15167711289E-01  0.68892993439E-01  0.51100000000E-03 0. -1.
         11    1    4    4    0    0  0.13396053804E-01  0.60176920955E-01  0.41858456399E-02  0.61794000501E-01  0.51100000000E-03 0.  1.
</event>
<event>
 8    1  0.1071333E+005  0.1043930E+01  0.7957747E-01            NaN
         13   -1    0    0    0    0  0.00000000000E+00  0.00000000000E+00  0.74505805969E-08  0.10566000000E+00  0.10566000000E+00 0.  1.
     999900   -1    0    0    0    0 -0.00000000000E+00 -0.00000000000E+00 -0.74505805969E-08  0.93827000000E+00  0.93827000000E+00 0.  1.
     999902    2    1    2    0    0 -0.17374490573E-01  0.68777909645E-02 -0.15988917751E-01  0.10193368623E+01  0.10190401447E+01 0.  0.
     999903    2    3    3    0    0  0.44865479016E-01 -0.10274490262E+00 -0.61095419198E-01  0.12921016051E+00  0.19828996666E-01 0.  0.
         14    1    1    2    0    0  0.17374490573E-01 -0.68777909645E-02  0.15988917751E-01  0.24593137703E-01  0.00000000000E+00 0.  1.
     999901    1    3    3    0    0 -0.62239969590E-01  0.10962269359E+00  0.45106501446E-01  0.89012670179E+00  0.88000000000E+00 0. -1.
        -11    1    4    4    0    0  0.38148618043E-01 -0.98702672997E-01 -0.54951778039E-01  0.11923713241E+00  0.51100000000E-03 0.  1.
         11    1    4    4    0    0  0.67168609739E-02 -0.40422296280E-02 -0.61436411585E-02  0.99730280955E-02  0.51100000000E-03 0. -1.
</event>
<event>
 8    1  0.1071333E+005  0.1043930E+01  0.7957747E-01            NaN
         13   -1    0    0    0    0  0.00000000000E+00  0.00000000000E+00  0.74505805969E-08  0.10566000000E+00  0.10566000000E+00 0.  1.
     999900   -1    0    0    0    0 -0.00000000000E+00 -0.00000000000E+00 -0.74505805969E-08  0.93827000000E+00  0.93827000000E+00 0. -1.
     999902    2    1    2    0    0  0.15045783151E-01  0.55824004144E-02 -0.17170235904E-01  0.10204277493E+01  0.10201570643E+01 0.  0.
     999903    2    3    3    0    0 -0.12120991295E+00  0.38461255544E-01 -0.13579178908E-01  0.12932757005E+00  0.19238375736E-01 0.  0.
         14    1    1    2    0    0 -0.15045783151E-01 -0.55824004144E-02  0.17170235904E-01  0.23502250658E-01  0.00000000000E+00 0.  1.
     999901    1    3    3    0    0  0.13625569610E+00 -0.32878855130E-01 -0.35910569964E-02  0.89110017929E+00  0.88000000000E+00 0. -1.
        -11    1    4    4    0    0 -0.40683809538E-01  0.35606152226E-02 -0.48304155528E-02  0.41127173191E-01  0.51100000000E-03 0. -1.
         11    1    4    4    0    0 -0.80526103413E-01  0.34900640322E-01 -0.87487633548E-02  0.88200396864E-01  0.51100000000E-03 0.  1.
</event>
<event>
 8    1  0.1071333E+005  0.1043930E+01  0.7957747E-01            NaN
         13   -1    0    0    0    0  0.00000000000E+00  0.00000000000E+00  0.74505805969E-08  0.10566000000E+00  0.10566000000E+00 0.  1.
     999900   -1    0    0    0    0 -0.00000000000E+00 -0.00000000000E+00 -0.74505805969E-08  0.93827000000E+00  0.93827000000E+00 0. -1.
     999902    2    1    2    0    0 -0.84683567215E-02 -0.73022051405E-02 -0.23525925628E-01  0.10178818822E+01  0.10175485353E+01 0.  0.
     999903    2    3    3    0    0 -0.87920532126E-01  0.55971166717E-01  0.69810098974E-01  0.12713624999E+00  0.20673283995E-01 0.  0.
         14    1    1    2    0    0  0.84683567215E-02  0.73022051405E-02  0.23525925628E-01  0.26048117823E-01  0.00000000000E+00 0.  1.
     999901    1    3    3    0    0  0.79452175404E-01 -0.63273371857E-01 -0.93336024602E-01  0.89074563218E+00  0.88000000000E+00 0. -1.
        -11    1    4    4    0    0 -0.43628589077E-01  0.31053048361E-01  0.23889261817E-01  0.58640459996E-01  0.51100000000E-03 0.  1.
         11    1    4    4    0    0 -0.44291943048E-01  0.24918118356E-01  0.45920837157E-01  0.68495789999E-01  0.51100000000E-03 0. -1.
</event>
<event>
 8    1  0.1071333E+005  0.1043930E+01  0.7957747E-01            NaN
         13   -1    0    0    0    0  0.00000000000E+00  0.00000000000E+00  0.74505805969E-08  0.10566000000E+00  0.10566000000E+00 0. -1.
     999900   -1    0    0    0    0 -0.00000000000E+00 -0.00000000000E+00 -0.74505805969E-08  0.93827000000E+00  0.93827000000E+00 0. -1.
     999902    2    1    2    0    0 -0.86989705242E-02  0.29033545050E-02 -0.21874749443E-01  0.10202106784E+01  0.10199349107E+01 0.  0.
     999903    2    3    3    0    0  0.52441136484E-01  0.10652548969E+00  0.47236027300E-01  0.12933921791E+00  0.19990954616E-01 0.  0.
         14    1    1    2    0    0  0.86989705242E-02 -0.29033545050E-02  0.21874749443E-01  0.23719321634E-01  0.00000000000E+00 0. -1.
     999901    1    3    3    0    0 -0.61140107008E-01 -0.10362213518E+00 -0.69110776743E-01  0.89087146045E+00  0.88000000000E+00 0. -1.
        -11    1    4    4    0    0  0.42651992250E-01  0.85278256899E-01  0.46104332609E-01  0.10591243623E+00  0.51100000000E-03 0.  1.
         11    1    4    4    0    0  0.97891442343E-02  0.21247232790E-01  0.11316946917E-02  0.23426781681E-01  0.51100000000E-03 0. -1.
</event>
<event>
 8    1  0.1071333E+005  0.1043930E+01  0.7957747E-01            NaN
         13   -1    0    0    0    0  0.00000000000E+00  0.00000000000E+00  0.74505805969E-08  0.10566000000E+00  0.10566000000E+00 0. -1.
     999900   -1    0    0    0    0 -0.00000000000E+00 -0.00000000000E+00 -0.74505805969E-08  0.93827000000E+00  0.93827000000E+00 0. -1.
     999902    2    1    2    0    0  0.71973502161E-02  0.20693113923E-01  0.13781257160E-01  0.10180469966E+01  0.10177179165E+01 0.  0.
     999903    2    3    3    0    0 -0.60669020937E-01  0.67960908788E-01 -0.88336304692E-01  0.12828967849E+00  0.18855334934E-01 0.  0.
         14    1    1    2    0    0 -0.71973502161E-02 -0.20693113923E-01 -0.13781257160E-01  0.25883003359E-01  0.00000000000E+00 0.  1.
     999901    1    3    3    0    0  0.67866371153E-01 -0.47267794865E-01  0.10211756185E+00  0.88975731815E+00  0.88000000000E+00 0.  1.
        -11    1    4    4    0    0 -0.29216349425E-01  0.25338662753E-01 -0.48364138801E-01  0.61927327949E-01  0.51100000000E-03 0. -1.
         11    1    4    4    0    0 -0.31452671512E-01  0.42622246035E-01 -0.39972165891E-01  0.66362350541E-01  0.51100000000E-03 0.  1.
</event>
<event>
 8    1  0.1071333E+005  0.1043930E+01  0.7957747E-01            NaN
         13   -1    0    0    0    0  0.00000000000E+00  0.00000000000E+00  0.74505805969E-08  0.10566000000E+00  0.10566000000E+00 0.  1.
     999900   -1    0    0    0    0 -0.00000000000E+00 -0.00000000000E+00 -0.74505805969E-08  0.93827000000E+00  0.93827000000E+00 0. -1.
     999902    2    1    2    0    0 -0.20385696512E-01  0.11303825253E-01  0.10924659849E-02  0.10205944784E+01  0.10203276644E+01 0.  0.
     999903    2    3    3    0    0  0.86938037484E-01 -0.52585688946E-01 -0.75915761765E-01  0.12844509568E+00  0.20284542778E-01 0.  0.
         14    1    1    2    0    0  0.20385696512E-01 -0.11303825253E-01 -0.10924659849E-02  0.23335521626E-01  0.00000000000E+00 0.  1.
     999901    1    3    3    0    0 -0.10732373400E+00  0.63889514199E-01  0.77008227750E-01  0.89214938270E+00  0.88000000000E+00 0.  1.
        -11    1    4    4    0    0  0.51977234362E-01 -0.32489858934E-01 -0.57739512911E-01  0.84210072425E-01  0.51100000000E-03 0. -1.
         11    1    4    4    0    0  0.34960803122E-01 -0.20095830012E-01 -0.18176248854E-01  0.44235023253E-01  0.51100000000E-03 0.  1.
</event>
<event>
 8    1  0.1071333E+005  0.1043930E+01  0.7957747E-01            NaN
         13   -1    0    0    0    0  0.00000000000E+00  0.00000000000E+00  0.74505805969E-08  0.10566000000E+00  0.10566000000E+00 0.  1.
     999900   -1    0    0    0    0 -0.00000000000E+00 -0.00000000000E+00 -0.74505805969E-08  0.93827000000E+00  0.93827000000E+00 0. -1.
     999902    2    1    2    0    0 -0.87192617215E-02 -0.16306875666E-01 -0.15651812172E-01  0.10197035900E+01  0.10194157603E+01 0.  0.
     999903    2    3    3    0    0 -0.12714042960E+00  0.17397490693E-01 -0.18498029752E-01  0.13112739274E+00  0.19617708887E-01 0.  0.
         14    1    1    2    0    0  0.87192617215E-02  0.16306875666E-01  0.15651812172E-01  0.24226410036E-01  0.00000000000E+00 0.  1.
     999901    1    3    3    0    0  0.11842116788E+00 -0.33704366359E-01  0.28462175800E-02  0.88857619722E+00  0.88000000000E+00 0. -1.
        -11    1    4    4    0    0 -0.85653984346E-01  0.20275045759E-01 -0.91174053402E-02  0.88493337127E-01  0.51100000000E-03 0. -1.
         11    1    4    4    0    0 -0.41486445253E-01 -0.28775550660E-02 -0.93806244115E-02  0.42634055616E-01  0.51100000000E-03 0.  1.
</event>
<event>
 8    1  0.1071333E+005  0.1043930E+01  0.7957747E-01            NaN
         13   -1    0    0    0    0  0.00000000000E+00  0.00000000000E+00  0.74505805969E-08  0.10566000000E+00  0.10566000000E+00 0. -1.
     999900   -1    0    0    0    0 -0.00000000000E+00 -0.00000000000E+00 -0.74505805969E-08  0.93827000000E+00  0.93827000000E+00 0.  1.
     999902    2    1    2    0    0  0.17089426522E-01  0.82909856406E-02  0.14923973716E-01  0.10197739669E+01  0.10194878272E+01 0.  0.
     999903    2    3    3    0    0  0.40425930137E-01 -0.15068468923E-01  0.12368832236E+00  0.13246345756E+00  0.19658380344E-01 0.  0.
         14    1    1    2    0    0 -0.17089426522E-01 -0.82909856406E-02 -0.14923973716E-01  0.24156033060E-01  0.00000000000E+00 0.  1.
     999901    1    3    3    0    0 -0.23336503615E-01  0.23359454564E-01 -0.10876434864E+00  0.88731050938E+00  0.88000000000E+00 0.  1.
        -11    1    4    4    0    0  0.22835841422E-01 -0.63233877360E-03  0.43883933871E-01  0.49476623559E-01  0.51100000000E-03 0. -1.
         11    1    4    4    0    0  0.17590088715E-01 -0.14436130150E-01  0.79804388489E-01  0.82986834002E-01  0.51100000000E-03 0.  1.
</event>
<event>
 8    1  0.1071333E+005  0.1043930E+01  0.7957747E-01            NaN
         13   -1    0    0    0    0  0.00000000000E+00  0.00000000000E+00  0.74505805969E-08  0.10566000000E+00  0.10566000000E+00 0. -1.
     999900   -1    0    0    0    0 -0.00000000000E+00 -0.00000000000E+00 -0.74505805969E-08  0.93827000000E+00  0.93827000000E+00 0.  1.
     999902    2    1    2    0    0  0.13631924302E-01  0.14991327759E-02 -0.19029482920E-01  0.10204737006E+01  0.10202040853E+01 0.  0.
     999903    2    3    3    0    0  0.49474485355E-01  0.36890981145E-01 -0.11691812216E+00  0.13361437820E+00  0.19346461711E-01 0.  0.
         14    1    1    2    0    0 -0.13631924302E-01 -0.14991327759E-02  0.19029482920E-01  0.23456299356E-01  0.00000000000E+00 0. -1.
     999901    1    3    3    0    0 -0.35842561054E-01 -0.35391848369E-01  0.97888639242E-01  0.88685932244E+00  0.88000000000E+00 0. -1.
        -11    1    4    4    0    0  0.18739718107E-01  0.23558822330E-01 -0.43393969263E-01  0.52815649515E-01  0.51100000000E-03 0.  1.
         11    1    4    4    0    0  0.30734767248E-01  0.13332158815E-01 -0.73524152900E-01  0.80798728685E-01  0.51100000000E-03 0. -1.
</event>
<event>
 8    1  0.1071333E+005  0.1043930E+01  0.7957747E-01            NaN
         13   -1    0    0    0    0  0.00000000000E+00  0.00000000000E+00  0.74505805969E-08  0.10566000000E+00  0.10566000000E+00 0.  1.
     999900   -1    0    0    0    0 -0.00000000000E+00 -0.00000000000E+00 -0.74505805969E-08  0.93827000000E+00  0.93827000000E+00 0.  1.
     999902    2    1    2    0    0 -0.14099909903E-01  0.15278344000E-01 -0.12741168044E-01  0.10195461402E+01  0.10192545116E+01 0.  0.
     999903    2    3    3    0    0  0.59229994174E-01 -0.84944809786E-01  0.67120032756E-01  0.12724587306E+00  0.31025803668E-01 0.  0.
         14    1    1    2    0    0  0.14099909903E-01 -0.15278344000E-01  0.12741168044E-01  0.24383859780E-01  0.00000000000E+00 0.  1.
     999901    1    3    3    0    0 -0.73329904076E-01  0.10022315379E+00 -0.79861200800E-01  0.89230026716E+00  0.88000000000E+00 0.  1.
        -11    1    4    4    0    0  0.55681047842E-01 -0.62179400010E-01  0.43027736824E-01  0.93905825866E-01  0.51100000000E-03 0. -1.
         11    1    4    4    0    0  0.35489463312E-02 -0.22765409777E-01  0.24092295932E-01  0.33340047190E-01  0.51100000000E-03 0.  1.
</event>
<event>
 8    1  0.1071333E+005  0.1043930E+01  0.7957747E-01            NaN
         13   -1    0    0    0    0  0.00000000000E+00  0.00000000000E+00  0.74505805969E-08  0.10566000000E+00  0.10566000000E+00 0. -1.
     999900   -1    0    0    0    0 -0.00000000000E+00 -0.00000000000E+00 -0.74505805969E-08  0.93827000000E+00  0.93827000000E+00 0.  1.
     999902    2    1    2    0    0 -0.21332322106E-01 -0.41168402918E-02  0.94891156096E-02  0.10202222026E+01  0.10199467060E+01 0.  0.
     999903    2    3    3    0    0  0.55134975258E-01 -0.45331507752E-01  0.10404742584E+00  0.13090382860E+00  0.34858778319E-01 0.  0.
         14    1    1    2    0    0  0.21332322106E-01  0.41168402918E-02 -0.94891156096E-02  0.23707797356E-01  0.00000000000E+00 0.  1.
     999901    1    3    3    0    0 -0.76467297364E-01  0.41214667460E-01 -0.94558310231E-01  0.88931837404E+00  0.88000000000E+00 0.  1.
        -11    1    4    4    0    0  0.13338580645E-01  0.47167809136E-02  0.20729317507E-01  0.25102419826E-01  0.51100000000E-03 0.  1.
         11    1    4    4    0    0  0.41796394613E-01 -0.50048288665E-01  0.83318108334E-01  0.10580140877E+00  0.51100000000E-03 0. -1.
</event>
<event>
 8    1  0.1071333E+005  0.1043930E+01  0.7957747E-01            NaN
         13   -1    0    0    0    0  0.00000000000E+00  0.00000000000E+00  0.74505805969E-08  0.10566000000E+00  0.10566000000E+00 0. -1.
     999900   -1    0    0    0    0 -0.00000000000E+00 -0.00000000000E+00 -0.74505805969E-08  0.93827000000E+00  0.93827000000E+00 0. -1.
     999902    2    1    2    0    0 -0.71869339277E-02 -0.20213963628E-01  0.89092205774E-02  0.10207000504E+01  0.10204356729E+01 0.  0.
     999903    2    3    3    0    0 -0.25224145496E-01  0.24734901980E-01  0.12537974172E+00  0.13170560513E+00  0.19447722131E-01 0.  0.
         14    1    1    2    0    0  0.71869339277E-02  0.20213963628E-01 -0.89092205774E-02  0.23229949550E-01  0.00000000000E+00 0. -1.
     999901    1    3    3    0    0  0.18037211568E-01 -0.44948865607E-01 -0.11647052114E+00  0.88899444532E+00  0.88000000000E+00 0. -1.
        -11    1    4    4    0    0 -0.43712326720E-02  0.27090746972E-02  0.52649004042E-01  0.52902036902E-01  0.51100000000E-03 0.  1.
         11    1    4    4    0    0 -0.20852912824E-01  0.22025827283E-01  0.72730737677E-01  0.78803568224E-01  0.51100000000E-03 0. -1.
</event>
<event>
 8    1  0.1071333E+005  0.1043930E+01  0.7957747E-01            NaN
         13   -1    0    0    0    0  0.00000000000E+00  0.00000000000E+00  0.74505805969E-08  0.10566000000E+00  0.10566000000E+00 0. -1.
     999900   -1    0    0    0    0 -0.00000000000E+00 -0.00000000000E+00 -0.74505805969E-08  0.93827000000E+00  0.93827000000E+00 0.  1.
     999902    2    1    2    0    0 -0.17142104360E-01  0.80480085999E-02 -0.10787372187E-01  0.10221357443E+01  0.10219033663E+01 0.  0.
     999903    2    3    3    0    0  0.12618460458E+00  0.22802996419E-01  0.10483388417E-01  0.13016450010E+00  0.19757646019E-01 0.  0.
         14    1    1    2    0    0  0.17142104360E-01 -0.80480085999E-02  0.10787372187E-01  0.21794255734E-01  0.00000000000E+00 0.  1.
     999901    1    3    3    0    0 -0.14332670894E+00 -0.14754987819E-01 -0.21270760604E-01  0.89197124416E+00  0.88000000000E+00 0.  1.
        -11    1    4    4    0    0  0.75346724038E-01  0.68650089178E-02  0.13252766253E-01  0.76812460611E-01  0.51100000000E-03 0.  1.
         11    1    4    4    0    0  0.50837880538E-01  0.15937987501E-01 -0.27693778368E-02  0.53352039490E-01  0.51100000000E-03 0. -1.
</event>
<event>
 8    1  0.1071333E+005  0.1043930E+01  0.7957747E-01            NaN
         13   -1    0    0    0    0  0.00000000000E+00  0.00000000000E+00  0.74505805969E-08  0.10566000000E+00  0.10566000000E+00 0. -1.
     999900   -1    0    0    0    0 -0.00000000000E+00 -0.00000000000E+00 -0.74505805969E-08  0.93827000000E+00  0.93827000000E+00 0. -1.
     999902    2    1    2    0    0  0.32914442201E-02 -0.15578577382E-01 -0.16996280716E-01  0.10206405338E+01  0.10203747841E+01 0.  0.
     999903    2    3    3    0    0  0.33975016485E-01  0.53330231648E-01  0.10973151125E+00  0.12836824417E+00  0.20951997434E-01 0.  0.
         14    1    1    2    0    0 -0.32914442201E-02  0.15578577382E-01  0.16996280716E-01  0.23289466213E-01  0.00000000000E+00 0. -1.
     999901    1    3    3    0    0 -0.30683572265E-01 -0.68908809030E-01 -0.12672779197E+00  0.89227228962E+00  0.88000000000E+00 0. -1.
        -11    1    4    4    0    0  0.19687128266E-01  0.30351676014E-01  0.81960979093E-01  0.89591687511E-01  0.51100000000E-03 0.  1.
         11    1    4    4    0    0  0.14287888219E-01  0.22978555634E-01  0.27770532157E-01  0.38776556655E-01  0.51100000000E-03 0. -1.
</event>
<event>
 8    1  0.1071333E+005  0.1043930E+01  0.7957747E-01            NaN
         13   -1    0    0    0    0  0.00000000000E+00  0.00000000000E+00  0.74505805969E-08  0.10566000000E+00  0.10566000000E+00 0.  1.
     999900   -1    0    0    0    0 -0.00000000000E+00 -0.00000000000E+00 -0.74505805969E-08  0.93827000000E+00  0.93827000000E+00 0. -1.
     999902    2    1    2    0    0  0.97575554652E-02 -0.78411581071E-02  0.20260405433E-01  0.10201145076E+01  0.10198364727E+01 0.  0.
     999903    2    3    3    0    0 -0.31856571839E-01 -0.70410863550E-01 -0.10091177121E+00  0.12863854046E+00  0.19802970684E-01 0.  0.
         14    1    1    2    0    0 -0.97575554652E-02  0.78411581071E-02 -0.20260405433E-01  0.23815492382E-01  0.00000000000E+00 0. -1.
     999901    1    3    3    0    0  0.41614127304E-01  0.62569705443E-01  0.12117217664E+00  0.89147596716E+00  0.88000000000E+00 0.  1.
        -11    1    4    4    0    0 -0.61226964114E-02 -0.26148186807E-01 -0.48029221279E-01  0.55029831022E-01  0.51100000000E-03 0.  1.
         11    1    4    4    0    0 -0.25733875428E-01 -0.44262676743E-01 -0.52882549928E-01  0.73608709436E-01  0.51100000000E-03 0. -1.
</event>
<event>
 8    1  0.1071333E+005  0.1043930E+01  0.7957747E-01            NaN
         13   -1    0    0    0    0  0.00000000000E+00  0.00000000000E+00  0.74505805969E-08  0.10566000000E+00  0.10566000000E+00 0.  1.
     999900   -1    0    0    0    0 -0.00000000000E+00 -0.00000000000E+00 -0.74505805969E-08  0.93827000000E+00  0.93827000000E+00 0. -1.
     999902    2    1    2    0    0  0.18444338805E-01  0.14813391389E-01  0.31003714682E-02  0.10200711966E+01  0.10197921374E+01 0.  0.
     999903    2    3    3    0    0  0.53408460006E-01 -0.55399625926E-02 -0.11768119265E+00  0.13090027091E+00  0.20071448240E-01 0.  0.
         14    1    1    2    0    0 -0.18444338805E-01 -0.14813391389E-01 -0.31003714682E-02  0.23858803441E-01  0.00000000000E+00 0.  1.
     999901    1    3    3    0    0 -0.34964121200E-01  0.20353353981E-01  0.12078156412E+00  0.88917092565E+00  0.88000000000E+00 0.  1.
        -11    1    4    4    0    0  0.28284402021E-01 -0.35960220948E-02 -0.39227716337E-01  0.48497563058E-01  0.51100000000E-03 0. -1.
         11    1    4    4    0    0  0.25124057985E-01 -0.19439404978E-02 -0.78453476314E-01  0.82402707851E-01  0.51100000000E-03 0.  1.
</event>
<event>
 8    1  0.1071333E+005  0.1043930E+01  0.7957747E-01            NaN
         13   -1    0    0    0    0  0.00000000000E+00  0.00000000000E+00  0.74505805969E-08  0.10566000000E+00  0.10566000000E+00 0.  1.
     999900   -1    0    0    0    0 -0.00000000000E+00 -0.00000000000E+00 -0.74505805969E-08  0.93827000000E+00  0.93827000000E+00 0. -1.
     999902    2    1    2    0    0 -0.10869691371E-01 -0.22720153263E-01  0.80932527011E-02  0.10174752028E+01  0.10171312266E+01 0.  0.
     999903    2    3    3    0    0 -0.27415152144E-01 -0.90848853826E-01  0.87660559225E-01  0.13110833273E+00  0.22358811681E-01 0.  0.
         14    1    1    2    0    0  0.10869691371E-01  0.22720153263E-01 -0.80932527011E-02  0.26454797185E-01  0.00000000000E+00 0.  1.
     999901    1    3    3    0    0  0.16545460773E-01  0.68128700562E-01 -0.79567306524E-01  0.88636687008E+00  0.88000000000E+00 0. -1.
        -11    1    4    4    0    0 -0.11710987629E-01 -0.10990920044E-01  0.15793998081E-01  0.22531290488E-01  0.51100000000E-03 0. -1.
         11    1    4    4    0    0 -0.15704164515E-01 -0.79857933782E-01  0.71866561144E-01  0.10857704225E+00  0.51100000000E-03 0.  1.
</event>
<event>
 8    1  0.1071333E+005  0.1043930E+01  0.7957747E-01            NaN
         13   -1    0    0    0    0  0.00000000000E+00  0.00000000000E+00  0.74505805969E-08  0.10566000000E+00  0.10566000000E+00 0.  1.
     999900   -1    0    0    0    0 -0.00000000000E+00 -0.00000000000E+00 -0.74505805969E-08  0.93827000000E+00  0.93827000000E+00 0. -1.
     999902    2    1    2    0    0  0.22507112947E-02 -0.18745210592E-01  0.11718821331E-01  0.10217088525E+01  0.10214671801E+01 0.  0.
     999903    2    3    3    0    0  0.55548069170E-02  0.12360528510E+00 -0.31360177320E-01  0.12922334520E+00  0.20151670875E-01 0.  0.
         14    1    1    2    0    0 -0.22507112947E-02  0.18745210592E-01 -0.11718821331E-01  0.22221147470E-01  0.00000000000E+00 0.  1.
     999901    1    3    3    0    0 -0.33040956224E-02 -0.14235049569E+00  0.43078998652E-01  0.89248550733E+00  0.88000000000E+00 0.  1.
        -11    1    4    4    0    0  0.36004301409E-02  0.47085221504E-01 -0.22026788181E-01  0.52109708307E-01  0.51100000000E-03 0.  1.
         11    1    4    4    0    0  0.19543767761E-02  0.76520063593E-01 -0.93333891394E-02  0.77113636892E-01  0.51100000000E-03 0. -1.
</event>
<event>
 8    1  0.1071333E+005  0.1043930E+01  0.7957747E-01            NaN
         13   -1    0    0    0    0  0.00000000000E+00  0.00000000000E+00  0.74505805969E-08  0.10566000000E+00  0.10566000000E+00 0. -1.
     999900   -1    0    0    0    0 -0.00000000000E+00 -0.00000000000E+00 -0.74505805969E-08  0.93827000000E+00  0.93827000000E+00 0.  1.
     999902    2    1    2    0    0 -0.19105939859E-01 -0.12068939254E-02  0.10646120254E-01  0.10220249000E+01  0.10217901266E+01 0.  0.
     999903    2    3    3    0    0  0.27061149795E-01 -0.77562010706E-01  0.10248916160E+00  0.13275742150E+00  0.19295942176E-01 0.  0.
         14    1    1    2    0    0  0.19105939859E-01  0.12068939254E-02 -0.10646120254E-01  0.21905100030E-01  0.00000000000E+00 0.  1.
     999901    1    3    3    0    0 -0.46167089654E-01  0.76355116780E-01 -0.91843041346E-01  0.88926747847E+00  0.88000000000E+00 0.  1.
        -11    1    4    4    0    0  0.65439034349E-02 -0.32279392122E-01  0.54357197210E-01  0.63559010671E-01  0.51100000000E-03 0.  1.
         11    1    4    4    0    0  0.20517246360E-01 -0.45282618583E-01  0.48131964389E-01  0.69198410827E-01  0.51100000000E-03 0. -1.
</event>
<event>
 8    1  0.1071333E+005  0.1043930E+01  0.7957747E-01            NaN
         13   -1    0    0    0    0  0.00000000000E+00  0.00000000000E+00  0.74505805969E-08  0.10566000000E+00  0.10566000000E+00 0. -1.
     999900   -1    0    0    0    0 -0.00000000000E+00 -0.00000000000E+00 -0.74505805969E-08  0.93827000000E+00  0.93827000000E+00 0.  1.
     999902    2    1    2    0    0 -0.19188384657E-02 -0.22740007945E-01 -0.43737686211E-02  0.10206938266E+01  0.10204293057E+01 0.  0.
     999903    2    3    3    0    0 -0.70350251826E-01 -0.37765321316E-02  0.10803939948E+00  0.13070551650E+00  0.21166012311E-01 0.  0.
         14    1    1    2    0    0  0.19188384657E-02  0.22740007945E-01  0.43737686211E-02  0.23236173402E-01  0.00000000000E+00 0.  1.
     999901    1    3    3    0    0  0.68431413360E-01 -0.18963475814E-01 -0.11241316810E+00  0.88998831010E+00  0.88000000000E+00 0.  1.
        -11    1    4    4    0    0 -0.64832228787E-01 -0.91129246234E-02  0.92019827679E-01  0.11293437516E+00  0.51100000000E-03 0. -1.
         11    1    4    4    0    0 -0.55180230396E-02  0.53363924918E-02  0.16019571798E-01  0.17771141345E-01  0.51100000000E-03 0.  1.
</event>
<event>
 8    1  0.1071333E+005  0.1043930E+01  0.7957747E-01            NaN
         13   -1    0    0    0    0  0.00000000000E+00  0.00000000000E+00  0.74505805969E-08  0.10566000000E+00  0.10566000000E+00 0. -1.
     999900   -1    0    0    0    0 -0.00000000000E+00 -0.00000000000E+00 -0.74505805969E-08  0.93827000000E+00  0.93827000000E+00 0.  1.
     999902    2    1    2    0    0 -0.43634249883E-02 -0.23295456427E-01  0.18851665237E-02  0.10201545585E+01  0.10198774689E+01 0.  0.
     999903    2    3    3    0    0 -0.94546362145E-01  0.59219039721E-01 -0.62529246493E-01  0.12937354113E+00  0.19537072884E-01 0.  0.
         14    1    1    2    0    0  0.43634249883E-02  0.23295456427E-01 -0.18851665237E-02  0.23775441543E-01  0.00000000000E+00 0. -1.
     999901    1    3    3    0    0  0.90182937156E-01 -0.82514496148E-01  0.64414413016E-01  0.89078101733E+00  0.88000000000E+00 0. -1.
        -11    1    4    4    0    0 -0.68950421698E-01  0.52426241246E-01 -0.44996376846E-01  0.97609458936E-01  0.51100000000E-03 0. -1.
         11    1    4    4    0    0 -0.25595940446E-01  0.67927984750E-02 -0.17532869647E-01  0.31764082192E-01  0.51100000000E-03 0.  1.
</event>
<event>
 8    1  0.1071333E+005  0.1043930E+01  0.7957747E-01            NaN
         13   -1    0    0    0    0  0.00000000000E+00  0.00000000000E+00  0.74505805969E-08  0.10566000000E+00  0.10566000000E+00 0. -1.
     999900   -1    0    0    0    0 -0.00000000000E+00 -0.00000000000E+00 -0.74505805969E-08  0.93827000000E+00  0.93827000000E+00 0. -1.
     999902    2    1    2    0    0 -0.18459127660E-01 -0.48382347525E-03 -0.14967716709E-01  0.10201601447E+01  0.10198831868E+01 0.  0.
     999903    2    3    3    0    0  0.61718732764E-01  0.36877280685E-01 -0.10748859614E+00  0.13089952227E+00  0.20291644278E-01 0.  0.
         14    1    1    2    0    0  0.18459127660E-01  0.48382347525E-03  0.14967716709E-01  0.23769855334E-01  0.00000000000E+00 0. -1.
     999901    1    3    3    0    0 -0.80177860424E-01 -0.37361104161E-01  0.92520879428E-01  0.88926062239E+00  0.88000000000E+00 0.  1.
        -11    1    4    4    0    0  0.15534401592E-01  0.21929262721E-02 -0.33834954418E-01  0.37298683890E-01  0.51100000000E-03 0.  1.
         11    1    4    4    0    0  0.46184331172E-01  0.34684354413E-01 -0.73653641719E-01  0.93600838385E-01  0.51100000000E-03 0. -1.
</event>
<event>
 8    1  0.1071333E+005  0.1043930E+01  0.7957747E-01            NaN
         13   -1    0    0    0    0  0.00000000000E+00  0.00000000000E+00  0.74505805969E-08  0.10566000000E+00  0.10566000000E+00 0. -1.
     999900   -1    0    0    0    0 -0.00000000000E+00 -0.00000000000E+00 -0.74505805969E-08  0.93827000000E+00  0.93827000000E+00 0. -1.
     999902    2    1    2    0    0  0.13164182498E-01 -0.19585865926E-01 -0.56163133582E-02  0.10196721184E+01  0.10193835314E+01 0.  0.
     999903    2    3    3    0    0 -0.89300580005E-01 -0.13080767406E-01 -0.89630679323E-01  0.12972843615E+00  0.25497223453E-01 0.  0.
         14    1    1    2    0    0 -0.13164182498E-01  0.19585865926E-01  0.56163133582E-02  0.24257881619E-01  0.00000000000E+00 0. -1.
     999901    1    3    3    0    0  0.10246476250E+00 -0.65050985191E-02  0.84014365965E-01  0.88994368224E+00  0.88000000000E+00 0. -1.
        -11    1    4    4    0    0 -0.81079067728E-01 -0.92011017414E-02 -0.67861007037E-01  0.10613130026E+00  0.51100000000E-03 0.  1.
         11    1    4    4    0    0 -0.82215122778E-02 -0.38796656650E-02 -0.21769672286E-01  0.23597135891E-01  0.51100000000E-03 0. -1.
</event>
<event>
 8    1  0.1071333E+005  0.1043930E+01  0.7957747E-01            NaN
         13   -1    0    0    0    0  0.00000000000E+00  0.00000000000E+00  0.74505805969E-08  0.10566000000E+00  0.10566000000E+00 0.  1.
     999900   -1    0    0    0    0 -0.00000000000E+00 -0.00000000000E+00 -0.74505805969E-08  0.93827000000E+00  0.93827000000E+00 0.  1.
     999902    2    1    2    0    0  0.22049080486E-01  0.27704995035E-02  0.82752980281E-02  0.10202167511E+01  0.10199411262E+01 0.  0.
     999903    2    3    3    0    0  0.23731044403E-01  0.12793745139E+00 -0.13514121931E-02  0.13130603091E+00  0.17558288697E-01 0.  0.
         14    1    1    2    0    0 -0.22049080486E-01 -0.27704995035E-02 -0.82752980281E-02  0.23713248939E-01  0.00000000000E+00 0. -1.
     999901    1    3    3    0    0 -0.16819639166E-02 -0.12516695189E+00  0.96267102211E-02  0.88891072015E+00  0.88000000000E+00 0. -1.
        -11    1    4    4    0    0  0.92273753702E-02  0.25962875396E-01 -0.59801796945E-02  0.28199982717E-01  0.51100000000E-03 0. -1.
         11    1    4    4    0    0  0.14503669033E-01  0.10197457599E+00  0.46287675015E-02  0.10310604819E+00  0.51100000000E-03 0.  1.
</event>
<event>
 8    1  0.1071333E+005  0.1043930E+01  0.7957747E-01            NaN
         13   -1    0    0    0    0  0.00000000000E+00  0.00000000000E+00  0.74505805969E-08  0.10566000000E+00  0.10566000000E+00 0.  1.
     999900   -1    0    0    0    0 -0.00000000000E+00 -0.00000000000E+00 -0.74505805969E-08  0.93827000000E+00  0.93827000000E+00 0. -1.
     999902    2    1    2    0    0  0.23351140990E-01 -0.35044637482E-02 -0.48116099293E-02  0.10198321030E+01  0.10195473552E+01 0.  0.
     999903    2    3    3    0    0 -0.26224787832E-01  0.12382746701E+00  0.15244867479E-01  0.12906083288E+00  0.20082617255E-01 0.  0.
         14    1    1    2    0    0 -0.23351140990E-01  0.35044637482E-02  0.48116099293E-02  0.24097897041E-01  0.00000000000E+00 0.  1.
     999901    1    3    3    0    0  0.49575928822E-01 -0.12733193076E+00 -0.20056477408E-01  0.89077127008E+00  0.88000000000E+00 0. -1.
        -11    1    4    4    0    0 -0.12867241050E-01  0.22431606601E-01  0.39704756587E-02  0.26168084853E-01  0.51100000000E-03 0. -1.
         11    1    4    4    0    0 -0.13357546782E-01  0.10139586041E+00  0.11274391820E-01  0.10289274803E+00  0.51100000000E-03 0.  1.
</event>
<event>
 8    1  0.1071333E+005  0.1043930E+01  0.7957747E-01            NaN
         13   -1    0    0    0    0  0.00000000000E+00  0.00000000000E+00  0.74505805969E-08  0.10566000000E+00  0.10566000000E+00 0. -1.
     999900   -1    0    0    0    0 -0.00000000000E+00 -0.00000000000E+00 -0.74505805969E-08  0.93827000000E+00  0.93827000000E+00 0.  1.
     999902    2    1    2    0    0  0.20736903969E-01  0.95118869720E-02  0.70801772192E-02  0.10200422607E+01  0.10197625162E+01 0.  0.
     999903    2    3    3    0    0 -0.45515220330E-01  0.78747843343E-01  0.91983977161E-01  0.13077761117E+00  0.19206077613E-01 0.  0.
         14    1    1    2    0    0 -0.20736903969E-01 -0.95118869720E-02 -0.70801772192E-02  0.23887739312E-01  0.00000000000E+00 0.  1.
     999901    1    3    3    0    0  0.66252124299E-01 -0.69235956371E-01 -0.84903799942E-01  0.88926464951E+00  0.88000000000E+00 0.  1.
        -11    1    4    4    0    0 -0.39410969862E-01  0.76825029505E-01  0.87613326314E-01  0.12301083600E+00  0.51100000000E-03 0. -1.
         11    1    4    4    0    0 -0.61042504684E-02  0.19228138386E-02  0.43706508476E-02  0.77667751783E-02  0.51100000000E-03 0.  1.
</event>
<event>
 8    1  0.1071333E+005  0.1043930E+01  0.7957747E-01            NaN
         13   -1    0    0    0    0  0.00000000000E+00  0.00000000000E+00  0.74505805969E-08  0.10566000000E+00  0.10566000000E+00 0.  1.
     999900   -1    0    0    0    0 -0.00000000000E+00 -0.00000000000E+00 -0.74505805969E-08  0.93827000000E+00  0.93827000000E+00 0. -1.
     999902    2    1    2    0    0 -0.29444412905E-02  0.40695927770E-02  0.26080275038E-01  0.10173704054E+01  0.10170236623E+01 0.  0.
     999903    2    3    3    0    0 -0.11254021107E+00  0.56800345767E-01  0.18704622730E-01  0.12897513001E+00  0.19827830513E-01 0.  0.
         14    1    1    2    0    0  0.29444412905E-02 -0.40695927770E-02 -0.26080275038E-01  0.26559594612E-01  0.00000000000E+00 0. -1.
     999901    1    3    3    0    0  0.10959576978E+00 -0.52730752990E-01  0.73756523086E-02  0.88839527538E+00  0.88000000000E+00 0. -1.
        -11    1    4    4    0    0 -0.57711953416E-01  0.40139408609E-01  0.10896964893E-01  0.71139627884E-01  0.51100000000E-03 0. -1.
         11    1    4    4    0    0 -0.54828257655E-01  0.16660937158E-01  0.78076578364E-02  0.57835502128E-01  0.51100000000E-03 0.  1.
</event>
<event>
 8    1  0.1071333E+005  0.1043930E+01  0.7957747E-01            NaN
         13   -1    0    0    0    0  0.00000000000E+00  0.00000000000E+00  0.74505805969E-08  0.10566000000E+00  0.10566000000E+00 0. -1.
     999900   -1    0    0    0    0 -0.00000000000E+00 -0.00000000000E+00 -0.74505805969E-08  0.93827000000E+00  0.93827000000E+00 0.  1.
     999902    2    1    2    0    0  0.14023846290E-01 -0.19340204761E-01  0.10896391922E-04  0.10200404227E+01  0.10197606347E+01 0.  0.
     999903    2    3    3    0    0  0.60023918666E-01 -0.11681799581E+00  0.12296894345E-01  0.13337877801E+00  0.19732456929E-01 0.  0.
         14    1    1    2    0    0 -0.14023846290E-01  0.19340204761E-01 -0.10896391922E-04  0.23889577303E-01  0.00000000000E+00 0. -1.
     999901    1    3    3    0    0 -0.46000072376E-01  0.97477791051E-01 -0.12285997953E-01  0.88666164468E+00  0.88000000000E+00 0. -1.
        -11    1    4    4    0    0  0.16086480178E-01 -0.21051750887E-01  0.89153384346E-02  0.27958816862E-01  0.51100000000E-03 0. -1.
         11    1    4    4    0    0  0.43937438488E-01 -0.95766244925E-01  0.33815559103E-02  0.10541996115E+00  0.51100000000E-03 0.  1.
</event>
<event>
 8    1  0.1071333E+005  0.1043930E+01  0.7957747E-01            NaN
         13   -1    0    0    0    0  0.00000000000E+00  0.00000000000E+00  0.74505805969E-08  0.10566000000E+00  0.10566000000E+00 0. -1.
     999900   -1    0    0    0    0 -0.00000000000E+00 -0.00000000000E+00 -0.74505805969E-08  0.93827000000E+00  0.93827000000E+00 0.  1.
     999902    2    1    2    0    0  0.17448775608E-01  0.76598774136E-02  0.13817713227E-01  0.10203914637E+01  0.10201199324E+01 0.  0.
     999903    2    3    3    0    0  0.28370233295E-01 -0.12322229755E+00 -0.22434002768E-01  0.12990642235E+00  0.19590542050E-01 0.  0.
         14    1    1    2    0    0 -0.17448775608E-01 -0.76598774136E-02 -0.13817713227E-01  0.23538536297E-01  0.00000000000E+00 0.  1.
     999901    1    3    3    0    0 -0.10921457687E-01  0.13088217496E+00  0.36251715995E-01  0.89048504135E+00  0.88000000000E+00 0. -1.
        -11    1    4    4    0    0  0.26630029504E-01 -0.95543279336E-01 -0.24252895604E-01  0.10210847548E+00  0.51100000000E-03 0.  1.
         11    1    4    4    0    0  0.17402037910E-02 -0.27679018210E-01  0.18188928361E-02  0.27797946875E-01  0.51100000000E-03 0. -1.
</event>
<event>
 8    1  0.1071333E+005  0.1043930E+01  0.7957747E-01            NaN
         13   -1    0    0    0    0  0.00000000000E+00  0.00000000000E+00  0.74505805969E-08  0.10566000000E+00  0.10566000000E+00 0. -1.
     999900   -1    0    0    0    0 -0.00000000000E+00 -0.00000000000E+00 -0.74505805969E-08  0.93827000000E+00  0.93827000000E+00 0. -1.
     999902    2    1    2    0    0  0.21330787007E-01  0.48370395436E-02 -0.69212357970E-02  0.10209887069E+01  0.10207309325E+01 0.  0.
     999903    2    3    3    0    0 -0.67430498272E-01 -0.84588470574E-01 -0.68950062179E-01  0.12985287943E+00  0.20138961527E-01 0.  0.
         14    1    1    2    0    0 -0.21330787007E-01 -0.48370395436E-02  0.69212357970E-02  0.22941293138E-01  0.00000000000E+00 0. -1.
     999901    1    3    3    0    0  0.88761285279E-01  0.89425510118E-01  0.62028826382E-01  0.89113582743E+00  0.88000000000E+00 0.  1.
        -11    1    4    4    0    0 -0.30036718742E-01 -0.52643663174E-01 -0.42303110060E-01  0.73914639868E-01  0.51100000000E-03 0. -1.
         11    1    4    4    0    0 -0.37393779530E-01 -0.31944807400E-01 -0.26646952119E-01  0.55938239565E-01  0.51100000000E-03 0.  1.
</event>
<event>
 8    1  0.1071333E+005  0.1043930E+01  0.7957747E-01            NaN
         13   -1    0    0    0    0  0.00000000000E+00  0.00000000000E+00  0.74505805969E-08  0.10566000000E+00  0.10566000000E+00 0. -1.
     999900   -1    0    0    0    0 -0.00000000000E+00 -0.00000000000E+00 -0.74505805969E-08  0.93827000000E+00  0.93827000000E+00 0. -1.
     999902    2    1    2    0    0  0.12736130262E-01 -0.14029445223E-01  0.14425430738E-01  0.10201155632E+01  0.10198375532E+01 0.  0.
     999903    2    3    3    0    0 -0.54622705137E-01 -0.67050915839E-01  0.97566789993E-01  0.13204970154E+00  0.20937524607E-01 0.  0.
         14    1    1    2    0    0 -0.12736130262E-01  0.14029445223E-01 -0.14425430738E-01  0.23814436783E-01  0.00000000000E+00 0.  1.
     999901    1    3    3    0    0  0.67358835399E-01  0.53021470615E-01 -0.83141359255E-01  0.88806586167E+00  0.88000000000E+00 0. -1.
        -11    1    4    4    0    0 -0.44105578005E-01 -0.46022473056E-01  0.58895117721E-01  0.86788628574E-01  0.51100000000E-03 0.  1.
         11    1    4    4    0    0 -0.10517127132E-01 -0.21028442782E-01  0.38671672272E-01  0.45261072968E-01  0.51100000000E-03 0. -1.
</event>
<event>
 8    1  0.1071333E+005  0.1043930E+01  0.7957747E-01            NaN
         13   -1    0    0    0    0  0.00000000000E+00  0.00000000000E+00  0.74505805969E-08  0.10566000000E+00  0.10566000000E+00 0. -1.
     999900   -1    0    0    0    0 -0.00000000000E+00 -0.00000000000E+00 -0.74505805969E-08  0.93827000000E+00  0.93827000000E+00 0. -1.
     999902    2    1    2    0    0  0.21260788158E-01  0.44977432622E-02 -0.24509424881E-03  0.10221972855E+01  0.10219662321E+01 0.  0.
     999903    2    3    3    0    0 -0.81768641057E-01  0.86098922991E-01  0.51424588971E-01  0.13093774308E+00  0.20026707480E-01 0.  0.
         14    1    1    2    0    0 -0.21260788158E-01 -0.44977432622E-02  0.24509424881E-03  0.21732714482E-01  0.00000000000E+00 0. -1.
     999901    1    3    3    0    0  0.10302942922E+00 -0.81601179729E-01 -0.51669683220E-01  0.89125954244E+00  0.88000000000E+00 0. -1.
        -11    1    4    4    0    0 -0.62183334795E-01  0.56364898733E-01  0.28719449758E-01  0.88706464538E-01  0.51100000000E-03 0.  1.
         11    1    4    4    0    0 -0.19585306263E-01  0.29734024258E-01  0.22705139213E-01  0.42231278546E-01  0.51100000000E-03 0. -1.
</event>
<event>
 8    1  0.1071333E+005  0.1043930E+01  0.7957747E-01            NaN
         13   -1    0    0    0    0  0.00000000000E+00  0.00000000000E+00  0.74505805969E-08  0.10566000000E+00  0.10566000000E+00 0.  1.
     999900   -1    0    0    0    0 -0.00000000000E+00 -0.00000000000E+00 -0.74505805969E-08  0.93827000000E+00  0.93827000000E+00 0. -1.
     999902    2    1    2    0    0 -0.23152379602E-01  0.41695043090E-02  0.35097088482E-02  0.10201448049E+01  0.10198674853E+01 0.  0.
     999903    2    3    3    0    0  0.11528319963E+00  0.51923616866E-01 -0.13821268326E-02  0.12803001698E+00  0.20087231413E-01 0.  0.
         14    1    1    2    0    0  0.23152379602E-01 -0.41695043090E-02 -0.35097088482E-02  0.23785195051E-01  0.00000000000E+00 0. -1.
     999901    1    3    3    0    0 -0.13843557924E+00 -0.47754112557E-01  0.48918356808E-02  0.89211478797E+00  0.88000000000E+00 0. -1.
        -11    1    4    4    0    0  0.88441801655E-01  0.35099039655E-01 -0.85821844795E-02  0.95539572305E-01  0.51100000000E-03 0.  1.
         11    1    4    4    0    0  0.26841397979E-01  0.16824577211E-01  0.72000576469E-02  0.32490444671E-01  0.51100000000E-03 0. -1.
</event>
<event>
 8    1  0.1071333E+005  0.1043930E+01  0.7957747E-01            NaN
         13   -1    0    0    0    0  0.00000000000E+00  0.00000000000E+00  0.74505805969E-08  0.10566000000E+00  0.10566000000E+00 0.  1.
     999900   -1    0    0    0    0 -0.00000000000E+00 -0.00000000000E+00 -0.74505805969E-08  0.93827000000E+00  0.93827000000E+00 0. -1.
     999902    2    1    2    0    0 -0.65512797203E-02  0.94452196362E-02  0.20540896787E-01  0.10203915234E+01  0.10201199935E+01 0.  0.
     999903    2    3    3    0    0 -0.81697752586E-01  0.37605470408E-01  0.96642955144E-01  0.13346902656E+00  0.19632271657E-01 0.  0.
         14    1    1    2    0    0  0.65512797203E-02 -0.94452196362E-02 -0.20540896787E-01  0.23538476602E-01  0.00000000000E+00 0. -1.
     999901    1    3    3    0    0  0.75146472865E-01 -0.28160250771E-01 -0.76102058357E-01  0.88692249684E+00  0.88000000000E+00 0. -1.
        -11    1    4    4    0    0 -0.30660047279E-01  0.41384631734E-02  0.35146206562E-01  0.46826086034E-01  0.51100000000E-03 0.  1.
         11    1    4    4    0    0 -0.51037705306E-01  0.33467007234E-01  0.61496748581E-01  0.86642940527E-01  0.51100000000E-03 0. -1.
</event>
<event>
 8    1  0.1071333E+005  0.1043930E+01  0.7957747E-01            NaN
         13   -1    0    0    0    0  0.00000000000E+00  0.00000000000E+00  0.74505805969E-08  0.10566000000E+00  0.10566000000E+00 0. -1.
     999900   -1    0    0    0    0 -0.00000000000E+00 -0.00000000000E+00 -0.74505805969E-08  0.93827000000E+00  0.93827000000E+00 0.  1.
     999902    2    1    2    0    0 -0.11670864910E-01  0.22775196119E-01 -0.32445206238E-02  0.10181337685E+01  0.10178069193E+01 0.  0.
     999903    2    3    3    0    0 -0.88508454901E-01  0.46577284030E-01 -0.81988990936E-01  0.13096340930E+00  0.20640493298E-01 0.  0.
         14    1    1    2    0    0  0.11670864910E-01 -0.22775196119E-01  0.32445206238E-02  0.25796231510E-01  0.00000000000E+00 0.  1.
     999901    1    3    3    0    0  0.76837589992E-01 -0.23802087910E-01  0.78744470312E-01  0.88717035919E+00  0.88000000000E+00 0. -1.
        -11    1    4    4    0    0 -0.50983354638E-01  0.37111396802E-01 -0.56054809414E-01  0.84373935562E-01  0.51100000000E-03 0. -1.
         11    1    4    4    0    0 -0.37525100264E-01  0.94658872279E-02 -0.25934181522E-01  0.46589473736E-01  0.51100000000E-03 0.  1.
</event>
<event>
 8    1  0.1071333E+005  0.1043930E+01  0.7957747E-01            NaN
         13   -1    0    0    0    0  0.00000000000E+00  0.00000000000E+00  0.74505805969E-08  0.10566000000E+00  0.10566000000E+00 0.  1.
     999900   -1    0    0    0    0 -0.00000000000E+00 -0.00000000000E+00 -0.74505805969E-08  0.93827000000E+00  0.93827000000E+00 0.  1.
     999902    2    1    2    0    0  0.37462965992E-02 -0.19718710162E-01  0.12119853094E-01  0.10204831856E+01  0.10202137908E+01 0.  0.
     999903    2    3    3    0    0 -0.95475754367E-01  0.50647930188E-01 -0.66885044416E-01  0.12860973416E+00  0.19647443845E-01 0.  0.
         14    1    1    2    0    0 -0.37462965992E-02  0.19718710162E-01 -0.12119853094E-01  0.23446814446E-01  0.00000000000E+00 0. -1.
     999901    1    3    3    0    0  0.99222050967E-01 -0.70366640349E-01  0.79004897510E-01  0.89187345139E+00  0.88000000000E+00 0. -1.
        -11    1    4    4    0    0 -0.71852229728E-01  0.41244505110E-01 -0.41444331579E-01  0.92637712945E-01  0.51100000000E-03 0. -1.
         11    1    4    4    0    0 -0.23623524639E-01  0.94034250778E-02 -0.25440712837E-01  0.35972021214E-01  0.51100000000E-03 0.  1.
</event>
<event>
 8    1  0.1071333E+005  0.1043930E+01  0.7957747E-01            NaN
         13   -1    0    0    0    0  0.00000000000E+00  0.00000000000E+00  0.74505805969E-08  0.10566000000E+00  0.10566000000E+00 0. -1.
     999900   -1    0    0    0    0 -0.00000000000E+00 -0.00000000000E+00 -0.74505805969E-08  0.93827000000E+00  0.93827000000E+00 0.  1.
     999902    2    1    2    0    0  0.23500647920E-01 -0.94223194140E-02  0.53465875208E-03  0.10186051818E+01  0.10182903172E+01 0.  0.
     999903    2    3    3    0    0  0.46348888244E-02 -0.11974316823E+00  0.46850880321E-01  0.13030804745E+00  0.20622165529E-01 0.  0.
         14    1    1    2    0    0 -0.23500647920E-01  0.94223194140E-02 -0.53465875208E-03  0.25324818178E-01  0.00000000000E+00 0.  1.
     999901    1    3    3    0    0  0.18865759095E-01  0.11032084882E+00 -0.46316221569E-01  0.88829713437E+00  0.88000000000E+00 0.  1.
        -11    1    4    4    0    0 -0.26661592638E-02 -0.62148523400E-01  0.33816320895E-01  0.70805028394E-01  0.51100000000E-03 0. -1.
         11    1    4    4    0    0  0.73010480883E-02 -0.57594644832E-01  0.13034559426E-01  0.59503019057E-01  0.51100000000E-03 0.  1.
</event>
<event>
 8    1  0.1071333E+005  0.1043930E+01  0.7957747E-01            NaN
         13   -1    0    0    0    0  0.00000000000E+00  0.00000000000E+00  0.74505805969E-08  0.10566000000E+00  0.10566000000E+00 0. -1.
     999900   -1    0    0    0    0 -0.00000000000E+00 -0.00000000000E+00 -0.74505805969E-08  0.93827000000E+00  0.93827000000E+00 0.  1.
     999902    2    1    2    0    0  0.18528245577E-01 -0.15281311528E-01  0.19254985249E-02  0.10198359777E+01  0.10195513226E+01 0.  0.
     999903    2    3    3    0    0  0.10272947422E+00  0.69807665914E-01 -0.36578984222E-01  0.13089696057E+00  0.19223347917E-01 0.  0.
         14    1    1    2    0    0 -0.18528245577E-01  0.15281311528E-01 -0.19254985249E-02  0.24094022303E-01  0.00000000000E+00 0.  1.
     999901    1    3    3    0    0 -0.84201228640E-01 -0.85088977443E-01  0.38504482747E-01  0.88893901713E+00  0.88000000000E+00 0.  1.
        -11    1    4    4    0    0  0.83851363599E-01  0.47201374248E-01 -0.27867617273E-01  0.10017926992E+00  0.51100000000E-03 0. -1.
         11    1    4    4    0    0  0.18878110618E-01  0.22606291667E-01 -0.87113669491E-02  0.30717690645E-01  0.51100000000E-03 0.  1.
</event>
<event>
 8    1  0.1071333E+005  0.1043930E+01  0.7957747E-01            NaN
         13   -1    0    0    0    0  0.00000000000E+00  0.00000000000E+00  0.74505805969E-08  0.10566000000E+00  0.10566000000E+00 0. -1.
     999900   -1    0    0    0    0 -0.00000000000E+00 -0.00000000000E+00 -0.74505805969E-08  0.93827000000E+00  0.93827000000E+00 0.  1.
     999902    2    1    2    0    0  0.21176597449E-01  0.85615457454E-02 -0.18228724664E-01  0.10147061271E+01  0.10142852112E+01 0.  0.
     999903    2    3    3    0    0  0.93351832319E-01 -0.30817822122E-01 -0.80357014696E-01  0.12869262631E+00  0.20981884994E-01 0.  0.
         14    1    1    2    0    0 -0.21176597449E-01 -0.85615457454E-02  0.18228724664E-01  0.29223872911E-01  0.00000000000E+00 0. -1.
     999901    1    3    3    0    0 -0.72175234870E-01  0.39379367867E-01  0.62128290032E-01  0.88601350078E+00  0.88000000000E+00 0. -1.
        -11    1    4    4    0    0  0.23178674733E-01 -0.80501649589E-02 -0.32612021397E-01  0.40814962683E-01  0.51100000000E-03 0. -1.
         11    1    4    4    0    0  0.70173157585E-01 -0.22767657163E-01 -0.47744993299E-01  0.87877663626E-01  0.51100000000E-03 0.  1.
</event>
<event>
 8    1  0.1071333E+005  0.1043930E+01  0.7957747E-01            NaN
         13   -1    0    0    0    0  0.00000000000E+00  0.00000000000E+00  0.74505805969E-08  0.10566000000E+00  0.10566000000E+00 0.  1.
     999900   -1    0    0    0    0 -0.00000000000E+00 -0.00000000000E+00 -0.74505805969E-08  0.93827000000E+00  0.93827000000E+00 0.  1.
     999902    2    1    2    0    0 -0.22428723205E-01  0.47303261363E-02  0.11154375700E-02  0.10209807558E+01  0.10207228007E+01 0.  0.
     999903    2    3    3    0    0 -0.10665366204E+00 -0.15353857330E-01 -0.76063765735E-01  0.13336944209E+00  0.19772887103E-01 0.  0.
         14    1    1    2    0    0  0.22428723205E-01 -0.47303261363E-02 -0.11154375700E-02  0.22949244235E-01  0.00000000000E+00 0. -1.
     999901    1    3    3    0    0  0.84224938830E-01  0.20084183466E-01  0.77179203305E-01  0.88761131368E+00  0.88000000000E+00 0. -1.
        -11    1    4    4    0    0 -0.18598932308E-01  0.13250606828E-02 -0.59467999753E-02  0.19578090299E-01  0.51100000000E-03 0.  1.
         11    1    4    4    0    0 -0.88054729728E-01 -0.16678918013E-01 -0.70116965760E-01  0.11379135179E+00  0.51100000000E-03 0. -1.
</event>
<event>
 8    1  0.1071333E+005  0.1043930E+01  0.7957747E-01            NaN
         13   -1    0    0    0    0  0.00000000000E+00  0.00000000000E+00  0.74505805969E-08  0.10566000000E+00  0.10566000000E+00 0. -1.
     999900   -1    0    0    0    0 -0.00000000000E+00 -0.00000000000E+00 -0.74505805969E-08  0.93827000000E+00  0.93827000000E+00 0.  1.
     999902    2    1    2    0    0 -0.12356018649E-01 -0.18787965903E-01 -0.72636069028E-02  0.10202991125E+01  0.10200254213E+01 0.  0.
     999903    2    3    3    0    0  0.98048178198E-01  0.45659750588E-01 -0.67568925578E-01  0.12901951196E+00  0.19550362953E-01 0.  0.
         14    1    1    2    0    0  0.12356018649E-01  0.18787965903E-01  0.72636069028E-02  0.23630887518E-01  0.00000000000E+00 0.  1.
     999901    1    3    3    0    0 -0.11040419685E+00 -0.64447716491E-01  0.60305318675E-01  0.89127960052E+00  0.88000000000E+00 0. -1.
        -11    1    4    4    0    0  0.62854735129E-01  0.18966122679E-01 -0.42808184795E-01  0.78378781211E-01  0.51100000000E-03 0.  1.
         11    1    4    4    0    0  0.35193443070E-01  0.26693627908E-01 -0.24760740782E-01  0.50640730752E-01  0.51100000000E-03 0. -1.
</event>
<event>
 8    1  0.1071333E+005  0.1043930E+01  0.7957747E-01            NaN
         13   -1    0    0    0    0  0.00000000000E+00  0.00000000000E+00  0.74505805969E-08  0.10566000000E+00  0.10566000000E+00 0.  1.
     999900   -1    0    0    0    0 -0.00000000000E+00 -0.00000000000E+00 -0.74505805969E-08  0.93827000000E+00  0.93827000000E+00 0.  1.
     999902    2    1    2    0    0 -0.10074863810E-01 -0.15038978460E-01  0.13720940068E-01  0.10212157325E+01  0.10209630915E+01 0.  0.
     999903    2    3    3    0    0 -0.14684504947E-01 -0.20483739120E-01  0.12956619244E+00  0.13359474537E+00  0.20614061027E-01 0.  0.
         14    1    1    2    0    0  0.10074863810E-01  0.15038978460E-01 -0.13720940068E-01  0.22714267549E-01  0.00000000000E+00 0. -1.
     999901    1    3    3    0    0  0.46096411362E-02  0.54447606605E-02 -0.11584525238E+00  0.88762098708E+00  0.88000000000E+00 0.  1.
        -11    1    4    4    0    0  0.13995676648E-02 -0.11204640614E-01  0.77377253884E-01  0.78198486561E-01  0.51100000000E-03 0. -1.
         11    1    4    4    0    0 -0.16084072611E-01 -0.92790985060E-02  0.52188938561E-01  0.55396258808E-01  0.51100000000E-03 0.  1.
</event>
<event>
 8    1  0.1071333E+005  0.1043930E+01  0.7957747E-01            NaN
         13   -1    0    0    0    0  0.00000000000E+00  0.00000000000E+00  0.74505805969E-08  0.10566000000E+00  0.10566000000E+00 0. -1.
     999900   -1    0    0    0    0 -0.00000000000E+00 -0.00000000000E+00 -0.74505805969E-08  0.93827000000E+00  0.93827000000E+00 0. -1.
     999902    2    1    2    0    0  0.28220461361E-02 -0.62685995211E-03 -0.23837249661E-01  0.10199180994E+01  0.10196354045E+01 0.  0.
     999903    2    3    3    0    0  0.12612007684E+00 -0.23951197596E-01 -0.18027925380E-01  0.13099730579E+00  0.18850845721E-01 0.  0.
         14    1    1    2    0    0 -0.28220461361E-02  0.62685995211E-03  0.23837249661E-01  0.24011900574E-01  0.00000000000E+00 0. -1.
     999901    1    3    3    0    0 -0.12329803070E+00  0.23324337644E-01 -0.58093242810E-02  0.88892079363E+00  0.88000000000E+00 0. -1.
        -11    1    4    4    0    0  0.20367061860E-01 -0.10577587979E-02  0.34274362140E-02  0.20686819536E-01  0.51100000000E-03 0.  1.
         11    1    4    4    0    0  0.10575301498E+00 -0.22893438798E-01 -0.21455361594E-01  0.11031048626E+00  0.51100000000E-03 0. -1.
</event>
<event>
 8    1  0.1071333E+005  0.1043930E+01  0.7957747E-01            NaN
         13   -1    0    0    0    0  0.00000000000E+00  0.00000000000E+00  0.74505805969E-08  0.10566000000E+00  0.10566000000E+00 0. -1.
     999900   -1    0    0    0    0 -0.00000000000E+00 -0.00000000000E+00 -0.74505805969E-08  0.93827000000E+00  0.93827000000E+00 0.  1.
     999902    2    1    2    0    0  0.13767962893E-01 -0.13330032539E-01  0.20026213341E-01  0.10162118509E+01  0.10158337610E+01 0.  0.
     999903    2    3    3    0    0  0.11786991833E+00 -0.50501558011E-02 -0.44798281657E-01  0.12766923028E+00  0.19331957957E-01 0.  0.
         14    1    1    2    0    0 -0.13767962893E-01  0.13330032539E-01 -0.20026213341E-01  0.27718149117E-01  0.00000000000E+00 0.  1.
     999901    1    3    3    0    0 -0.10410195544E+00 -0.82798767382E-02  0.64824494998E-01  0.88854262061E+00  0.88000000000E+00 0. -1.
        -11    1    4    4    0    0  0.24294367247E-01 -0.60474953855E-02 -0.16161756100E-01  0.29803556191E-01  0.51100000000E-03 0.  1.
         11    1    4    4    0    0  0.93575551084E-01  0.99733958447E-03 -0.28636525557E-01  0.97865674084E-01  0.51100000000E-03 0. -1.
</event>
<event>
 8    1  0.1071333E+005  0.1043930E+01  0.7957747E-01            NaN
         13   -1    0    0    0    0  0.00000000000E+00  0.00000000000E+00  0.74505805969E-08  0.10566000000E+00  0.10566000000E+00 0. -1.
     999900   -1    0    0    0    0 -0.00000000000E+00 -0.00000000000E+00 -0.74505805969E-08  0.93827000000E+00  0.93827000000E+00 0.  1.
     999902    2    1    2    0    0 -0.61036086701E-02 -0.11686922274E-01  0.19704810466E-01  0.10202209775E+01  0.10199454521E+01 0.  0.
     999903    2    3    3    0    0  0.38744828080E-02  0.12379739107E+00 -0.29930444248E-01  0.12841426081E+00  0.15924359796E-01 0.  0.
         14    1    1    2    0    0  0.61036086701E-02  0.11686922274E-01 -0.19704810466E-01  0.23709022471E-01  0.00000000000E+00 0.  1.
     999901    1    3    3    0    0 -0.99780914781E-02 -0.13548431334E+00  0.49635254714E-01  0.89180671672E+00  0.88000000000E+00 0.  1.
        -11    1    4    4    0    0  0.94076012096E-03  0.43759802560E-01 -0.18451518616E-01  0.47502894753E-01  0.51100000000E-03 0.  1.
         11    1    4    4    0    0  0.29337226870E-02  0.80037588507E-01 -0.11478925633E-01  0.80911366059E-01  0.51100000000E-03 0. -1.
</event>
<event>
 8    1  0.1071333E+005  0.1043930E+01  0.7957747E-01            NaN
         13   -1    0    0    0    0  0.00000000000E+00  0.00000000000E+00  0.74505805969E-08  0.10566000000E+00  0.10566000000E+00 0.  1.
     999900   -1    0    0    0    0 -0.00000000000E+00 -0.00000000000E+00 -0.74505805969E-08  0.93827000000E+00  0.93827000000E+00 0. -1.
     999902    2    1    2    0    0  0.99018130383E-02 -0.11688774916E-01 -0.15800992423E-01  0.10219221668E+01  0.10216851620E+01 0.  0.
     999903    2    3    3    0    0  0.55015925448E-01 -0.11859721589E+00 -0.23029944643E-01  0.13427530254E+00  0.20184817330E-01 0.  0.
         14    1    1    2    0    0 -0.99018130383E-02  0.11688774916E-01  0.15800992423E-01  0.22007833197E-01  0.00000000000E+00 0.  1.
     999901    1    3    3    0    0 -0.45114112410E-01  0.10690844098E+00  0.72289522202E-02  0.88764686427E+00  0.88000000000E+00 0. -1.
        -11    1    4    4    0    0  0.48906622796E-01 -0.11511259713E+00 -0.23274875494E-01  0.12721929382E+00  0.51100000000E-03 0. -1.
         11    1    4    4    0    0  0.61093026521E-02 -0.34846187650E-02  0.24493085137E-03  0.70560087127E-02  0.51100000000E-03 0.  1.
</event>
<event>
 8    1  0.1071333E+005  0.1043930E+01  0.7957747E-01            NaN
         13   -1    0    0    0    0  0.00000000000E+00  0.00000000000E+00  0.74505805969E-08  0.10566000000E+00  0.10566000000E+00 0.  1.
     999900   -1    0    0    0    0 -0.00000000000E+00 -0.00000000000E+00 -0.74505805969E-08  0.93827000000E+00  0.93827000000E+00 0. -1.
     999902    2    1    2    0    0 -0.75789735525E-02  0.20383016758E-01 -0.77735904992E-02  0.10208359115E+01  0.10205746525E+01 0.  0.
     999903    2    3    3    0    0  0.20601025782E-01  0.77443536653E-01  0.10248073286E+00  0.13167561604E+00  0.20353466964E-01 0.  0.
         14    1    1    2    0    0  0.75789735525E-02 -0.20383016758E-01  0.77735904992E-02  0.23094088454E-01  0.00000000000E+00 0.  1.
     999901    1    3    3    0    0 -0.28179999334E-01 -0.57060519895E-01 -0.11025432336E+00  0.88916029551E+00  0.88000000000E+00 0. -1.
        -11    1    4    4    0    0 -0.27314627758E-02  0.21915057432E-01  0.33126664352E-01  0.39816675442E-01  0.51100000000E-03 0. -1.
         11    1    4    4    0    0  0.23332488557E-01  0.55528479220E-01  0.69354068512E-01  0.91858940594E-01  0.51100000000E-03 0.  1.
</event>
<event>
 8    1  0.1071333E+005  0.1043930E+01  0.7957747E-01            NaN
         13   -1    0    0    0    0  0.00000000000E+00  0.00000000000E+00  0.74505805969E-08  0.10566000000E+00  0.10566000000E+00 0.  1.
     999900   -1    0    0    0    0 -0.00000000000E+00 -0.00000000000E+00 -0.74505805969E-08  0.93827000000E+00  0.93827000000E+00 0.  1.
     999902    2    1    2    0    0 -0.77887692601E-02  0.99218121567E-02 -0.20353205785E-01  0.10199850576E+01  0.10197039557E+01 0.  0.
     999903    2    3    3    0    0 -0.50816319540E-01  0.67144027691E-01  0.95996796153E-01  0.12944416855E+00  0.21208232225E-01 0.  0.
         14    1    1    2    0    0  0.77887692601E-02 -0.99218121567E-02  0.20353205785E-01  0.23944942447E-01  0.00000000000E+00 0.  1.
     999901    1    3    3    0    0  0.43027550280E-01 -0.57222215534E-01 -0.11635000194E+00  0.89054088900E+00  0.88000000000E+00 0. -1.
        -11    1    4    4    0    0 -0.49420657776E-01  0.59130509216E-01  0.92951146528E-01  0.12074351037E+00  0.51100000000E-03 0.  1.
         11    1    4    4    0    0 -0.13956617647E-02  0.80135184748E-02  0.30456496245E-02  0.87006581787E-02  0.51100000000E-03 0. -1.
</event>
<event>
 8    1  0.1071333E+005  0.1043930E+01  0.7957747E-01            NaN
         13   -1    0    0    0    0  0.00000000000E+00  0.00000000000E+00  0.74505805969E-08  0.10566000000E+00  0.10566000000E+00 0. -1.
     999900   -1    0    0    0    0 -0.00000000000E+00 -0.00000000000E+00 -0.74505805969E-08  0.93827000000E+00  0.93827000000E+00 0.  1.
     999902    2    1    2    0    0 -0.83695541872E-02 -0.14967227310E-01  0.15463646449E-01  0.10208390561E+01  0.10205778690E+01 0.  0.
     999903    2    3    3    0    0  0.11343647216E+00 -0.60449840727E-01  0.18004739316E-01  0.13128195652E+00  0.19717124788E-01 0.  0.
         14    1    1    2    0    0  0.83695541872E-02  0.14967227310E-01 -0.15463646449E-01  0.23090943942E-01  0.00000000000E+00 0.  1.
     999901    1    3    3    0    0 -0.12180602635E+00  0.45482613417E-01 -0.25410928673E-02  0.88955709953E+00  0.88000000000E+00 0.  1.
        -11    1    4    4    0    0  0.36928505957E-01 -0.96027767438E-02  0.62387117021E-02  0.38666658998E-01  0.51100000000E-03 0.  1.
         11    1    4    4    0    0  0.76507966207E-01 -0.50847063983E-01  0.11766027614E-01  0.92615297525E-01  0.51100000000E-03 0. -1.
</event>
<event>
 8    1  0.1071333E+005  0.1043930E+01  0.7957747E-01            NaN
         13   -1    0    0    0    0  0.00000000000E+00  0.00000000000E+00  0.74505805969E-08  0.10566000000E+00  0.10566000000E+00 0.  1.
     999900   -1    0    0    0    0 -0.00000000000E+00 -0.00000000000E+00 -0.74505805969E-08  0.93827000000E+00  0.93827000000E+00 0. -1.
     999902    2    1    2    0    0  0.41742591482E-02 -0.68250474867E-02 -0.22643079214E-01  0.10199151140E+01  0.10196323480E+01 0.  0.
     999903    2    3    3    0    0 -0.49556063217E-01  0.85590453878E-01 -0.84106916046E-01  0.13131769354E+00  0.19718877083E-01 0.  0.
         14    1    1    2    0    0 -0.41742591482E-02  0.68250474867E-02  0.22643079214E-01  0.24014885986E-01  0.00000000000E+00 0.  1.
     999901    1    3    3    0    0  0.53730322365E-01 -0.92415501365E-01  0.61463836832E-01  0.88859742047E+00  0.88000000000E+00 0. -1.
        -11    1    4    4    0    0 -0.19541701914E-01  0.37965531693E-01 -0.48891327867E-01  0.64914426532E-01  0.51100000000E-03 0. -1.
         11    1    4    4    0    0 -0.30014361303E-01  0.47624922185E-01 -0.35215588179E-01  0.66403267008E-01  0.51100000000E-03 0.  1.
</event>
<event>
 8    1  0.1071333E+005  0.1043930E+01  0.7957747E-01            NaN
         13   -1    0    0    0    0  0.00000000000E+00  0.00000000000E+00  0.74505805969E-08  0.10566000000E+00  0.10566000000E+00 0.  1.
     999900   -1    0    0    0    0 -0.00000000000E+00 -0.00000000000E+00 -0.74505805969E-08  0.93827000000E+00  0.93827000000E+00 0. -1.
     999902    2    1    2    0    0 -0.10694406180E-01  0.60616378012E-02 -0.18931569799E-01  0.10213574921E+01  0.10211080298E+01 0.  0.
     999903    2    3    3    0    0 -0.41859730037E-01 -0.11375423349E+00 -0.48747952067E-01  0.13219151377E+00  0.20148718260E-01 0.  0.
         14    1    1    2    0    0  0.10694406180E-01 -0.60616378012E-02  0.18931569799E-01  0.22572507868E-01  0.00000000000E+00 0.  1.
     999901    1    3    3    0    0  0.31165323857E-01  0.11981587129E+00  0.29816382267E-01  0.88916597836E+00  0.88000000000E+00 0. -1.
        -11    1    4    4    0    0 -0.18616037690E-01 -0.30003731536E-01 -0.80590988063E-02  0.36221415764E-01  0.51100000000E-03 0. -1.
         11    1    4    4    0    0 -0.23243692347E-01 -0.83750501950E-01 -0.40688853260E-01  0.95970098007E-01  0.51100000000E-03 0.  1.
</event>
<event>
 8    1  0.1071333E+005  0.1043930E+01  0.7957747E-01            NaN
         13   -1    0    0    0    0  0.00000000000E+00  0.00000000000E+00  0.74505805969E-08  0.10566000000E+00  0.10566000000E+00 0. -1.
     999900   -1    0    0    0    0 -0.00000000000E+00 -0.00000000000E+00 -0.74505805969E-08  0.93827000000E+00  0.93827000000E+00 0. -1.
     999902    2    1    2    0    0  0.89557686090E-02  0.93166580049E-02 -0.18954474171E-01  0.10209892503E+01  0.10207314883E+01 0.  0.
     999903    2    3    3    0    0  0.97716506851E-01 -0.50856458752E-01 -0.71660537430E-01  0.13291425244E+00  0.19901526825E-01 0.  0.
         14    1    1    2    0    0 -0.89557686090E-02 -0.93166580049E-02  0.18954474171E-01  0.22940749745E-01  0.00000000000E+00 0. -1.
     999901    1    3    3    0    0 -0.88760738242E-01  0.60173116757E-01  0.52706063260E-01  0.88807499781E+00  0.88000000000E+00 0.  1.
        -11    1    4    4    0    0  0.23528156915E-01 -0.35342297343E-02 -0.18093973933E-01  0.29895116011E-01  0.51100000000E-03 0.  1.
         11    1    4    4    0    0  0.74188349936E-01 -0.47322229018E-01 -0.53566563497E-01  0.10301913643E+00  0.51100000000E-03 0. -1.
</event>
<event>
 8    1  0.1071333E+005  0.1043930E+01  0.7957747E-01            NaN
         13   -1    0    0    0    0  0.00000000000E+00  0.00000000000E+00  0.74505805969E-08  0.10566000000E+00  0.10566000000E+00 0.  1.
     999900   -1    0    0    0    0 -0.00000000000E+00 -0.00000000000E+00 -0.74505805969E-08  0.93827000000E+00  0.93827000000E+00 0. -1.
     999902    2    1    2    0    0  0.19400994489E-01 -0.56290228485E-02 -0.11904811789E-01  0.10204819931E+01  0.10202125706E+01 0.  0.
     999903    2    3    3    0    0 -0.56098086943E-01  0.34456821971E-02  0.11350055789E+00  0.12834468956E+00  0.20763299671E-01 0.  0.
         14    1    1    2    0    0 -0.19400994489E-01  0.56290228485E-02  0.11904811789E-01  0.23448006933E-01  0.00000000000E+00 0.  1.
     999901    1    3    3    0    0  0.75499081432E-01 -0.90747050456E-02 -0.12540536967E+00  0.89213730351E+00  0.88000000000E+00 0. -1.
        -11    1    4    4    0    0 -0.42175943392E-01  0.24447772922E-02  0.10145460195E+00  0.10990033902E+00  0.51100000000E-03 0.  1.
         11    1    4    4    0    0 -0.13922143551E-01  0.10009049049E-02  0.12045955931E-01  0.18444350543E-01  0.51100000000E-03 0. -1.
</event>
<event>
 8    1  0.1071333E+005  0.1043930E+01  0.7957747E-01            NaN
         13   -1    0    0    0    0  0.00000000000E+00  0.00000000000E+00  0.74505805969E-08  0.10566000000E+00  0.10566000000E+00 0. -1.
     999900   -1    0    0    0    0 -0.00000000000E+00 -0.00000000000E+00 -0.74505805969E-08  0.93827000000E+00  0.93827000000E+00 0. -1.
     999902    2    1    2    0    0 -0.16414073098E-01  0.15814410487E-02 -0.15467886943E-01  0.10213207480E+01  0.10210704637E+01 0.  0.
     999903    2    3    3    0    0 -0.12191774508E+00  0.19999540554E-01 -0.48423869398E-01  0.13421514659E+00  0.20122531166E-01 0.  0.
         14    1    1    2    0    0  0.16414073098E-01 -0.15814410487E-02  0.15467886943E-01  0.22609252043E-01  0.00000000000E+00 0. -1.
     999901    1    3    3    0    0  0.10550367198E+00 -0.18418099506E-01  0.32955982456E-01  0.88710560136E+00  0.88000000000E+00 0. -1.
        -11    1    4    4    0    0 -0.65508791535E-01  0.18670357970E-01 -0.19772811461E-01  0.70931017398E-01  0.51100000000E-03 0. -1.
         11    1    4    4    0    0 -0.56408953542E-01  0.13291825846E-02 -0.28651057938E-01  0.63284129196E-01  0.51100000000E-03 0.  1.
</event>
<event>
 8    1  0.1071333E+005  0.1043930E+01  0.7957747E-01            NaN
         13   -1    0    0    0    0  0.00000000000E+00  0.00000000000E+00  0.74505805969E-08  0.10566000000E+00  0.10566000000E+00 0. -1.
     999900   -1    0    0    0    0 -0.00000000000E+00 -0.00000000000E+00 -0.74505805969E-08  0.93827000000E+00  0.93827000000E+00 0.  1.
     999902    2    1    2    0    0 -0.24128138709E-01 -0.17083182941E-02  0.40663562195E-02  0.10194020429E+01  0.10191069150E+01 0.  0.
     999903    2    3    3    0    0 -0.65252640998E-01  0.34330343329E-01 -0.10619109560E+00  0.13083763016E+00  0.20135964146E-01 0.  0.
         14    1    1    2    0    0  0.24128138709E-01  0.17083182941E-02 -0.40663562195E-02  0.24527957148E-01  0.00000000000E+00 0. -1.
     999901    1    3    3    0    0  0.41124502289E-01 -0.36038661623E-01  0.11025745182E+00  0.88856441269E+00  0.88000000000E+00 0. -1.
        -11    1    4    4    0    0 -0.34864500983E-01  0.72091549342E-02 -0.52753723454E-01  0.63645281073E-01  0.51100000000E-03 0. -1.
         11    1    4    4    0    0 -0.30388140014E-01  0.27121188395E-01 -0.53437372142E-01  0.67192349088E-01  0.51100000000E-03 0.  1.
</event>
<event>
 8    1  0.1071333E+005  0.1043930E+01  0.7957747E-01            NaN
         13   -1    0    0    0    0  0.00000000000E+00  0.00000000000E+00  0.74505805969E-08  0.10566000000E+00  0.10566000000E+00 0. -1.
     999900   -1    0    0    0    0 -0.00000000000E+00 -0.00000000000E+00 -0.74505805969E-08  0.93827000000E+00  0.93827000000E+00 0.  1.
     999902    2    1    2    0    0 -0.88750832281E-02 -0.81654850069E-02  0.19208812393E-01  0.10212491552E+01  0.10209972655E+01 0.  0.
     999903    2    3    3    0    0  0.19772495639E-01 -0.12172855096E+00  0.45744672944E-01  0.13309297207E+00  0.20306954697E-01 0.  0.
         14    1    1    2    0    0  0.88750832281E-02  0.81654850069E-02 -0.19208812393E-01  0.22680844809E-01  0.00000000000E+00 0.  1.
     999901    1    3    3    0    0 -0.28647578867E-01  0.11356306595E+00 -0.26535860551E-01  0.88815618312E+00  0.88000000000E+00 0.  1.
        -11    1    4    4    0    0  0.61053000384E-02 -0.69325617002E-01  0.34913423613E-01  0.77862212469E-01  0.51100000000E-03 0. -1.
         11    1    4    4    0    0  0.13667195601E-01 -0.52402933956E-01  0.10831249332E-01  0.55230759599E-01  0.51100000000E-03 0.  1.
</event>
<event>
 8    1  0.1071333E+005  0.1043930E+01  0.7957747E-01            NaN
         13   -1    0    0    0    0  0.00000000000E+00  0.00000000000E+00  0.74505805969E-08  0.10566000000E+00  0.10566000000E+00 0. -1.
     999900   -1    0    0    0    0 -0.00000000000E+00 -0.00000000000E+00 -0.74505805969E-08  0.93827000000E+00  0.93827000000E+00 0. -1.
     999902    2    1    2    0    0 -0.13143332774E-01  0.13233268102E-01 -0.15155071151E-01  0.10198978806E+01  0.10196147037E+01 0.  0.
     999903    2    3    3    0    0  0.62532802394E-01 -0.11028239830E+00 -0.12886586713E-02  0.12794761592E+00  0.17215488007E-01 0.  0.
         14    1    1    2    0    0  0.13143332774E-01 -0.13233268102E-01  0.15155071151E-01  0.24032119396E-01  0.00000000000E+00 0. -1.
     999901    1    3    3    0    0 -0.75676135168E-01  0.12351566640E+00 -0.13866412480E-01  0.89195026469E+00  0.88000000000E+00 0. -1.
        -11    1    4    4    0    0  0.57896558660E-01 -0.90486155911E-01 -0.35559734485E-02  0.10748331026E+00  0.51100000000E-03 0. -1.
         11    1    4    4    0    0  0.46362437340E-02 -0.19796242389E-01  0.22673147772E-02  0.20464305656E-01  0.51100000000E-03 0.  1.
</event>
<event>
 7    1  0.1071333E+005  0.1043930E+01  0.7957747E-01            NaN
         13   -1    0    0    0    0  0.00000000000E+00  0.00000000000E+00  0.74505805969E-08  0.10566000000E+00  0.10566000000E+00 0.  1.
     999900   -1    0    0    0    0 -0.00000000000E+00 -0.00000000000E+00 -0.74505805969E-08  0.93827000000E+00  0.93827000000E+00 0. -1.
     999903    2    1    2    0    0  0.92196696313E-01 -0.40869046285E-01  0.44689336596E-01  0.11216687189E+00  0.20341105905E-01 0.  0.
         14    1    1    2    0    0  0.17590006436E-01 -0.35186037891E-01  0.79405274909E-02  0.40131254226E-01  0.00000000000E+00 0.  1.
     999901    1    1    2    0    0 -0.10978670275E+00  0.76055084176E-01 -0.52629864086E-01  0.89163187388E+00  0.88000000000E+00 0. -1.
        -11    1    3    3    0    0  0.61657570433E-01 -0.24131628387E-01  0.39088740361E-01  0.76890716112E-01  0.51100000000E-03 0. -1.
         11    1    3    3    0    0  0.30539125880E-01 -0.16737417898E-01  0.56005962349E-02  0.35276155780E-01  0.51100000000E-03 0.  1.
</event>
<event>
 8    1  0.1071333E+005  0.1043930E+01  0.7957747E-01            NaN
         13   -1    0    0    0    0  0.00000000000E+00  0.00000000000E+00  0.74505805969E-08  0.10566000000E+00  0.10566000000E+00 0.  1.
     999900   -1    0    0    0    0 -0.00000000000E+00 -0.00000000000E+00 -0.74505805969E-08  0.93827000000E+00  0.93827000000E+00 0.  1.
     999902    2    1    2    0    0  0.13048626699E-01  0.66178236760E-02 -0.18562819709E-01  0.10202944225E+01  0.10200206214E+01 0.  0.
     999903    2    3    3    0    0 -0.10403592423E-02 -0.11543008255E+00 -0.58112443859E-01  0.13087980392E+00  0.20670767755E-01 0.  0.
         14    1    1    2    0    0 -0.13048626699E-01 -0.66178236760E-02  0.18562819709E-01  0.23635577515E-01  0.00000000000E+00 0.  1.
     999901    1    3    3    0    0  0.14088985941E-01  0.12204790622E+00  0.39549624149E-01  0.88941461856E+00  0.88000000000E+00 0. -1.
        -11    1    4    4    0    0  0.68341365592E-02 -0.64950187710E-01 -0.40438048494E-01  0.76816203974E-01  0.51100000000E-03 0.  1.
         11    1    4    4    0    0 -0.78744958015E-02 -0.50479894839E-01 -0.17674395365E-01  0.54063599950E-01  0.51100000000E-03 0. -1.
</event>
<event>
 8    1  0.1071333E+005  0.1043930E+01  0.7957747E-01            NaN
         13   -1    0    0    0    0  0.00000000000E+00  0.00000000000E+00  0.74505805969E-08  0.10566000000E+00  0.10566000000E+00 0. -1.
     999900   -1    0    0    0    0 -0.00000000000E+00 -0.00000000000E+00 -0.74505805969E-08  0.93827000000E+00  0.93827000000E+00 0.  1.
     999902    2    1    2    0    0  0.18479902619E-02 -0.23405941406E-01 -0.55051161972E-02  0.10198144559E+01  0.10195292860E+01 0.  0.
     999903    2    3    3    0    0  0.11538176990E+00  0.52764102845E-01  0.12531437791E-01  0.12907481270E+00  0.20156065192E-01 0.  0.
         14    1    1    2    0    0 -0.18479902619E-02  0.23405941406E-01  0.55051161972E-02  0.24115544063E-01  0.00000000000E+00 0.  1.
     999901    1    3    3    0    0 -0.11353377964E+00 -0.76170044251E-01 -0.18036553988E-01  0.89073964324E+00  0.88000000000E+00 0.  1.
        -11    1    4    4    0    0  0.58923140254E-01  0.30457841200E-01  0.16116799432E-01  0.68261474441E-01  0.51100000000E-03 0. -1.
         11    1    4    4    0    0  0.56458629651E-01  0.22306261646E-01 -0.35853616410E-02  0.60813338255E-01  0.51100000000E-03 0.  1.
</event>
<event>
 8    1  0.1071333E+005  0.1043930E+01  0.7957747E-01            NaN
         13   -1    0    0    0    0  0.00000000000E+00  0.00000000000E+00  0.74505805969E-08  0.10566000000E+00  0.10566000000E+00 0.  1.
     999900   -1    0    0    0    0 -0.00000000000E+00 -0.00000000000E+00 -0.74505805969E-08  0.93827000000E+00  0.93827000000E+00 0.  1.
     999902    2    1    2    0    0  0.12678236990E-01 -0.14144842095E-01  0.13651055917E-01  0.10205384293E+01  0.10202703172E+01 0.  0.
     999903    2    3    3    0    0  0.10956263739E+00 -0.64907233983E-01 -0.30991159660E-01  0.13264410291E+00  0.20422671801E-01 0.  0.
         14    1    1    2    0    0 -0.12678236990E-01  0.14144842095E-01 -0.13651055917E-01  0.23391570677E-01  0.00000000000E+00 0. -1.
     999901    1    3    3    0    0 -0.96884400401E-01  0.50762391888E-01  0.44642215577E-01  0.88789432642E+00  0.88000000000E+00 0. -1.
        -11    1    4    4    0    0  0.91337698626E-01 -0.45578262716E-01 -0.20745422246E-01  0.10416615039E+00  0.51100000000E-03 0.  1.
         11    1    4    4    0    0  0.18224938765E-01 -0.19328971267E-01 -0.10245737414E-01  0.28477952514E-01  0.51100000000E-03 0. -1.
</event>
<event>
 8    1  0.1071333E+005  0.1043930E+01  0.7957747E-01            NaN
         13   -1    0    0    0    0  0.00000000000E+00  0.00000000000E+00  0.74505805969E-08  0.10566000000E+00  0.10566000000E+00 0. -1.
     999900   -1    0    0    0    0 -0.00000000000E+00 -0.00000000000E+00 -0.74505805969E-08  0.93827000000E+00  0.93827000000E+00 0.  1.
     999902    2    1    2    0    0  0.13578475142E-01  0.21278899335E-01 -0.23587429959E-02  0.10185778756E+01  0.10182623230E+01 0.  0.
     999903    2    3    3    0    0  0.21548325298E-01  0.12715384464E+00  0.19209690925E-01  0.13193351627E+00  0.20124859267E-01 0.  0.
         14    1    1    2    0    0 -0.13578475142E-01 -0.21278899335E-01  0.23587429959E-02  0.25352124420E-01  0.00000000000E+00 0.  1.
     999901    1    3    3    0    0 -0.79698501567E-02 -0.10587494530E+00 -0.21568433921E-01  0.88664435931E+00  0.88000000000E+00 0.  1.
        -11    1    4    4    0    0  0.27613263634E-02  0.47747609236E-01  0.15386248789E-01  0.50243973607E-01  0.51100000000E-03 0. -1.
         11    1    4    4    0    0  0.18786998935E-01  0.79406235402E-01  0.38234421363E-02  0.81689542662E-01  0.51100000000E-03 0.  1.
</event>
<event>
 8    1  0.1071333E+005  0.1043930E+01  0.7957747E-01            NaN
         13   -1    0    0    0    0  0.00000000000E+00  0.00000000000E+00  0.74505805969E-08  0.10566000000E+00  0.10566000000E+00 0. -1.
     999900   -1    0    0    0    0 -0.00000000000E+00 -0.00000000000E+00 -0.74505805969E-08  0.93827000000E+00  0.93827000000E+00 0. -1.
     999902    2    1    2    0    0  0.12464340125E-01 -0.20071237497E-01  0.68349079046E-02  0.10193346688E+01  0.10190378976E+01 0.  0.
     999903    2    3    3    0    0  0.10316833289E+00  0.75679955840E-01  0.56712924246E-03  0.12948367547E+00  0.19863029717E-01 0.  0.
         14    1    1    2    0    0 -0.12464340125E-01  0.20071237497E-01 -0.68349079046E-02  0.24595331173E-01  0.00000000000E+00 0. -1.
     999901    1    3    3    0    0 -0.90703992769E-01 -0.95751193337E-01  0.62677786621E-02  0.88985099336E+00  0.88000000000E+00 0.  1.
        -11    1    4    4    0    0  0.29091107653E-01  0.31547951222E-01 -0.42137626201E-02  0.43122878930E-01  0.51100000000E-03 0.  1.
         11    1    4    4    0    0  0.74077225241E-01  0.44132004618E-01  0.47808918626E-02  0.86360796540E-01  0.51100000000E-03 0. -1.
</event>
<event>
 8    1  0.1071333E+005  0.1043930E+01  0.7957747E-01            NaN
         13   -1    0    0    0    0  0.00000000000E+00  0.00000000000E+00  0.74505805969E-08  0.10566000000E+00  0.10566000000E+00 0.  1.
     999900   -1    0    0    0    0 -0.00000000000E+00 -0.00000000000E+00 -0.74505805969E-08  0.93827000000E+00  0.93827000000E+00 0. -1.
     999902    2    1    2    0    0 -0.20332149557E-01 -0.10202384257E-01  0.11736440818E-01  0.10183325589E+01  0.10180107914E+01 0.  0.
     999903    2    3    3    0    0  0.12323863273E+00 -0.10083524591E-01 -0.14114417587E-01  0.12632311354E+00  0.21653502388E-01 0.  0.
         14    1    1    2    0    0  0.20332149557E-01  0.10202384257E-01 -0.11736440818E-01  0.25597441146E-01  0.00000000000E+00 0. -1.
     999901    1    3    3    0    0 -0.14357078228E+00 -0.11885966620E-03  0.25850858405E-01  0.89200944532E+00  0.88000000000E+00 0. -1.
        -11    1    4    4    0    0  0.80996493039E-01  0.36006953882E-02 -0.74522312789E-02  0.81419860992E-01  0.51100000000E-03 0. -1.
         11    1    4    4    0    0  0.42242139687E-01 -0.13684219980E-01 -0.66621863081E-02  0.44903252546E-01  0.51100000000E-03 0.  1.
</event>
<event>
 8    1  0.1071333E+005  0.1043930E+01  0.7957747E-01            NaN
         13   -1    0    0    0    0  0.00000000000E+00  0.00000000000E+00  0.74505805969E-08  0.10566000000E+00  0.10566000000E+00 0.  1.
     999900   -1    0    0    0    0 -0.00000000000E+00 -0.00000000000E+00 -0.74505805969E-08  0.93827000000E+00  0.93827000000E+00 0. -1.
     999902    2    1    2    0    0  0.21371034713E-01 -0.11421259044E-01 -0.30095466740E-02  0.10195123086E+01  0.10192198603E+01 0.  0.
     999903    2    3    3    0    0 -0.41533596586E-01  0.15352123607E-01  0.11875804432E+00  0.12850099953E+00  0.21173248323E-01 0.  0.
         14    1    1    2    0    0 -0.21371034713E-01  0.11421259044E-01  0.30095466740E-02  0.24417691415E-01  0.00000000000E+00 0.  1.
     999901    1    3    3    0    0  0.62904631298E-01 -0.26773382652E-01 -0.12176759099E+00  0.89101130906E+00  0.88000000000E+00 0. -1.
        -11    1    4    4    0    0 -0.37125650190E-01  0.16129516474E-01  0.81792848368E-01  0.91262294344E-01  0.51100000000E-03 0. -1.
         11    1    4    4    0    0 -0.44079463954E-02 -0.77739286637E-03  0.36965195948E-01  0.37238705181E-01  0.51100000000E-03 0.  1.
</event>
<event>
 8    1  0.1071333E+005  0.1043930E+01  0.7957747E-01            NaN
         13   -1    0    0    0    0  0.00000000000E+00  0.00000000000E+00  0.74505805969E-08  0.10566000000E+00  0.10566000000E+00 0.  1.
     999900   -1    0    0    0    0 -0.00000000000E+00 -0.00000000000E+00 -0.74505805969E-08  0.93827000000E+00  0.93827000000E+00 0.  1.
     999902    2    1    2    0    0 -0.11199170267E-01  0.87348908788E-02  0.18748756552E-01  0.10204090390E+01  0.10201379178E+01 0.  0.
     999903    2    3    3    0    0 -0.47196959348E-01  0.34455578142E-01 -0.11360342136E+00  0.12941269022E+00  0.20668023795E-01 0.  0.
         14    1    1    2    0    0  0.11199170267E-01 -0.87348908788E-02 -0.18748756552E-01  0.23520960983E-01  0.00000000000E+00 0. -1.
     999901    1    3    3    0    0  0.35997789081E-01 -0.25720687264E-01  0.13235217791E+00  0.89099634880E+00  0.88000000000E+00 0. -1.
        -11    1    4    4    0    0 -0.13288488216E-01  0.52413759195E-03 -0.33443507736E-01  0.35994276906E-01  0.51100000000E-03 0. -1.
         11    1    4    4    0    0 -0.33908471132E-01  0.33931440551E-01 -0.80159913627E-01  0.93418413313E-01  0.51100000000E-03 0.  1.
</event>
<event>
 8    1  0.1071333E+005  0.1043930E+01  0.7957747E-01            NaN
         13   -1    0    0    0    0  0.00000000000E+00  0.00000000000E+00  0.74505805969E-08  0.10566000000E+00  0.10566000000E+00 0.  1.
     999900   -1    0    0    0    0 -0.00000000000E+00 -0.00000000000E+00 -0.74505805969E-08  0.93827000000E+00  0.93827000000E+00 0. -1.
     999902    2    1    2    0    0  0.76968457896E-02 -0.20584322144E-01  0.12645941445E-01  0.10185750086E+01  0.10182593837E+01 0.  0.
     999903    2    3    3    0    0  0.10941054302E+00 -0.61236940974E-01  0.34253561672E-01  0.13152078204E+00  0.20094271773E-01 0.  0.
         14    1    1    2    0    0 -0.76968457896E-02  0.20584322144E-01 -0.12645941445E-01  0.25354991387E-01  0.00000000000E+00 0. -1.
     999901    1    3    3    0    0 -0.10171369723E+00  0.40652618830E-01 -0.21607620228E-01  0.88705422657E+00  0.88000000000E+00 0.  1.
        -11    1    4    4    0    0  0.46400513912E-01 -0.36205292755E-01  0.11244599183E-01  0.59921056788E-01  0.51100000000E-03 0. -1.
         11    1    4    4    0    0  0.63010029108E-01 -0.25031648219E-01  0.23008962489E-01  0.71599725255E-01  0.51100000000E-03 0.  1.
</event>
<event>
 8    1  0.1071333E+005  0.1043930E+01  0.7957747E-01            NaN
         13   -1    0    0    0    0  0.00000000000E+00  0.00000000000E+00  0.74505805969E-08  0.10566000000E+00  0.10566000000E+00 0. -1.
     999900   -1    0    0    0    0 -0.00000000000E+00 -0.00000000000E+00 -0.74505805969E-08  0.93827000000E+00  0.93827000000E+00 0.  1.
     999902    2    1    2    0    0  0.18958840505E-01 -0.89273214220E-02 -0.97766048529E-02  0.10208060578E+01  0.10205441151E+01 0.  0.
     999903    2    3    3    0    0  0.10542673099E+00 -0.53592629732E-01 -0.59446515191E-01  0.13404860174E+00  0.21170117897E-01 0.  0.
         14    1    1    2    0    0 -0.18958840505E-01  0.89273214220E-02  0.97766048529E-02  0.23123942214E-01  0.00000000000E+00 0.  1.
     999901    1    3    3    0    0 -0.86467890489E-01  0.44665308310E-01  0.49669910338E-01  0.88675745604E+00  0.88000000000E+00 0.  1.
        -11    1    4    4    0    0  0.63113752454E-01 -0.43436461820E-01 -0.38760993548E-01  0.85864705823E-01  0.51100000000E-03 0.  1.
         11    1    4    4    0    0  0.42312978540E-01 -0.10156167912E-01 -0.20685521642E-01  0.48183895922E-01  0.51100000000E-03 0. -1.
</event>
<event>
 8    1  0.1071333E+005  0.1043930E+01  0.7957747E-01            NaN
         13   -1    0    0    0    0  0.00000000000E+00  0.00000000000E+00  0.74505805969E-08  0.10566000000E+00  0.10566000000E+00 0.  1.
     999900   -1    0    0    0    0 -0.00000000000E+00 -0.00000000000E+00 -0.74505805969E-08  0.93827000000E+00  0.93827000000E+00 0.  1.
     999902    2    1    2    0    0  0.11299030623E-01  0.12679542252E-01  0.15733159297E-01  0.10207789485E+01  0.10205163842E+01 0.  0.
     999903    2    3    3    0    0  0.10544659975E-01 -0.12668506609E+00  0.16843369606E-01  0.12981076965E+00  0.20170299779E-01 0.  0.
         14    1    1    2    0    0 -0.11299030623E-01 -0.12679542252E-01 -0.15733159297E-01  0.23151051514E-01  0.00000000000E+00 0. -1.
     999901    1    3    3    0    0  0.75437064747E-03  0.13936460834E+00 -0.11102103089E-02  0.89096817884E+00  0.88000000000E+00 0.  1.
        -11    1    4    4    0    0  0.10264894515E-02 -0.50417753912E-01 -0.27045558622E-02  0.50503260622E-01  0.51100000000E-03 0.  1.
         11    1    4    4    0    0  0.95181705239E-02 -0.76267312178E-01  0.19547925468E-01  0.79307509027E-01  0.51100000000E-03 0. -1.
</event>
<event>
 8    1  0.1071333E+005  0.1043930E+01  0.7957747E-01            NaN
         13   -1    0    0    0    0  0.00000000000E+00  0.00000000000E+00  0.74505805969E-08  0.10566000000E+00  0.10566000000E+00 0. -1.
     999900   -1    0    0    0    0 -0.00000000000E+00 -0.00000000000E+00 -0.74505805969E-08  0.93827000000E+00  0.93827000000E+00 0. -1.
     999902    2    1    2    0    0 -0.12828906124E-02  0.20794256487E-01  0.12838598933E-01  0.10194580460E+01  0.10191642807E+01 0.  0.
     999903    2    3    3    0    0  0.75189956545E-01  0.94576895513E-01  0.49751505013E-01  0.13229710409E+00  0.20712140629E-01 0.  0.
         14    1    1    2    0    0  0.12828906124E-02 -0.20794256487E-01 -0.12838598933E-01  0.24471954024E-01  0.00000000000E+00 0. -1.
     999901    1    3    3    0    0 -0.76472847158E-01 -0.73782639026E-01 -0.36912906080E-01  0.88716094189E+00  0.88000000000E+00 0. -1.
        -11    1    4    4    0    0  0.41749686119E-01  0.67372262911E-01  0.35925805123E-01  0.87022886044E-01  0.51100000000E-03 0.  1.
         11    1    4    4    0    0  0.33440270427E-01  0.27204632602E-01  0.13825699890E-01  0.45274218046E-01  0.51100000000E-03 0. -1.
</event>
<event>
 8    1  0.1071333E+005  0.1043930E+01  0.7957747E-01            NaN
         13   -1    0    0    0    0  0.00000000000E+00  0.00000000000E+00  0.74505805969E-08  0.10566000000E+00  0.10566000000E+00 0. -1.
     999900   -1    0    0    0    0 -0.00000000000E+00 -0.00000000000E+00 -0.74505805969E-08  0.93827000000E+00  0.93827000000E+00 0. -1.
     999902    2    1    2    0    0  0.17086961687E-01  0.82541206226E-03  0.93837484167E-02  0.10244184573E+01  0.10242326275E+01 0.  0.
     999903    2    3    3    0    0 -0.11883982141E+00  0.54425877486E-01  0.54063914193E-02  0.13236188978E+00  0.20133591452E-01 0.  0.
         14    1    1    2    0    0 -0.17086961687E-01 -0.82541206226E-03 -0.93837484167E-02  0.19511542714E-01  0.00000000000E+00 0.  1.
     999901    1    3    3    0    0  0.13592678310E+00 -0.53600465423E-01  0.39773569974E-02  0.89205656750E+00  0.88000000000E+00 0. -1.
        -11    1    4    4    0    0 -0.65161611064E-01  0.38424529646E-01 -0.30612547274E-02  0.75710715467E-01  0.51100000000E-03 0.  1.
         11    1    4    4    0    0 -0.53678210349E-01  0.16001347839E-01  0.84676461467E-02  0.56651174315E-01  0.51100000000E-03 0. -1.
</event>
<event>
 8    1  0.1071333E+005  0.1043930E+01  0.7957747E-01            NaN
         13   -1    0    0    0    0  0.00000000000E+00  0.00000000000E+00  0.74505805969E-08  0.10566000000E+00  0.10566000000E+00 0.  1.
     999900   -1    0    0    0    0 -0.00000000000E+00 -0.00000000000E+00 -0.74505805969E-08  0.93827000000E+00  0.93827000000E+00 0.  1.
     999902    2    1    2    0    0  0.20222318270E-01 -0.48390485590E-02  0.10016682896E-01  0.10208498682E+01  0.10205889285E+01 0.  0.
     999903    2    3    3    0    0 -0.75089693851E-01  0.62047187119E-01  0.83782726942E-01  0.13012006775E+00  0.20575984668E-01 0.  0.
         14    1    1    2    0    0 -0.20222318270E-01  0.48390485590E-02 -0.10016682896E-01  0.23080131789E-01  0.00000000000E+00 0. -1.
     999901    1    3    3    0    0  0.95312012121E-01 -0.66886235678E-01 -0.73766044045E-01  0.89072980046E+00  0.88000000000E+00 0.  1.
        -11    1    4    4    0    0 -0.24061299654E-01  0.26286510569E-01  0.19641598079E-01  0.40693737541E-01  0.51100000000E-03 0. -1.
         11    1    4    4    0    0 -0.51028394197E-01  0.35760676550E-01  0.64141128863E-01  0.89426330208E-01  0.51100000000E-03 0.  1.
</event>
<event>
 8    1  0.1071333E+005  0.1043930E+01  0.7957747E-01            NaN
         13   -1    0    0    0    0  0.00000000000E+00  0.00000000000E+00  0.74505805969E-08  0.10566000000E+00  0.10566000000E+00 0. -1.
     999900   -1    0    0    0    0 -0.00000000000E+00 -0.00000000000E+00 -0.74505805969E-08  0.93827000000E+00  0.93827000000E+00 0. -1.
     999902    2    1    2    0    0  0.14731538323E-01  0.15551268058E-01 -0.10508550798E-01  0.10200702054E+01  0.10197911228E+01 0.  0.
     999903    2    3    3    0    0 -0.23587156136E-01  0.95449350886E-01 -0.86333274384E-01  0.13237576769E+00  0.20074289217E-01 0.  0.
         14    1    1    2    0    0 -0.14731538323E-01 -0.15551268058E-01  0.10508550798E-01  0.23859794623E-01  0.00000000000E+00 0.  1.
     999901    1    3    3    0    0  0.38318694459E-01 -0.79898082828E-01  0.75824723586E-01  0.88769443768E+00  0.88000000000E+00 0.  1.
        -11    1    4    4    0    0 -0.11743813655E-01  0.79179543440E-01 -0.65796774920E-01  0.10361850206E+00  0.51100000000E-03 0. -1.
         11    1    4    4    0    0 -0.11843342481E-01  0.16269807446E-01 -0.20536499464E-01  0.28757265633E-01  0.51100000000E-03 0.  1.
</event>
<event>
 8    1  0.1071333E+005  0.1043930E+01  0.7957747E-01            NaN
         13   -1    0    0    0    0  0.00000000000E+00  0.00000000000E+00  0.74505805969E-08  0.10566000000E+00  0.10566000000E+00 0. -1.
     999900   -1    0    0    0    0 -0.00000000000E+00 -0.00000000000E+00 -0.74505805969E-08  0.93827000000E+00  0.93827000000E+00 0.  1.
     999902    2    1    2    0    0 -0.46757753047E-02  0.69143167012E-02 -0.23149813414E-01  0.10193213732E+01  0.10190242772E+01 0.  0.
     999903    2    3    3    0    0 -0.80716422685E-01  0.55927225175E-01  0.80458154040E-01  0.12863677352E+00  0.20758360792E-01 0.  0.
         14    1    1    2    0    0  0.46757753047E-02 -0.69143167012E-02  0.23149813414E-01  0.24608626765E-01  0.00000000000E+00 0. -1.
     999901    1    3    3    0    0  0.76040647381E-01 -0.49012908474E-01 -0.10360796745E+00  0.89068459972E+00  0.88000000000E+00 0. -1.
        -11    1    4    4    0    0 -0.14989182443E-02  0.62053419074E-02  0.84258075906E-02  0.10583401091E-01  0.51100000000E-03 0. -1.
         11    1    4    4    0    0 -0.79217504441E-01  0.49721883268E-01  0.72032346450E-01  0.11805337243E+00  0.51100000000E-03 0.  1.
</event>
<event>
 8    1  0.1071333E+005  0.1043930E+01  0.7957747E-01            NaN
         13   -1    0    0    0    0  0.00000000000E+00  0.00000000000E+00  0.74505805969E-08  0.10566000000E+00  0.10566000000E+00 0.  1.
     999900   -1    0    0    0    0 -0.00000000000E+00 -0.00000000000E+00 -0.74505805969E-08  0.93827000000E+00  0.93827000000E+00 0.  1.
     999902    2    1    2    0    0  0.18580223036E-01  0.66629324665E-02 -0.13477535014E-01  0.10200288848E+01  0.10197488233E+01 0.  0.
     999903    2    3    3    0    0 -0.67966588208E-01  0.51387006241E-01 -0.96992629887E-01  0.13072277082E+00  0.20513191753E-01 0.  0.
         14    1    1    2    0    0 -0.18580223036E-01 -0.66629324665E-02  0.13477535014E-01  0.23901115186E-01  0.00000000000E+00 0.  1.
     999901    1    3    3    0    0  0.86546811243E-01 -0.44724073775E-01  0.83515094873E-01  0.88930611399E+00  0.88000000000E+00 0. -1.
        -11    1    4    4    0    0 -0.23528954766E-01  0.93815621653E-02 -0.19288730239E-01  0.31842450538E-01  0.51100000000E-03 0. -1.
         11    1    4    4    0    0 -0.44437633442E-01  0.42005444076E-01 -0.77703899648E-01  0.98880320284E-01  0.51100000000E-03 0.  1.
</event>
<event>
 8    1  0.1071333E+005  0.1043930E+01  0.7957747E-01            NaN
         13   -1    0    0    0    0  0.00000000000E+00  0.00000000000E+00  0.74505805969E-08  0.10566000000E+00  0.10566000000E+00 0. -1.
     999900   -1    0    0    0    0 -0.00000000000E+00 -0.00000000000E+00 -0.74505805969E-08  0.93827000000E+00  0.93827000000E+00 0.  1.
     999902    2    1    2    0    0  0.20649288605E-01  0.83662144718E-02  0.11080295740E-01  0.10190470818E+01  0.10187432431E+01 0.  0.
     999903    2    3    3    0    0 -0.94006700570E-01  0.81430128873E-01  0.24495855347E-01  0.12850550013E+00  0.21106657586E-01 0.  0.
         14    1    1    2    0    0 -0.20649288605E-01 -0.83662144718E-02 -0.11080295740E-01  0.24882918200E-01  0.00000000000E+00 0.  1.
     999901    1    3    3    0    0  0.11465598917E+00 -0.73063914401E-01 -0.13415559607E-01  0.89054158167E+00  0.88000000000E+00 0.  1.
        -11    1    4    4    0    0 -0.76004201647E-01  0.68977559446E-01  0.27859647381E-01  0.10635301335E+00  0.51100000000E-03 0.  1.
         11    1    4    4    0    0 -0.18002498923E-01  0.12452569427E-01 -0.33637920339E-02  0.22152486782E-01  0.51100000000E-03 0. -1.
</event>
<event>
 8    1  0.1071333E+005  0.1043930E+01  0.7957747E-01            NaN
         13   -1    0    0    0    0  0.00000000000E+00  0.00000000000E+00  0.74505805969E-08  0.10566000000E+00  0.10566000000E+00 0.  1.
     999900   -1    0    0    0    0 -0.00000000000E+00 -0.00000000000E+00 -0.74505805969E-08  0.93827000000E+00  0.93827000000E+00 0. -1.
     999902    2    1    2    0    0  0.25669639744E-01  0.16889217525E-01  0.50725141573E-02  0.10127866785E+01  0.10123077347E+01 0.  0.
     999903    2    3    3    0    0  0.97480298542E-01 -0.70679795893E-01 -0.27719220349E-01  0.12492385089E+00  0.18427457585E-01 0.  0.
         14    1    1    2    0    0 -0.25669639744E-01 -0.16889217525E-01 -0.50725141573E-02  0.31143321485E-01  0.00000000000E+00 0. -1.
     999901    1    3    3    0    0 -0.71810658797E-01  0.87569013418E-01  0.32791734506E-01  0.88786282763E+00  0.88000000000E+00 0. -1.
        -11    1    4    4    0    0  0.20595243807E-01 -0.68729651707E-02 -0.23903809204E-02  0.21848953285E-01  0.51100000000E-03 0.  1.
         11    1    4    4    0    0  0.76885054735E-01 -0.63806830722E-01 -0.25328839429E-01  0.10307489760E+00  0.51100000000E-03 0. -1.
</event>
<event>
 8    1  0.1071333E+005  0.1043930E+01  0.7957747E-01            NaN
         13   -1    0    0    0    0  0.00000000000E+00  0.00000000000E+00  0.74505805969E-08  0.10566000000E+00  0.10566000000E+00 0. -1.
     999900   -1    0    0    0    0 -0.00000000000E+00 -0.00000000000E+00 -0.74505805969E-08  0.93827000000E+00  0.93827000000E+00 0. -1.
     999902    2    1    2    0    0  0.21187966904E-01  0.14177960152E-01  0.41762172630E-02  0.10180961988E+01  0.10177683846E+01 0.  0.
     999903    2    3    3    0    0 -0.79363582924E-01  0.91807872477E-01 -0.35608671313E-01  0.12808504444E+00  0.20261722381E-01 0.  0.
         14    1    1    2    0    0 -0.21187966904E-01 -0.14177960152E-01 -0.41762172630E-02  0.25833801234E-01  0.00000000000E+00 0. -1.
     999901    1    3    3    0    0  0.10055154983E+00 -0.77629912325E-01  0.39784888576E-01  0.89001115432E+00  0.88000000000E+00 0.  1.
        -11    1    4    4    0    0 -0.27174367308E-01  0.26374329517E-01 -0.21089915000E-02  0.37930996062E-01  0.51100000000E-03 0. -1.
         11    1    4    4    0    0 -0.52189215616E-01  0.65433542960E-01 -0.33499679813E-01  0.90154048381E-01  0.51100000000E-03 0.  1.
</event>
<event>
 8    1  0.1071333E+005  0.1043930E+01  0.7957747E-01            NaN
         13   -1    0    0    0    0  0.00000000000E+00  0.00000000000E+00  0.74505805969E-08  0.10566000000E+00  0.10566000000E+00 0.  1.
     999900   -1    0    0    0    0 -0.00000000000E+00 -0.00000000000E+00 -0.74505805969E-08  0.93827000000E+00  0.93827000000E+00 0. -1.
     999902    2    1    2    0    0 -0.37717318624E-02 -0.20519748707E-01 -0.15071796662E-01  0.10181919911E+01  0.10178666345E+01 0.  0.
     999903    2    3    3    0    0 -0.12301513702E-01 -0.92725854721E-01  0.86966156528E-01  0.12931729642E+00  0.20259304015E-01 0.  0.
         14    1    1    2    0    0  0.37717318624E-02  0.20519748707E-01  0.15071796662E-01  0.25738008914E-01  0.00000000000E+00 0.  1.
     999901    1    3    3    0    0  0.85297818393E-02  0.72206106014E-01 -0.10203795319E+00  0.88887469466E+00  0.88000000000E+00 0. -1.
        -11    1    4    4    0    0  0.34371211696E-02 -0.11155300614E-01  0.53263564923E-02  0.12840783785E-01  0.51100000000E-03 0.  1.
         11    1    4    4    0    0 -0.15738634871E-01 -0.81570554107E-01  0.81639800036E-01  0.11647651264E+00  0.51100000000E-03 0. -1.
</event>
<event>
 8    1  0.1071333E+005  0.1043930E+01  0.7957747E-01            NaN
         13   -1    0    0    0    0  0.00000000000E+00  0.00000000000E+00  0.74505805969E-08  0.10566000000E+00  0.10566000000E+00 0. -1.
     999900   -1    0    0    0    0 -0.00000000000E+00 -0.00000000000E+00 -0.74505805969E-08  0.93827000000E+00  0.93827000000E+00 0. -1.
     999902    2    1    2    0    0  0.38533052242E-02  0.26573450799E-01  0.75253779506E-03  0.10170680834E+01  0.10167132948E+01 0.  0.
     999903    2    3    3    0    0  0.11836577472E+00 -0.36660500142E-01 -0.19972040575E-01  0.12715733152E+00  0.20387634960E-01 0.  0.
         14    1    1    2    0    0 -0.38533052242E-02 -0.26573450799E-01 -0.75253779506E-03  0.26861916567E-01  0.00000000000E+00 0. -1.
     999901    1    3    3    0    0 -0.11451246949E+00  0.63233950941E-01  0.20724578370E-01  0.88991075191E+00  0.88000000000E+00 0. -1.
        -11    1    4    4    0    0  0.48222751939E-01 -0.17169169334E-01 -0.18211229413E-01  0.54333453580E-01  0.51100000000E-03 0. -1.
         11    1    4    4    0    0  0.70143022779E-01 -0.19491330808E-01 -0.17608111616E-02  0.72823877940E-01  0.51100000000E-03 0.  1.
</event>
<event>
 8    1  0.1071333E+005  0.1043930E+01  0.7957747E-01            NaN
         13   -1    0    0    0    0  0.00000000000E+00  0.00000000000E+00  0.74505805969E-08  0.10566000000E+00  0.10566000000E+00 0. -1.
     999900   -1    0    0    0    0 -0.00000000000E+00 -0.00000000000E+00 -0.74505805969E-08  0.93827000000E+00  0.93827000000E+00 0.  1.
     999902    2    1    2    0    0  0.22210368621E-01  0.35099241640E-02 -0.69058620901E-02  0.10204074369E+01  0.10201362783E+01 0.  0.
     999903    2    3    3    0    0 -0.40716830097E-01 -0.45384409285E-01 -0.11351117177E+00  0.13039890876E+00  0.20037076354E-01 0.  0.
         14    1    1    2    0    0 -0.22210368621E-01 -0.35099241640E-02  0.69058620901E-02  0.23522563064E-01  0.00000000000E+00 0.  1.
     999901    1    3    3    0    0  0.62927198718E-01  0.48894333449E-01  0.10660530968E+00  0.89000852818E+00  0.88000000000E+00 0. -1.
        -11    1    4    4    0    0 -0.33532094079E-01 -0.27290127902E-01 -0.90168265293E-01  0.99998647997E-01  0.51100000000E-03 0. -1.
         11    1    4    4    0    0 -0.71847360177E-02 -0.18094281383E-01 -0.23342906476E-01  0.30400260758E-01  0.51100000000E-03 0.  1.
</event>
<event>
 8    1  0.1071333E+005  0.1043930E+01  0.7957747E-01            NaN
         13   -1    0    0    0    0  0.00000000000E+00  0.00000000000E+00  0.74505805969E-08  0.10566000000E+00  0.10566000000E+00 0.  1.
     999900   -1    0    0    0    0 -0.00000000000E+00 -0.00000000000E+00 -0.74505805969E-08  0.93827000000E+00  0.93827000000E+00 0.  1.
     999902    2    1    2    0    0 -0.48224529378E-02 -0.21983375771E-01 -0.32371149733E-02  0.10211922830E+01  0.10209391143E+01 0.  0.
     999903    2    3    3    0    0 -0.11327938873E+00  0.34632567401E-01 -0.53058037933E-01  0.13133252081E+00  0.20035992523E-01 0.  0.
         14    1    1    2    0    0  0.48224529378E-02  0.21983375771E-01  0.32371149733E-02  0.22737717036E-01  0.00000000000E+00 0.  1.
     999901    1    3    3    0    0  0.10845693579E+00 -0.56615943172E-01  0.49820922960E-01  0.88985976216E+00  0.88000000000E+00 0. -1.
        -11    1    4    4    0    0 -0.94301675496E-01  0.25951722438E-01 -0.51134578640E-01  0.11036894560E+00  0.51100000000E-03 0.  1.
         11    1    4    4    0    0 -0.18977713233E-01  0.86808449627E-02 -0.19234592925E-02  0.20963575208E-01  0.51100000000E-03 0. -1.
</event>
<event>
 8    1  0.1305728E+005  0.1043930E+01  0.7957747E-01            NaN
         13   -1    0    0    0    0  0.00000000000E+00  0.00000000000E+00  0.74505805969E-08  0.10566000000E+00  0.10566000000E+00 0.  1.
     999900   -1    0    0    0    0 -0.00000000000E+00 -0.00000000000E+00 -0.74505805969E-08  0.93827000000E+00  0.93827000000E+00 0. -1.
     999902    2    1    2    0    0  0.68378793982E-02  0.15315732791E-01  0.31633744640E-01  0.10081246643E+01  0.10074886186E+01 0.  0.
     999903    2    3    3    0    0  0.89640645404E-01  0.55172896954E-01  0.60159350179E-01  0.12287972543E+00  0.20019631413E-01 0.  0.
         14    1    1    2    0    0 -0.68378793982E-02 -0.15315732791E-01 -0.31633744640E-01  0.35805335714E-01  0.00000000000E+00 0. -1.
     999901    1    3    3    0    0 -0.82802766006E-01 -0.39857164163E-01 -0.28525605539E-01  0.88524493885E+00  0.88000000000E+00 0. -1.
        -11    1    4    4    0    0  0.34643845640E-01  0.13766650111E-01  0.29387894313E-01  0.47472372483E-01  0.51100000000E-03 0.  1.
         11    1    4    4    0    0  0.54996799764E-01  0.41406246843E-01  0.30771455866E-01  0.75407352950E-01  0.51100000000E-03 0. -1.
</event>
<event>
 8    1  0.1071333E+005  0.1043930E+01  0.7957747E-01            NaN
         13   -1    0    0    0    0  0.00000000000E+00  0.00000000000E+00  0.74505805969E-08  0.10566000000E+00  0.10566000000E+00 0.  1.
     999900   -1    0    0    0    0 -0.00000000000E+00 -0.00000000000E+00 -0.74505805969E-08  0.93827000000E+00  0.93827000000E+00 0.  1.
     999902    2    1    2    0    0 -0.17798507759E-01  0.10528346970E-01  0.10297976198E-01  0.10208284571E+01  0.10205670275E+01 0.  0.
     999903    2    3    3    0    0  0.92647222645E-01 -0.78652541113E-01 -0.39063683119E-01  0.12808657756E+00  0.10510467367E-01 0.  0.
         14    1    1    2    0    0  0.17798507759E-01 -0.10528346970E-01 -0.10297976198E-01  0.23101542852E-01  0.00000000000E+00 0. -1.
     999901    1    3    3    0    0 -0.11044573040E+00  0.89180888083E-01  0.49361659317E-01  0.89274187959E+00  0.88000000000E+00 0.  1.
        -11    1    4    4    0    0  0.36663550549E-01 -0.33455405807E-01 -0.21035990049E-01  0.53909684797E-01  0.51100000000E-03 0. -1.
         11    1    4    4    0    0  0.55983672097E-01 -0.45197135305E-01 -0.18027693071E-01  0.74176892761E-01  0.51100000000E-03 0.  1.
</event>
<event>
 8    1  0.1071333E+005  0.1043930E+01  0.7957747E-01            NaN
         13   -1    0    0    0    0  0.00000000000E+00  0.00000000000E+00  0.74505805969E-08  0.10566000000E+00  0.10566000000E+00 0.  1.
     999900   -1    0    0    0    0 -0.00000000000E+00 -0.00000000000E+00 -0.74505805969E-08  0.93827000000E+00  0.93827000000E+00 0.  1.
     999902    2    1    2    0    0 -0.20914575146E-01  0.28362848835E-02 -0.60313690914E-02  0.10219791144E+01  0.10217433479E+01 0.  0.
     999903    2    3    3    0    0  0.10777316463E+00 -0.46404085137E-01 -0.52289382573E-01  0.13005705939E+00  0.20304310729E-01 0.  0.
         14    1    1    2    0    0  0.20914575146E-01 -0.28362848835E-02  0.60313690914E-02  0.21950885599E-01  0.00000000000E+00 0.  1.
     999901    1    3    3    0    0 -0.12868773978E+00  0.49240370020E-01  0.46258013482E-01  0.89192205501E+00  0.88000000000E+00 0.  1.
        -11    1    4    4    0    0  0.86306679161E-01 -0.41306766505E-01 -0.49743498885E-01  0.10784140499E+00  0.51100000000E-03 0. -1.
         11    1    4    4    0    0  0.21466485471E-01 -0.50973186320E-02 -0.25458836881E-02  0.22215654401E-01  0.51100000000E-03 0.  1.
</event>
<event>
 8    1  0.1071333E+005  0.1043930E+01  0.7957747E-01            NaN
         13   -1    0    0    0    0  0.00000000000E+00  0.00000000000E+00  0.74505805969E-08  0.10566000000E+00  0.10566000000E+00 0. -1.
     999900   -1    0    0    0    0 -0.00000000000E+00 -0.00000000000E+00 -0.74505805969E-08  0.93827000000E+00  0.93827000000E+00 0.  1.
     999902    2    1    2    0    0  0.87556666167E-02  0.19560754687E-03 -0.22500863158E-01  0.10197848389E+01  0.10194989597E+01 0.  0.
     999903    2    3    3    0    0  0.68901176572E-01 -0.57651878218E-01 -0.95672636249E-01  0.13281363176E+00  0.20373911223E-01 0.  0.
         14    1    1    2    0    0 -0.87556666167E-02 -0.19560754687E-03  0.22500863158E-01  0.24145161069E-01  0.00000000000E+00 0. -1.
     999901    1    3    3    0    0 -0.60145509955E-01  0.57847485765E-01  0.73171773091E-01  0.88697120717E+00  0.88000000000E+00 0. -1.
        -11    1    4    4    0    0  0.15662814851E-01 -0.32594070575E-02 -0.16913428418E-01  0.23286749135E-01  0.51100000000E-03 0. -1.
         11    1    4    4    0    0  0.53238361721E-01 -0.54392471161E-01 -0.78759207832E-01  0.10952688262E+00  0.51100000000E-03 0.  1.
</event>
<event>
 8    1  0.1071333E+005  0.1043930E+01  0.7957747E-01            NaN
         13   -1    0    0    0    0  0.00000000000E+00  0.00000000000E+00  0.74505805969E-08  0.10566000000E+00  0.10566000000E+00 0.  1.
     999900   -1    0    0    0    0 -0.00000000000E+00 -0.00000000000E+00 -0.74505805969E-08  0.93827000000E+00  0.93827000000E+00 0.  1.
     999902    2    1    2    0    0  0.20191029868E-01 -0.73002751742E-02  0.10733738470E-01  0.10199261493E+01  0.10196436462E+01 0.  0.
     999903    2    3    3    0    0 -0.12213271506E+00 -0.71031301083E-02 -0.29931897221E-01  0.12756423781E+00  0.20245042593E-01 0.  0.
         14    1    1    2    0    0 -0.20191029868E-01  0.73002751742E-02 -0.10733738470E-01  0.24003850655E-01  0.00000000000E+00 0. -1.
     999901    1    3    3    0    0  0.14232374493E+00 -0.19714506592E-03  0.40665635691E-01  0.89236191154E+00  0.88000000000E+00 0. -1.
        -11    1    4    4    0    0 -0.89030250809E-01 -0.53378312027E-02 -0.30911603984E-01  0.94396326109E-01  0.51100000000E-03 0. -1.
         11    1    4    4    0    0 -0.33102464256E-01 -0.17652989056E-02  0.97970676352E-03  0.33167911697E-01  0.51100000000E-03 0.  1.
</event>
<event>
 8    1  0.1071333E+005  0.1043930E+01  0.7957747E-01            NaN
         13   -1    0    0    0    0  0.00000000000E+00  0.00000000000E+00  0.74505805969E-08  0.10566000000E+00  0.10566000000E+00 0. -1.
     999900   -1    0    0    0    0 -0.00000000000E+00 -0.00000000000E+00 -0.74505805969E-08  0.93827000000E+00  0.93827000000E+00 0. -1.
     999902    2    1    2    0    0 -0.19022995409E-01 -0.56096475699E-03  0.52827606089E-02  0.10241791368E+01  0.10239886756E+01 0.  0.
     999903    2    3    3    0    0  0.26931312320E-02  0.40822981253E-01  0.12662313999E+00  0.13462435561E+00  0.20409036971E-01 0.  0.
         14    1    1    2    0    0  0.19022995409E-01  0.56096475699E-03 -0.52827606089E-02  0.19750863157E-01  0.00000000000E+00 0.  1.
     999901    1    3    3    0    0 -0.21716126641E-01 -0.41383946010E-01 -0.12134037938E+00  0.88955478123E+00  0.88000000000E+00 0. -1.
        -11    1    4    4    0    0  0.38597902061E-02  0.35112817927E-01  0.77720264288E-01  0.85372762432E-01  0.51100000000E-03 0. -1.
         11    1    4    4    0    0 -0.11666589741E-02  0.57101633262E-02  0.48902875697E-01  0.49251593181E-01  0.51100000000E-03 0.  1.
</event>
<event>
 8    1  0.1071333E+005  0.1043930E+01  0.7957747E-01            NaN
         13   -1    0    0    0    0  0.00000000000E+00  0.00000000000E+00  0.74505805969E-08  0.10566000000E+00  0.10566000000E+00 0.  1.
     999900   -1    0    0    0    0 -0.00000000000E+00 -0.00000000000E+00 -0.74505805969E-08  0.93827000000E+00  0.93827000000E+00 0.  1.
     999902    2    1    2    0    0 -0.15845267341E-02 -0.46352877971E-02 -0.27867145255E-01  0.10156355765E+01  0.10152413751E+01 0.  0.
     999903    2    3    3    0    0 -0.11246937504E+00 -0.37294038123E-01  0.36844961731E-01  0.12572001849E+00  0.20193222687E-01 0.  0.
         14    1    1    2    0    0  0.15845267341E-02  0.46352877971E-02  0.27867145255E-01  0.28294423525E-01  0.00000000000E+00 0.  1.
     999901    1    3    3    0    0  0.11088484831E+00  0.32658750326E-01 -0.64712106986E-01  0.88991555799E+00  0.88000000000E+00 0. -1.
        -11    1    4    4    0    0 -0.72331355259E-01 -0.14395714623E-01  0.26457669353E-01  0.78353882748E-01  0.51100000000E-03 0. -1.
         11    1    4    4    0    0 -0.40138019780E-01 -0.22898323501E-01  0.10387292378E-01  0.47366135740E-01  0.51100000000E-03 0.  1.
</event>
<event>
 8    1  0.1071333E+005  0.1043930E+01  0.7957747E-01            NaN
         13   -1    0    0    0    0  0.00000000000E+00  0.00000000000E+00  0.74505805969E-08  0.10566000000E+00  0.10566000000E+00 0.  1.
     999900   -1    0    0    0    0 -0.00000000000E+00 -0.00000000000E+00 -0.74505805969E-08  0.93827000000E+00  0.93827000000E+00 0. -1.
     999902    2    1    2    0    0  0.97890429923E-02 -0.18681886862E-01 -0.26882455130E-02  0.10226681816E+01  0.10224471354E+01 0.  0.
     999903    2    3    3    0    0  0.66167020889E-01 -0.38693723309E-01 -0.10847869013E+00  0.13431545423E+00  0.19943323554E-01 0.  0.
         14    1    1    2    0    0 -0.97890429923E-02  0.18681886862E-01  0.26882455130E-02  0.21261818440E-01  0.00000000000E+00 0. -1.
     999901    1    3    3    0    0 -0.56377977897E-01  0.20011836447E-01  0.10579044462E+00  0.88835272733E+00  0.88000000000E+00 0.  1.
        -11    1    4    4    0    0  0.34489371622E-01 -0.16970187325E-01 -0.70483698210E-01  0.80285221848E-01  0.51100000000E-03 0.  1.
         11    1    4    4    0    0  0.31677649267E-01 -0.21723535984E-01 -0.37994991922E-01  0.54030232378E-01  0.51100000000E-03 0. -1.
</event>
<event>
 8    1  0.1071333E+005  0.1043930E+01  0.7957747E-01            NaN
         13   -1    0    0    0    0  0.00000000000E+00  0.00000000000E+00  0.74505805969E-08  0.10566000000E+00  0.10566000000E+00 0.  1.
     999900   -1    0    0    0    0 -0.00000000000E+00 -0.00000000000E+00 -0.74505805969E-08  0.93827000000E+00  0.93827000000E+00 0. -1.
     999902    2    1    2    0    0  0.18838777422E-01  0.37943775101E-02 -0.13897183110E-01  0.10202144242E+01  0.10199387447E+01 0.  0.
     999903    2    3    3    0    0  0.21151686099E-01 -0.22416564358E-01 -0.12732044113E+00  0.13254489199E+00  0.20193005755E-01 0.  0.
         14    1    1    2    0    0 -0.18838777422E-01 -0.37943775101E-02  0.13897183110E-01  0.23715575765E-01  0.00000000000E+00 0.  1.
     999901    1    3    3    0    0 -0.23129086764E-02  0.26210941868E-01  0.11342325802E+00  0.88766953225E+00  0.88000000000E+00 0.  1.
        -11    1    4    4    0    0  0.84090311920E-02 -0.37294341646E-02 -0.74713574945E-01  0.75279478524E-01  0.51100000000E-03 0.  1.
         11    1    4    4    0    0  0.12742654907E-01 -0.18687130193E-01 -0.52606866180E-01  0.57265413464E-01  0.51100000000E-03 0. -1.
</event>
<event>
 8    1  0.1071333E+005  0.1043930E+01  0.7957747E-01            NaN
         13   -1    0    0    0    0  0.00000000000E+00  0.00000000000E+00  0.74505805969E-08  0.10566000000E+00  0.10566000000E+00 0.  1.
     999900   -1    0    0    0    0 -0.00000000000E+00 -0.00000000000E+00 -0.74505805969E-08  0.93827000000E+00  0.93827000000E+00 0.  1.
     999902    2    1    2    0    0  0.20406468571E-01  0.86107321725E-02 -0.10248930789E-01  0.10195248929E+01  0.10192327497E+01 0.  0.
     999903    2    3    3    0    0  0.12299841867E+00 -0.36673461693E-01 -0.24996042100E-01  0.13228577989E+00  0.20029269939E-01 0.  0.
         14    1    1    2    0    0 -0.20406468571E-01 -0.86107321725E-02  0.10248930789E-01  0.24405107055E-01  0.00000000000E+00 0.  1.
     999901    1    3    3    0    0 -0.10259195009E+00  0.45284193865E-01  0.14747111311E-01  0.88723911305E+00  0.88000000000E+00 0. -1.
        -11    1    4    4    0    0  0.39710253786E-01 -0.34022130393E-02 -0.32071178076E-02  0.39987823583E-01  0.51100000000E-03 0. -1.
         11    1    4    4    0    0  0.83288164880E-01 -0.33271248654E-01 -0.21788924292E-01  0.92297956309E-01  0.51100000000E-03 0.  1.
</event>
<event>
 8    1  0.1071333E+005  0.1043930E+01  0.7957747E-01            NaN
         13   -1    0    0    0    0  0.00000000000E+00  0.00000000000E+00  0.74505805969E-08  0.10566000000E+00  0.10566000000E+00 0.  1.
     999900   -1    0    0    0    0 -0.00000000000E+00 -0.00000000000E+00 -0.74505805969E-08  0.93827000000E+00  0.93827000000E+00 0.  1.
     999902    2    1    2    0    0  0.63862946097E-02 -0.21133040988E-01  0.10420651211E-01  0.10195172953E+01  0.10192249679E+01 0.  0.
     999903    2    3    3    0    0 -0.54869754072E-02 -0.98234459280E-02  0.12926035429E+00  0.13137780369E+00  0.20622345247E-01 0.  0.
         14    1    1    2    0    0 -0.63862946097E-02  0.21133040988E-01 -0.10420651211E-01  0.24412704723E-01  0.00000000000E+00 0. -1.
     999901    1    3    3    0    0  0.11873270017E-01 -0.11309595060E-01 -0.11883970308E+00  0.88813949158E+00  0.88000000000E+00 0.  1.
        -11    1    4    4    0    0  0.44096147620E-02 -0.71155519751E-02  0.20728735777E-01  0.22361068628E-01  0.51100000000E-03 0.  1.
         11    1    4    4    0    0 -0.98965901692E-02 -0.27078939529E-02  0.10853161851E+00  0.10901673507E+00  0.51100000000E-03 0. -1.
</event>
<event>
 8    1  0.1071333E+005  0.1043930E+01  0.7957747E-01            NaN
         13   -1    0    0    0    0  0.00000000000E+00  0.00000000000E+00  0.74505805969E-08  0.10566000000E+00  0.10566000000E+00 0.  1.
     999900   -1    0    0    0    0 -0.00000000000E+00 -0.00000000000E+00 -0.74505805969E-08  0.93827000000E+00  0.93827000000E+00 0. -1.
     999902    2    1    2    0    0 -0.17588482869E-01 -0.15032470754E-01  0.60872808563E-03  0.10207847963E+01  0.10205223661E+01 0.  0.
     999903    2    3    3    0    0  0.29259896395E-01 -0.72066420371E-01 -0.10406448003E+00  0.13151311530E+00  0.20410120258E-01 0.  0.
         14    1    1    2    0    0  0.17588482869E-01  0.15032470754E-01 -0.60872808563E-03  0.23145203746E-01  0.00000000000E+00 0. -1.
     999901    1    3    3    0    0 -0.46848379264E-01  0.57033949618E-01  0.10467320812E+00  0.88927168095E+00  0.88000000000E+00 0.  1.
        -11    1    4    4    0    0  0.80639085505E-02 -0.36810323852E-01 -0.36857366354E-01  0.52713879944E-01  0.51100000000E-03 0.  1.
         11    1    4    4    0    0  0.21195987844E-01 -0.35256096520E-01 -0.67207113680E-01  0.78799235356E-01  0.51100000000E-03 0. -1.
</event>
<event>
 8    1  0.1071333E+005  0.1043930E+01  0.7957747E-01            NaN
         13   -1    0    0    0    0  0.00000000000E+00  0.00000000000E+00  0.74505805969E-08  0.10566000000E+00  0.10566000000E+00 0.  1.
     999900   -1    0    0    0    0 -0.00000000000E+00 -0.00000000000E+00 -0.74505805969E-08  0.93827000000E+00  0.93827000000E+00 0.  1.
     999902    2    1    2    0    0  0.40112451451E-02  0.16146562184E-01 -0.17240501066E-01  0.10199709425E+01  0.10196895053E+01 0.  0.
     999903    2    3    3    0    0  0.38597484998E-01 -0.43034608220E-01  0.11225519134E+00  0.12785673836E+00  0.20109057898E-01 0.  0.
         14    1    1    2    0    0 -0.40112451451E-02 -0.16146562184E-01  0.17240501066E-01  0.23959057473E-01  0.00000000000E+00 0.  1.
     999901    1    3    3    0    0 -0.34586239853E-01  0.59181170404E-01 -0.12949569241E+00  0.89211420416E+00  0.88000000000E+00 0.  1.
        -11    1    4    4    0    0  0.29886724865E-01 -0.18480883411E-01  0.63683731057E-01  0.72736772661E-01  0.51100000000E-03 0.  1.
         11    1    4    4    0    0  0.87107601331E-02 -0.24553724810E-01  0.48571460283E-01  0.55119965704E-01  0.51100000000E-03 0. -1.
</event>
<event>
 8    1  0.1071333E+005  0.1043930E+01  0.7957747E-01            NaN
         13   -1    0    0    0    0  0.00000000000E+00  0.00000000000E+00  0.74505805969E-08  0.10566000000E+00  0.10566000000E+00 0. -1.
     999900   -1    0    0    0    0 -0.00000000000E+00 -0.00000000000E+00 -0.74505805969E-08  0.93827000000E+00  0.93827000000E+00 0.  1.
     999902    2    1    2    0    0 -0.11685540590E-01 -0.23699979301E-01 -0.23391823404E-02  0.10174024172E+01  0.10170565204E+01 0.  0.
     999903    2    3    3    0    0  0.96521595967E-01  0.36208366083E-01  0.69672986844E-01  0.12583999827E+00  0.18812650187E-01 0.  0.
         14    1    1    2    0    0  0.11685540590E-01  0.23699979301E-01  0.23391823404E-02  0.26527582848E-01  0.00000000000E+00 0. -1.
     999901    1    3    3    0    0 -0.10820713656E+00 -0.59908345383E-01 -0.72012169184E-01  0.89156241888E+00  0.88000000000E+00 0.  1.
        -11    1    4    4    0    0  0.37645584096E-01  0.19115196639E-01  0.38129888286E-01  0.56892268773E-01  0.51100000000E-03 0. -1.
         11    1    4    4    0    0  0.58876011871E-01  0.17093169444E-01  0.31543098558E-01  0.68947729499E-01  0.51100000000E-03 0.  1.
</event>
<event>
 8    1  0.1071333E+005  0.1043930E+01  0.7957747E-01            NaN
         13   -1    0    0    0    0  0.00000000000E+00  0.00000000000E+00  0.74505805969E-08  0.10566000000E+00  0.10566000000E+00 0.  1.
     999900   -1    0    0    0    0 -0.00000000000E+00 -0.00000000000E+00 -0.74505805969E-08  0.93827000000E+00  0.93827000000E+00 0. -1.
     999902    2    1    2    0    0 -0.10139874428E-01  0.20916043683E-01  0.22732182995E-02  0.10205747980E+01  0.10203075286E+01 0.  0.
     999903    2    3    3    0    0  0.81390056308E-01 -0.60509732220E-01  0.77084121925E-01  0.12894451789E+00  0.19973930025E-01 0.  0.
         14    1    1    2    0    0  0.10139874428E-01 -0.20916043683E-01 -0.22732182995E-02  0.23355201952E-01  0.00000000000E+00 0.  1.
     999901    1    3    3    0    0 -0.91529930736E-01  0.81425775903E-01 -0.74810903625E-01  0.89163028016E+00  0.88000000000E+00 0.  1.
        -11    1    4    4    0    0  0.29736006104E-01 -0.15056374367E-01  0.16175252853E-01  0.37051644957E-01  0.51100000000E-03 0.  1.
         11    1    4    4    0    0  0.51654050204E-01 -0.45453357853E-01  0.60908869072E-01  0.91892872929E-01  0.51100000000E-03 0. -1.
</event>
<event>
 8    1  0.1071333E+005  0.1043930E+01  0.7957747E-01            NaN
         13   -1    0    0    0    0  0.00000000000E+00  0.00000000000E+00  0.74505805969E-08  0.10566000000E+00  0.10566000000E+00 0. -1.
     999900   -1    0    0    0    0 -0.00000000000E+00 -0.00000000000E+00 -0.74505805969E-08  0.93827000000E+00  0.93827000000E+00 0. -1.
     999902    2    1    2    0    0 -0.68594202853E-02  0.20475670537E-01 -0.13044624834E-01  0.10187017030E+01  0.10183892639E+01 0.  0.
     999903    2    3    3    0    0 -0.78779031878E-01 -0.27941498223E-01 -0.97648792564E-01  0.13040303820E+00  0.21972767117E-01 0.  0.
         14    1    1    2    0    0  0.68594202853E-02 -0.20475670537E-01  0.13044624834E-01  0.25228296963E-01  0.00000000000E+00 0.  1.
     999901    1    3    3    0    0  0.71919611593E-01  0.48417168760E-01  0.84604167730E-01  0.88829866484E+00  0.88000000000E+00 0. -1.
        -11    1    4    4    0    0 -0.29414878326E-02 -0.25975891665E-02 -0.14557351745E-01  0.15085669723E-01  0.51100000000E-03 0.  1.
         11    1    4    4    0    0 -0.75837544046E-01 -0.25343909057E-01 -0.83091440818E-01  0.11531736847E+00  0.51100000000E-03 0. -1.
</event>
<event>
 8    1  0.1071333E+005  0.1043930E+01  0.7957747E-01            NaN
         13   -1    0    0    0    0  0.00000000000E+00  0.00000000000E+00  0.74505805969E-08  0.10566000000E+00  0.10566000000E+00 0.  1.
     999900   -1    0    0    0    0 -0.00000000000E+00 -0.00000000000E+00 -0.74505805969E-08  0.93827000000E+00  0.93827000000E+00 0.  1.
     999902    2    1    2    0    0  0.14714625710E-01 -0.17317281740E-01 -0.78329143183E-02  0.10198932988E+01  0.10196100127E+01 0.  0.
     999903    2    3    3    0    0 -0.89525582166E-01  0.36477663341E-01  0.80846456829E-01  0.12769155711E+00  0.20579951170E-01 0.  0.
         14    1    1    2    0    0 -0.14714625710E-01  0.17317281740E-01  0.78329143183E-02  0.24036701174E-01  0.00000000000E+00 0.  1.
     999901    1    3    3    0    0  0.10424020788E+00 -0.53794945080E-01 -0.88679371147E-01  0.89220174172E+00  0.88000000000E+00 0.  1.
        -11    1    4    4    0    0 -0.78740005992E-01  0.38652766338E-01  0.73628432089E-01  0.11452262668E+00  0.51100000000E-03 0. -1.
         11    1    4    4    0    0 -0.10785576174E-01 -0.21751029973E-02  0.72180247406E-02  0.13168930428E-01  0.51100000000E-03 0.  1.
</event>
<event>
 8    1  0.1071333E+005  0.1043930E+01  0.7957747E-01            NaN
         13   -1    0    0    0    0  0.00000000000E+00  0.00000000000E+00  0.74505805969E-08  0.10566000000E+00  0.10566000000E+00 0. -1.
     999900   -1    0    0    0    0 -0.00000000000E+00 -0.00000000000E+00 -0.74505805969E-08  0.93827000000E+00  0.93827000000E+00 0. -1.
     999902    2    1    2    0    0 -0.20796024910E-01 -0.13212332645E-01  0.82568527936E-02  0.10179450812E+01  0.10176133708E+01 0.  0.
     999903    2    3    3    0    0  0.11285957999E+00  0.10214973862E-01 -0.50343721295E-01  0.12561852289E+00  0.20097077758E-01 0.  0.
         14    1    1    2    0    0  0.20796024910E-01  0.13212332645E-01 -0.82568527936E-02  0.25984918781E-01  0.00000000000E+00 0.  1.
     999901    1    3    3    0    0 -0.13365560490E+00 -0.23427306507E-01  0.58600574088E-01  0.89232655833E+00  0.88000000000E+00 0.  1.
        -11    1    4    4    0    0  0.11205981958E-01  0.45182182808E-02 -0.11371963940E-01  0.16600331712E-01  0.51100000000E-03 0. -1.
         11    1    4    4    0    0  0.10165359803E+00  0.56967555811E-02 -0.38971757354E-01  0.10901819118E+00  0.51100000000E-03 0.  1.
</event>
<event>
 8    1  0.1071333E+005  0.1043930E+01  0.7957747E-01            NaN
         13   -1    0    0    0    0  0.00000000000E+00  0.00000000000E+00  0.74505805969E-08  0.10566000000E+00  0.10566000000E+00 0. -1.
     999900   -1    0    0    0    0 -0.00000000000E+00 -0.00000000000E+00 -0.74505805969E-08  0.93827000000E+00  0.93827000000E+00 0.  1.
     999902    2    1    2    0    0 -0.17371789891E-01 -0.12240742876E-01  0.10096845994E-01  0.10204021193E+01  0.10201308367E+01 0.  0.
     999903    2    3    3    0    0 -0.10101164664E-02  0.11513814012E+00  0.56638459600E-01  0.12986340260E+00  0.19969391158E-01 0.  0.
         14    1    1    2    0    0  0.17371789891E-01  0.12240742876E-01 -0.10096845994E-01  0.23527880678E-01  0.00000000000E+00 0. -1.
     999901    1    3    3    0    0 -0.16361673424E-01 -0.12737888299E+00 -0.46541613606E-01  0.89053871673E+00  0.88000000000E+00 0. -1.
        -11    1    4    4    0    0  0.65290327075E-02  0.21016024269E-01  0.15170778607E-01  0.26734157715E-01  0.51100000000E-03 0.  1.
         11    1    4    4    0    0 -0.75391491739E-02  0.94122115849E-01  0.41467680993E-01  0.10312924488E+00  0.51100000000E-03 0. -1.
</event>
<event>
 8    1  0.1071333E+005  0.1043930E+01  0.7957747E-01            NaN
         13   -1    0    0    0    0  0.00000000000E+00  0.00000000000E+00  0.74505805969E-08  0.10566000000E+00  0.10566000000E+00 0. -1.
     999900   -1    0    0    0    0 -0.00000000000E+00 -0.00000000000E+00 -0.74505805969E-08  0.93827000000E+00  0.93827000000E+00 0.  1.
     999902    2    1    2    0    0 -0.19525882103E-01 -0.42317315837E-02 -0.99675943996E-02  0.10216024260E+01  0.10213584073E+01 0.  0.
     999903    2    3    3    0    0  0.67054892704E-01 -0.80442184650E-01  0.74517390668E-01  0.13006332058E+00  0.19907841237E-01 0.  0.
         14    1    1    2    0    0  0.19525882103E-01  0.42317315837E-02  0.99675943996E-02  0.22327574034E-01  0.00000000000E+00 0.  1.
     999901    1    3    3    0    0 -0.86580774808E-01  0.76210453066E-01 -0.84484985068E-01  0.89153910538E+00  0.88000000000E+00 0.  1.
        -11    1    4    4    0    0  0.30475050326E-01 -0.27070604241E-01  0.19781124474E-01  0.45311149984E-01  0.51100000000E-03 0. -1.
         11    1    4    4    0    0  0.36579842378E-01 -0.53371580408E-01  0.54736266195E-01  0.84752170601E-01  0.51100000000E-03 0.  1.
</event>
<event>
 8    1  0.1071333E+005  0.1043930E+01  0.7957747E-01            NaN
         13   -1    0    0    0    0  0.00000000000E+00  0.00000000000E+00  0.74505805969E-08  0.10566000000E+00  0.10566000000E+00 0.  1.
     999900   -1    0    0    0    0 -0.00000000000E+00 -0.00000000000E+00 -0.74505805969E-08  0.93827000000E+00  0.93827000000E+00 0. -1.
     999902    2    1    2    0    0 -0.16783835456E-01 -0.40417308454E-03 -0.17733512821E-01  0.10195099679E+01  0.10192174629E+01 0.  0.
     999903    2    3    3    0    0  0.11441727028E+00 -0.12003866936E-01 -0.55449477051E-01  0.12890861100E+00  0.17532282341E-01 0.  0.
         14    1    1    2    0    0  0.16783835456E-01  0.40417308454E-03  0.17733512821E-01  0.24420032053E-01  0.00000000000E+00 0.  1.
     999901    1    3    3    0    0 -0.13120110574E+00  0.11599693852E-01  0.37715964229E-01  0.89060135695E+00  0.88000000000E+00 0.  1.
        -11    1    4    4    0    0  0.76258054006E-01 -0.14129846144E-01 -0.30927564733E-01  0.83496818707E-01  0.51100000000E-03 0.  1.
         11    1    4    4    0    0  0.38159216274E-01  0.21259792081E-02 -0.24521912317E-01  0.45411792289E-01  0.51100000000E-03 0. -1.
</event>
<event>
 8    1  0.1071333E+005  0.1043930E+01  0.7957747E-01            NaN
         13   -1    0    0    0    0  0.00000000000E+00  0.00000000000E+00  0.74505805969E-08  0.10566000000E+00  0.10566000000E+00 0. -1.
     999900   -1    0    0    0    0 -0.00000000000E+00 -0.00000000000E+00 -0.74505805969E-08  0.93827000000E+00  0.93827000000E+00 0.  1.
     999902    2    1    2    0    0 -0.18837540715E-01 -0.86517720970E-02 -0.11508248544E-01  0.10202203841E+01  0.10199448447E+01 0.  0.
     999903    2    3    3    0    0  0.53490446806E-01  0.10312788481E+00  0.49760502427E-01  0.12809937813E+00  0.20898673441E-01 0.  0.
         14    1    1    2    0    0  0.18837540715E-01  0.86517720970E-02  0.11508248544E-01  0.23709615880E-01  0.00000000000E+00 0. -1.
     999901    1    3    3    0    0 -0.72327987521E-01 -0.11177965691E+00 -0.61268750971E-01  0.89212100599E+00  0.88000000000E+00 0.  1.
        -11    1    4    4    0    0  0.52643985791E-01  0.85751900178E-01  0.43073350301E-01  0.10945479547E+00  0.51100000000E-03 0. -1.
         11    1    4    4    0    0  0.84646101531E-03  0.17375984632E-01  0.66871521259E-02  0.18644582664E-01  0.51100000000E-03 0.  1.
</event>
<event>
 8    1  0.1071333E+005  0.1043930E+01  0.7957747E-01            NaN
         13   -1    0    0    0    0  0.00000000000E+00  0.00000000000E+00  0.74505805969E-08  0.10566000000E+00  0.10566000000E+00 0.  1.
     999900   -1    0    0    0    0 -0.00000000000E+00 -0.00000000000E+00 -0.74505805969E-08  0.93827000000E+00  0.93827000000E+00 0. -1.
     999902    2    1    2    0    0 -0.23742964517E-01  0.71912848012E-02 -0.39033513974E-02  0.10188166750E+01  0.10185071125E+01 0.  0.
     999903    2    3    3    0    0  0.58913763723E-02 -0.91620068581E-01  0.87141284146E-01  0.12812536854E+00  0.19838381447E-01 0.  0.
         14    1    1    2    0    0  0.23742964517E-01 -0.71912848012E-02  0.39033513974E-02  0.25113325015E-01  0.00000000000E+00 0. -1.
     999901    1    3    3    0    0 -0.29634340889E-01  0.98811353382E-01 -0.91044635544E-01  0.89069130645E+00  0.88000000000E+00 0.  1.
        -11    1    4    4    0    0  0.99160769662E-02 -0.24668969836E-01  0.29159766020E-01  0.39464410936E-01  0.51100000000E-03 0. -1.
         11    1    4    4    0    0 -0.40247005939E-02 -0.66951098745E-01  0.57981518127E-01  0.88660957604E-01  0.51100000000E-03 0.  1.
</event>
<event>
 8    1  0.1071333E+005  0.1043930E+01  0.7957747E-01            NaN
         13   -1    0    0    0    0  0.00000000000E+00  0.00000000000E+00  0.74505805969E-08  0.10566000000E+00  0.10566000000E+00 0. -1.
     999900   -1    0    0    0    0 -0.00000000000E+00 -0.00000000000E+00 -0.74505805969E-08  0.93827000000E+00  0.93827000000E+00 0. -1.
     999902    2    1    2    0    0  0.87837671930E-02  0.21529290440E-01  0.50161295145E-02  0.10201428928E+01  0.10198655280E+01 0.  0.
     999903    2    3    3    0    0  0.16712265414E-01 -0.10346931309E-01 -0.12576678073E+00  0.12987151609E+00  0.25748179623E-01 0.  0.
         14    1    1    2    0    0 -0.87837671930E-02 -0.21529290440E-01 -0.50161295145E-02  0.23787107186E-01  0.00000000000E+00 0. -1.
     999901    1    3    3    0    0 -0.79284982215E-02  0.31876221749E-01  0.13078291025E+00  0.89027137672E+00  0.88000000000E+00 0.  1.
        -11    1    4    4    0    0  0.13185253876E-01 -0.33586904356E-03 -0.11041231356E+00  0.11119848845E+00  0.51100000000E-03 0.  1.
         11    1    4    4    0    0  0.35270115384E-02 -0.10011062265E-01 -0.15354467171E-01  0.18673027638E-01  0.51100000000E-03 0. -1.
</event>
<event>
 8    1  0.1141089E+005  0.1043930E+01  0.7957747E-01            NaN
         13   -1    0    0    0    0  0.00000000000E+00  0.00000000000E+00  0.74505805969E-08  0.10566000000E+00  0.10566000000E+00 0. -1.
     999900   -1    0    0    0    0 -0.00000000000E+00 -0.00000000000E+00 -0.74505805969E-08  0.93827000000E+00  0.93827000000E+00 0. -1.
     999902    2    1    2    0    0  0.87110887380E-03  0.23219543466E-01  0.29570629285E-02  0.10205067156E+01  0.10202378676E+01 0.  0.
     999903    2    3    3    0    0  0.38148202272E-01  0.42106496937E-01  0.11801737843E+00  0.13203320736E+00  0.16625998094E-01 0.  0.
         14    1    1    2    0    0 -0.87110887380E-03 -0.23219543466E-01 -0.29570629285E-02  0.23423284368E-01  0.00000000000E+00 0.  1.
     999901    1    3    3    0    0 -0.37277093398E-01 -0.18886953471E-01 -0.11506031550E+00  0.88847350828E+00  0.88000000000E+00 0. -1.
        -11    1    4    4    0    0  0.29870420056E-01  0.24520069310E-01  0.65771441185E-01  0.76286429919E-01  0.51100000000E-03 0.  1.
         11    1    4    4    0    0  0.82777822165E-02  0.17586427627E-01  0.52245937245E-01  0.55746777438E-01  0.51100000000E-03 0. -1.
</event>
<event>
 8    1  0.1071333E+005  0.1043930E+01  0.7957747E-01            NaN
         13   -1    0    0    0    0  0.00000000000E+00  0.00000000000E+00  0.74505805969E-08  0.10566000000E+00  0.10566000000E+00 0.  1.
     999900   -1    0    0    0    0 -0.00000000000E+00 -0.00000000000E+00 -0.74505805969E-08  0.93827000000E+00  0.93827000000E+00 0. -1.
     999902    2    1    2    0    0  0.22819763250E-01 -0.25396073355E-02  0.50905552695E-02  0.10204118165E+01  0.10201407601E+01 0.  0.
     999903    2    3    3    0    0 -0.22305081608E-01  0.92393074837E-02 -0.12563391143E+00  0.12953366514E+00  0.20302936612E-01 0.  0.
         14    1    1    2    0    0 -0.22819763250E-01  0.25396073355E-02 -0.50905552695E-02  0.23518183458E-01  0.00000000000E+00 0. -1.
     999901    1    3    3    0    0  0.45124844858E-01 -0.11778914819E-01  0.13072446670E+00  0.89087815141E+00  0.88000000000E+00 0.  1.
        -11    1    4    4    0    0 -0.66275313949E-02  0.13704118245E-01 -0.61820037525E-01  0.63668714372E-01  0.51100000000E-03 0. -1.
         11    1    4    4    0    0 -0.15677550213E-01 -0.44648107617E-02 -0.63813873902E-01  0.65864950764E-01  0.51100000000E-03 0.  1.
</event>
<event>
 8    1  0.1071333E+005  0.1043930E+01  0.7957747E-01            NaN
         13   -1    0    0    0    0  0.00000000000E+00  0.00000000000E+00  0.74505805969E-08  0.10566000000E+00  0.10566000000E+00 0. -1.
     999900   -1    0    0    0    0 -0.00000000000E+00 -0.00000000000E+00 -0.74505805969E-08  0.93827000000E+00  0.93827000000E+00 0.  1.
     999902    2    1    2    0    0  0.17202010594E-01 -0.11472000693E-01  0.10307101852E-01  0.10208269198E+01  0.10205654549E+01 0.  0.
     999903    2    3    3    0    0  0.56158107936E-01  0.93078092168E-01 -0.69121357681E-01  0.13023319665E+00  0.19122214686E-01 0.  0.
         14    1    1    2    0    0 -0.17202010594E-01  0.11472000693E-01 -0.10307101852E-01  0.23103080248E-01  0.00000000000E+00 0.  1.
     999901    1    3    3    0    0 -0.38956097342E-01 -0.10455009286E+00  0.79428459532E-01  0.89059372310E+00  0.88000000000E+00 0. -1.
        -11    1    4    4    0    0  0.26236043802E-01  0.35569667458E-01 -0.38138349395E-01  0.58380870609E-01  0.51100000000E-03 0. -1.
         11    1    4    4    0    0  0.29922064134E-01  0.57508424710E-01 -0.30983008285E-01  0.71852326045E-01  0.51100000000E-03 0.  1.
</event>
<event>
 8    1  0.1071333E+005  0.1043930E+01  0.7957747E-01            NaN
         13   -1    0    0    0    0  0.00000000000E+00  0.00000000000E+00  0.74505805969E-08  0.10566000000E+00  0.10566000000E+00 0. -1.
     999900   -1    0    0    0    0 -0.00000000000E+00 -0.00000000000E+00 -0.74505805969E-08  0.93827000000E+00  0.93827000000E+00 0. -1.
     999902    2    1    2    0    0 -0.13366724625E-01  0.19256802409E-01  0.60794107964E-02  0.10197132083E+01  0.10194256099E+01 0.  0.
     999903    2    3    3    0    0  0.21322460570E-01  0.52547404064E-01  0.11684035686E+00  0.13146797698E+00  0.20403014015E-01 0.  0.
         14    1    1    2    0    0  0.13366724625E-01 -0.19256802409E-01 -0.60794107964E-02  0.24216791733E-01  0.00000000000E+00 0.  1.
     999901    1    3    3    0    0 -0.34689185195E-01 -0.33290601655E-01 -0.11076094607E+00  0.88824523129E+00  0.88000000000E+00 0. -1.
        -11    1    4    4    0    0  0.10787076343E-01  0.21351547067E-01  0.28635065385E-01  0.37315917097E-01  0.51100000000E-03 0. -1.
         11    1    4    4    0    0  0.10535384226E-01  0.31195856997E-01  0.88205291479E-01  0.94152059885E-01  0.51100000000E-03 0.  1.
</event>
<event>
 8    1  0.1071333E+005  0.1043930E+01  0.7957747E-01            NaN
         13   -1    0    0    0    0  0.00000000000E+00  0.00000000000E+00  0.74505805969E-08  0.10566000000E+00  0.10566000000E+00 0. -1.
     999900   -1    0    0    0    0 -0.00000000000E+00 -0.00000000000E+00 -0.74505805969E-08  0.93827000000E+00  0.93827000000E+00 0. -1.
     999902    2    1    2    0    0  0.18591207039E-01  0.13934347096E-01  0.12021958738E-02  0.10206653426E+01  0.10204001653E+01 0.  0.
     999903    2    3    3    0    0  0.19568631012E-01 -0.57305268036E-02 -0.12785896076E+00  0.13103370830E+00  0.20153128959E-01 0.  0.
         14    1    1    2    0    0 -0.18591207039E-01 -0.13934347096E-01 -0.12021958738E-02  0.23264657381E-01  0.00000000000E+00 0.  1.
     999901    1    3    3    0    0 -0.97742397294E-03  0.19664873899E-01  0.12906115664E+00  0.88963163432E+00  0.88000000000E+00 0.  1.
        -11    1    4    4    0    0  0.63888549154E-02 -0.10461584769E-01 -0.34236174257E-01  0.36368103769E-01  0.51100000000E-03 0.  1.
         11    1    4    4    0    0  0.13179776097E-01  0.47310579653E-02 -0.93622786507E-01  0.94665604534E-01  0.51100000000E-03 0. -1.
</event>
<event>
 8    1  0.1071333E+005  0.1043930E+01  0.7957747E-01            NaN
         13   -1    0    0    0    0  0.00000000000E+00  0.00000000000E+00  0.74505805969E-08  0.10566000000E+00  0.10566000000E+00 0. -1.
     999900   -1    0    0    0    0 -0.00000000000E+00 -0.00000000000E+00 -0.74505805969E-08  0.93827000000E+00  0.93827000000E+00 0.  1.
     999902    2    1    2    0    0  0.16066498985E-01 -0.12222960609E-01 -0.12043205420E-01  0.10204231509E+01  0.10201523587E+01 0.  0.
     999903    2    3    3    0    0 -0.52675650765E-01  0.10925216476E+00  0.37167153259E-01  0.12806484363E+00  0.17562665033E-01 0.  0.
         14    1    1    2    0    0 -0.16066498985E-01  0.12222960609E-01  0.12043205420E-01  0.23506849055E-01  0.00000000000E+00 0. -1.
     999901    1    3    3    0    0  0.68742149750E-01 -0.12147512537E+00 -0.49210358679E-01  0.89235830732E+00  0.88000000000E+00 0.  1.
        -11    1    4    4    0    0  0.70604571891E-03  0.79263544646E-02  0.33379412291E-02  0.86445687171E-02  0.51100000000E-03 0.  1.
         11    1    4    4    0    0 -0.53381696484E-01  0.10132581030E+00  0.33829212030E-01  0.11942027491E+00  0.51100000000E-03 0. -1.
</event>
<event>
 8    1  0.1071333E+005  0.1043930E+01  0.7957747E-01            NaN
         13   -1    0    0    0    0  0.00000000000E+00  0.00000000000E+00  0.74505805969E-08  0.10566000000E+00  0.10566000000E+00 0. -1.
     999900   -1    0    0    0    0 -0.00000000000E+00 -0.00000000000E+00 -0.74505805969E-08  0.93827000000E+00  0.93827000000E+00 0.  1.
     999902    2    1    2    0    0 -0.47738334229E-02  0.12894646932E-01  0.20547708661E-01  0.10192061302E+01  0.10189062107E+01 0.  0.
     999903    2    3    3    0    0  0.10388532582E+00  0.73628693908E-01  0.26975330966E-01  0.13042226917E+00  0.83038742662E-02 0.  0.
         14    1    1    2    0    0  0.47738334229E-02 -0.12894646932E-01 -0.20547708661E-01  0.24723869768E-01  0.00000000000E+00 0.  1.
     999901    1    3    3    0    0 -0.10865915925E+00 -0.60734046975E-01 -0.64276223050E-02  0.88878386106E+00  0.88000000000E+00 0. -1.
        -11    1    4    4    0    0  0.58925741941E-01  0.41462862573E-01  0.19423360144E-01  0.74625331332E-01  0.51100000000E-03 0.  1.
         11    1    4    4    0    0  0.44959583881E-01  0.32165831335E-01  0.75519708221E-02  0.55796937842E-01  0.51100000000E-03 0. -1.
</event>
<event>
 8    1  0.1071333E+005  0.1043930E+01  0.7957747E-01            NaN
         13   -1    0    0    0    0  0.00000000000E+00  0.00000000000E+00  0.74505805969E-08  0.10566000000E+00  0.10566000000E+00 0. -1.
     999900   -1    0    0    0    0 -0.00000000000E+00 -0.00000000000E+00 -0.74505805969E-08  0.93827000000E+00  0.93827000000E+00 0. -1.
     999902    2    1    2    0    0 -0.58670536490E-02  0.18419977132E-01  0.14007350374E-01  0.10200569244E+01  0.10197775273E+01 0.  0.
     999903    2    3    3    0    0 -0.49119456774E-02 -0.10818858479E+00  0.67549546742E-01  0.12938447785E+00  0.21177930822E-01 0.  0.
         14    1    1    2    0    0  0.58670536490E-02 -0.18419977132E-01 -0.14007350374E-01  0.23873075641E-01  0.00000000000E+00 0.  1.
     999901    1    3    3    0    0 -0.95510797160E-03  0.12660856192E+00 -0.53542196368E-01  0.89067244651E+00  0.88000000000E+00 0. -1.
        -11    1    4    4    0    0 -0.10198422998E-01 -0.51203270942E-01  0.40521505964E-01  0.66091121593E-01  0.51100000000E-03 0. -1.
         11    1    4    4    0    0  0.52864773206E-02 -0.56985313847E-01  0.27028040778E-01  0.63293356255E-01  0.51100000000E-03 0.  1.
</event>
<event>
 8    1  0.1071333E+005  0.1043930E+01  0.7957747E-01            NaN
         13   -1    0    0    0    0  0.00000000000E+00  0.00000000000E+00  0.74505805969E-08  0.10566000000E+00  0.10566000000E+00 0.  1.
     999900   -1    0    0    0    0 -0.00000000000E+00 -0.00000000000E+00 -0.74505805969E-08  0.93827000000E+00  0.93827000000E+00 0.  1.
     999902    2    1    2    0    0  0.11388639612E-01  0.19286172794E-01  0.13081014363E-02  0.10214941202E+01  0.10212477020E+01 0.  0.
     999903    2    3    3    0    0 -0.92076856139E-01 -0.70493463155E-01  0.52984953593E-01  0.12939771908E+00  0.22110825640E-01 0.  0.
         14    1    1    2    0    0 -0.11388639612E-01 -0.19286172794E-01 -0.13081014363E-02  0.22435879805E-01  0.00000000000E+00 0. -1.
     999901    1    3    3    0    0  0.10346549575E+00  0.89779635949E-01 -0.51676852157E-01  0.89209640112E+00  0.88000000000E+00 0.  1.
        -11    1    4    4    0    0 -0.21333798457E-01 -0.28314093456E-01  0.19709528987E-01  0.40565323846E-01  0.51100000000E-03 0. -1.
         11    1    4    4    0    0 -0.70743057682E-01 -0.42179369700E-01  0.33275424606E-01  0.88832395229E-01  0.51100000000E-03 0.  1.
</event>
<event>
 8    1  0.1071333E+005  0.1043930E+01  0.7957747E-01            NaN
         13   -1    0    0    0    0  0.00000000000E+00  0.00000000000E+00  0.74505805969E-08  0.10566000000E+00  0.10566000000E+00 0. -1.
     999900   -1    0    0    0    0 -0.00000000000E+00 -0.00000000000E+00 -0.74505805969E-08  0.93827000000E+00  0.93827000000E+00 0.  1.
     999902    2    1    2    0    0  0.23440344785E-01 -0.19144242864E-02  0.26640812432E-02  0.10202611996E+01  0.10199866192E+01 0.  0.
     999903    2    3    3    0    0  0.32626125702E-01  0.74841200625E-01 -0.10023593430E+00  0.13089950842E+00  0.20537024834E-01 0.  0.
         14    1    1    2    0    0 -0.23440344785E-01  0.19144242864E-02 -0.26640812432E-02  0.23668800411E-01  0.00000000000E+00 0.  1.
     999901    1    3    3    0    0 -0.91857809163E-02 -0.76755624912E-01  0.10290001554E+00  0.88936169117E+00  0.88000000000E+00 0. -1.
        -11    1    4    4    0    0  0.34326592907E-01  0.63215829631E-01 -0.80799160155E-01  0.10818189081E+00  0.51100000000E-03 0.  1.
         11    1    4    4    0    0 -0.17004672055E-02  0.11625370994E-01 -0.19436774147E-01  0.22717617606E-01  0.51100000000E-03 0. -1.
</event>
<event>
 8    1  0.1071333E+005  0.1043930E+01  0.7957747E-01            NaN
         13   -1    0    0    0    0  0.00000000000E+00  0.00000000000E+00  0.74505805969E-08  0.10566000000E+00  0.10566000000E+00 0. -1.
     999900   -1    0    0    0    0 -0.00000000000E+00 -0.00000000000E+00 -0.74505805969E-08  0.93827000000E+00  0.93827000000E+00 0.  1.
     999902    2    1    2    0    0 -0.12668309073E-01 -0.18801779515E-01  0.66686091602E-02  0.10202981716E+01  0.10200244583E+01 0.  0.
     999903    2    3    3    0    0 -0.10736402144E-01  0.93724841704E-01 -0.84686432297E-01  0.12843959737E+00  0.20623338066E-01 0.  0.
         14    1    1    2    0    0  0.12668309073E-01  0.18801779515E-01 -0.66686091602E-02  0.23631828449E-01  0.00000000000E+00 0.  1.
     999901    1    3    3    0    0 -0.19319069292E-02 -0.11252662122E+00  0.91355041457E-01  0.89185857418E+00  0.88000000000E+00 0. -1.
        -11    1    4    4    0    0 -0.14589173402E-01  0.38081810776E-01 -0.36283897564E-01  0.54588008170E-01  0.51100000000E-03 0. -1.
         11    1    4    4    0    0  0.38527712583E-02  0.55643030928E-01 -0.48402534732E-01  0.73851589196E-01  0.51100000000E-03 0.  1.
</event>
<event>
 8    1  0.1071333E+005  0.1043930E+01  0.7957747E-01            NaN
         13   -1    0    0    0    0  0.00000000000E+00  0.00000000000E+00  0.74505805969E-08  0.10566000000E+00  0.10566000000E+00 0.  1.
     999900   -1    0    0    0    0 -0.00000000000E+00 -0.00000000000E+00 -0.74505805969E-08  0.93827000000E+00  0.93827000000E+00 0. -1.
     999902    2    1    2    0    0  0.18696751256E-01  0.15377414909E-01  0.53289741833E-02  0.10191422740E+01  0.10188407840E+01 0.  0.
     999903    2    3    3    0    0 -0.25110246672E-01  0.12307513680E+00 -0.30293172174E-01  0.13078041655E+00  0.20194734128E-01 0.  0.
         14    1    1    2    0    0 -0.18696751256E-01 -0.15377414909E-01 -0.53289741833E-02  0.24787726049E-01  0.00000000000E+00 0.  1.
     999901    1    3    3    0    0  0.43806997928E-01 -0.10769772189E+00  0.35622146357E-01  0.88836185740E+00  0.88000000000E+00 0. -1.
        -11    1    4    4    0    0 -0.12776481324E-01  0.41682876266E-01 -0.17001264614E-02  0.43633154823E-01  0.51100000000E-03 0.  1.
         11    1    4    4    0    0 -0.12333765348E-01  0.81392260537E-01 -0.28593045713E-01  0.87147261730E-01  0.51100000000E-03 0. -1.
</event>
<event>
 8    1  0.1071333E+005  0.1043930E+01  0.7957747E-01            NaN
         13   -1    0    0    0    0  0.00000000000E+00  0.00000000000E+00  0.74505805969E-08  0.10566000000E+00  0.10566000000E+00 0.  1.
     999900   -1    0    0    0    0 -0.00000000000E+00 -0.00000000000E+00 -0.74505805969E-08  0.93827000000E+00  0.93827000000E+00 0.  1.
     999902    2    1    2    0    0 -0.10894404196E-03 -0.19670678162E-01 -0.13826066039E-01  0.10198861328E+01  0.10196026757E+01 0.  0.
     999903    2    3    3    0    0 -0.11745453127E+00 -0.51881113265E-01  0.15863044518E-01  0.13101665854E+00  0.20652162196E-01 0.  0.
         14    1    1    2    0    0  0.10894404196E-03  0.19670678162E-01  0.13826066039E-01  0.24043867207E-01  0.00000000000E+00 0.  1.
     999901    1    3    3    0    0  0.11734558723E+00  0.32210435104E-01 -0.29689110558E-01  0.88886947425E+00  0.88000000000E+00 0.  1.
        -11    1    4    4    0    0 -0.72611765732E-01 -0.39716485585E-01  0.30741155133E-02  0.82822575769E-01  0.51100000000E-03 0.  1.
         11    1    4    4    0    0 -0.44842765542E-01 -0.12164627680E-01  0.12788929005E-01  0.48194082771E-01  0.51100000000E-03 0. -1.
</event>
<event>
 8    1  0.1071333E+005  0.1043930E+01  0.7957747E-01            NaN
         13   -1    0    0    0    0  0.00000000000E+00  0.00000000000E+00  0.74505805969E-08  0.10566000000E+00  0.10566000000E+00 0.  1.
     999900   -1    0    0    0    0 -0.00000000000E+00 -0.00000000000E+00 -0.74505805969E-08  0.93827000000E+00  0.93827000000E+00 0. -1.
     999902    2    1    2    0    0 -0.15709544358E-01  0.67438245323E-02 -0.16805443967E-01  0.10199572676E+01  0.10196755051E+01 0.  0.
     999903    2    3    3    0    0  0.99227487692E-01  0.57865768573E-01  0.53179511278E-01  0.12826120474E+00  0.20696249330E-01 0.  0.
         14    1    1    2    0    0  0.15709544358E-01 -0.67438245323E-02  0.16805443967E-01  0.23972732431E-01  0.00000000000E+00 0.  1.
     999901    1    3    3    0    0 -0.11493703205E+00 -0.51121944041E-01 -0.69984955245E-01  0.89169606283E+00  0.88000000000E+00 0. -1.
        -11    1    4    4    0    0  0.66710964252E-01  0.29261497797E-01  0.39349235851E-01  0.82796204550E-01  0.51100000000E-03 0. -1.
         11    1    4    4    0    0  0.32516523440E-01  0.28604270776E-01  0.13830275427E-01  0.45465000194E-01  0.51100000000E-03 0.  1.
</event>
<event>
 8    1  0.1071333E+005  0.1043930E+01  0.7957747E-01            NaN
         13   -1    0    0    0    0  0.00000000000E+00  0.00000000000E+00  0.74505805969E-08  0.10566000000E+00  0.10566000000E+00 0.  1.
     999900   -1    0    0    0    0 -0.00000000000E+00 -0.00000000000E+00 -0.74505805969E-08  0.93827000000E+00  0.93827000000E+00 0. -1.
     999902    2    1    2    0    0 -0.14617898805E-01 -0.16272141753E-01 -0.95747436571E-02  0.10200523687E+01  0.10197728637E+01 0.  0.
     999903    2    3    3    0    0 -0.92439171802E-01 -0.86334536265E-01 -0.37560597863E-01  0.13340243903E+00  0.19666204335E-01 0.  0.
         14    1    1    2    0    0  0.14617898805E-01  0.16272141753E-01  0.95747436571E-02  0.23877631348E-01  0.00000000000E+00 0. -1.
     999901    1    3    3    0    0  0.77821272998E-01  0.70062394512E-01  0.27985854206E-01  0.88664992962E+00  0.88000000000E+00 0. -1.
        -11    1    4    4    0    0 -0.64170001756E-01 -0.46963162376E-01 -0.22421815442E-01  0.82621587218E-01  0.51100000000E-03 0. -1.
         11    1    4    4    0    0 -0.28269170046E-01 -0.39371373889E-01 -0.15138782421E-01  0.50780851816E-01  0.51100000000E-03 0.  1.
</event>
<event>
 8    1  0.1071333E+005  0.1043930E+01  0.7957747E-01            NaN
         13   -1    0    0    0    0  0.00000000000E+00  0.00000000000E+00  0.74505805969E-08  0.10566000000E+00  0.10566000000E+00 0.  1.
     999900   -1    0    0    0    0 -0.00000000000E+00 -0.00000000000E+00 -0.74505805969E-08  0.93827000000E+00  0.93827000000E+00 0.  1.
     999902    2    1    2    0    0  0.48458000811E-02  0.20758734769E-02 -0.21972487722E-01  0.10213339551E+01  0.10210839665E+01 0.  0.
     999903    2    3    3    0    0  0.12351672577E+00 -0.41171627401E-01  0.54845364749E-02  0.13189198221E+00  0.20345279121E-01 0.  0.
         14    1    1    2    0    0 -0.48458000811E-02 -0.20758734769E-02  0.21972487722E-01  0.22596044915E-01  0.00000000000E+00 0.  1.
     999901    1    3    3    0    0 -0.11867092569E+00  0.43247500878E-01 -0.27457024197E-01  0.88944197288E+00  0.88000000000E+00 0.  1.
        -11    1    4    4    0    0  0.10786681569E+00 -0.33532532031E-01 -0.18837893038E-02  0.11297561867E+00  0.51100000000E-03 0.  1.
         11    1    4    4    0    0  0.15649910082E-01 -0.76390953695E-02  0.73683257787E-02  0.18916363536E-01  0.51100000000E-03 0. -1.
</event>
<event>
 7    1  0.1071333E+005  0.1043930E+01  0.7957747E-01            NaN
         13   -1    0    0    0    0  0.00000000000E+00  0.00000000000E+00  0.74505805969E-08  0.10566000000E+00  0.10566000000E+00 0.  1.
     999900   -1    0    0    0    0 -0.00000000000E+00 -0.00000000000E+00 -0.74505805969E-08  0.93827000000E+00  0.93827000000E+00 0.  1.
     999902    2    1    2    0    0 -0.16865326064E-01 -0.15230891027E-01 -0.70415133596E-02  0.10201391998E+01  0.10198617479E+01 0.  0.
         14    1    1    2    0    0  0.16865326064E-01  0.15230891027E-01  0.70415133596E-02  0.23790800220E-01  0.00000000000E+00 0.  1.
     999901    1    3    3    0    0 -0.12945597451E+00 -0.55780952548E-01 -0.30682757667E-01  0.89174648618E+00  0.88000000000E+00 0. -1.
        -11    1    3    3    0    0  0.62590839971E-01  0.60891425600E-02 -0.89805103405E-03  0.62894821107E-01  0.51100000000E-03 0. -1.
         11    1    3    3    0    0  0.49999808479E-01  0.34460918961E-01  0.24539295342E-01  0.65497892489E-01  0.51100000000E-03 0.  1.
</event>
<event>
 8    1  0.1071333E+005  0.1043930E+01  0.7957747E-01            NaN
         13   -1    0    0    0    0  0.00000000000E+00  0.00000000000E+00  0.74505805969E-08  0.10566000000E+00  0.10566000000E+00 0.  1.
     999900   -1    0    0    0    0 -0.00000000000E+00 -0.00000000000E+00 -0.74505805969E-08  0.93827000000E+00  0.93827000000E+00 0. -1.
     999902    2    1    2    0    0  0.17436315227E-01 -0.43808753375E-02  0.14989911921E-01  0.10205224239E+01  0.10202539405E+01 0.  0.
     999903    2    3    3    0    0  0.21217814698E-01  0.40801665863E-01 -0.11918635870E+00  0.12919810959E+00  0.19281904036E-01 0.  0.
         14    1    1    2    0    0 -0.17436315227E-01  0.43808753375E-02 -0.14989911921E-01  0.23407576056E-01  0.00000000000E+00 0. -1.
     999901    1    3    3    0    0 -0.37814994710E-02 -0.45182541200E-01  0.13417627062E+00  0.89132431436E+00  0.88000000000E+00 0.  1.
        -11    1    4    4    0    0  0.19062953308E-02  0.16991275668E-01 -0.26223457379E-01  0.31309235836E-01  0.51100000000E-03 0. -1.
         11    1    4    4    0    0  0.19311519368E-01  0.23810390194E-01 -0.92962901319E-01  0.97888873750E-01  0.51100000000E-03 0.  1.
</event>
<event>
 8    1  0.1071333E+005  0.1043930E+01  0.7957747E-01            NaN
         13   -1    0    0    0    0  0.00000000000E+00  0.00000000000E+00  0.74505805969E-08  0.10566000000E+00  0.10566000000E+00 0.  1.
     999900   -1    0    0    0    0 -0.00000000000E+00 -0.00000000000E+00 -0.74505805969E-08  0.93827000000E+00  0.93827000000E+00 0.  1.
     999902    2    1    2    0    0  0.20049966283E-01  0.96426857676E-02  0.72279269445E-02  0.10205371493E+01  0.10202690075E+01 0.  0.
     999903    2    3    3    0    0 -0.74962880188E-01 -0.38355400426E-01  0.96243907588E-01  0.12966392481E+00  0.21430667310E-01 0.  0.
         14    1    1    2    0    0 -0.20049966283E-01 -0.96426857676E-02 -0.72279269445E-02  0.23392850717E-01  0.00000000000E+00 0. -1.
     999901    1    3    3    0    0  0.95012846471E-01  0.47998086194E-01 -0.89015980644E-01  0.89087322447E+00  0.88000000000E+00 0.  1.
        -11    1    4    4    0    0 -0.43948748701E-01 -0.33534659011E-01  0.65704869995E-01  0.85868835613E-01  0.51100000000E-03 0.  1.
         11    1    4    4    0    0 -0.31014131487E-01 -0.48207414148E-02  0.30539037593E-01  0.43795089197E-01  0.51100000000E-03 0. -1.
</event>
<event>
 8    1  0.1071333E+005  0.1043930E+01  0.7957747E-01            NaN
         13   -1    0    0    0    0  0.00000000000E+00  0.00000000000E+00  0.74505805969E-08  0.10566000000E+00  0.10566000000E+00 0.  1.
     999900   -1    0    0    0    0 -0.00000000000E+00 -0.00000000000E+00 -0.74505805969E-08  0.93827000000E+00  0.93827000000E+00 0. -1.
     999902    2    1    2    0    0 -0.56799116215E-02 -0.21558341086E-01  0.73485335267E-02  0.10204560908E+01  0.10201860658E+01 0.  0.
     999903    2    3    3    0    0  0.27765205694E-01  0.93032792031E-01 -0.81326922192E-01  0.12798029839E+00  0.18408733301E-01 0.  0.
         14    1    1    2    0    0  0.56799116215E-02  0.21558341086E-01 -0.73485335267E-02  0.23473909163E-01  0.00000000000E+00 0. -1.
     999901    1    3    3    0    0 -0.33445117316E-01 -0.11459113312E+00  0.88675455719E-01  0.89247579245E+00  0.88000000000E+00 0.  1.
        -11    1    4    4    0    0  0.33008210670E-02  0.10592357099E-01 -0.26359379936E-02  0.11415022502E-01  0.51100000000E-03 0. -1.
         11    1    4    4    0    0  0.24464384627E-01  0.82440434932E-01 -0.78690984199E-01  0.11656527589E+00  0.51100000000E-03 0.  1.
</event>
<event>
 8    1  0.1071333E+005  0.1043930E+01  0.7957747E-01            NaN
         13   -1    0    0    0    0  0.00000000000E+00  0.00000000000E+00  0.74505805969E-08  0.10566000000E+00  0.10566000000E+00 0.  1.
     999900   -1    0    0    0    0 -0.00000000000E+00 -0.00000000000E+00 -0.74505805969E-08  0.93827000000E+00  0.93827000000E+00 0. -1.
     999902    2    1    2    0    0 -0.18900048900E-02 -0.11874263096E-01 -0.19609726218E-01  0.10209275739E+01  0.10206684083E+01 0.  0.
     999903    2    3    3    0    0  0.64850296949E-01  0.69728911688E-01  0.83701010899E-01  0.12863476637E+00  0.21756878325E-01 0.  0.
         14    1    1    2    0    0  0.18900048900E-02  0.11874263096E-01  0.19609726218E-01  0.23002426066E-01  0.00000000000E+00 0.  1.
     999901    1    3    3    0    0 -0.66740301839E-01 -0.81603174784E-01 -0.10331073712E+00  0.89229280756E+00  0.88000000000E+00 0. -1.
        -11    1    4    4    0    0  0.25672191754E-01  0.41232528225E-01  0.49345394676E-01  0.69241691993E-01  0.51100000000E-03 0. -1.
         11    1    4    4    0    0  0.39178105195E-01  0.28496383462E-01  0.34355616224E-01  0.59393074379E-01  0.51100000000E-03 0.  1.
</event>
<event>
 8    1  0.1071333E+005  0.1043930E+01  0.7957747E-01            NaN
         13   -1    0    0    0    0  0.00000000000E+00  0.00000000000E+00  0.74505805969E-08  0.10566000000E+00  0.10566000000E+00 0.  1.
     999900   -1    0    0    0    0 -0.00000000000E+00 -0.00000000000E+00 -0.74505805969E-08  0.93827000000E+00  0.93827000000E+00 0. -1.
     999902    2    1    2    0    0 -0.22553547142E-01  0.70601249718E-02  0.60892802149E-02  0.10195253450E+01  0.10192332127E+01 0.  0.
     999903    2    3    3    0    0 -0.10090424607E+00  0.81566751068E-01 -0.18406031888E-01  0.13256982768E+00  0.20029364573E-01 0.  0.
         14    1    1    2    0    0  0.22553547142E-01 -0.70601249718E-02 -0.60892802149E-02  0.24404655024E-01  0.00000000000E+00 0. -1.
     999901    1    3    3    0    0  0.78350698929E-01 -0.74506626096E-01  0.24495312103E-01  0.88695551730E+00  0.88000000000E+00 0. -1.
        -11    1    4    4    0    0 -0.47721186763E-01  0.42328174201E-01 -0.18701682711E-01  0.66475559829E-01  0.51100000000E-03 0. -1.
         11    1    4    4    0    0 -0.53183059308E-01  0.39238576866E-01  0.29565082300E-03  0.66094267847E-01  0.51100000000E-03 0.  1.
</event>
<event>
 8    1  0.1071333E+005  0.1043930E+01  0.7957747E-01            NaN
         13   -1    0    0    0    0  0.00000000000E+00  0.00000000000E+00  0.74505805969E-08  0.10566000000E+00  0.10566000000E+00 0.  1.
     999900   -1    0    0    0    0 -0.00000000000E+00 -0.00000000000E+00 -0.74505805969E-08  0.93827000000E+00  0.93827000000E+00 0. -1.
     999902    2    1    2    0    0 -0.14821996684E-01 -0.15729071005E-01 -0.92283629063E-02  0.10204298310E+01  0.10201591945E+01 0.  0.
     999903    2    3    3    0    0  0.27070494186E-01  0.58954161474E-01  0.10890922565E+00  0.12841578637E+00  0.20518039555E-01 0.  0.
         14    1    1    2    0    0  0.14821996684E-01  0.15729071005E-01  0.92283629063E-02  0.23500168985E-01  0.00000000000E+00 0.  1.
     999901    1    3    3    0    0 -0.41892490870E-01 -0.74683232479E-01 -0.11813758856E+00  0.89201404464E+00  0.88000000000E+00 0. -1.
        -11    1    4    4    0    0  0.75192426249E-02  0.54749717553E-02  0.69112848186E-02  0.11599194119E-01  0.51100000000E-03 0. -1.
         11    1    4    4    0    0  0.19551251561E-01  0.53479189718E-01  0.10199794084E+00  0.11681659226E+00  0.51100000000E-03 0.  1.
</event>
<event>
 8    1  0.1071333E+005  0.1043930E+01  0.7957747E-01            NaN
         13   -1    0    0    0    0  0.00000000000E+00  0.00000000000E+00  0.74505805969E-08  0.10566000000E+00  0.10566000000E+00 0.  1.
     999900   -1    0    0    0    0 -0.00000000000E+00 -0.00000000000E+00 -0.74505805969E-08  0.93827000000E+00  0.93827000000E+00 0.  1.
     999902    2    1    2    0    0 -0.44770563330E-02 -0.17788828924E-01  0.17886822312E-01  0.10183092100E+01  0.10179868478E+01 0.  0.
     999903    2    3    3    0    0 -0.17209572324E-01  0.11419344286E+00  0.50563207822E-01  0.12777612066E+00  0.20827559999E-01 0.  0.
         14    1    1    2    0    0  0.44770563330E-02  0.17788828924E-01 -0.17886822312E-01  0.25620790001E-01  0.00000000000E+00 0. -1.
     999901    1    3    3    0    0  0.12732515991E-01 -0.13198227178E+00 -0.32676385510E-01  0.89053308933E+00  0.88000000000E+00 0.  1.
        -11    1    4    4    0    0  0.42372598738E-02  0.18559979569E-01  0.49818619708E-02  0.19685204661E-01  0.51100000000E-03 0.  1.
         11    1    4    4    0    0 -0.21446832197E-01  0.95633463289E-01  0.45581345851E-01  0.10809091600E+00  0.51100000000E-03 0. -1.
</event>
<event>
 8    1  0.1071333E+005  0.1043930E+01  0.7957747E-01            NaN
         13   -1    0    0    0    0  0.00000000000E+00  0.00000000000E+00  0.74505805969E-08  0.10566000000E+00  0.10566000000E+00 0.  1.
     999900   -1    0    0    0    0 -0.00000000000E+00 -0.00000000000E+00 -0.74505805969E-08  0.93827000000E+00  0.93827000000E+00 0. -1.
     999902    2    1    2    0    0  0.18451016271E-01  0.96400602636E-05  0.12021892815E-01  0.10219080564E+01  0.10216707443E+01 0.  0.
     999903    2    3    3    0    0  0.12310691234E+00  0.35192338417E-01 -0.33766802853E-01  0.13382738239E+00  0.19384497767E-01 0.  0.
         14    1    1    2    0    0 -0.18451016271E-01 -0.96400602636E-05 -0.12021892815E-01  0.22021943629E-01  0.00000000000E+00 0. -1.
     999901    1    3    3    0    0 -0.10465589607E+00 -0.35182698357E-01  0.45788695668E-01  0.88808067398E+00  0.88000000000E+00 0.  1.
        -11    1    4    4    0    0  0.86799688460E-01  0.15473213300E-01 -0.22292614941E-01  0.90944092983E-01  0.51100000000E-03 0. -1.
         11    1    4    4    0    0  0.36307223879E-01  0.19719125117E-01 -0.11474187912E-01  0.42883289408E-01  0.51100000000E-03 0.  1.
</event>
<event>
 8    1  0.1071333E+005  0.1043930E+01  0.7957747E-01            NaN
         13   -1    0    0    0    0  0.00000000000E+00  0.00000000000E+00  0.74505805969E-08  0.10566000000E+00  0.10566000000E+00 0.  1.
     999900   -1    0    0    0    0 -0.00000000000E+00 -0.00000000000E+00 -0.74505805969E-08  0.93827000000E+00  0.93827000000E+00 0. -1.
     999902    2    1    2    0    0  0.40043662825E-02  0.57855615780E-02 -0.20834459590E-01  0.10219394934E+01  0.10217028658E+01 0.  0.
     999903    2    3    3    0    0 -0.40138936138E-01  0.48346609208E-01 -0.11754586210E+00  0.13452010595E+00  0.18168665109E-01 0.  0.
         14    1    1    2    0    0 -0.40043662825E-02 -0.57855615780E-02  0.20834459590E-01  0.21990506554E-01  0.00000000000E+00 0.  1.
     999901    1    3    3    0    0  0.44143302420E-01 -0.42561047630E-01  0.96711402512E-01  0.88741938749E+00  0.88000000000E+00 0.  1.
        -11    1    4    4    0    0 -0.38251834788E-01  0.36515296989E-01 -0.88519336875E-01  0.10311403348E+00  0.51100000000E-03 0.  1.
         11    1    4    4    0    0 -0.18871013501E-02  0.11831312219E-01 -0.29026525228E-01  0.31406072472E-01  0.51100000000E-03 0. -1.
</event>
<event>
 8    1  0.1071333E+005  0.1043930E+01  0.7957747E-01            NaN
         13   -1    0    0    0    0  0.00000000000E+00  0.00000000000E+00  0.74505805969E-08  0.10566000000E+00  0.10566000000E+00 0. -1.
     999900   -1    0    0    0    0 -0.00000000000E+00 -0.00000000000E+00 -0.74505805969E-08  0.93827000000E+00  0.93827000000E+00 0.  1.
     999902    2    1    2    0    0  0.14641299206E-01 -0.48065300018E-02 -0.19323820588E-01  0.10192140049E+01  0.10189142787E+01 0.  0.
     999903    2    3    3    0    0 -0.32582898249E-01 -0.12270906996E+00 -0.17054150301E-01  0.13009293035E+00  0.22675215010E-01 0.  0.
         14    1    1    2    0    0 -0.14641299206E-01  0.48065300018E-02  0.19323820588E-01  0.24715995129E-01  0.00000000000E+00 0. -1.
     999901    1    3    3    0    0  0.47224197454E-01  0.11790253996E+00 -0.22696702872E-02  0.88912107452E+00  0.88000000000E+00 0. -1.
        -11    1    4    4    0    0 -0.17811183793E-01 -0.54521180514E-01  0.31787806194E-02  0.57447046573E-01  0.51100000000E-03 0.  1.
         11    1    4    4    0    0 -0.14771714456E-01 -0.68187889446E-01 -0.20232930920E-01  0.72645883777E-01  0.51100000000E-03 0. -1.
</event>
<event>
 8    1  0.1071333E+005  0.1043930E+01  0.7957747E-01            NaN
         13   -1    0    0    0    0  0.00000000000E+00  0.00000000000E+00  0.74505805969E-08  0.10566000000E+00  0.10566000000E+00 0.  1.
     999900   -1    0    0    0    0 -0.00000000000E+00 -0.00000000000E+00 -0.74505805969E-08  0.93827000000E+00  0.93827000000E+00 0. -1.
     999902    2    1    2    0    0 -0.17253383958E-01  0.46858003772E-02 -0.14075862885E-01  0.10211755301E+01  0.10209219840E+01 0.  0.
     999903    2    3    3    0    0  0.70249504993E-01 -0.85995841388E-01 -0.66890967387E-01  0.13063111743E+00  0.16118611435E-01 0.  0.
         14    1    1    2    0    0  0.17253383958E-01 -0.46858003772E-02  0.14075862885E-01  0.22754469872E-01  0.00000000000E+00 0.  1.
     999901    1    3    3    0    0 -0.87502888952E-01  0.90681641765E-01  0.52815104502E-01  0.89054441270E+00  0.88000000000E+00 0. -1.
        -11    1    4    4    0    0  0.46152752498E-01 -0.44199917214E-01 -0.40083024104E-01  0.75436192820E-01  0.51100000000E-03 0. -1.
         11    1    4    4    0    0  0.24096752496E-01 -0.41795924174E-01 -0.26807943284E-01  0.55194924608E-01  0.51100000000E-03 0.  1.
</event>
<event>
 8    1  0.1071333E+005  0.1043930E+01  0.7957747E-01            NaN
         13   -1    0    0    0    0  0.00000000000E+00  0.00000000000E+00  0.74505805969E-08  0.10566000000E+00  0.10566000000E+00 0. -1.
     999900   -1    0    0    0    0 -0.00000000000E+00 -0.00000000000E+00 -0.74505805969E-08  0.93827000000E+00  0.93827000000E+00 0.  1.
     999902    2    1    2    0    0  0.17692613782E-01 -0.14735214208E-01 -0.81569471155E-03  0.10208904584E+01  0.10206304461E+01 0.  0.
     999903    2    3    3    0    0  0.72392242874E-01 -0.10602559529E+00 -0.36859564162E-01  0.13374608252E+00  0.68792030441E-02 0.  0.
         14    1    1    2    0    0 -0.17692613782E-01  0.14735214208E-01  0.81569471155E-03  0.23039541620E-01  0.00000000000E+00 0.  1.
     999901    1    3    3    0    0 -0.54699629093E-01  0.91290381077E-01  0.36043869451E-01  0.88714437586E+00  0.88000000000E+00 0. -1.
        -11    1    4    4    0    0  0.57523816676E-01 -0.86382805551E-01 -0.27292710257E-01  0.10731324119E+00  0.51100000000E-03 0.  1.
         11    1    4    4    0    0  0.14868426199E-01 -0.19642789734E-01 -0.95668539052E-02  0.26432841330E-01  0.51100000000E-03 0. -1.
</event>
<event>
 8    1  0.1071333E+005  0.1043930E+01  0.7957747E-01            NaN
         13   -1    0    0    0    0  0.00000000000E+00  0.00000000000E+00  0.74505805969E-08  0.10566000000E+00  0.10566000000E+00 0.  1.
     999900   -1    0    0    0    0 -0.00000000000E+00 -0.00000000000E+00 -0.74505805969E-08  0.93827000000E+00  0.93827000000E+00 0.  1.
     999902    2    1    2    0    0  0.30278198649E-02 -0.12230838180E-01  0.19831291941E-01  0.10204344422E+01  0.10201639131E+01 0.  0.
     999903    2    3    3    0    0  0.17739375299E-01 -0.60948643293E-02  0.13039741762E+00  0.13337246682E+00  0.20806142776E-01 0.  0.
         14    1    1    2    0    0 -0.30278198649E-02  0.12230838180E-01 -0.19831291941E-01  0.23495557788E-01  0.00000000000E+00 0. -1.
     999901    1    3    3    0    0 -0.14711555435E-01 -0.61359738511E-02 -0.11056612568E+00  0.88706197539E+00  0.88000000000E+00 0.  1.
        -11    1    4    4    0    0  0.20043298308E-01  0.55510091524E-03  0.10933313643E+00  0.11115771582E+00  0.51100000000E-03 0.  1.
         11    1    4    4    0    0 -0.23039230082E-02 -0.66499652445E-02  0.21064281186E-01  0.22214750997E-01  0.51100000000E-03 0. -1.
</event>
<event>
 7    1  0.1071333E+005  0.1043930E+01  0.7957747E-01            NaN
         13   -1    0    0    0    0  0.00000000000E+00  0.00000000000E+00  0.74505805969E-08  0.10566000000E+00  0.10566000000E+00 0.  1.
     999900   -1    0    0    0    0 -0.00000000000E+00 -0.00000000000E+00 -0.74505805969E-08  0.93827000000E+00  0.93827000000E+00 0.  1.
     999902    2    1    2    0    0 -0.48452161899E-02 -0.16003215720E-01 -0.17319210121E-01  0.10198564861E+01  0.10195723212E+01 0.  0.
         14    1    1    2    0    0  0.48452161899E-02  0.16003215720E-01  0.17319210121E-01  0.24073513921E-01  0.00000000000E+00 0. -1.
     999901    1    3    3    0    0 -0.12686611376E-01 -0.10405137402E+00 -0.99785286195E-01  0.89182102570E+00  0.88000000000E+00 0.  1.
        -11    1    3    3    0    0  0.33144248459E-02  0.67269128402E-01  0.34742315742E-01  0.75785293245E-01  0.51100000000E-03 0.  1.
         11    1    3    3    0    0  0.45269703402E-02  0.20779029901E-01  0.47723760331E-01  0.52250167131E-01  0.51100000000E-03 0. -1.
</event>
<event>
 8    1  0.1071333E+005  0.1043930E+01  0.7957747E-01            NaN
         13   -1    0    0    0    0  0.00000000000E+00  0.00000000000E+00  0.74505805969E-08  0.10566000000E+00  0.10566000000E+00 0. -1.
     999900   -1    0    0    0    0 -0.00000000000E+00 -0.00000000000E+00 -0.74505805969E-08  0.93827000000E+00  0.93827000000E+00 0. -1.
     999902    2    1    2    0    0 -0.91724243217E-02  0.39279779405E-02 -0.21084936887E-01  0.10206032569E+01  0.10203366460E+01 0.  0.
     999903    2    3    3    0    0 -0.16118276434E-01 -0.12383782083E+00 -0.34851527606E-01  0.13124288947E+00  0.20358348542E-01 0.  0.
         14    1    1    2    0    0  0.91724243217E-02 -0.39279779405E-02  0.21084936887E-01  0.23326743068E-01  0.00000000000E+00 0. -1.
     999901    1    3    3    0    0  0.69458521120E-02  0.12776579877E+00  0.13766590719E-01  0.88936036747E+00  0.88000000000E+00 0.  1.
        -11    1    4    4    0    0  0.28884956583E-02 -0.55960317627E-01 -0.14949898335E-01  0.57997078696E-01  0.51100000000E-03 0. -1.
         11    1    4    4    0    0 -0.19006772092E-01 -0.67877503206E-01 -0.19901629271E-01  0.73245810771E-01  0.51100000000E-03 0.  1.
</event>
<event>
 8    1  0.1071333E+005  0.1043930E+01  0.7957747E-01            NaN
         13   -1    0    0    0    0  0.00000000000E+00  0.00000000000E+00  0.74505805969E-08  0.10566000000E+00  0.10566000000E+00 0.  1.
     999900   -1    0    0    0    0 -0.00000000000E+00 -0.00000000000E+00 -0.74505805969E-08  0.93827000000E+00  0.93827000000E+00 0.  1.
     999902    2    1    2    0    0  0.18046613589E-01  0.71974160665E-02  0.85966061947E-02  0.10226841840E+01  0.10224634739E+01 0.  0.
     999903    2    3    3    0    0  0.40252871149E-01 -0.10471256944E+00 -0.66761030761E-01  0.13212495733E+00  0.20370402222E-01 0.  0.
         14    1    1    2    0    0 -0.18046613589E-01 -0.71974160665E-02 -0.85966061947E-02  0.21245816015E-01  0.00000000000E+00 0. -1.
     999901    1    3    3    0    0 -0.22206257560E-01  0.11190998551E+00  0.75357636956E-01  0.89055922665E+00  0.88000000000E+00 0. -1.
        -11    1    4    4    0    0  0.28540116697E-01 -0.67965182174E-01 -0.32610231663E-01  0.80607025619E-01  0.51100000000E-03 0.  1.
         11    1    4    4    0    0  0.11712754452E-01 -0.36747387267E-01 -0.34150799099E-01  0.51517931712E-01  0.51100000000E-03 0. -1.
</event>
<event>
 7    1  0.1071333E+005  0.1043930E+01  0.7957747E-01            NaN
         13   -1    0    0    0    0  0.00000000000E+00  0.00000000000E+00  0.74505805969E-08  0.10566000000E+00  0.10566000000E+00 0.  1.
     999900   -1    0    0    0    0 -0.00000000000E+00 -0.00000000000E+00 -0.74505805969E-08  0.93827000000E+00  0.93827000000E+00 0. -1.
     999902    2    1    2    0    0 -0.44046807234E-02  0.23076397712E-01  0.46472964511E-02  0.10199817494E+01  0.10197005690E+01 0.  0.
         14    1    1    2    0    0  0.44046807234E-02 -0.23076397712E-01 -0.46472964511E-02  0.23948250624E-01  0.00000000000E+00 0. -1.
     999901    1    3    3    0    0 -0.66170320597E-02 -0.89838640469E-01  0.52158462184E-01  0.88613501884E+00  0.88000000000E+00 0. -1.
        -11    1    3    3    0    0  0.21479065441E-01  0.22558898878E-01 -0.21547776542E-01  0.37879043886E-01  0.51100000000E-03 0.  1.
         11    1    3    3    0    0 -0.19266714104E-01  0.90356139302E-01 -0.25963389191E-01  0.95967686652E-01  0.51100000000E-03 0. -1.
</event>
<event>
 7    1  0.1071333E+005  0.1043930E+01  0.7957747E-01            NaN
         13   -1    0    0    0    0  0.00000000000E+00  0.00000000000E+00  0.74505805969E-08  0.10566000000E+00  0.10566000000E+00 0.  1.
     999900   -1    0    0    0    0 -0.00000000000E+00 -0.00000000000E+00 -0.74505805969E-08  0.93827000000E+00  0.93827000000E+00 0. -1.
     999902    2    1    2    0    0  0.36352558536E-02  0.15924071330E-01  0.22270240438E-01  0.10163119852E+01  0.10159366597E+01 0.  0.
         14    1    1    2    0    0 -0.36352558536E-02 -0.15924071330E-01 -0.22270240438E-01  0.27618014809E-01  0.00000000000E+00 0. -1.
     999901    1    3    3    0    0  0.46243156057E-02  0.16568890317E-01  0.13944435209E+00  0.89114568941E+00  0.88000000000E+00 0.  1.
        -11    1    3    3    0    0 -0.11648359824E-01 -0.15483712433E-01 -0.92216998220E-01  0.94231977158E-01  0.51100000000E-03 0.  1.
         11    1    3    3    0    0  0.10659300072E-01  0.14838893445E-01 -0.24957113436E-01  0.30934318624E-01  0.51100000000E-03 0. -1.
</event>
<event>
 8    1  0.1071333E+005  0.1043930E+01  0.7957747E-01            NaN
         13   -1    0    0    0    0  0.00000000000E+00  0.00000000000E+00  0.74505805969E-08  0.10566000000E+00  0.10566000000E+00 0.  1.
     999900   -1    0    0    0    0 -0.00000000000E+00 -0.00000000000E+00 -0.74505805969E-08  0.93827000000E+00  0.93827000000E+00 0. -1.
     999902    2    1    2    0    0 -0.10484459941E-01  0.24362829583E-01 -0.18322456616E-02  0.10173437537E+01  0.10169963052E+01 0.  0.
     999903    2    3    3    0    0 -0.22073265257E-01 -0.96560132986E-01 -0.76267515532E-01  0.12588580595E+00  0.14812626164E-01 0.  0.
         14    1    1    2    0    0  0.10484459941E-01 -0.24362829583E-01  0.18322456616E-02  0.26586246251E-01  0.00000000000E+00 0.  1.
     999901    1    3    3    0    0  0.11588805316E-01  0.12092296257E+00  0.74435269871E-01  0.89145794779E+00  0.88000000000E+00 0.  1.
        -11    1    4    4    0    0 -0.15793146691E-01 -0.58497846404E-01 -0.37875087854E-01  0.71457714189E-01  0.51100000000E-03 0.  1.
         11    1    4    4    0    0 -0.62801185655E-02 -0.38062286583E-01 -0.38392427679E-01  0.54428091765E-01  0.51100000000E-03 0. -1.
</event>
<event>
 8    1  0.1071333E+005  0.1043930E+01  0.7957747E-01            NaN
         13   -1    0    0    0    0  0.00000000000E+00  0.00000000000E+00  0.74505805969E-08  0.10566000000E+00  0.10566000000E+00 0. -1.
     999900   -1    0    0    0    0 -0.00000000000E+00 -0.00000000000E+00 -0.74505805969E-08  0.93827000000E+00  0.93827000000E+00 0.  1.
     999902    2    1    2    0    0  0.18265538630E-01  0.18878516763E-01 -0.92242992080E-03  0.10176454195E+01  0.10173059130E+01 0.  0.
     999903    2    3    3    0    0 -0.11319711624E+00  0.52566912963E-01 -0.10894839973E-01  0.12718666881E+00  0.21929061124E-01 0.  0.
         14    1    1    2    0    0 -0.18265538630E-01 -0.18878516763E-01  0.92242992080E-03  0.26284580529E-01  0.00000000000E+00 0.  1.
     999901    1    3    3    0    0  0.13146265487E+00 -0.33688396200E-01  0.99724100522E-02  0.89045875066E+00  0.88000000000E+00 0. -1.
        -11    1    4    4    0    0 -0.35014172045E-01  0.94918983682E-02 -0.11030601301E-01  0.37921282477E-01  0.51100000000E-03 0.  1.
         11    1    4    4    0    0 -0.78182944195E-01  0.43075014594E-01  0.13576132755E-03  0.89265386335E-01  0.51100000000E-03 0. -1.
</event>
<event>
 8    1  0.1071333E+005  0.1043930E+01  0.7957747E-01            NaN
         13   -1    0    0    0    0  0.00000000000E+00  0.00000000000E+00  0.74505805969E-08  0.10566000000E+00  0.10566000000E+00 0.  1.
     999900   -1    0    0    0    0 -0.00000000000E+00 -0.00000000000E+00 -0.74505805969E-08  0.93827000000E+00  0.93827000000E+00 0. -1.
     999902    2    1    2    0    0 -0.17870663494E-01 -0.56296138395E-02 -0.14455102289E-01  0.10202656144E+01  0.10199911376E+01 0.  0.
     999903    2    3    3    0    0  0.54467263222E-01 -0.10236173316E+00 -0.57986051738E-01  0.13094856060E+00  0.18453621508E-01 0.  0.
         14    1    1    2    0    0  0.17870663494E-01  0.56296138395E-02  0.14455102289E-01  0.23664385643E-01  0.00000000000E+00 0.  1.
     999901    1    3    3    0    0 -0.72337926716E-01  0.96732119324E-01  0.43530949450E-01  0.88931705376E+00  0.88000000000E+00 0. -1.
        -11    1    4    4    0    0  0.34013162842E-01 -0.67915973173E-01 -0.47306381027E-01  0.89485358944E-01  0.51100000000E-03 0. -1.
         11    1    4    4    0    0  0.20454100380E-01 -0.34445759991E-01 -0.10679670712E-01  0.41463201652E-01  0.51100000000E-03 0.  1.
</event>
<event>
 8    1  0.1071333E+005  0.1043930E+01  0.7957747E-01            NaN
         13   -1    0    0    0    0  0.00000000000E+00  0.00000000000E+00  0.74505805969E-08  0.10566000000E+00  0.10566000000E+00 0. -1.
     999900   -1    0    0    0    0 -0.00000000000E+00 -0.00000000000E+00 -0.74505805969E-08  0.93827000000E+00  0.93827000000E+00 0. -1.
     999902    2    1    2    0    0  0.21146384210E-01  0.10231708675E-01 -0.81483179856E-02  0.10190653159E+01  0.10187619278E+01 0.  0.
     999903    2    3    3    0    0 -0.11258943854E-01  0.12075775613E-01 -0.12769118385E+00  0.13038989563E+00  0.20588790106E-01 0.  0.
         14    1    1    2    0    0 -0.21146384210E-01 -0.10231708675E-01  0.81483179856E-02  0.24864684064E-01  0.00000000000E+00 0. -1.
     999901    1    3    3    0    0  0.32405328065E-01 -0.18440669379E-02  0.11954286586E+00  0.88867542030E+00  0.88000000000E+00 0.  1.
        -11    1    4    4    0    0  0.34103229043E-02 -0.33337314208E-02 -0.16617902068E-01  0.17296238251E-01  0.51100000000E-03 0.  1.
         11    1    4    4    0    0 -0.14669266759E-01  0.15409507034E-01 -0.11107328178E+00  0.11309365738E+00  0.51100000000E-03 0. -1.
</event>
<event>
 8    1  0.1071333E+005  0.1043930E+01  0.7957747E-01            NaN
         13   -1    0    0    0    0  0.00000000000E+00  0.00000000000E+00  0.74505805969E-08  0.10566000000E+00  0.10566000000E+00 0. -1.
     999900   -1    0    0    0    0 -0.00000000000E+00 -0.00000000000E+00 -0.74505805969E-08  0.93827000000E+00  0.93827000000E+00 0. -1.
     999902    2    1    2    0    0  0.21538154949E-01 -0.32089742631E-02 -0.11965297094E-01  0.10190833107E+01  0.10187803670E+01 0.  0.
     999903    2    3    3    0    0 -0.58967474795E-01 -0.35315292351E-01 -0.10802178441E+00  0.12962346291E+00  0.20228773361E-01 0.  0.
         14    1    1    2    0    0 -0.21538154949E-01  0.32089742631E-02  0.11965297094E-01  0.24846689296E-01  0.00000000000E+00 0.  1.
     999901    1    3    3    0    0  0.80505629745E-01  0.32106318087E-01  0.96056487318E-01  0.88945984779E+00  0.88000000000E+00 0.  1.
        -11    1    4    4    0    0 -0.27052548417E-01 -0.26113837933E-01 -0.67074083498E-01  0.76895817217E-01  0.51100000000E-03 0.  1.
         11    1    4    4    0    0 -0.31914926379E-01 -0.92014544179E-02 -0.40947700914E-01  0.52727645692E-01  0.51100000000E-03 0. -1.
</event>
<event>
 8    1  0.1071333E+005  0.1043930E+01  0.7957747E-01            NaN
         13   -1    0    0    0    0  0.00000000000E+00  0.00000000000E+00  0.74505805969E-08  0.10566000000E+00  0.10566000000E+00 0.  1.
     999900   -1    0    0    0    0 -0.00000000000E+00 -0.00000000000E+00 -0.74505805969E-08  0.93827000000E+00  0.93827000000E+00 0. -1.
     999902    2    1    2    0    0  0.19959244890E-01  0.14359881972E-01 -0.12146418713E-02  0.10193118558E+01  0.10190145271E+01 0.  0.
     999903    2    3    3    0    0 -0.38028858655E-01 -0.19813276273E-01 -0.11967901155E+00  0.12882646473E+00  0.20843037263E-01 0.  0.
         14    1    1    2    0    0 -0.19959244890E-01 -0.14359881972E-01  0.12146418713E-02  0.24618144156E-01  0.00000000000E+00 0. -1.
     999901    1    3    3    0    0  0.57988103544E-01  0.34173158245E-01  0.11846436968E+00  0.89048539111E+00  0.88000000000E+00 0.  1.
        -11    1    4    4    0    0  0.33423561434E-03  0.29541387905E-02 -0.90997647003E-02  0.95867350041E-02  0.51100000000E-03 0.  1.
         11    1    4    4    0    0 -0.38363094269E-01 -0.22767415063E-01 -0.11057924685E+00  0.11923972973E+00  0.51100000000E-03 0. -1.
</event>
<event>
 8    1  0.1071333E+005  0.1043930E+01  0.7957747E-01            NaN
         13   -1    0    0    0    0  0.00000000000E+00  0.00000000000E+00  0.74505805969E-08  0.10566000000E+00  0.10566000000E+00 0.  1.
     999900   -1    0    0    0    0 -0.00000000000E+00 -0.00000000000E+00 -0.74505805969E-08  0.93827000000E+00  0.93827000000E+00 0. -1.
     999902    2    1    2    0    0  0.14760755451E-01  0.17831468246E-01 -0.52810374718E-02  0.10201869901E+01  0.10199106649E+01 0.  0.
     999903    2    3    3    0    0 -0.75943306599E-01 -0.15542470662E-01  0.10045189941E+00  0.12860384727E+00  0.20962137937E-01 0.  0.
         14    1    1    2    0    0 -0.14760755451E-01 -0.17831468246E-01  0.52810374718E-02  0.23743009878E-01  0.00000000000E+00 0.  1.
     999901    1    3    3    0    0  0.90704062050E-01  0.33373938907E-01 -0.10573293688E+00  0.89158314285E+00  0.88000000000E+00 0. -1.
        -11    1    4    4    0    0 -0.41347070041E-01  0.24231612142E-03  0.42580279046E-01  0.59354698236E-01  0.51100000000E-03 0.  1.
         11    1    4    4    0    0 -0.34596236558E-01 -0.15784786783E-01  0.57871620365E-01  0.69249149037E-01  0.51100000000E-03 0. -1.
</event>
<event>
 8    1  0.1071333E+005  0.1043930E+01  0.7957747E-01            NaN
         13   -1    0    0    0    0  0.00000000000E+00  0.00000000000E+00  0.74505805969E-08  0.10566000000E+00  0.10566000000E+00 0. -1.
     999900   -1    0    0    0    0 -0.00000000000E+00 -0.00000000000E+00 -0.74505805969E-08  0.93827000000E+00  0.93827000000E+00 0.  1.
     999902    2    1    2    0    0 -0.12524254364E-01 -0.17307476899E-02  0.20513514182E-01  0.10198331807E+01  0.10195484588E+01 0.  0.
     999903    2    3    3    0    0  0.28823799948E-01  0.33385125874E-01 -0.11774402027E+00  0.12738826254E+00  0.20463065497E-01 0.  0.
         14    1    1    2    0    0  0.12524254364E-01  0.17307476899E-02 -0.20513514182E-01  0.24096819272E-01  0.00000000000E+00 0.  1.
     999901    1    3    3    0    0 -0.41348054312E-01 -0.35115873564E-01  0.13825753445E+00  0.89244491819E+00  0.88000000000E+00 0. -1.
        -11    1    4    4    0    0  0.17456506948E-01  0.25274398701E-01 -0.10105604568E+00  0.10562248981E+00  0.51100000000E-03 0. -1.
         11    1    4    4    0    0  0.11367293000E-01  0.81107271729E-02 -0.16687974596E-01  0.21765772730E-01  0.51100000000E-03 0.  1.
</event>
<event>
 8    1  0.1071333E+005  0.1043930E+01  0.7957747E-01            NaN
         13   -1    0    0    0    0  0.00000000000E+00  0.00000000000E+00  0.74505805969E-08  0.10566000000E+00  0.10566000000E+00 0. -1.
     999900   -1    0    0    0    0 -0.00000000000E+00 -0.00000000000E+00 -0.74505805969E-08  0.93827000000E+00  0.93827000000E+00 0.  1.
     999902    2    1    2    0    0  0.14774643350E-01 -0.18058043122E-01  0.25119789000E-02  0.10204631501E+01  0.10201932893E+01 0.  0.
     999903    2    3    3    0    0 -0.10844997167E+00 -0.43917445763E-01 -0.52432740884E-01  0.12980500202E+00  0.20248650236E-01 0.  0.
         14    1    1    2    0    0 -0.14774643350E-01  0.18058043122E-01 -0.25119789000E-02  0.23466849927E-01  0.00000000000E+00 0. -1.
     999901    1    3    3    0    0  0.12322461502E+00  0.25859402641E-01  0.54944719784E-01  0.89065814805E+00  0.88000000000E+00 0. -1.
        -11    1    4    4    0    0 -0.91794974868E-01 -0.33031355377E-01 -0.50371175694E-01  0.10979482825E+00  0.51100000000E-03 0.  1.
         11    1    4    4    0    0 -0.16654996803E-01 -0.10886090387E-01 -0.20615651894E-02  0.20010173773E-01  0.51100000000E-03 0. -1.
</event>
<event>
 8    1  0.1071333E+005  0.1043930E+01  0.7957747E-01            NaN
         13   -1    0    0    0    0  0.00000000000E+00  0.00000000000E+00  0.74505805969E-08  0.10566000000E+00  0.10566000000E+00 0.  1.
     999900   -1    0    0    0    0 -0.00000000000E+00 -0.00000000000E+00 -0.74505805969E-08  0.93827000000E+00  0.93827000000E+00 0.  1.
     999902    2    1    2    0    0  0.61980266358E-02 -0.20992765013E-01 -0.83734254290E-02  0.10204944294E+01  0.10202252959E+01 0.  0.
     999903    2    3    3    0    0 -0.11098660426E+00  0.61569978283E-01  0.84108873069E-02  0.12873742354E+00  0.19841689574E-01 0.  0.
         14    1    1    2    0    0 -0.61980266358E-02  0.20992765013E-01  0.83734254290E-02  0.23435570624E-01  0.00000000000E+00 0.  1.
     999901    1    3    3    0    0  0.11718463089E+00 -0.82562743295E-01 -0.16784312736E-01  0.89175700583E+00  0.88000000000E+00 0. -1.
        -11    1    4    4    0    0 -0.53332188021E-01  0.20550782215E-01 -0.21340490859E-02  0.57196785008E-01  0.51100000000E-03 0.  1.
         11    1    4    4    0    0 -0.57654416235E-01  0.41019196068E-01  0.10544936393E-01  0.71540638535E-01  0.51100000000E-03 0. -1.
</event>
<event>
 8    1  0.1071333E+005  0.1043930E+01  0.7957747E-01            NaN
         13   -1    0    0    0    0  0.00000000000E+00  0.00000000000E+00  0.74505805969E-08  0.10566000000E+00  0.10566000000E+00 0.  1.
     999900   -1    0    0    0    0 -0.00000000000E+00 -0.00000000000E+00 -0.74505805969E-08  0.93827000000E+00  0.93827000000E+00 0.  1.
     999902    2    1    2    0    0 -0.33309965355E-04 -0.21233071889E-01 -0.99203878727E-02  0.10204937344E+01  0.10202245848E+01 0.  0.
     999903    2    3    3    0    0  0.73787067033E-02 -0.96020057692E-01 -0.90490459354E-01  0.13362307432E+00  0.19806715111E-01 0.  0.
         14    1    1    2    0    0  0.33309965355E-04  0.21233071889E-01  0.99203878727E-02  0.23436265636E-01  0.00000000000E+00 0. -1.
     999901    1    3    3    0    0 -0.74120166687E-02  0.74786985803E-01  0.80570071482E-01  0.88687066005E+00  0.88000000000E+00 0. -1.
        -11    1    4    4    0    0  0.99240024151E-02 -0.59830002925E-01 -0.45469500261E-01  0.75801396088E-01  0.51100000000E-03 0.  1.
         11    1    4    4    0    0 -0.25452957118E-02 -0.36190054767E-01 -0.45020959094E-01  0.57821678227E-01  0.51100000000E-03 0. -1.
</event>
<event>
 8    1  0.1071333E+005  0.1043930E+01  0.7957747E-01            NaN
         13   -1    0    0    0    0  0.00000000000E+00  0.00000000000E+00  0.74505805969E-08  0.10566000000E+00  0.10566000000E+00 0. -1.
     999900   -1    0    0    0    0 -0.00000000000E+00 -0.00000000000E+00 -0.74505805969E-08  0.93827000000E+00  0.93827000000E+00 0. -1.
     999902    2    1    2    0    0 -0.25951158769E-03  0.23393171051E-01 -0.16286447085E-02  0.10204787680E+01  0.10202092705E+01 0.  0.
     999903    2    3    3    0    0 -0.64262848215E-01 -0.81520756165E-01 -0.74118441267E-01  0.12898668738E+00  0.19200907262E-01 0.  0.
         14    1    1    2    0    0  0.25951158769E-03 -0.23393171051E-01  0.16286447085E-02  0.23451231986E-01  0.00000000000E+00 0. -1.
     999901    1    3    3    0    0  0.64003336627E-01  0.10491392722E+00  0.72489796559E-01  0.89149208063E+00  0.88000000000E+00 0.  1.
        -11    1    4    4    0    0 -0.18511816833E-01 -0.32262226442E-01 -0.35677290799E-01  0.51542883284E-01  0.51100000000E-03 0. -1.
         11    1    4    4    0    0 -0.45751031382E-01 -0.49258529722E-01 -0.38441150468E-01  0.77443804099E-01  0.51100000000E-03 0.  1.
</event>
<event>
 8    1  0.1071333E+005  0.1043930E+01  0.7957747E-01            NaN
         13   -1    0    0    0    0  0.00000000000E+00  0.00000000000E+00  0.74505805969E-08  0.10566000000E+00  0.10566000000E+00 0.  1.
     999900   -1    0    0    0    0 -0.00000000000E+00 -0.00000000000E+00 -0.74505805969E-08  0.93827000000E+00  0.93827000000E+00 0. -1.
     999902    2    1    2    0    0 -0.22012333313E-01 -0.78363246254E-02 -0.61645546797E-02  0.10197648901E+01  0.10194785327E+01 0.  0.
     999903    2    3    3    0    0 -0.28085611772E-01 -0.12071931135E+00  0.39251169500E-01  0.13137193572E+00  0.18867365124E-01 0.  0.
         14    1    1    2    0    0  0.22012333313E-01  0.78363246254E-02  0.61645546797E-02  0.24165109888E-01  0.00000000000E+00 0.  1.
     999901    1    3    3    0    0  0.60732784594E-02  0.11288298673E+00 -0.45415724180E-01  0.88839295439E+00  0.88000000000E+00 0. -1.
        -11    1    4    4    0    0 -0.29668204638E-02 -0.46519013911E-01  0.95007140128E-02  0.47574629443E-01  0.51100000000E-03 0. -1.
         11    1    4    4    0    0 -0.25118791309E-01 -0.74200297441E-01  0.29750455487E-01  0.83797306281E-01  0.51100000000E-03 0.  1.
</event>
<event>
 8    1  0.1071333E+005  0.1043930E+01  0.7957747E-01            NaN
         13   -1    0    0    0    0  0.00000000000E+00  0.00000000000E+00  0.74505805969E-08  0.10566000000E+00  0.10566000000E+00 0. -1.
     999900   -1    0    0    0    0 -0.00000000000E+00 -0.00000000000E+00 -0.74505805969E-08  0.93827000000E+00  0.93827000000E+00 0. -1.
     999902    2    1    2    0    0  0.21111462103E-01  0.29281889161E-02  0.16104973481E-02  0.10225556737E+01  0.10223322572E+01 0.  0.
     999903    2    3    3    0    0  0.44677996280E-01 -0.11271677879E+00 -0.52011719007E-01  0.13305891589E+00  0.17270223279E-01 0.  0.
         14    1    1    2    0    0 -0.21111462103E-01 -0.29281889161E-02 -0.16104973481E-02  0.21374326285E-01  0.00000000000E+00 0.  1.
     999901    1    3    3    0    0 -0.23566534177E-01  0.11564496771E+00  0.53622216355E-01  0.88949675782E+00  0.88000000000E+00 0.  1.
        -11    1    4    4    0    0  0.14196324545E-01 -0.39749859364E-01 -0.94640538656E-02  0.43259870395E-01  0.51100000000E-03 0. -1.
         11    1    4    4    0    0  0.30481671735E-01 -0.72966919426E-01 -0.42547665141E-01  0.89799045497E-01  0.51100000000E-03 0.  1.
</event>
<event>
 8    1  0.1071333E+005  0.1043930E+01  0.7957747E-01            NaN
         13   -1    0    0    0    0  0.00000000000E+00  0.00000000000E+00  0.74505805969E-08  0.10566000000E+00  0.10566000000E+00 0.  1.
     999900   -1    0    0    0    0 -0.00000000000E+00 -0.00000000000E+00 -0.74505805969E-08  0.93827000000E+00  0.93827000000E+00 0.  1.
     999902    2    1    2    0    0 -0.70790626694E-02  0.13349034218E-01 -0.13918744753E-01  0.10233863563E+01  0.10231801371E+01 0.  0.
     999903    2    3    3    0    0 -0.96540447157E-01  0.56963190171E-02 -0.92736898452E-01  0.13531304581E+00  0.18893968487E-01 0.  0.
         14    1    1    2    0    0  0.70790626694E-02 -0.13349034218E-01  0.13918744753E-01  0.20543643746E-01  0.00000000000E+00 0.  1.
     999901    1    3    3    0    0  0.89461384488E-01  0.76527152013E-02  0.78818153699E-01  0.88807331044E+00  0.88000000000E+00 0. -1.
        -11    1    4    4    0    0 -0.70594198993E-01  0.11539012694E-01 -0.61985394342E-01  0.94652733601E-01  0.51100000000E-03 0.  1.
         11    1    4    4    0    0 -0.25946248164E-01 -0.58426936765E-02 -0.30751504110E-01  0.40660312213E-01  0.51100000000E-03 0. -1.
</event>
<event>
 8    1  0.1071333E+005  0.1043930E+01  0.7957747E-01            NaN
         13   -1    0    0    0    0  0.00000000000E+00  0.00000000000E+00  0.74505805969E-08  0.10566000000E+00  0.10566000000E+00 0. -1.
     999900   -1    0    0    0    0 -0.00000000000E+00 -0.00000000000E+00 -0.74505805969E-08  0.93827000000E+00  0.93827000000E+00 0.  1.
     999902    2    1    2    0    0 -0.13978663389E-01 -0.13048268064E-01 -0.11599143708E-01  0.10215648382E+01  0.10213199881E+01 0.  0.
     999903    2    3    3    0    0  0.34562283296E-02  0.14602503289E-01  0.12778039194E+00  0.12999588649E+00  0.18599014043E-01 0.  0.
         14    1    1    2    0    0  0.13978663389E-01  0.13048268064E-01  0.11599143708E-01  0.22365161846E-01  0.00000000000E+00 0. -1.
     999901    1    3    3    0    0 -0.17434891719E-01 -0.27650771353E-01 -0.13937953565E+00  0.89156895166E+00  0.88000000000E+00 0.  1.
        -11    1    4    4    0    0  0.47905796440E-02  0.79864722994E-02  0.20728977297E-01  0.22730706410E-01  0.51100000000E-03 0.  1.
         11    1    4    4    0    0 -0.13343513145E-02  0.66160309893E-02  0.10705141465E+00  0.10726518008E+00  0.51100000000E-03 0. -1.
</event>
<event>
 8    1  0.1071333E+005  0.1043930E+01  0.7957747E-01            NaN
         13   -1    0    0    0    0  0.00000000000E+00  0.00000000000E+00  0.74505805969E-08  0.10566000000E+00  0.10566000000E+00 0. -1.
     999900   -1    0    0    0    0 -0.00000000000E+00 -0.00000000000E+00 -0.74505805969E-08  0.93827000000E+00  0.93827000000E+00 0. -1.
     999902    2    1    2    0    0  0.13523466762E-01 -0.18725174962E-01  0.53473920494E-02  0.10202211212E+01  0.10199455992E+01 0.  0.
     999903    2    3    3    0    0 -0.11250869936E+00  0.44341250371E-01  0.38207814767E-01  0.12840203180E+00  0.20072138540E-01 0.  0.
         14    1    1    2    0    0 -0.13523466762E-01  0.18725174962E-01 -0.53473920494E-02  0.23708878766E-01  0.00000000000E+00 0. -1.
     999901    1    3    3    0    0  0.12603216612E+00 -0.63066425333E-01 -0.32860422718E-01  0.89181908944E+00  0.88000000000E+00 0. -1.
        -11    1    4    4    0    0 -0.39954483141E-01  0.26005066603E-01  0.17045172240E-01  0.50630260021E-01  0.51100000000E-03 0. -1.
         11    1    4    4    0    0 -0.72554216215E-01  0.18336183768E-01  0.21162642527E-01  0.77771771777E-01  0.51100000000E-03 0.  1.
</event>
<event>
 8    1  0.1071333E+005  0.1043930E+01  0.7957747E-01            NaN
         13   -1    0    0    0    0  0.00000000000E+00  0.00000000000E+00  0.74505805969E-08  0.10566000000E+00  0.10566000000E+00 0. -1.
     999900   -1    0    0    0    0 -0.00000000000E+00 -0.00000000000E+00 -0.74505805969E-08  0.93827000000E+00  0.93827000000E+00 0.  1.
     999902    2    1    2    0    0  0.35291644718E-02  0.22670903606E-01 -0.12822698522E-02  0.10209502461E+01  0.10206915969E+01 0.  0.
     999903    2    3    3    0    0 -0.25796957838E-01 -0.12032562491E+00  0.30672485780E-01  0.12835339702E+00  0.19749787337E-01 0.  0.
         14    1    1    2    0    0 -0.35291644718E-02 -0.22670903606E-01  0.12822698522E-02  0.22979753875E-01  0.00000000000E+00 0.  1.
     999901    1    3    3    0    0  0.29326122309E-01  0.14299652852E+00 -0.31954755632E-01  0.89259684910E+00  0.88000000000E+00 0.  1.
        -11    1    4    4    0    0 -0.54247068146E-02 -0.63014038672E-01  0.95648416644E-02  0.63968303329E-01  0.51100000000E-03 0. -1.
         11    1    4    4    0    0 -0.20372251023E-01 -0.57311586239E-01  0.21107644116E-01  0.64385093695E-01  0.51100000000E-03 0.  1.
</event>
<event>
 8    1  0.1071333E+005  0.1043930E+01  0.7957747E-01            NaN
         13   -1    0    0    0    0  0.00000000000E+00  0.00000000000E+00  0.74505805969E-08  0.10566000000E+00  0.10566000000E+00 0.  1.
     999900   -1    0    0    0    0 -0.00000000000E+00 -0.00000000000E+00 -0.74505805969E-08  0.93827000000E+00  0.93827000000E+00 0. -1.
     999902    2    1    2    0    0  0.35250935430E-02  0.13544746087E-01 -0.19074566651E-01  0.10202714809E+01  0.10199971418E+01 0.  0.
     999903    2    3    3    0    0 -0.86614126077E-01 -0.23917827131E-01  0.89520538458E-01  0.12823929534E+00  0.18902930240E-01 0.  0.
         14    1    1    2    0    0 -0.35250935430E-02 -0.13544746087E-01  0.19074566651E-01  0.23658519057E-01  0.00000000000E+00 0.  1.
     999901    1    3    3    0    0  0.90139219620E-01  0.37462573218E-01 -0.10859510511E+00  0.89203218561E+00  0.88000000000E+00 0. -1.
        -11    1    4    4    0    0 -0.40915250041E-01 -0.13432695838E-01  0.30083093124E-01  0.52533309588E-01  0.51100000000E-03 0.  1.
         11    1    4    4    0    0 -0.45698876036E-01 -0.10485131293E-01  0.59437445334E-01  0.75705985748E-01  0.51100000000E-03 0. -1.
</event>
<event>
 8    1  0.1071333E+005  0.1043930E+01  0.7957747E-01            NaN
         13   -1    0    0    0    0  0.00000000000E+00  0.00000000000E+00  0.74505805969E-08  0.10566000000E+00  0.10566000000E+00 0.  1.
     999900   -1    0    0    0    0 -0.00000000000E+00 -0.00000000000E+00 -0.74505805969E-08  0.93827000000E+00  0.93827000000E+00 0. -1.
     999902    2    1    2    0    0 -0.21714874105E-01 -0.82828191150E-02 -0.69829586603E-02  0.10196626853E+01  0.10193738712E+01 0.  0.
     999903    2    3    3    0    0  0.81248426976E-01  0.90874604277E-03 -0.98154678985E-01  0.12893365311E+00  0.19682814655E-01 0.  0.
         14    1    1    2    0    0  0.21714874105E-01  0.82828191150E-02  0.69829586603E-02  0.24267314675E-01  0.00000000000E+00 0. -1.
     999901    1    3    3    0    0 -0.10296330108E+00 -0.91915651578E-02  0.91171720325E-01  0.89072903221E+00  0.88000000000E+00 0. -1.
        -11    1    4    4    0    0  0.39944941307E-01 -0.30710348212E-02 -0.34106797400E-01  0.52617148733E-01  0.51100000000E-03 0.  1.
         11    1    4    4    0    0  0.41303485669E-01  0.39797808639E-02 -0.64047881586E-01  0.76316504380E-01  0.51100000000E-03 0. -1.
</event>
<event>
 8    1  0.1071333E+005  0.1043930E+01  0.7957747E-01            NaN
         13   -1    0    0    0    0  0.00000000000E+00  0.00000000000E+00  0.74505805969E-08  0.10566000000E+00  0.10566000000E+00 0.  1.
     999900   -1    0    0    0    0 -0.00000000000E+00 -0.00000000000E+00 -0.74505805969E-08  0.93827000000E+00  0.93827000000E+00 0.  1.
     999902    2    1    2    0    0 -0.20376311845E-01  0.55956717101E-02  0.11075125314E-01  0.10200728412E+01  0.10197938210E+01 0.  0.
     999903    2    3    3    0    0  0.63784271728E-01 -0.43592828120E-01  0.10254081482E+00  0.12997819189E+00  0.20271745837E-01 0.  0.
         14    1    1    2    0    0  0.20376311845E-01 -0.55956717101E-02 -0.11075125314E-01  0.23857158822E-01  0.00000000000E+00 0. -1.
     999901    1    3    3    0    0 -0.84160583574E-01  0.49188499830E-01 -0.91465689502E-01  0.89009464929E+00  0.88000000000E+00 0.  1.
        -11    1    4    4    0    0  0.28419187366E-01 -0.30181500769E-01  0.45720861551E-01  0.61718971972E-01  0.51100000000E-03 0.  1.
         11    1    4    4    0    0  0.35365084362E-01 -0.13411327350E-01  0.56819953265E-01  0.68259219914E-01  0.51100000000E-03 0. -1.
</event>
<event>
 8    1  0.1071333E+005  0.1043930E+01  0.7957747E-01            NaN
         13   -1    0    0    0    0  0.00000000000E+00  0.00000000000E+00  0.74505805969E-08  0.10566000000E+00  0.10566000000E+00 0.  1.
     999900   -1    0    0    0    0 -0.00000000000E+00 -0.00000000000E+00 -0.74505805969E-08  0.93827000000E+00  0.93827000000E+00 0. -1.
     999902    2    1    2    0    0  0.25446189646E-01  0.68825792532E-02  0.11851032322E-01  0.10150280030E+01  0.10146164405E+01 0.  0.
     999903    2    3    3    0    0 -0.68540796106E-02  0.12306387104E+00 -0.15457122948E-01  0.12638457882E+00  0.23290434755E-01 0.  0.
         14    1    1    2    0    0 -0.25446189646E-01 -0.68825792532E-02 -0.11851032322E-01  0.28901997021E-01  0.00000000000E+00 0. -1.
     999901    1    3    3    0    0  0.32300269257E-01 -0.11618129179E+00  0.27308155270E-01  0.88864342416E+00  0.88000000000E+00 0. -1.
        -11    1    4    4    0    0 -0.73234455327E-02  0.11553486483E+00 -0.20117432105E-01  0.11750280865E+00  0.51100000000E-03 0.  1.
         11    1    4    4    0    0  0.46936592213E-03  0.75290062135E-02  0.46603091570E-02  0.88817701710E-02  0.51100000000E-03 0. -1.
</event>
<event>
 8    1  0.1071333E+005  0.1043930E+01  0.7957747E-01            NaN
         13   -1    0    0    0    0  0.00000000000E+00  0.00000000000E+00  0.74505805969E-08  0.10566000000E+00  0.10566000000E+00 0.  1.
     999900   -1    0    0    0    0 -0.00000000000E+00 -0.00000000000E+00 -0.74505805969E-08  0.93827000000E+00  0.93827000000E+00 0. -1.
     999902    2    1    2    0    0 -0.14651351528E-01 -0.18626215006E-01 -0.49876192126E-02  0.10197127679E+01  0.10194251589E+01 0.  0.
     999903    2    3    3    0    0  0.10789468519E+00 -0.58650878183E-01  0.35508012031E-01  0.12939855314E+00  0.20049389835E-01 0.  0.
         14    1    1    2    0    0  0.14651351528E-01  0.18626215006E-01  0.49876192126E-02  0.24217232139E-01  0.00000000000E+00 0.  1.
     999901    1    3    3    0    0 -0.12254603672E+00  0.40024663177E-01 -0.40495631244E-01  0.89031421472E+00  0.88000000000E+00 0. -1.
        -11    1    4    4    0    0  0.25423908061E-01 -0.23433291265E-01  0.12976220886E-01  0.36934234392E-01  0.51100000000E-03 0.  1.
         11    1    4    4    0    0  0.82470777132E-01 -0.35217586917E-01  0.22531791145E-01  0.92464318752E-01  0.51100000000E-03 0. -1.
</event>
<event>
 8    1  0.1071333E+005  0.1043930E+01  0.7957747E-01            NaN
         13   -1    0    0    0    0  0.00000000000E+00  0.00000000000E+00  0.74505805969E-08  0.10566000000E+00  0.10566000000E+00 0. -1.
     999900   -1    0    0    0    0 -0.00000000000E+00 -0.00000000000E+00 -0.74505805969E-08  0.93827000000E+00  0.93827000000E+00 0. -1.
     999902    2    1    2    0    0  0.17820305245E-01  0.84003793751E-02  0.12507652086E-01  0.10205939546E+01  0.10203271285E+01 0.  0.
     999903    2    3    3    0    0  0.71918296472E-02  0.14393238831E-02  0.13077637061E+00  0.13259118968E+00  0.20595397609E-01 0.  0.
         14    1    1    2    0    0 -0.17820305245E-01 -0.84003793751E-02 -0.12507652086E-01  0.23336045367E-01  0.00000000000E+00 0.  1.
     999901    1    3    3    0    0  0.10628475598E-01  0.69610554920E-02 -0.11826871853E+00  0.88800276496E+00  0.88000000000E+00 0. -1.
        -11    1    4    4    0    0  0.44734068570E-02  0.92988206162E-02  0.10487506720E+00  0.10538273234E+00  0.51100000000E-03 0. -1.
         11    1    4    4    0    0  0.27184227902E-02 -0.78594967331E-02  0.25901303413E-01  0.27208457341E-01  0.51100000000E-03 0.  1.
</event>
<event>
 8    1  0.1071333E+005  0.1043930E+01  0.7957747E-01            NaN
         13   -1    0    0    0    0  0.00000000000E+00  0.00000000000E+00  0.74505805969E-08  0.10566000000E+00  0.10566000000E+00 0.  1.
     999900   -1    0    0    0    0 -0.00000000000E+00 -0.00000000000E+00 -0.74505805969E-08  0.93827000000E+00  0.93827000000E+00 0.  1.
     999902    2    1    2    0    0 -0.20834125121E-01 -0.10306820750E-01 -0.27108733680E-02  0.10205282873E+01  0.10202599399E+01 0.  0.
     999903    2    3    3    0    0 -0.36895203861E-01  0.88633365845E-01  0.85444947579E-01  0.13046167880E+00  0.22411625549E-01 0.  0.
         14    1    1    2    0    0  0.20834125121E-01  0.10306820750E-01  0.27108733680E-02  0.23401712714E-01  0.00000000000E+00 0. -1.
     999901    1    3    3    0    0  0.16061078740E-01 -0.98940186596E-01 -0.88155820947E-01  0.89006660849E+00  0.88000000000E+00 0.  1.
        -11    1    4    4    0    0 -0.10278570954E-01  0.52244833486E-01  0.41611291783E-01  0.67579082353E-01  0.51100000000E-03 0. -1.
         11    1    4    4    0    0 -0.26616632907E-01  0.36388532359E-01  0.43833655796E-01  0.62882596447E-01  0.51100000000E-03 0.  1.
</event>
<event>
 8    1  0.1071333E+005  0.1043930E+01  0.7957747E-01            NaN
         13   -1    0    0    0    0  0.00000000000E+00  0.00000000000E+00  0.74505805969E-08  0.10566000000E+00  0.10566000000E+00 0. -1.
     999900   -1    0    0    0    0 -0.00000000000E+00 -0.00000000000E+00 -0.74505805969E-08  0.93827000000E+00  0.93827000000E+00 0.  1.
     999902    2    1    2    0    0 -0.19957741961E-01 -0.43539422915E-02 -0.13668128031E-01  0.10193518389E+01  0.10190554870E+01 0.  0.
     999903    2    3    3    0    0  0.12511024013E+00 -0.58715175204E-03 -0.13946121425E-01  0.12746676482E+00  0.20009120382E-01 0.  0.
         14    1    1    2    0    0  0.19957741961E-01  0.43539422915E-02  0.13668128031E-01  0.24578161069E-01  0.00000000000E+00 0. -1.
     999901    1    3    3    0    0 -0.14506798209E+00 -0.37667905395E-02  0.27799339412E-03  0.89188507411E+00  0.88000000000E+00 0. -1.
        -11    1    4    4    0    0  0.33511622312E-01 -0.24579510129E-02  0.48083921879E-02  0.33947785047E-01  0.51100000000E-03 0. -1.
         11    1    4    4    0    0  0.91598617819E-01  0.18707992609E-02 -0.18754513613E-01  0.93518979774E-01  0.51100000000E-03 0.  1.
</event>
<event>
 8    1  0.1071333E+005  0.1043930E+01  0.7957747E-01            NaN
         13   -1    0    0    0    0  0.00000000000E+00  0.00000000000E+00  0.74505805969E-08  0.10566000000E+00  0.10566000000E+00 0.  1.
     999900   -1    0    0    0    0 -0.00000000000E+00 -0.00000000000E+00 -0.74505805969E-08  0.93827000000E+00  0.93827000000E+00 0.  1.
     999902    2    1    2    0    0 -0.10001659268E-01 -0.20430759303E-01  0.81391443318E-02  0.10197702238E+01  0.10194839943E+01 0.  0.
     999903    2    3    3    0    0 -0.70123442656E-01  0.98386500140E-01 -0.39603347291E-01  0.12847256565E+00  0.18427544294E-01 0.  0.
         14    1    1    2    0    0  0.10001659268E-01  0.20430759303E-01 -0.81391443318E-02  0.24159776164E-01  0.00000000000E+00 0.  1.
     999901    1    3    3    0    0  0.60121783388E-01 -0.11881725944E+00  0.47742491622E-01  0.89129765818E+00  0.88000000000E+00 0. -1.
        -11    1    4    4    0    0 -0.60948371489E-01  0.93360790208E-01 -0.38433554792E-01  0.11793362706E+00  0.51100000000E-03 0. -1.
         11    1    4    4    0    0 -0.91750711677E-02  0.50257099318E-02 -0.11697924987E-02  0.10538938596E-01  0.51100000000E-03 0.  1.
</event>
<event>
 8    1  0.1071333E+005  0.1043930E+01  0.7957747E-01            NaN
         13   -1    0    0    0    0  0.00000000000E+00  0.00000000000E+00  0.74505805969E-08  0.10566000000E+00  0.10566000000E+00 0. -1.
     999900   -1    0    0    0    0 -0.00000000000E+00 -0.00000000000E+00 -0.74505805969E-08  0.93827000000E+00  0.93827000000E+00 0. -1.
     999902    2    1    2    0    0  0.16556500952E-01 -0.12373168112E-01 -0.18648845916E-01  0.10160913135E+01  0.10157098822E+01 0.  0.
     999903    2    3    3    0    0 -0.53373002033E-01  0.10845817229E+00 -0.24476103325E-01  0.12506701239E+00  0.20756335691E-01 0.  0.
         14    1    1    2    0    0 -0.16556500952E-01  0.12373168112E-01  0.18648845916E-01  0.27838686515E-01  0.00000000000E+00 0. -1.
     999901    1    3    3    0    0  0.69929502985E-01 -0.12083134040E+00  0.58272574089E-02  0.89102430109E+00  0.88000000000E+00 0. -1.
        -11    1    4    4    0    0 -0.30631298084E-02  0.19184156018E-01 -0.90475222789E-02  0.21436729851E-01  0.51100000000E-03 0. -1.
         11    1    4    4    0    0 -0.50309872225E-01  0.89274016275E-01 -0.15428581046E-01  0.10363028254E+00  0.51100000000E-03 0.  1.
</event>
<event>
 8    1  0.1071333E+005  0.1043930E+01  0.7957747E-01            NaN
         13   -1    0    0    0    0  0.00000000000E+00  0.00000000000E+00  0.74505805969E-08  0.10566000000E+00  0.10566000000E+00 0.  1.
     999900   -1    0    0    0    0 -0.00000000000E+00 -0.00000000000E+00 -0.74505805969E-08  0.93827000000E+00  0.93827000000E+00 0. -1.
     999902    2    1    2    0    0 -0.40933307892E-02  0.28258648240E-02 -0.23034998248E-01  0.10203640921E+01  0.10200919216E+01 0.  0.
     999903    2    3    3    0    0 -0.23444014836E-01  0.54613940467E-01  0.11197986380E+00  0.12835205930E+00  0.20061328591E-01 0.  0.
         14    1    1    2    0    0  0.40933307892E-02 -0.28258648240E-02  0.23034998248E-01  0.23565907859E-01  0.00000000000E+00 0.  1.
     999901    1    3    3    0    0  0.19350684047E-01 -0.51788075643E-01 -0.13501486205E+00  0.89201203284E+00  0.88000000000E+00 0. -1.
        -11    1    4    4    0    0 -0.14196550315E-01  0.16799027984E-01  0.26632466412E-01  0.34544156818E-01  0.51100000000E-03 0.  1.
         11    1    4    4    0    0 -0.92474645211E-02  0.37814912483E-01  0.85347397391E-01  0.93807902485E-01  0.51100000000E-03 0. -1.
</event>
<event>
 8    1  0.1071333E+005  0.1043930E+01  0.7957747E-01            NaN
         13   -1    0    0    0    0  0.00000000000E+00  0.00000000000E+00  0.74505805969E-08  0.10566000000E+00  0.10566000000E+00 0. -1.
     999900   -1    0    0    0    0 -0.00000000000E+00 -0.00000000000E+00 -0.74505805969E-08  0.93827000000E+00  0.93827000000E+00 0. -1.
     999902    2    1    2    0    0 -0.31743593517E-02 -0.23182431972E-01 -0.59472005116E-02  0.10197872805E+01  0.10195014598E+01 0.  0.
     999903    2    3    3    0    0 -0.84222654352E-01 -0.99006387552E-01 -0.18558292014E-01  0.13272632547E+00  0.19394509234E-01 0.  0.
         14    1    1    2    0    0  0.31743593517E-02  0.23182431972E-01  0.59472005116E-02  0.24142719469E-01  0.00000000000E+00 0. -1.
     999901    1    3    3    0    0  0.81048295000E-01  0.75823955580E-01  0.12611091502E-01  0.88706095506E+00  0.88000000000E+00 0.  1.
        -11    1    4    4    0    0 -0.40600525887E-01 -0.33275658232E-01 -0.89204688775E-02  0.53249488439E-01  0.51100000000E-03 0. -1.
         11    1    4    4    0    0 -0.43622128465E-01 -0.65730729321E-01 -0.96378231365E-02  0.79476837032E-01  0.51100000000E-03 0.  1.
</event>
<event>
 8    1  0.1071333E+005  0.1043930E+01  0.7957747E-01            NaN
         13   -1    0    0    0    0  0.00000000000E+00  0.00000000000E+00  0.74505805969E-08  0.10566000000E+00  0.10566000000E+00 0. -1.
     999900   -1    0    0    0    0 -0.00000000000E+00 -0.00000000000E+00 -0.74505805969E-08  0.93827000000E+00  0.93827000000E+00 0.  1.
     999902    2    1    2    0    0  0.58069944705E-02  0.16805902023E-01 -0.12780918705E-01  0.10220322510E+01  0.10217976369E+01 0.  0.
     999903    2    3    3    0    0 -0.10298823208E+00 -0.26347580736E-01  0.73037314598E-01  0.13014470566E+00  0.17390345894E-01 0.  0.
         14    1    1    2    0    0 -0.58069944705E-02 -0.16805902023E-01  0.12780918705E-01  0.21897748983E-01  0.00000000000E+00 0. -1.
     999901    1    3    3    0    0  0.10879522655E+00  0.43153482758E-01 -0.85818233303E-01  0.89188754536E+00  0.88000000000E+00 0.  1.
        -11    1    4    4    0    0 -0.22646851210E-02  0.15618416950E-02  0.31760250655E-03  0.28160505197E-02  0.51100000000E-03 0. -1.
         11    1    4    4    0    0 -0.10072354696E+00 -0.27909422431E-01  0.72719712092E-01  0.12732865514E+00  0.51100000000E-03 0.  1.
</event>
<event>
 8    1  0.1071333E+005  0.1043930E+01  0.7957747E-01            NaN
         13   -1    0    0    0    0  0.00000000000E+00  0.00000000000E+00  0.74505805969E-08  0.10566000000E+00  0.10566000000E+00 0. -1.
     999900   -1    0    0    0    0 -0.00000000000E+00 -0.00000000000E+00 -0.74505805969E-08  0.93827000000E+00  0.93827000000E+00 0. -1.
     999902    2    1    2    0    0  0.11700723480E-01 -0.15531285138E-01 -0.15516218378E-01  0.10190526854E+01  0.10187489852E+01 0.  0.
     999903    2    3    3    0    0  0.86825737789E-01  0.90256828660E-01  0.21867496678E-01  0.12875361491E+00  0.20354411790E-01 0.  0.
         14    1    1    2    0    0 -0.11700723480E-01  0.15531285138E-01  0.15516218378E-01  0.24877314581E-01  0.00000000000E+00 0. -1.
     999901    1    3    3    0    0 -0.75125014309E-01 -0.10578811380E+00 -0.37383715056E-01  0.89029907051E+00  0.88000000000E+00 0. -1.
        -11    1    4    4    0    0  0.20728155537E-01  0.11864388533E-01 -0.87929807694E-04  0.23889097929E-01  0.51100000000E-03 0. -1.
         11    1    4    4    0    0  0.66097582252E-01  0.78392440127E-01  0.21955426486E-01  0.10486451698E+00  0.51100000000E-03 0.  1.
</event>
<event>
 8    1  0.1071333E+005  0.1043930E+01  0.7957747E-01            NaN
         13   -1    0    0    0    0  0.00000000000E+00  0.00000000000E+00  0.74505805969E-08  0.10566000000E+00  0.10566000000E+00 0.  1.
     999900   -1    0    0    0    0 -0.00000000000E+00 -0.00000000000E+00 -0.74505805969E-08  0.93827000000E+00  0.93827000000E+00 0. -1.
     999902    2    1    2    0    0  0.17787601122E-01 -0.14768570438E-01 -0.50347442382E-02  0.10202686797E+01  0.10199942749E+01 0.  0.
     999903    2    3    3    0    0 -0.11756143789E+00 -0.28813280667E-01  0.38951467188E-01  0.12872428767E+00  0.20045663356E-01 0.  0.
         14    1    1    2    0    0 -0.17787601122E-01  0.14768570438E-01  0.50347442382E-02  0.23661320251E-01  0.00000000000E+00 0. -1.
     999901    1    3    3    0    0  0.13534903901E+00  0.14044710228E-01 -0.43986211426E-01  0.89154439208E+00  0.88000000000E+00 0. -1.
        -11    1    4    4    0    0 -0.90263082458E-01 -0.15973793132E-01  0.22621198253E-01  0.94416978628E-01  0.51100000000E-03 0. -1.
         11    1    4    4    0    0 -0.27298355432E-01 -0.12839487535E-01  0.16330268934E-01  0.34307309045E-01  0.51100000000E-03 0.  1.
</event>
<event>
 8    1  0.1071333E+005  0.1043930E+01  0.7957747E-01            NaN
         13   -1    0    0    0    0  0.00000000000E+00  0.00000000000E+00  0.74505805969E-08  0.10566000000E+00  0.10566000000E+00 0. -1.
     999900   -1    0    0    0    0 -0.00000000000E+00 -0.00000000000E+00 -0.74505805969E-08  0.93827000000E+00  0.93827000000E+00 0.  1.
     999902    2    1    2    0    0  0.23642712379E-01 -0.31539085985E-02 -0.16649474182E-02  0.10200198131E+01  0.10197395364E+01 0.  0.
     999903    2    3    3    0    0  0.43763922856E-01  0.10693834682E+00  0.58234551208E-01  0.13091176693E+00  0.19888107056E-01 0.  0.
         14    1    1    2    0    0 -0.23642712379E-01  0.31539085985E-02  0.16649474182E-02  0.23910186909E-01  0.00000000000E+00 0. -1.
     999901    1    3    3    0    0 -0.20121210476E-01 -0.11009225542E+00 -0.59899498626E-01  0.88910804616E+00  0.88000000000E+00 0.  1.
        -11    1    4    4    0    0  0.12289310596E-01  0.52552083370E-01  0.32536621308E-01  0.63020960550E-01  0.51100000000E-03 0.  1.
         11    1    4    4    0    0  0.31474612260E-01  0.54386263449E-01  0.25697929900E-01  0.67890806380E-01  0.51100000000E-03 0. -1.
</event>
<event>
 8    1  0.1071333E+005  0.1043930E+01  0.7957747E-01            NaN
         13   -1    0    0    0    0  0.00000000000E+00  0.00000000000E+00  0.74505805969E-08  0.10566000000E+00  0.10566000000E+00 0. -1.
     999900   -1    0    0    0    0 -0.00000000000E+00 -0.00000000000E+00 -0.74505805969E-08  0.93827000000E+00  0.93827000000E+00 0.  1.
     999902    2    1    2    0    0  0.16623800864E-01  0.68308840088E-02 -0.16087193658E-01  0.10198092718E+01  0.10195239778E+01 0.  0.
     999903    2    3    3    0    0 -0.10025543219E-01  0.84273520193E-02 -0.12984685471E+00  0.13208521737E+00  0.20365833857E-01 0.  0.
         14    1    1    2    0    0 -0.16623800864E-01 -0.68308840088E-02  0.16087193658E-01  0.24120728249E-01  0.00000000000E+00 0. -1.
     999901    1    3    3    0    0  0.26649344083E-01 -0.15964680105E-02  0.11375966106E+00  0.88772405438E+00  0.88000000000E+00 0. -1.
        -11    1    4    4    0    0 -0.36789797737E-03  0.12368106162E-01 -0.91784269335E-01  0.92615973878E-01  0.51100000000E-03 0.  1.
         11    1    4    4    0    0 -0.96576452418E-02 -0.39407541427E-02 -0.38062585378E-01  0.39469243488E-01  0.51100000000E-03 0. -1.
</event>
<event>
 8    1  0.1071333E+005  0.1043930E+01  0.7957747E-01            NaN
         13   -1    0    0    0    0  0.00000000000E+00  0.00000000000E+00  0.74505805969E-08  0.10566000000E+00  0.10566000000E+00 0.  1.
     999900   -1    0    0    0    0 -0.00000000000E+00 -0.00000000000E+00 -0.74505805969E-08  0.93827000000E+00  0.93827000000E+00 0. -1.
     999902    2    1    2    0    0  0.10004960650E-01  0.34175121549E-02 -0.21301164288E-01  0.10201493729E+01  0.10198721610E+01 0.  0.
     999903    2    3    3    0    0  0.53424933940E-01 -0.10615087333E+00 -0.52970154837E-01  0.13172748539E+00  0.20592756728E-01 0.  0.
         14    1    1    2    0    0 -0.10004960650E-01 -0.34175121549E-02  0.21301164288E-01  0.23780627136E-01  0.00000000000E+00 0.  1.
     999901    1    3    3    0    0 -0.43419973290E-01  0.10956838548E+00  0.31668990548E-01  0.88842188747E+00  0.88000000000E+00 0.  1.
        -11    1    4    4    0    0  0.36953604131E-01 -0.55166963704E-01 -0.35944595205E-01  0.75506541359E-01  0.51100000000E-03 0.  1.
         11    1    4    4    0    0  0.16471329809E-01 -0.50983909624E-01 -0.17025559631E-01  0.56220944033E-01  0.51100000000E-03 0. -1.
</event>
<event>
 8    1  0.1071333E+005  0.1043930E+01  0.7957747E-01            NaN
         13   -1    0    0    0    0  0.00000000000E+00  0.00000000000E+00  0.74505805969E-08  0.10566000000E+00  0.10566000000E+00 0.  1.
     999900   -1    0    0    0    0 -0.00000000000E+00 -0.00000000000E+00 -0.74505805969E-08  0.93827000000E+00  0.93827000000E+00 0. -1.
     999902    2    1    2    0    0 -0.11595301312E-01  0.14001276620E-01  0.14639085906E-01  0.10205892717E+01  0.10203223373E+01 0.  0.
     999903    2    3    3    0    0 -0.56457509663E-01 -0.93394804346E-01  0.70093290207E-01  0.13119526191E+00  0.19725302019E-01 0.  0.
         14    1    1    2    0    0  0.11595301312E-01 -0.14001276620E-01 -0.14639085906E-01  0.23340728259E-01  0.00000000000E+00 0. -1.
     999901    1    3    3    0    0  0.44862208351E-01  0.10739608097E+00 -0.55454204302E-01  0.88939400983E+00  0.88000000000E+00 0. -1.
        -11    1    4    4    0    0 -0.17081812860E-01 -0.43704264465E-01  0.23284503684E-01  0.52385878782E-01  0.51100000000E-03 0.  1.
         11    1    4    4    0    0 -0.39375696803E-01 -0.49690539882E-01  0.46808786523E-01  0.78809383129E-01  0.51100000000E-03 0. -1.
</event>
<event>
 8    1  0.1071333E+005  0.1043930E+01  0.7957747E-01            NaN
         13   -1    0    0    0    0  0.00000000000E+00  0.00000000000E+00  0.74505805969E-08  0.10566000000E+00  0.10566000000E+00 0. -1.
     999900   -1    0    0    0    0 -0.00000000000E+00 -0.00000000000E+00 -0.74505805969E-08  0.93827000000E+00  0.93827000000E+00 0. -1.
     999902    2    1    2    0    0 -0.20481205295E-01 -0.14597449956E-02 -0.45033960169E-02  0.10229087916E+01  0.10226927715E+01 0.  0.
     999903    2    3    3    0    0 -0.86889599863E-02 -0.11368121405E+00  0.65216842040E-01  0.13296855388E+00  0.20699840164E-01 0.  0.
         14    1    1    2    0    0  0.20481205295E-01  0.14597449956E-02  0.45033960169E-02  0.21021208374E-01  0.00000000000E+00 0.  1.
     999901    1    3    3    0    0 -0.11792245309E-01  0.11222146905E+00 -0.69720238057E-01  0.88994023775E+00  0.88000000000E+00 0. -1.
        -11    1    4    4    0    0  0.68518166898E-02 -0.37562780534E-01  0.21630985267E-01  0.43887019926E-01  0.51100000000E-03 0.  1.
         11    1    4    4    0    0 -0.15540776676E-01 -0.76118433511E-01  0.43585856773E-01  0.89081533954E-01  0.51100000000E-03 0. -1.
</event>
<event>
 8    1  0.1071333E+005  0.1043930E+01  0.7957747E-01            NaN
         13   -1    0    0    0    0  0.00000000000E+00  0.00000000000E+00  0.74505805969E-08  0.10566000000E+00  0.10566000000E+00 0.  1.
     999900   -1    0    0    0    0 -0.00000000000E+00 -0.00000000000E+00 -0.74505805969E-08  0.93827000000E+00  0.93827000000E+00 0. -1.
     999902    2    1    2    0    0  0.16164404693E-01  0.11047183276E-01  0.14668481810E-01  0.10194658917E+01  0.10191723170E+01 0.  0.
     999903    2    3    3    0    0  0.90706916030E-01 -0.46884457741E-01  0.81280219565E-01  0.13191319767E+00  0.19202099738E-01 0.  0.
         14    1    1    2    0    0 -0.16164404693E-01 -0.11047183276E-01 -0.14668481810E-01  0.24464108323E-01  0.00000000000E+00 0. -1.
     999901    1    3    3    0    0 -0.74542511337E-01  0.57931641017E-01 -0.66611737755E-01  0.88755269400E+00  0.88000000000E+00 0. -1.
        -11    1    4    4    0    0  0.45861698325E-01 -0.32944278434E-01  0.50530496689E-01  0.75777391558E-01  0.51100000000E-03 0.  1.
         11    1    4    4    0    0  0.44845217705E-01 -0.13940179307E-01  0.30749722876E-01  0.56135806114E-01  0.51100000000E-03 0. -1.
</event>
<event>
 8    1  0.1071333E+005  0.1043930E+01  0.7957747E-01            NaN
         13   -1    0    0    0    0  0.00000000000E+00  0.00000000000E+00  0.74505805969E-08  0.10566000000E+00  0.10566000000E+00 0. -1.
     999900   -1    0    0    0    0 -0.00000000000E+00 -0.00000000000E+00 -0.74505805969E-08  0.93827000000E+00  0.93827000000E+00 0.  1.
     999902    2    1    2    0    0  0.46042153985E-02 -0.23268636402E-01  0.16184898612E-02  0.10201550605E+01  0.10198779827E+01 0.  0.
     999903    2    3    3    0    0  0.11966884857E+00 -0.10749413287E-01  0.49267792540E-01  0.13129789716E+00  0.19381414128E-01 0.  0.
         14    1    1    2    0    0 -0.46042153985E-02  0.23268636402E-01 -0.16184898612E-02  0.23774939514E-01  0.00000000000E+00 0. -1.
     999901    1    3    3    0    0 -0.11506463317E+00 -0.12519223115E-01 -0.47649302679E-01  0.88885716333E+00  0.88000000000E+00 0.  1.
        -11    1    4    4    0    0  0.80308232044E-01 -0.86828725452E-02  0.42590457375E-01  0.91318194190E-01  0.51100000000E-03 0. -1.
         11    1    4    4    0    0  0.39360616521E-01 -0.20665407418E-02  0.66773351645E-02  0.39979702968E-01  0.51100000000E-03 0.  1.
</event>
<event>
 8    1  0.1071333E+005  0.1043930E+01  0.7957747E-01            NaN
         13   -1    0    0    0    0  0.00000000000E+00  0.00000000000E+00  0.74505805969E-08  0.10566000000E+00  0.10566000000E+00 0.  1.
     999900   -1    0    0    0    0 -0.00000000000E+00 -0.00000000000E+00 -0.74505805969E-08  0.93827000000E+00  0.93827000000E+00 0. -1.
     999902    2    1    2    0    0 -0.11875097097E-02 -0.24735709150E-01  0.24703346577E-02  0.10190428941E+01  0.10187389518E+01 0.  0.
     999903    2    3    3    0    0  0.99128672668E-01  0.48052765951E-01 -0.61978920516E-01  0.12802369956E+00  0.20325329038E-01 0.  0.
         14    1    1    2    0    0  0.11875097097E-02  0.24735709150E-01 -0.24703346577E-02  0.24887105894E-01  0.00000000000E+00 0. -1.
     999901    1    3    3    0    0 -0.10031618238E+00 -0.72788475102E-01  0.64449255174E-01  0.89101919454E+00  0.88000000000E+00 0.  1.
        -11    1    4    4    0    0  0.96339981664E-01  0.42872499447E-01 -0.55168427966E-01  0.11900949475E+00  0.51100000000E-03 0. -1.
         11    1    4    4    0    0  0.27886910042E-02  0.51802665047E-02 -0.68104925496E-02  0.90142048093E-02  0.51100000000E-03 0.  1.
</event>
<event>
 8    1  0.1071333E+005  0.1043930E+01  0.7957747E-01            NaN
         13   -1    0    0    0    0  0.00000000000E+00  0.00000000000E+00  0.74505805969E-08  0.10566000000E+00  0.10566000000E+00 0. -1.
     999900   -1    0    0    0    0 -0.00000000000E+00 -0.00000000000E+00 -0.74505805969E-08  0.93827000000E+00  0.93827000000E+00 0.  1.
     999902    2    1    2    0    0  0.11315297386E-01  0.22932832767E-01 -0.18566472648E-02  0.10182902279E+01  0.10179673818E+01 0.  0.
     999903    2    3    3    0    0 -0.11315366796E+00 -0.14350366269E-01  0.52900364658E-01  0.12706585065E+00  0.18373792139E-01 0.  0.
         14    1    1    2    0    0 -0.11315297386E-01 -0.22932832767E-01  0.18566472648E-02  0.25639772088E-01  0.00000000000E+00 0. -1.
     999901    1    3    3    0    0  0.12446896534E+00  0.37283199036E-01 -0.54757011923E-01  0.89122437726E+00  0.88000000000E+00 0.  1.
        -11    1    4    4    0    0 -0.58278274221E-01 -0.10715417578E-01  0.18008105289E-01  0.61933273748E-01  0.51100000000E-03 0. -1.
         11    1    4    4    0    0 -0.54875393735E-01 -0.36349486910E-02  0.34892259370E-01  0.65132576907E-01  0.51100000000E-03 0.  1.
</event>
<event>
 8    1  0.1071333E+005  0.1043930E+01  0.7957747E-01            NaN
         13   -1    0    0    0    0  0.00000000000E+00  0.00000000000E+00  0.74505805969E-08  0.10566000000E+00  0.10566000000E+00 0. -1.
     999900   -1    0    0    0    0 -0.00000000000E+00 -0.00000000000E+00 -0.74505805969E-08  0.93827000000E+00  0.93827000000E+00 0.  1.
     999902    2    1    2    0    0 -0.14484973313E-01  0.21306939202E-01  0.67195284476E-02  0.10173038442E+01  0.10169553379E+01 0.  0.
     999903    2    3    3    0    0 -0.60600804348E-01 -0.72154902576E-01 -0.83263229072E-01  0.12659699995E+00  0.14671319925E-01 0.  0.
         14    1    1    2    0    0  0.14484973313E-01 -0.21306939202E-01 -0.67195284476E-02  0.26626155798E-01  0.00000000000E+00 0.  1.
     999901    1    3    3    0    0  0.46115831036E-01  0.93461841778E-01  0.89982757519E-01  0.89070684425E+00  0.88000000000E+00 0.  1.
        -11    1    4    4    0    0 -0.52176250320E-01 -0.54126956524E-01 -0.69606053091E-01  0.10245658724E+00  0.51100000000E-03 0. -1.
         11    1    4    4    0    0 -0.84245540288E-02 -0.18027946052E-01 -0.13657175980E-01  0.24140412718E-01  0.51100000000E-03 0.  1.
</event>
<event>
 8    1  0.1071333E+005  0.1043930E+01  0.7957747E-01            NaN
         13   -1    0    0    0    0  0.00000000000E+00  0.00000000000E+00  0.74505805969E-08  0.10566000000E+00  0.10566000000E+00 0.  1.
     999900   -1    0    0    0    0 -0.00000000000E+00 -0.00000000000E+00 -0.74505805969E-08  0.93827000000E+00  0.93827000000E+00 0. -1.
     999902    2    1    2    0    0 -0.15704013162E-01  0.10246491074E-01  0.13498255031E-01  0.10208256823E+01  0.10205641891E+01 0.  0.
     999903    2    3    3    0    0 -0.48064263002E-01  0.11269267196E+00  0.50387246199E-01  0.13352460405E+00  0.16737192599E-01 0.  0.
         14    1    1    2    0    0  0.15704013162E-01 -0.10246491074E-01 -0.13498255031E-01  0.23104317726E-01  0.00000000000E+00 0.  1.
     999901    1    3    3    0    0  0.32360249840E-01 -0.10244618088E+00 -0.36888991168E-01  0.88730107822E+00  0.88000000000E+00 0.  1.
        -11    1    4    4    0    0 -0.87095333404E-02  0.30607440056E-01  0.65817067583E-02  0.32500020656E-01  0.51100000000E-03 0.  1.
         11    1    4    4    0    0 -0.39354729662E-01  0.82085231903E-01  0.43805539440E-01  0.10102458339E+00  0.51100000000E-03 0. -1.
</event>
<event>
 8    1  0.1071333E+005  0.1043930E+01  0.7957747E-01            NaN
         13   -1    0    0    0    0  0.00000000000E+00  0.00000000000E+00  0.74505805969E-08  0.10566000000E+00  0.10566000000E+00 0. -1.
     999900   -1    0    0    0    0 -0.00000000000E+00 -0.00000000000E+00 -0.74505805969E-08  0.93827000000E+00  0.93827000000E+00 0.  1.
     999902    2    1    2    0    0  0.65489630417E-02 -0.20548389882E-01 -0.11492659140E-01  0.10194921920E+01  0.10191992559E+01 0.  0.
     999903    2    3    3    0    0  0.68421264506E-01  0.23820896962E-01 -0.10727080151E+00  0.13102707294E+00  0.20301832902E-01 0.  0.
         14    1    1    2    0    0 -0.65489630417E-02  0.20548389882E-01  0.11492659140E-01  0.24437807957E-01  0.00000000000E+00 0.  1.
     999901    1    3    3    0    0 -0.61872301464E-01 -0.44369286844E-01  0.95778142367E-01  0.88846511910E+00  0.88000000000E+00 0. -1.
        -11    1    4    4    0    0  0.13840308665E-01 -0.88498059108E-03 -0.31566194311E-01  0.34482213950E-01  0.51100000000E-03 0.  1.
         11    1    4    4    0    0  0.54580955841E-01  0.24705877553E-01 -0.75704607196E-01  0.96544858992E-01  0.51100000000E-03 0. -1.
</event>
<event>
 8    1  0.1071333E+005  0.1043930E+01  0.7957747E-01            NaN
         13   -1    0    0    0    0  0.00000000000E+00  0.00000000000E+00  0.74505805969E-08  0.10566000000E+00  0.10566000000E+00 0.  1.
     999900   -1    0    0    0    0 -0.00000000000E+00 -0.00000000000E+00 -0.74505805969E-08  0.93827000000E+00  0.93827000000E+00 0.  1.
     999902    2    1    2    0    0  0.61820964894E-03  0.60863120154E-04  0.25744869928E-01  0.10181776367E+01  0.10178519124E+01 0.  0.
     999903    2    3    3    0    0 -0.72978898378E-02  0.11952396893E+00 -0.40300851746E-01  0.12761818578E+00  0.17972321672E-01 0.  0.
         14    1    1    2    0    0 -0.61820964894E-03 -0.60863120154E-04 -0.25744869928E-01  0.25752363292E-01  0.00000000000E+00 0. -1.
     999901    1    3    3    0    0  0.79160994867E-02 -0.11946310581E+00  0.66045721674E-01  0.89055945093E+00  0.88000000000E+00 0.  1.
        -11    1    4    4    0    0 -0.75068685778E-02  0.58773066365E-01 -0.28411844399E-01  0.65712406964E-01  0.51100000000E-03 0. -1.
         11    1    4    4    0    0  0.20897873999E-03  0.60750902564E-01 -0.11889007346E-01  0.61905778819E-01  0.51100000000E-03 0.  1.
</event>
<event>
 7    1  0.1071333E+005  0.1043930E+01  0.7957747E-01            NaN
         13   -1    0    0    0    0  0.00000000000E+00  0.00000000000E+00  0.74505805969E-08  0.10566000000E+00  0.10566000000E+00 0.  1.
     999900   -1    0    0    0    0 -0.00000000000E+00 -0.00000000000E+00 -0.74505805969E-08  0.93827000000E+00  0.93827000000E+00 0.  1.
     999902    2    1    2    0    0 -0.72955028654E-02 -0.21745901035E-01  0.37539324180E-03  0.10209898715E+01  0.10207321237E+01 0.  0.
         14    1    1    2    0    0  0.72955028654E-02  0.21745901035E-01 -0.37539324180E-03  0.22940128464E-01  0.00000000000E+00 0. -1.
     999901    1    3    3    0    0  0.11784099871E-01 -0.18912105218E-01  0.13008465404E+00  0.88984186795E+00  0.88000000000E+00 0. -1.
        -11    1    3    3    0    0 -0.57747493962E-02 -0.46594544970E-03 -0.35572995512E-01  0.36045304360E-01  0.51100000000E-03 0. -1.
         11    1    3    3    0    0 -0.13304853340E-01 -0.23678503673E-02 -0.94136265285E-01  0.95102699229E-01  0.51100000000E-03 0.  1.
</event>
<event>
 8    1  0.1071333E+005  0.1043930E+01  0.7957747E-01            NaN
         13   -1    0    0    0    0  0.00000000000E+00  0.00000000000E+00  0.74505805969E-08  0.10566000000E+00  0.10566000000E+00 0.  1.
     999900   -1    0    0    0    0 -0.00000000000E+00 -0.00000000000E+00 -0.74505805969E-08  0.93827000000E+00  0.93827000000E+00 0. -1.
     999902    2    1    2    0    0  0.24355430066E-02 -0.20983636187E-01 -0.11863816643E-01  0.10197020203E+01  0.10194141529E+01 0.  0.
     999903    2    3    3    0    0 -0.18318684309E-01  0.12165424625E+00 -0.27934000739E-01  0.12783064260E+00  0.20616376137E-01 0.  0.
         14    1    1    2    0    0 -0.24355430066E-02  0.20983636187E-01  0.11863816643E-01  0.24227979749E-01  0.00000000000E+00 0.  1.
     999901    1    3    3    0    0  0.20754227315E-01 -0.14263788244E+00  0.16070184097E-01  0.89187137765E+00  0.88000000000E+00 0. -1.
        -11    1    4    4    0    0 -0.43764198817E-02  0.20765578040E-01 -0.13001545051E-01  0.24893042744E-01  0.51100000000E-03 0.  1.
         11    1    4    4    0    0 -0.13942264427E-01  0.10088866821E+00 -0.14932455688E-01  0.10293759986E+00  0.51100000000E-03 0. -1.
</event>
<event>
 7    1  0.1071333E+005  0.1043930E+01  0.7957747E-01            NaN
         13   -1    0    0    0    0  0.00000000000E+00  0.00000000000E+00  0.74505805969E-08  0.10566000000E+00  0.10566000000E+00 0. -1.
     999900   -1    0    0    0    0 -0.00000000000E+00 -0.00000000000E+00 -0.74505805969E-08  0.93827000000E+00  0.93827000000E+00 0. -1.
     999902    2    1    2    0    0 -0.23255549899E-01 -0.34365444418E-02  0.21429553603E-02  0.10203244351E+01  0.10200513370E+01 0.  0.
         14    1    1    2    0    0  0.23255549899E-01  0.34365444418E-02 -0.21429553603E-02  0.23605564947E-01  0.00000000000E+00 0.  1.
     999901    1    3    3    0    0 -0.11715563959E+00  0.26049104070E-01 -0.61210251922E-01  0.89025316323E+00  0.88000000000E+00 0.  1.
        -11    1    3    3    0    0 -0.58073477872E-03 -0.18320537163E-01  0.80519181171E-02  0.20026828036E-01  0.51100000000E-03 0. -1.
         11    1    3    3    0    0  0.94480824465E-01 -0.11165111350E-01  0.55301289165E-01  0.11004444378E+00  0.51100000000E-03 0.  1.
</event>
<event>
 8    1  0.1071333E+005  0.1043930E+01  0.7957747E-01            NaN
         13   -1    0    0    0    0  0.00000000000E+00  0.00000000000E+00  0.74505805969E-08  0.10566000000E+00  0.10566000000E+00 0. -1.
     999900   -1    0    0    0    0 -0.00000000000E+00 -0.00000000000E+00 -0.74505805969E-08  0.93827000000E+00  0.93827000000E+00 0.  1.
     999902    2    1    2    0    0 -0.13226461553E-01 -0.19203667335E-01  0.13863579659E-02  0.10205710164E+01  0.10203036595E+01 0.  0.
     999903    2    3    3    0    0  0.10753656349E+00 -0.17229148059E-01  0.67432499191E-01  0.12986921465E+00  0.21398947102E-01 0.  0.
         14    1    1    2    0    0  0.13226461553E-01  0.19203667335E-01 -0.13863579659E-02  0.23358983556E-01  0.00000000000E+00 0. -1.
     999901    1    3    3    0    0 -0.12076302504E+00 -0.19745192759E-02 -0.66046141225E-01  0.89070180179E+00  0.88000000000E+00 0.  1.
        -11    1    4    4    0    0  0.64799437060E-01 -0.18634549170E-02  0.32183659295E-01  0.72377403615E-01  0.51100000000E-03 0. -1.
         11    1    4    4    0    0  0.42737126431E-01 -0.15365693142E-01  0.35248839896E-01  0.57491811037E-01  0.51100000000E-03 0.  1.
</event>
<event>
 8    1  0.1071333E+005  0.1043930E+01  0.7957747E-01            NaN
         13   -1    0    0    0    0  0.00000000000E+00  0.00000000000E+00  0.74505805969E-08  0.10566000000E+00  0.10566000000E+00 0.  1.
     999900   -1    0    0    0    0 -0.00000000000E+00 -0.00000000000E+00 -0.74505805969E-08  0.93827000000E+00  0.93827000000E+00 0. -1.
     999902    2    1    2    0    0 -0.67843818906E-02  0.22340709400E-01  0.51380904544E-02  0.10200231996E+01  0.10197430032E+01 0.  0.
     999903    2    3    3    0    0  0.36326411206E-01  0.12132724361E+00  0.35170847230E-01  0.13291619309E+00  0.19743801513E-01 0.  0.
         14    1    1    2    0    0  0.67843818906E-02 -0.22340709400E-01 -0.51380904544E-02  0.23906800448E-01  0.00000000000E+00 0. -1.
     999901    1    3    3    0    0 -0.43110793096E-01 -0.98986534206E-01 -0.30032756776E-01  0.88710700646E+00  0.88000000000E+00 0.  1.
        -11    1    4    4    0    0  0.25263609151E-01  0.50584077944E-01  0.14105987789E-01  0.58277258869E-01  0.51100000000E-03 0. -1.
         11    1    4    4    0    0  0.11062802055E-01  0.70743165663E-01  0.21064859441E-01  0.74638934221E-01  0.51100000000E-03 0.  1.
</event>
<event>
 8    1  0.1071333E+005  0.1043930E+01  0.7957747E-01            NaN
         13   -1    0    0    0    0  0.00000000000E+00  0.00000000000E+00  0.74505805969E-08  0.10566000000E+00  0.10566000000E+00 0.  1.
     999900   -1    0    0    0    0 -0.00000000000E+00 -0.00000000000E+00 -0.74505805969E-08  0.93827000000E+00  0.93827000000E+00 0.  1.
     999902    2    1    2    0    0 -0.22441164660E-01  0.38980161572E-02  0.36999582091E-02  0.10208542532E+01  0.10205934137E+01 0.  0.
     999903    2    3    3    0    0  0.30045127071E-01  0.11949969826E+00 -0.39028042701E-01  0.13071704925E+00  0.19515924368E-01 0.  0.
         14    1    1    2    0    0  0.22441164660E-01 -0.38980161572E-02 -0.36999582091E-02  0.23075746835E-01  0.00000000000E+00 0. -1.
     999901    1    3    3    0    0 -0.52486291730E-01 -0.11560168210E+00  0.42728000910E-01  0.89013720391E+00  0.88000000000E+00 0.  1.
        -11    1    4    4    0    0  0.16324454810E-01  0.31080663201E-01 -0.14049491890E-01  0.37817255231E-01  0.51100000000E-03 0. -1.
         11    1    4    4    0    0  0.13720672261E-01  0.88419035058E-01 -0.24978550810E-01  0.92899794023E-01  0.51100000000E-03 0.  1.
</event>
<event>
 8    1  0.1071333E+005  0.1043930E+01  0.7957747E-01            NaN
         13   -1    0    0    0    0  0.00000000000E+00  0.00000000000E+00  0.74505805969E-08  0.10566000000E+00  0.10566000000E+00 0. -1.
     999900   -1    0    0    0    0 -0.00000000000E+00 -0.00000000000E+00 -0.74505805969E-08  0.93827000000E+00  0.93827000000E+00 0.  1.
     999902    2    1    2    0    0  0.10450373123E-01 -0.24411749513E-01 -0.66665955868E-02  0.10165514078E+01  0.10161826496E+01 0.  0.
     999903    2    3    3    0    0  0.32079274703E-01  0.70820302464E-01  0.96145239245E-01  0.12520005932E+00  0.19660943953E-01 0.  0.
         14    1    1    2    0    0 -0.10450373123E-01  0.24411749513E-01  0.66665955868E-02  0.27378592174E-01  0.00000000000E+00 0. -1.
     999901    1    3    3    0    0 -0.21628901580E-01 -0.95232051977E-01 -0.10281183483E+00  0.89135134851E+00  0.88000000000E+00 0.  1.
        -11    1    4    4    0    0  0.12398473042E-01  0.46606446969E-01  0.66565218187E-01  0.82201413772E-01  0.51100000000E-03 0.  1.
         11    1    4    4    0    0  0.19680801662E-01  0.24213855495E-01  0.29580021057E-01  0.42998645545E-01  0.51100000000E-03 0. -1.
</event>
<event>
 8    1  0.1071333E+005  0.1043930E+01  0.7957747E-01            NaN
         13   -1    0    0    0    0  0.00000000000E+00  0.00000000000E+00  0.74505805969E-08  0.10566000000E+00  0.10566000000E+00 0. -1.
     999900   -1    0    0    0    0 -0.00000000000E+00 -0.00000000000E+00 -0.74505805969E-08  0.93827000000E+00  0.93827000000E+00 0. -1.
     999902    2    1    2    0    0 -0.15756882217E-01  0.65103929327E-02 -0.16700804502E-01  0.10200640949E+01  0.10197848677E+01 0.  0.
     999903    2    3    3    0    0  0.85738383510E-01 -0.22351460791E-01 -0.93624104645E-01  0.13042850119E+00  0.19886245126E-01 0.  0.
         14    1    1    2    0    0  0.15756882217E-01 -0.65103929327E-02  0.16700804502E-01  0.23865905060E-01  0.00000000000E+00 0. -1.
     999901    1    3    3    0    0 -0.10149526573E+00  0.28861853724E-01  0.76923300143E-01  0.88963559375E+00  0.88000000000E+00 0.  1.
        -11    1    4    4    0    0  0.17627886965E-01 -0.57135570219E-02 -0.32479520321E-01  0.37397426301E-01  0.51100000000E-03 0. -1.
         11    1    4    4    0    0  0.68110496545E-01 -0.16637903769E-01 -0.61144584324E-01  0.93031074887E-01  0.51100000000E-03 0.  1.
</event>
<event>
 8    1  0.1071333E+005  0.1043930E+01  0.7957747E-01            NaN
         13   -1    0    0    0    0  0.00000000000E+00  0.00000000000E+00  0.74505805969E-08  0.10566000000E+00  0.10566000000E+00 0.  1.
     999900   -1    0    0    0    0 -0.00000000000E+00 -0.00000000000E+00 -0.74505805969E-08  0.93827000000E+00  0.93827000000E+00 0.  1.
     999902    2    1    2    0    0  0.98781035474E-02 -0.21021277811E-01  0.38187026831E-02  0.10203916581E+01  0.10201201313E+01 0.  0.
     999903    2    3    3    0    0 -0.66034091389E-01  0.65716204135E-01  0.85195444672E-01  0.12915194495E+00  0.27255098228E-01 0.  0.
         14    1    1    2    0    0 -0.98781035474E-02  0.21021277811E-01 -0.38187026831E-02  0.23538341927E-01  0.00000000000E+00 0. -1.
     999901    1    3    3    0    0  0.75912194937E-01 -0.86737481946E-01 -0.81376741989E-01  0.89123971313E+00  0.88000000000E+00 0.  1.
        -11    1    4    4    0    0 -0.61636860664E-01  0.53884717876E-01  0.61849726667E-01  0.10260757878E+00  0.51100000000E-03 0. -1.
         11    1    4    4    0    0 -0.43972307254E-02  0.11831486259E-01  0.23345718004E-01  0.26544366168E-01  0.51100000000E-03 0.  1.
</event>
<event>
 8    1  0.1071333E+005  0.1043930E+01  0.7957747E-01            NaN
         13   -1    0    0    0    0  0.00000000000E+00  0.00000000000E+00  0.74505805969E-08  0.10566000000E+00  0.10566000000E+00 0. -1.
     999900   -1    0    0    0    0 -0.00000000000E+00 -0.00000000000E+00 -0.74505805969E-08  0.93827000000E+00  0.93827000000E+00 0. -1.
     999902    2    1    2    0    0  0.12533071481E-01 -0.30828523044E-02  0.19583252160E-01  0.10204760958E+01  0.10202065361E+01 0.  0.
     999903    2    3    3    0    0 -0.45891403168E-01 -0.11265256928E+00 -0.40047151011E-01  0.12976024483E+00  0.20912306989E-01 0.  0.
         14    1    1    2    0    0 -0.12533071481E-01  0.30828523044E-02 -0.19583252160E-01  0.23453904243E-01  0.00000000000E+00 0.  1.
     999901    1    3    3    0    0  0.58424474649E-01  0.10956971697E+00  0.59630403171E-01  0.89071585093E+00  0.88000000000E+00 0. -1.
        -11    1    4    4    0    0 -0.29947782636E-01 -0.47636206887E-01 -0.14517067341E-01  0.58112685849E-01  0.51100000000E-03 0.  1.
         11    1    4    4    0    0 -0.15943620533E-01 -0.65016362392E-01 -0.25530083669E-01  0.71647558978E-01  0.51100000000E-03 0. -1.
</event>
<event>
 8    1  0.1071333E+005  0.1043930E+01  0.7957747E-01            NaN
         13   -1    0    0    0    0  0.00000000000E+00  0.00000000000E+00  0.74505805969E-08  0.10566000000E+00  0.10566000000E+00 0.  1.
     999900   -1    0    0    0    0 -0.00000000000E+00 -0.00000000000E+00 -0.74505805969E-08  0.93827000000E+00  0.93827000000E+00 0.  1.
     999902    2    1    2    0    0 -0.85027822825E-02 -0.10833699731E-01 -0.19079902963E-01  0.10203989768E+01  0.10201276208E+01 0.  0.
     999903    2    3    3    0    0  0.10384380929E+00 -0.21904476549E-01 -0.74853250573E-01  0.13143610634E+00  0.20226173804E-01 0.  0.
         14    1    1    2    0    0  0.85027822825E-02  0.10833699731E-01  0.19079902963E-01  0.23531023213E-01  0.00000000000E+00 0.  1.
     999901    1    3    3    0    0 -0.11234659157E+00  0.11070776818E-01  0.55773347610E-01  0.88896287045E+00  0.88000000000E+00 0. -1.
        -11    1    4    4    0    0  0.41186991884E-01 -0.11335425651E-03 -0.22559985865E-01  0.46963765105E-01  0.51100000000E-03 0. -1.
         11    1    4    4    0    0  0.62656817406E-01 -0.21791122292E-01 -0.52293264707E-01  0.84472341230E-01  0.51100000000E-03 0.  1.
</event>
<event>
 8    1  0.1071333E+005  0.1043930E+01  0.7957747E-01            NaN
         13   -1    0    0    0    0  0.00000000000E+00  0.00000000000E+00  0.74505805969E-08  0.10566000000E+00  0.10566000000E+00 0.  1.
     999900   -1    0    0    0    0 -0.00000000000E+00 -0.00000000000E+00 -0.74505805969E-08  0.93827000000E+00  0.93827000000E+00 0. -1.
     999902    2    1    2    0    0  0.16198684123E-01  0.17250901094E-01 -0.17085381481E-01  0.10147426531E+01  0.10143228041E+01 0.  0.
     999903    2    3    3    0    0  0.12442824698E+00 -0.56486141157E-02 -0.16492718217E-01  0.12781628793E+00  0.23466960109E-01 0.  0.
         14    1    1    2    0    0 -0.16198684123E-01 -0.17250901094E-01  0.17085381481E-01  0.29187346852E-01  0.00000000000E+00 0.  1.
     999901    1    3    3    0    0 -0.10822956286E+00  0.22899515210E-01 -0.59266326404E-03  0.88692636522E+00  0.88000000000E+00 0. -1.
        -11    1    4    4    0    0  0.29924620648E-01 -0.10743315625E-01 -0.80263958111E-02  0.32796126330E-01  0.51100000000E-03 0. -1.
         11    1    4    4    0    0  0.94503626335E-01  0.50947015097E-02 -0.84663224059E-02  0.95020161598E-01  0.51100000000E-03 0.  1.
</event>
<event>
 8    1  0.1071333E+005  0.1043930E+01  0.7957747E-01            NaN
         13   -1    0    0    0    0  0.00000000000E+00  0.00000000000E+00  0.74505805969E-08  0.10566000000E+00  0.10566000000E+00 0.  1.
     999900   -1    0    0    0    0 -0.00000000000E+00 -0.00000000000E+00 -0.74505805969E-08  0.93827000000E+00  0.93827000000E+00 0.  1.
     999902    2    1    2    0    0  0.19202642979E-02  0.22153240079E-01  0.73521908947E-02  0.10205097487E+01  0.10202409710E+01 0.  0.
     999903    2    3    3    0    0  0.78258330980E-01 -0.78243281288E-01  0.64570544932E-01  0.12967816978E+00  0.20017367703E-01 0.  0.
         14    1    1    2    0    0 -0.19202642979E-02 -0.22153240079E-01 -0.73521908947E-02  0.23420251321E-01  0.00000000000E+00 0.  1.
     999901    1    3    3    0    0 -0.76338066682E-01  0.10039652137E+00 -0.57218354038E-01  0.89083157890E+00  0.88000000000E+00 0.  1.
        -11    1    4    4    0    0  0.35586006763E-01 -0.27796840153E-01  0.16968933972E-01  0.48241414168E-01  0.51100000000E-03 0.  1.
         11    1    4    4    0    0  0.42672324217E-01 -0.50446441136E-01  0.47601610960E-01  0.81436755610E-01  0.51100000000E-03 0. -1.
</event>
<event>
 8    1  0.1071333E+005  0.1043930E+01  0.7957747E-01            NaN
         13   -1    0    0    0    0  0.00000000000E+00  0.00000000000E+00  0.74505805969E-08  0.10566000000E+00  0.10566000000E+00 0. -1.
     999900   -1    0    0    0    0 -0.00000000000E+00 -0.00000000000E+00 -0.74505805969E-08  0.93827000000E+00  0.93827000000E+00 0. -1.
     999902    2    1    2    0    0 -0.16183781316E-01  0.54779897616E-02  0.16787261727E-01  0.10199772276E+01  0.10196959397E+01 0.  0.
     999903    2    3    3    0    0  0.59402818158E-01  0.11262375380E+00 -0.15331516490E-01  0.12968224014E+00  0.19225589370E-01 0.  0.
         14    1    1    2    0    0  0.16183781316E-01 -0.54779897616E-02 -0.16787261727E-01  0.23952772403E-01  0.00000000000E+00 0.  1.
     999901    1    3    3    0    0 -0.75586599474E-01 -0.10714576403E+00  0.32118778217E-01  0.89029498745E+00  0.88000000000E+00 0. -1.
        -11    1    4    4    0    0  0.11329008703E-01  0.26984834125E-01  0.41323753946E-02  0.29561213749E-01  0.51100000000E-03 0. -1.
         11    1    4    4    0    0  0.48073809455E-01  0.85638919671E-01 -0.19463891885E-01  0.10012102639E+00  0.51100000000E-03 0.  1.
</event>
<event>
 8    1  0.1071333E+005  0.1043930E+01  0.7957747E-01            NaN
         13   -1    0    0    0    0  0.00000000000E+00  0.00000000000E+00  0.74505805969E-08  0.10566000000E+00  0.10566000000E+00 0. -1.
     999900   -1    0    0    0    0 -0.00000000000E+00 -0.00000000000E+00 -0.74505805969E-08  0.93827000000E+00  0.93827000000E+00 0. -1.
     999902    2    1    2    0    0 -0.16243855641E-01 -0.18898236245E-02  0.17367743074E-01  0.10200747536E+01  0.10197957787E+01 0.  0.
     999903    2    3    3    0    0 -0.12419641009E+00  0.27644805174E-01  0.32275491554E-01  0.13286097485E+00  0.20526756928E-01 0.  0.
         14    1    1    2    0    0  0.16243855641E-01  0.18898236245E-02 -0.17367743074E-01  0.23855246360E-01  0.00000000000E+00 0.  1.
     999901    1    3    3    0    0  0.10795255445E+00 -0.29534628799E-01 -0.14907748480E-01  0.88721377879E+00  0.88000000000E+00 0.  1.
        -11    1    4    4    0    0 -0.36580021697E-01  0.16240501221E-01  0.47025022109E-02  0.40301693703E-01  0.51100000000E-03 0. -1.
         11    1    4    4    0    0 -0.87616388395E-01  0.11404303953E-01  0.27572989343E-01  0.92559281147E-01  0.51100000000E-03 0.  1.
</event>
<event>
 8    1  0.1071333E+005  0.1043930E+01  0.7957747E-01            NaN
         13   -1    0    0    0    0  0.00000000000E+00  0.00000000000E+00  0.74505805969E-08  0.10566000000E+00  0.10566000000E+00 0. -1.
     999900   -1    0    0    0    0 -0.00000000000E+00 -0.00000000000E+00 -0.74505805969E-08  0.93827000000E+00  0.93827000000E+00 0.  1.
     999902    2    1    2    0    0 -0.10862765462E-01 -0.11310460981E-01  0.17842772203E-01  0.10201751958E+01  0.10198985927E+01 0.  0.
     999903    2    3    3    0    0 -0.30169226453E-01  0.15244452489E-01  0.12692296027E+00  0.13283287728E+00  0.19813124097E-01 0.  0.
         14    1    1    2    0    0  0.10862765462E-01  0.11310460981E-01 -0.17842772203E-01  0.23754804167E-01  0.00000000000E+00 0. -1.
     999901    1    3    3    0    0  0.19306460991E-01 -0.26554913470E-01 -0.10908018807E+00  0.88734231855E+00  0.88000000000E+00 0.  1.
        -11    1    4    4    0    0 -0.20652717269E-01  0.13133263958E-01  0.54379410422E-01  0.59635549394E-01  0.51100000000E-03 0.  1.
         11    1    4    4    0    0 -0.95165091844E-02  0.21111885307E-02  0.72543549848E-01  0.73197327886E-01  0.51100000000E-03 0. -1.
</event>
<event>
 8    1  0.1071333E+005  0.1043930E+01  0.7957747E-01            NaN
         13   -1    0    0    0    0  0.00000000000E+00  0.00000000000E+00  0.74505805969E-08  0.10566000000E+00  0.10566000000E+00 0. -1.
     999900   -1    0    0    0    0 -0.00000000000E+00 -0.00000000000E+00 -0.74505805969E-08  0.93827000000E+00  0.93827000000E+00 0.  1.
     999902    2    1    2    0    0 -0.17738673067E-01  0.65155354822E-02  0.65960752920E-02  0.10239144827E+01  0.10237188319E+01 0.  0.
     999903    2    3    3    0    0  0.86097954763E-01 -0.51809375621E-01  0.84063082164E-01  0.13251952100E+00  0.19943732007E-01 0.  0.
         14    1    1    2    0    0  0.17738673067E-01 -0.65155354822E-02 -0.65960752920E-02  0.20015517332E-01  0.00000000000E+00 0. -1.
     999901    1    3    3    0    0 -0.10383662783E+00  0.58324911103E-01 -0.77467006872E-01  0.89139496167E+00  0.88000000000E+00 0. -1.
        -11    1    4    4    0    0  0.19156304122E-01 -0.21779875201E-01  0.21736657136E-01  0.36250108080E-01  0.51100000000E-03 0.  1.
         11    1    4    4    0    0  0.66941650640E-01 -0.30029500420E-01  0.62326425029E-01  0.96269412919E-01  0.51100000000E-03 0. -1.
</event>
<event>
 8    1  0.1071333E+005  0.1043930E+01  0.7957747E-01            NaN
         13   -1    0    0    0    0  0.00000000000E+00  0.00000000000E+00  0.74505805969E-08  0.10566000000E+00  0.10566000000E+00 0. -1.
     999900   -1    0    0    0    0 -0.00000000000E+00 -0.00000000000E+00 -0.74505805969E-08  0.93827000000E+00  0.93827000000E+00 0.  1.
     999902    2    1    2    0    0 -0.81924649871E-02 -0.21900519587E-01 -0.24255553470E-02  0.10204218618E+01  0.10201510396E+01 0.  0.
     999903    2    3    3    0    0  0.88860702737E-01  0.86126371154E-01 -0.26684959540E-01  0.12819002808E+00  0.20164819246E-01 0.  0.
         14    1    1    2    0    0  0.81924649871E-02  0.21900519587E-01  0.24255553470E-02  0.23508138154E-01  0.00000000000E+00 0. -1.
     999901    1    3    3    0    0 -0.97053167724E-01 -0.10802689074E+00  0.24259404193E-01  0.89223183376E+00  0.88000000000E+00 0.  1.
        -11    1    4    4    0    0  0.32481566691E-01  0.22186248691E-01 -0.17818787843E-02  0.39379157161E-01  0.51100000000E-03 0. -1.
         11    1    4    4    0    0  0.56379136046E-01  0.63940122463E-01 -0.24903080756E-01  0.88810870922E-01  0.51100000000E-03 0.  1.
</event>
<event>
 8    1  0.1071333E+005  0.1043930E+01  0.7957747E-01            NaN
         13   -1    0    0    0    0  0.00000000000E+00  0.00000000000E+00  0.74505805969E-08  0.10566000000E+00  0.10566000000E+00 0. -1.
     999900   -1    0    0    0    0 -0.00000000000E+00 -0.00000000000E+00 -0.74505805969E-08  0.93827000000E+00  0.93827000000E+00 0. -1.
     999902    2    1    2    0    0  0.41475050041E-02  0.22983007250E-01  0.56087622365E-02  0.10199117021E+01  0.10196288548E+01 0.  0.
     999903    2    3    3    0    0 -0.10642365829E-02 -0.91482888777E-01 -0.86409830850E-01  0.12772504838E+00  0.21835237083E-01 0.  0.
         14    1    1    2    0    0 -0.41475050041E-02 -0.22983007250E-01 -0.56087622365E-02  0.24018297896E-01  0.00000000000E+00 0.  1.
     999901    1    3    3    0    0  0.52117415869E-02  0.11446589603E+00  0.92018593086E-01  0.89218665372E+00  0.88000000000E+00 0.  1.
        -11    1    4    4    0    0  0.79423183182E-02 -0.24181278339E-01 -0.16923242845E-01  0.30569133318E-01  0.51100000000E-03 0. -1.
         11    1    4    4    0    0 -0.90065549011E-02 -0.67301610438E-01 -0.69486588005E-01  0.97155915066E-01  0.51100000000E-03 0.  1.
</event>
<event>
 8    1  0.1071333E+005  0.1043930E+01  0.7957747E-01            NaN
         13   -1    0    0    0    0  0.00000000000E+00  0.00000000000E+00  0.74505805969E-08  0.10566000000E+00  0.10566000000E+00 0.  1.
     999900   -1    0    0    0    0 -0.00000000000E+00 -0.00000000000E+00 -0.74505805969E-08  0.93827000000E+00  0.93827000000E+00 0.  1.
     999902    2    1    2    0    0  0.19296280889E-01  0.12694950521E-01  0.49157020048E-02  0.10203149126E+01  0.10200415916E+01 0.  0.
     999903    2    3    3    0    0  0.18864182168E-01 -0.12508780432E+00 -0.18273678892E-01  0.12929189294E+00  0.19484611436E-01 0.  0.
         14    1    1    2    0    0 -0.19296280889E-01 -0.12694950521E-01 -0.49157020048E-02  0.23615087362E-01  0.00000000000E+00 0.  1.
     999901    1    3    3    0    0  0.43209872124E-03  0.13778275484E+00  0.23189380896E-01  0.89102301970E+00  0.88000000000E+00 0. -1.
        -11    1    4    4    0    0  0.16035737831E-01 -0.11287973164E+00 -0.22188560452E-01  0.11615322656E+00  0.51100000000E-03 0. -1.
         11    1    4    4    0    0  0.28284443367E-02 -0.12208072674E-01  0.39148815601E-02  0.13138666386E-01  0.51100000000E-03 0.  1.
</event>
<event>
 8    1  0.1071333E+005  0.1043930E+01  0.7957747E-01            NaN
         13   -1    0    0    0    0  0.00000000000E+00  0.00000000000E+00  0.74505805969E-08  0.10566000000E+00  0.10566000000E+00 0. -1.
     999900   -1    0    0    0    0 -0.00000000000E+00 -0.00000000000E+00 -0.74505805969E-08  0.93827000000E+00  0.93827000000E+00 0.  1.
     999902    2    1    2    0    0  0.13725951415E-01  0.31877092756E-02 -0.19442097518E-01  0.10199183697E+01  0.10196356813E+01 0.  0.
     999903    2    3    3    0    0 -0.71857941884E-01  0.68104111627E-01  0.78777663158E-01  0.12796216930E+00  0.19148439279E-01 0.  0.
         14    1    1    2    0    0 -0.13725951415E-01 -0.31877092756E-02  0.19442097518E-01  0.24011630278E-01  0.00000000000E+00 0. -1.
     999901    1    3    3    0    0  0.85583893300E-01 -0.64916402351E-01 -0.98219760676E-01  0.89195620042E+00  0.88000000000E+00 0.  1.
        -11    1    4    4    0    0 -0.19980782320E-01  0.27239972967E-01  0.35480817591E-01  0.48993849892E-01  0.51100000000E-03 0.  1.
         11    1    4    4    0    0 -0.51877159565E-01  0.40864138660E-01  0.43296845566E-01  0.78968319407E-01  0.51100000000E-03 0. -1.
</event>
<event>
 8    1  0.1071333E+005  0.1043930E+01  0.7957747E-01            NaN
         13   -1    0    0    0    0  0.00000000000E+00  0.00000000000E+00  0.74505805969E-08  0.10566000000E+00  0.10566000000E+00 0.  1.
     999900   -1    0    0    0    0 -0.00000000000E+00 -0.00000000000E+00 -0.74505805969E-08  0.93827000000E+00  0.93827000000E+00 0. -1.
     999902    2    1    2    0    0 -0.27920015523E-02  0.21470378090E-01 -0.10114143726E-01  0.10200329644E+01  0.10197529996E+01 0.  0.
     999903    2    3    3    0    0  0.11935358437E+00 -0.29061301600E-01 -0.37159141365E-01  0.12974962369E+00  0.19087318030E-01 0.  0.
         14    1    1    2    0    0  0.27920015523E-02 -0.21470378090E-01  0.10114143726E-01  0.23897035617E-01  0.00000000000E+00 0.  1.
     999901    1    3    3    0    0 -0.12214558592E+00  0.50531679690E-01  0.27044997639E-01  0.89028334069E+00  0.88000000000E+00 0. -1.
        -11    1    4    4    0    0  0.78192820265E-01 -0.11233196310E-01 -0.29017092638E-01  0.84157914818E-01  0.51100000000E-03 0. -1.
         11    1    4    4    0    0  0.41160764102E-01 -0.17828105290E-01 -0.81420487272E-02  0.45591708876E-01  0.51100000000E-03 0.  1.
</event>
<event>
 8    1  0.1071333E+005  0.1043930E+01  0.7957747E-01            NaN
         13   -1    0    0    0    0  0.00000000000E+00  0.00000000000E+00  0.74505805969E-08  0.10566000000E+00  0.10566000000E+00 0.  1.
     999900   -1    0    0    0    0 -0.00000000000E+00 -0.00000000000E+00 -0.74505805969E-08  0.93827000000E+00  0.93827000000E+00 0.  1.
     999902    2    1    2    0    0  0.72561884875E-02  0.11578761130E-01  0.19508847096E-01  0.10201116227E+01  0.10198335196E+01 0.  0.
     999903    2    3    3    0    0  0.17312101915E-01 -0.92377681827E-01 -0.84373606030E-01  0.12786747033E+00  0.19945916915E-01 0.  0.
         14    1    1    2    0    0 -0.72561884875E-02 -0.11578761130E-01 -0.19508847096E-01  0.23818377268E-01  0.00000000000E+00 0. -1.
     999901    1    3    3    0    0 -0.10055913428E-01  0.10395644296E+00  0.10388245313E+00  0.89224415240E+00  0.88000000000E+00 0. -1.
        -11    1    4    4    0    0  0.13863347355E-01 -0.42523483717E-01 -0.50673275796E-01  0.67590539784E-01  0.51100000000E-03 0. -1.
         11    1    4    4    0    0  0.34487545597E-02 -0.49854198110E-01 -0.33700330234E-01  0.60276930546E-01  0.51100000000E-03 0.  1.
</event>
<event>
 8    1  0.1071333E+005  0.1043930E+01  0.7957747E-01            NaN
         13   -1    0    0    0    0  0.00000000000E+00  0.00000000000E+00  0.74505805969E-08  0.10566000000E+00  0.10566000000E+00 0. -1.
     999900   -1    0    0    0    0 -0.00000000000E+00 -0.00000000000E+00 -0.74505805969E-08  0.93827000000E+00  0.93827000000E+00 0. -1.
     999902    2    1    2    0    0  0.18201110937E-01 -0.98394523749E-02 -0.81181103247E-02  0.10217039122E+01  0.10214621311E+01 0.  0.
     999903    2    3    3    0    0  0.11082907375E+00  0.10612839146E-01  0.70270002474E-01  0.13314162856E+00  0.19826852149E-01 0.  0.
         14    1    1    2    0    0 -0.18201110937E-01  0.98394523749E-02  0.81181103247E-02  0.22226087772E-01  0.00000000000E+00 0. -1.
     999901    1    3    3    0    0 -0.92627962812E-01 -0.20452291521E-01 -0.78388112798E-01  0.88856228366E+00  0.88000000000E+00 0. -1.
        -11    1    4    4    0    0  0.89357596144E-01  0.92864888056E-02  0.46796743419E-01  0.10129765633E+00  0.51100000000E-03 0.  1.
         11    1    4    4    0    0  0.21471477605E-01  0.13263503408E-02  0.23473259055E-01  0.31843972230E-01  0.51100000000E-03 0. -1.
</event>
<event>
 8    1  0.1071333E+005  0.1043930E+01  0.7957747E-01            NaN
         13   -1    0    0    0    0  0.00000000000E+00  0.00000000000E+00  0.74505805969E-08  0.10566000000E+00  0.10566000000E+00 0.  1.
     999900   -1    0    0    0    0 -0.00000000000E+00 -0.00000000000E+00 -0.74505805969E-08  0.93827000000E+00  0.93827000000E+00 0. -1.
     999902    2    1    2    0    0 -0.22417837980E-01 -0.48272779792E-02 -0.51587927690E-02  0.10204252087E+01  0.10201544644E+01 0.  0.
     999903    2    3    3    0    0  0.45442327766E-02  0.69940442131E-01  0.10728499341E+00  0.12971719239E+00  0.20103847712E-01 0.  0.
         14    1    1    2    0    0  0.22417837980E-01  0.48272779792E-02  0.51587927690E-02  0.23504791325E-01  0.00000000000E+00 0.  1.
     999901    1    3    3    0    0 -0.26962070756E-01 -0.74767720110E-01 -0.11244378618E+00  0.89070801629E+00  0.88000000000E+00 0. -1.
        -11    1    4    4    0    0  0.11357521475E-01  0.58434174566E-01  0.87997560097E-01  0.10624207149E+00  0.51100000000E-03 0. -1.
         11    1    4    4    0    0 -0.68132886982E-02  0.11506267565E-01  0.19287433313E-01  0.23475120894E-01  0.51100000000E-03 0.  1.
</event>
<event>
 8    1  0.1071333E+005  0.1043930E+01  0.7957747E-01            NaN
         13   -1    0    0    0    0  0.00000000000E+00  0.00000000000E+00  0.74505805969E-08  0.10566000000E+00  0.10566000000E+00 0.  1.
     999900   -1    0    0    0    0 -0.00000000000E+00 -0.00000000000E+00 -0.74505805969E-08  0.93827000000E+00  0.93827000000E+00 0.  1.
     999902    2    1    2    0    0 -0.17505080538E-01 -0.11553141695E-01  0.91363138292E-02  0.10210526060E+01  0.10207962818E+01 0.  0.
     999903    2    3    3    0    0 -0.63177687462E-01 -0.31140285919E-01  0.11190904889E+00  0.13367902155E+00  0.19629263344E-01 0.  0.
         14    1    1    2    0    0  0.17505080538E-01  0.11553141695E-01 -0.91363138292E-02  0.22877394040E-01  0.00000000000E+00 0. -1.
     999901    1    3    3    0    0  0.45672606924E-01  0.19587144224E-01 -0.10277273506E+00  0.88737358441E+00  0.88000000000E+00 0.  1.
        -11    1    4    4    0    0 -0.12053286201E-01 -0.60854396917E-02  0.38341225818E-01  0.40652490732E-01  0.51100000000E-03 0.  1.
         11    1    4    4    0    0 -0.51124401261E-01 -0.25054846227E-01  0.73567823067E-01  0.93026530816E-01  0.51100000000E-03 0. -1.
</event>
<event>
 8    1  0.1071333E+005  0.1043930E+01  0.7957747E-01            NaN
         13   -1    0    0    0    0  0.00000000000E+00  0.00000000000E+00  0.74505805969E-08  0.10566000000E+00  0.10566000000E+00 0.  1.
     999900   -1    0    0    0    0 -0.00000000000E+00 -0.00000000000E+00 -0.74505805969E-08  0.93827000000E+00  0.93827000000E+00 0.  1.
     999902    2    1    2    0    0  0.18393270592E-01 -0.92664479146E-02 -0.12022692976E-01  0.10200820524E+01  0.10198032501E+01 0.  0.
     999903    2    3    3    0    0 -0.89582459051E-01 -0.66885426481E-01  0.60477114298E-01  0.12865907367E+00  0.19924824714E-01 0.  0.
         14    1    1    2    0    0 -0.18393270592E-01  0.92664479146E-02  0.12022692976E-01  0.23847947635E-01  0.00000000000E+00 0.  1.
     999901    1    3    3    0    0  0.10797572964E+00  0.57618978566E-01 -0.72499807274E-01  0.89142297869E+00  0.88000000000E+00 0. -1.
        -11    1    4    4    0    0 -0.61580853965E-01 -0.48708945444E-01  0.52118656590E-01  0.94241065502E-01  0.51100000000E-03 0. -1.
         11    1    4    4    0    0 -0.28001605086E-01 -0.18176481037E-01  0.83584577079E-02  0.34418008172E-01  0.51100000000E-03 0.  1.
</event>
<event>
 8    1  0.1071333E+005  0.1043930E+01  0.7957747E-01            NaN
         13   -1    0    0    0    0  0.00000000000E+00  0.00000000000E+00  0.74505805969E-08  0.10566000000E+00  0.10566000000E+00 0.  1.
     999900   -1    0    0    0    0 -0.00000000000E+00 -0.00000000000E+00 -0.74505805969E-08  0.93827000000E+00  0.93827000000E+00 0. -1.
     999902    2    1    2    0    0 -0.87408656630E-02  0.71023199933E-02  0.20570913526E-01  0.10204777471E+01  0.10202082259E+01 0.  0.
     999903    2    3    3    0    0 -0.65086116170E-01  0.10606205071E+00  0.42180636342E-01  0.13287716371E+00  0.19793267344E-01 0.  0.
         14    1    1    2    0    0  0.87408656630E-02 -0.71023199933E-02 -0.20570913526E-01  0.23452252879E-01  0.00000000000E+00 0. -1.
     999901    1    3    3    0    0  0.56345250507E-01 -0.98959730722E-01 -0.21609722816E-01  0.88760058342E+00  0.88000000000E+00 0. -1.
        -11    1    4    4    0    0 -0.44940636584E-01  0.69012509068E-01  0.37334884276E-01  0.90424233087E-01  0.51100000000E-03 0. -1.
         11    1    4    4    0    0 -0.20145479586E-01  0.37049541647E-01  0.48457520660E-02  0.42452930619E-01  0.51100000000E-03 0.  1.
</event>
<event>
 7    1  0.1071333E+005  0.1043930E+01  0.7957747E-01            NaN
         13   -1    0    0    0    0  0.00000000000E+00  0.00000000000E+00  0.74505805969E-08  0.10566000000E+00  0.10566000000E+00 0. -1.
     999900   -1    0    0    0    0 -0.00000000000E+00 -0.00000000000E+00 -0.74505805969E-08  0.93827000000E+00  0.93827000000E+00 0. -1.
     999902    2    1    2    0    0  0.22984139729E-01  0.42712376293E-02  0.24186062105E-02  0.10204275787E+01  0.10201568897E+01 0.  0.
         14    1    1    2    0    0 -0.22984139729E-01 -0.42712376293E-02 -0.24186062105E-02  0.23502421279E-01  0.00000000000E+00 0.  1.
     999901    1    3    3    0    0 -0.81617342828E-01 -0.78068984671E-01  0.45973152539E-02  0.88723012366E+00  0.88000000000E+00 0. -1.
        -11    1    3    3    0    0  0.19469916705E-01  0.13551930978E-01 -0.15724529040E-03  0.23728007435E-01  0.51100000000E-03 0.  1.
         11    1    3    3    0    0  0.85131565852E-01  0.68788291322E-01 -0.20214637530E-02  0.10946944763E+00  0.51100000000E-03 0. -1.
</event>
<event>
 8    1  0.1071333E+005  0.1043930E+01  0.7957747E-01            NaN
         13   -1    0    0    0    0  0.00000000000E+00  0.00000000000E+00  0.74505805969E-08  0.10566000000E+00  0.10566000000E+00 0. -1.
     999900   -1    0    0    0    0 -0.00000000000E+00 -0.00000000000E+00 -0.74505805969E-08  0.93827000000E+00  0.93827000000E+00 0. -1.
     999902    2    1    2    0    0 -0.18399354062E-01 -0.43417117729E-02 -0.14874149839E-01  0.10198753326E+01  0.10195916178E+01 0.  0.
     999903    2    3    3    0    0 -0.40927957593E-01 -0.27526221401E-01  0.11777696928E+00  0.12934662509E+00  0.20648107764E-01 0.  0.
         14    1    1    2    0    0  0.18399354062E-01  0.43417117729E-02  0.14874149839E-01  0.24054667415E-01  0.00000000000E+00 0.  1.
     999901    1    3    3    0    0  0.22528603531E-01  0.23184509628E-01 -0.13265111911E+00  0.89052870749E+00  0.88000000000E+00 0. -1.
        -11    1    4    4    0    0 -0.64905315717E-02  0.17371176005E-02  0.28454235256E-01  0.29241224370E-01  0.51100000000E-03 0.  1.
         11    1    4    4    0    0 -0.34437426021E-01 -0.29263339002E-01  0.89322734019E-01  0.10010540072E+00  0.51100000000E-03 0. -1.
</event>
<event>
 8    1  0.1071333E+005  0.1043930E+01  0.7957747E-01            NaN
         13   -1    0    0    0    0  0.00000000000E+00  0.00000000000E+00  0.74505805969E-08  0.10566000000E+00  0.10566000000E+00 0. -1.
     999900   -1    0    0    0    0 -0.00000000000E+00 -0.00000000000E+00 -0.74505805969E-08  0.93827000000E+00  0.93827000000E+00 0. -1.
     999902    2    1    2    0    0 -0.91851177791E-03  0.12891273723E-01 -0.20065656324E-01  0.10200624663E+01  0.10197832005E+01 0.  0.
     999903    2    3    3    0    0  0.41477987585E-01  0.11200346708E+00  0.49450025499E-01  0.13076323652E+00  0.19710883088E-01 0.  0.
         14    1    1    2    0    0  0.91851177791E-03 -0.12891273723E-01  0.20065656324E-01  0.23867533719E-01  0.00000000000E+00 0. -1.
     999901    1    3    3    0    0 -0.42396499363E-01 -0.99112193356E-01 -0.69515681823E-01  0.88929922976E+00  0.88000000000E+00 0.  1.
        -11    1    4    4    0    0  0.93849172042E-02  0.36205082263E-01  0.66670201208E-02  0.37994669770E-01  0.51100000000E-03 0. -1.
         11    1    4    4    0    0  0.32093070381E-01  0.75798384816E-01  0.42783005378E-01  0.92768566753E-01  0.51100000000E-03 0.  1.
</event>
<event>
 8    1  0.1071333E+005  0.1043930E+01  0.7957747E-01            NaN
         13   -1    0    0    0    0  0.00000000000E+00  0.00000000000E+00  0.74505805969E-08  0.10566000000E+00  0.10566000000E+00 0.  1.
     999900   -1    0    0    0    0 -0.00000000000E+00 -0.00000000000E+00 -0.74505805969E-08  0.93827000000E+00  0.93827000000E+00 0.  1.
     999902    2    1    2    0    0 -0.16735214396E-01  0.14362438765E-01 -0.91899222897E-02  0.10200385430E+01  0.10197587104E+01 0.  0.
     999903    2    3    3    0    0  0.32957303966E-01  0.21383813314E-01  0.12120575868E+00  0.12901571513E+00  0.20267398869E-01 0.  0.
         14    1    1    2    0    0  0.16735214396E-01 -0.14362438765E-01  0.91899222897E-02  0.23891457047E-01  0.00000000000E+00 0.  1.
     999901    1    3    3    0    0 -0.49692518362E-01 -0.70213745491E-02 -0.13039568097E+00  0.89102282782E+00  0.88000000000E+00 0.  1.
        -11    1    4    4    0    0  0.31976835839E-01  0.21603368823E-01  0.91727641831E-01  0.99516053838E-01  0.51100000000E-03 0.  1.
         11    1    4    4    0    0  0.98046812727E-03 -0.21955550845E-03  0.29478116851E-01  0.29499661294E-01  0.51100000000E-03 0. -1.
</event>
<event>
 8    1  0.1071333E+005  0.1043930E+01  0.7957747E-01            NaN
         13   -1    0    0    0    0  0.00000000000E+00  0.00000000000E+00  0.74505805969E-08  0.10566000000E+00  0.10566000000E+00 0.  1.
     999900   -1    0    0    0    0 -0.00000000000E+00 -0.00000000000E+00 -0.74505805969E-08  0.93827000000E+00  0.93827000000E+00 0.  1.
     999902    2    1    2    0    0  0.76192345676E-02  0.10149434840E-01  0.20122954839E-01  0.10201393070E+01  0.10198618576E+01 0.  0.
     999903    2    3    3    0    0  0.71477796981E-01  0.16949663909E-01  0.10926186881E+00  0.13330792216E+00  0.20892093418E-01 0.  0.
         14    1    1    2    0    0 -0.76192345676E-02 -0.10149434840E-01 -0.20122954839E-01  0.23790693021E-01  0.00000000000E+00 0. -1.
     999901    1    3    3    0    0 -0.63858562414E-01 -0.68002290686E-02 -0.89138913974E-01  0.88683138482E+00  0.88000000000E+00 0.  1.
        -11    1    4    4    0    0  0.50381682290E-01  0.39117810328E-02  0.83070141020E-01  0.97234383791E-01  0.51100000000E-03 0.  1.
         11    1    4    4    0    0  0.21096114691E-01  0.13037882876E-01  0.26191727792E-01  0.36073538372E-01  0.51100000000E-03 0. -1.
</event>
<event>
 8    1  0.1071333E+005  0.1043930E+01  0.7957747E-01            NaN
         13   -1    0    0    0    0  0.00000000000E+00  0.00000000000E+00  0.74505805969E-08  0.10566000000E+00  0.10566000000E+00 0. -1.
     999900   -1    0    0    0    0 -0.00000000000E+00 -0.00000000000E+00 -0.74505805969E-08  0.93827000000E+00  0.93827000000E+00 0. -1.
     999902    2    1    2    0    0  0.19530755183E-01  0.90891907409E-02  0.92040144954E-02  0.10205039959E+01  0.10202350846E+01 0.  0.
     999903    2    3    3    0    0  0.28777071823E-01  0.10367214388E+00  0.75880709721E-01  0.13287951949E+00  0.17973628231E-01 0.  0.
         14    1    1    2    0    0 -0.19530755183E-01 -0.90891907409E-02 -0.92040144954E-02  0.23426004123E-01  0.00000000000E+00 0.  1.
     999901    1    3    3    0    0 -0.92463166409E-02 -0.94582953143E-01 -0.66676695226E-01  0.88762447639E+00  0.88000000000E+00 0. -1.
        -11    1    4    4    0    0  0.12145172381E-01  0.28552573075E-01  0.13559480116E-01  0.33865546849E-01  0.51100000000E-03 0. -1.
         11    1    4    4    0    0  0.16631899442E-01  0.75119570809E-01  0.62321229605E-01  0.99013972640E-01  0.51100000000E-03 0.  1.
</event>
<event>
 8    1  0.1071333E+005  0.1043930E+01  0.7957747E-01            NaN
         13   -1    0    0    0    0  0.00000000000E+00  0.00000000000E+00  0.74505805969E-08  0.10566000000E+00  0.10566000000E+00 0.  1.
     999900   -1    0    0    0    0 -0.00000000000E+00 -0.00000000000E+00 -0.74505805969E-08  0.93827000000E+00  0.93827000000E+00 0. -1.
     999902    2    1    2    0    0  0.19451683897E-01 -0.17852130842E-01 -0.38183866675E-02  0.10172532937E+01  0.10169034452E+01 0.  0.
     999903    2    3    3    0    0 -0.18825183326E-01  0.94407190552E-01 -0.78761835509E-01  0.12613949944E+00  0.20991460911E-01 0.  0.
         14    1    1    2    0    0 -0.19451683897E-01  0.17852130842E-01  0.38183866675E-02  0.26676706295E-01  0.00000000000E+00 0.  1.
     999901    1    3    3    0    0  0.38276867223E-01 -0.11225932139E+00  0.74943448841E-01  0.89111379426E+00  0.88000000000E+00 0.  1.
        -11    1    4    4    0    0  0.42873055220E-02  0.11127272352E-01 -0.72808908670E-02  0.13981046865E-01  0.51100000000E-03 0.  1.
         11    1    4    4    0    0 -0.23112488848E-01  0.83279918200E-01 -0.71480944642E-01  0.11215845257E+00  0.51100000000E-03 0. -1.
</event>
<event>
 7    1  0.1071333E+005  0.1043930E+01  0.7957747E-01            NaN
         13   -1    0    0    0    0  0.00000000000E+00  0.00000000000E+00  0.74505805969E-08  0.10566000000E+00  0.10566000000E+00 0.  1.
     999900   -1    0    0    0    0 -0.00000000000E+00 -0.00000000000E+00 -0.74505805969E-08  0.93827000000E+00  0.93827000000E+00 0.  1.
     999902    2    1    2    0    0  0.21915778692E-02 -0.12479208775E-01  0.20160276406E-01  0.10201188595E+01  0.10198409274E+01 0.  0.
         14    1    1    2    0    0 -0.21915778692E-02  0.12479208775E-01 -0.20160276406E-01  0.23811140459E-01  0.00000000000E+00 0. -1.
     999901    1    3    3    0    0  0.70457733943E-01 -0.11657892139E+00 -0.15318590413E-01  0.89061192244E+00  0.88000000000E+00 0. -1.
        -11    1    3    3    0    0 -0.44792105021E-01  0.65804896286E-01  0.21357049002E-01  0.82419668226E-01  0.51100000000E-03 0.  1.
         11    1    3    3    0    0 -0.23474051052E-01  0.38294816328E-01  0.14121817817E-01  0.47087268872E-01  0.51100000000E-03 0. -1.
</event>
<event>
 8    1  0.1071333E+005  0.1043930E+01  0.7957747E-01            NaN
         13   -1    0    0    0    0  0.00000000000E+00  0.00000000000E+00  0.74505805969E-08  0.10566000000E+00  0.10566000000E+00 0.  1.
     999900   -1    0    0    0    0 -0.00000000000E+00 -0.00000000000E+00 -0.74505805969E-08  0.93827000000E+00  0.93827000000E+00 0. -1.
     999902    2    1    2    0    0 -0.22454124820E-01  0.76325876198E-02  0.16992985622E-03  0.10202134869E+01  0.10199377853E+01 0.  0.
     999903    2    3    3    0    0 -0.41472022920E-02  0.51820183621E-01  0.11826082392E+00  0.13103794392E+00  0.21972472705E-01 0.  0.
         14    1    1    2    0    0  0.22454124820E-01 -0.76325876198E-02 -0.16992985622E-03  0.23716513052E-01  0.00000000000E+00 0. -1.
     999901    1    3    3    0    0 -0.18306922528E-01 -0.44187596001E-01 -0.11809089406E+00  0.88917554302E+00  0.88000000000E+00 0. -1.
        -11    1    4    4    0    0 -0.88797761422E-02  0.29826988125E-01  0.87895134709E-01  0.93243313280E-01  0.51100000000E-03 0. -1.
         11    1    4    4    0    0  0.47325738502E-02  0.21993195496E-01  0.30365689208E-01  0.37794630643E-01  0.51100000000E-03 0.  1.
</event>
<event>
 8    1  0.1071333E+005  0.1043930E+01  0.7957747E-01            NaN
         13   -1    0    0    0    0  0.00000000000E+00  0.00000000000E+00  0.74505805969E-08  0.10566000000E+00  0.10566000000E+00 0.  1.
     999900   -1    0    0    0    0 -0.00000000000E+00 -0.00000000000E+00 -0.74505805969E-08  0.93827000000E+00  0.93827000000E+00 0. -1.
     999902    2    1    2    0    0 -0.20777937404E-01 -0.89464865234E-03 -0.12041407107E-01  0.10198983841E+01  0.10196152192E+01 0.  0.
     999903    2    3    3    0    0  0.99025450999E-01 -0.72212016211E-01 -0.34580150455E-01  0.12863691080E+00  0.18194855968E-01 0.  0.
         14    1    1    2    0    0  0.20777937404E-01  0.89464865234E-03  0.12041407107E-01  0.24031615928E-01  0.00000000000E+00 0.  1.
     999901    1    3    3    0    0 -0.11980338840E+00  0.71317367558E-01  0.22538743348E-01  0.89126147327E+00  0.88000000000E+00 0. -1.
        -11    1    4    4    0    0  0.56326588430E-01 -0.47041780386E-01 -0.28370509529E-01  0.78681386604E-01  0.51100000000E-03 0. -1.
         11    1    4    4    0    0  0.42698862569E-01 -0.25170235825E-01 -0.62096409259E-02  0.49955524195E-01  0.51100000000E-03 0.  1.
</event>
<event>
 8    1  0.1071333E+005  0.1043930E+01  0.7957747E-01            NaN
         13   -1    0    0    0    0  0.00000000000E+00  0.00000000000E+00  0.74505805969E-08  0.10566000000E+00  0.10566000000E+00 0. -1.
     999900   -1    0    0    0    0 -0.00000000000E+00 -0.00000000000E+00 -0.74505805969E-08  0.93827000000E+00  0.93827000000E+00 0.  1.
     999902    2    1    2    0    0 -0.13513389972E-01  0.17629646901E-01  0.87907854108E-02  0.10200407960E+01  0.10197610169E+01 0.  0.
     999903    2    3    3    0    0 -0.25387067901E-01  0.21546912523E-01  0.12624839351E+00  0.13214856219E+00  0.20391492585E-01 0.  0.
         14    1    1    2    0    0  0.13513389972E-01 -0.17629646901E-01 -0.87907854108E-02  0.23889203974E-01  0.00000000000E+00 0.  1.
     999901    1    3    3    0    0  0.11873677929E-01 -0.39172656222E-02 -0.11745760810E+00  0.88789223383E+00  0.88000000000E+00 0.  1.
        -11    1    4    4    0    0 -0.23753717093E-01  0.88299293742E-02  0.69788986774E-01  0.74249380633E-01  0.51100000000E-03 0. -1.
         11    1    4    4    0    0 -0.16333508083E-02  0.12716983149E-01  0.56459406738E-01  0.57899181561E-01  0.51100000000E-03 0.  1.
</event>
<event>
 8    1  0.1071333E+005  0.1043930E+01  0.7957747E-01            NaN
         13   -1    0    0    0    0  0.00000000000E+00  0.00000000000E+00  0.74505805969E-08  0.10566000000E+00  0.10566000000E+00 0.  1.
     999900   -1    0    0    0    0 -0.00000000000E+00 -0.00000000000E+00 -0.74505805969E-08  0.93827000000E+00  0.93827000000E+00 0.  1.
     999902    2    1    2    0    0  0.68491365592E-02 -0.19771360012E-01 -0.90880524359E-02  0.10211175024E+01  0.10208626468E+01 0.  0.
     999903    2    3    3    0    0 -0.48865685525E-01  0.87663916913E-01 -0.79597268699E-01  0.13004060917E+00  0.22405742520E-01 0.  0.
         14    1    1    2    0    0 -0.68491365592E-02  0.19771360012E-01  0.90880524359E-02  0.22812497570E-01  0.00000000000E+00 0.  1.
     999901    1    3    3    0    0  0.55714822084E-01 -0.10743527693E+00  0.70509216263E-01  0.89107689326E+00  0.88000000000E+00 0.  1.
        -11    1    4    4    0    0 -0.32871938748E-01  0.76646729182E-01 -0.65118750967E-01  0.10581114450E+00  0.51100000000E-03 0. -1.
         11    1    4    4    0    0 -0.15993746778E-01  0.11017187732E-01 -0.14478517732E-01  0.24229464671E-01  0.51100000000E-03 0.  1.
</event>
<event>
 8    1  0.1071333E+005  0.1043930E+01  0.7957747E-01            NaN
         13   -1    0    0    0    0  0.00000000000E+00  0.00000000000E+00  0.74505805969E-08  0.10566000000E+00  0.10566000000E+00 0.  1.
     999900   -1    0    0    0    0 -0.00000000000E+00 -0.00000000000E+00 -0.74505805969E-08  0.93827000000E+00  0.93827000000E+00 0.  1.
     999902    2    1    2    0    0 -0.56622969784E-02 -0.10277970283E-01  0.22452024202E-01  0.10185963925E+01  0.10182813064E+01 0.  0.
     999903    2    3    3    0    0  0.78838711096E-01 -0.91179174057E-01 -0.40316844830E-01  0.12863832825E+00  0.19828952777E-01 0.  0.
         14    1    1    2    0    0  0.56622969784E-02  0.10277970283E-01 -0.22452024202E-01  0.25333607540E-01  0.00000000000E+00 0. -1.
     999901    1    3    3    0    0 -0.84501008075E-01  0.80901203774E-01  0.62768869033E-01  0.88995806421E+00  0.88000000000E+00 0.  1.
        -11    1    4    4    0    0  0.35878941894E-01 -0.56127176702E-01 -0.24492476797E-01  0.70976763639E-01  0.51100000000E-03 0. -1.
         11    1    4    4    0    0  0.42959769203E-01 -0.35051997355E-01 -0.15824368034E-01  0.57661564609E-01  0.51100000000E-03 0.  1.
</event>
<event>
 8    1  0.1071333E+005  0.1043930E+01  0.7957747E-01            NaN
         13   -1    0    0    0    0  0.00000000000E+00  0.00000000000E+00  0.74505805969E-08  0.10566000000E+00  0.10566000000E+00 0.  1.
     999900   -1    0    0    0    0 -0.00000000000E+00 -0.00000000000E+00 -0.74505805969E-08  0.93827000000E+00  0.93827000000E+00 0.  1.
     999902    2    1    2    0    0  0.23412149433E-01  0.88609503579E-03 -0.36835976272E-02  0.10202132802E+01  0.10199375737E+01 0.  0.
     999903    2    3    3    0    0  0.19340988304E-01 -0.33763043305E-01  0.12304541696E+00  0.13045073871E+00  0.19057903196E-01 0.  0.
         14    1    1    2    0    0 -0.23412149433E-01 -0.88609503579E-03  0.36835976272E-02  0.23716719777E-01  0.00000000000E+00 0. -1.
     999901    1    3    3    0    0  0.40711611291E-02  0.34649138340E-01 -0.12672901458E+00  0.88976254151E+00  0.88000000000E+00 0.  1.
        -11    1    4    4    0    0  0.36539492672E-02 -0.67948251844E-02  0.55625192413E-01  0.56159987059E-01  0.51100000000E-03 0. -1.
         11    1    4    4    0    0  0.15687039037E-01 -0.26968218120E-01  0.67420224545E-01  0.74290751652E-01  0.51100000000E-03 0.  1.
</event>
<event>
 8    1  0.1071333E+005  0.1043930E+01  0.7957747E-01            NaN
         13   -1    0    0    0    0  0.00000000000E+00  0.00000000000E+00  0.74505805969E-08  0.10566000000E+00  0.10566000000E+00 0.  1.
     999900   -1    0    0    0    0 -0.00000000000E+00 -0.00000000000E+00 -0.74505805969E-08  0.93827000000E+00  0.93827000000E+00 0.  1.
     999902    2    1    2    0    0 -0.18399792736E-01  0.13939028448E-01  0.73553755843E-02  0.10197029400E+01  0.10194150947E+01 0.  0.
     999903    2    3    3    0    0  0.11862206395E-01 -0.40969340432E-01  0.12155112197E+00  0.13011236784E+00  0.18312679125E-01 0.  0.
         14    1    1    2    0    0  0.18399792736E-01 -0.13939028448E-01 -0.73553755843E-02  0.24227060011E-01  0.00000000000E+00 0. -1.
     999901    1    3    3    0    0 -0.30261999131E-01  0.54908368880E-01 -0.11419574639E+00  0.88959057215E+00  0.88000000000E+00 0.  1.
        -11    1    4    4    0    0 -0.36752099572E-02 -0.15857666688E-01  0.53619863740E-01  0.56038590895E-01  0.51100000000E-03 0.  1.
         11    1    4    4    0    0  0.15537416353E-01 -0.25111673744E-01  0.67931258230E-01  0.74073776945E-01  0.51100000000E-03 0. -1.
</event>
<event>
 8    1  0.1071333E+005  0.1043930E+01  0.7957747E-01            NaN
         13   -1    0    0    0    0  0.00000000000E+00  0.00000000000E+00  0.74505805969E-08  0.10566000000E+00  0.10566000000E+00 0.  1.
     999900   -1    0    0    0    0 -0.00000000000E+00 -0.00000000000E+00 -0.74505805969E-08  0.93827000000E+00  0.93827000000E+00 0. -1.
     999902    2    1    2    0    0 -0.10706287098E-01  0.94513056767E-02  0.19796267857E-01  0.10195200843E+01  0.10192278246E+01 0.  0.
     999903    2    3    3    0    0 -0.12317514101E+00  0.31946482678E-01  0.28856630370E-01  0.13203072311E+00  0.20167141886E-01 0.  0.
         14    1    1    2    0    0  0.10706287098E-01 -0.94513056767E-02 -0.19796267857E-01  0.24409915680E-01  0.00000000000E+00 0.  1.
     999901    1    3    3    0    0  0.11246885391E+00 -0.22495177001E-01 -0.90603625137E-02  0.88748936121E+00  0.88000000000E+00 0.  1.
        -11    1    4    4    0    0 -0.59553083212E-01  0.25849060042E-01  0.14550770871E-01  0.66533673272E-01  0.51100000000E-03 0.  1.
         11    1    4    4    0    0 -0.63622057795E-01  0.60974226357E-02  0.14305859500E-01  0.65497049841E-01  0.51100000000E-03 0. -1.
</event>
<event>
 8    1  0.1071333E+005  0.1043930E+01  0.7957747E-01            NaN
         13   -1    0    0    0    0  0.00000000000E+00  0.00000000000E+00  0.74505805969E-08  0.10566000000E+00  0.10566000000E+00 0.  1.
     999900   -1    0    0    0    0 -0.00000000000E+00 -0.00000000000E+00 -0.74505805969E-08  0.93827000000E+00  0.93827000000E+00 0.  1.
     999902    2    1    2    0    0 -0.17036799998E-01  0.47727514300E-02  0.16341342445E-01  0.10198453330E+01  0.10195609016E+01 0.  0.
     999903    2    3    3    0    0  0.24470713872E-01 -0.54560119897E-01  0.11526037598E+00  0.13134759047E+00  0.19789207420E-01 0.  0.
         14    1    1    2    0    0  0.17036799998E-01 -0.47727514300E-02 -0.16341342445E-01  0.24084666975E-01  0.00000000000E+00 0. -1.
     999901    1    3    3    0    0 -0.41507513871E-01  0.59332871327E-01 -0.98919033537E-01  0.88849774255E+00  0.88000000000E+00 0.  1.
        -11    1    4    4    0    0  0.24985153181E-01 -0.37505682395E-01  0.73286473475E-01  0.86035471793E-01  0.51100000000E-03 0. -1.
         11    1    4    4    0    0 -0.51443930806E-03 -0.17054437502E-01  0.41973902508E-01  0.45312118677E-01  0.51100000000E-03 0.  1.
</event>
<event>
 8    1  0.1071333E+005  0.1043930E+01  0.7957747E-01            NaN
         13   -1    0    0    0    0  0.00000000000E+00  0.00000000000E+00  0.74505805969E-08  0.10566000000E+00  0.10566000000E+00 0.  1.
     999900   -1    0    0    0    0 -0.00000000000E+00 -0.00000000000E+00 -0.74505805969E-08  0.93827000000E+00  0.93827000000E+00 0.  1.
     999902    2    1    2    0    0  0.10627937108E-01 -0.50732853203E-02  0.19664284617E-01  0.10210089319E+01  0.10207516171E+01 0.  0.
     999903    2    3    3    0    0  0.12001116134E+00  0.11809762427E-01  0.53390598742E-01  0.13343516526E+00  0.20303644000E-01 0.  0.
         14    1    1    2    0    0 -0.10627937108E-01  0.50732853203E-02 -0.19664284617E-01  0.22921068051E-01  0.00000000000E+00 0. -1.
     999901    1    3    3    0    0 -0.10938322423E+00 -0.16883047747E-01 -0.33726314126E-01  0.88757376669E+00  0.88000000000E+00 0.  1.
        -11    1    4    4    0    0  0.28569656060E-01 -0.15458309188E-02  0.21058452561E-01  0.35529345419E-01  0.51100000000E-03 0. -1.
         11    1    4    4    0    0  0.91441505281E-01  0.13355593346E-01  0.32332146181E-01  0.97905819844E-01  0.51100000000E-03 0.  1.
</event>
<event>
 8    1  0.1071333E+005  0.1043930E+01  0.7957747E-01            NaN
         13   -1    0    0    0    0  0.00000000000E+00  0.00000000000E+00  0.74505805969E-08  0.10566000000E+00  0.10566000000E+00 0. -1.
     999900   -1    0    0    0    0 -0.00000000000E+00 -0.00000000000E+00 -0.74505805969E-08  0.93827000000E+00  0.93827000000E+00 0.  1.
     999902    2    1    2    0    0 -0.13357938193E-01 -0.18743562340E-01 -0.57020993712E-02  0.10202177757E+01  0.10199421750E+01 0.  0.
     999903    2    3    3    0    0  0.25121756503E-01 -0.44362768390E-01 -0.12051969565E+00  0.13155579780E+00  0.13519357525E-01 0.  0.
         14    1    1    2    0    0  0.13357938193E-01  0.18743562340E-01  0.57020993712E-02  0.23712224257E-01  0.00000000000E+00 0.  1.
     999901    1    3    3    0    0 -0.38479694696E-01  0.25619206050E-01  0.11481759627E+00  0.88866197794E+00  0.88000000000E+00 0. -1.
        -11    1    4    4    0    0  0.19799892884E-01 -0.38285445435E-01 -0.87270878714E-01  0.97335905415E-01  0.51100000000E-03 0. -1.
         11    1    4    4    0    0  0.53218636196E-02 -0.60773229549E-02 -0.33248816932E-01  0.34219892388E-01  0.51100000000E-03 0.  1.
</event>
<event>
 8    1  0.1071333E+005  0.1043930E+01  0.7957747E-01            NaN
         13   -1    0    0    0    0  0.00000000000E+00  0.00000000000E+00  0.74505805969E-08  0.10566000000E+00  0.10566000000E+00 0.  1.
     999900   -1    0    0    0    0 -0.00000000000E+00 -0.00000000000E+00 -0.74505805969E-08  0.93827000000E+00  0.93827000000E+00 0. -1.
     999902    2    1    2    0    0 -0.48117006027E-02 -0.11560549101E-01  0.19876807456E-01  0.10204377410E+01  0.10201672887E+01 0.  0.
     999903    2    3    3    0    0  0.97314687896E-02 -0.40320370187E-01 -0.12021396733E+00  0.12877409575E+00  0.20271557855E-01 0.  0.
         14    1    1    2    0    0  0.48117006027E-02  0.11560549101E-01 -0.19876807456E-01  0.23492258999E-01  0.00000000000E+00 0.  1.
     999901    1    3    3    0    0 -0.14543169392E-01  0.28759821086E-01  0.14009077479E+00  0.89166364525E+00  0.88000000000E+00 0.  1.
        -11    1    4    4    0    0 -0.53103908697E-02 -0.19418392229E-01 -0.45906468820E-01  0.50129225093E-01  0.51100000000E-03 0.  1.
         11    1    4    4    0    0  0.15041859659E-01 -0.20901977958E-01 -0.74307498510E-01  0.78644870656E-01  0.51100000000E-03 0. -1.
</event>
<event>
 8    1  0.1071333E+005  0.1043930E+01  0.7957747E-01            NaN
         13   -1    0    0    0    0  0.00000000000E+00  0.00000000000E+00  0.74505805969E-08  0.10566000000E+00  0.10566000000E+00 0. -1.
     999900   -1    0    0    0    0 -0.00000000000E+00 -0.00000000000E+00 -0.74505805969E-08  0.93827000000E+00  0.93827000000E+00 0. -1.
     999902    2    1    2    0    0 -0.21137038560E-01 -0.67720688771E-02  0.34404434887E-02  0.10214695466E+01  0.10212225823E+01 0.  0.
     999903    2    3    3    0    0  0.54000444121E-02 -0.13020380480E+00 -0.11921636421E-01  0.13232636144E+00  0.19645591146E-01 0.  0.
         14    1    1    2    0    0  0.21137038560E-01  0.67720688771E-02 -0.34404434887E-02  0.22460453409E-01  0.00000000000E+00 0. -1.
     999901    1    3    3    0    0 -0.26537082972E-01  0.12343173593E+00  0.15362079909E-01  0.88914318515E+00  0.88000000000E+00 0.  1.
        -11    1    4    4    0    0 -0.12796983098E-03 -0.33566925760E-01  0.53698724590E-02  0.33997816584E-01  0.51100000000E-03 0.  1.
         11    1    4    4    0    0  0.55280142431E-02 -0.96636879043E-01 -0.17291508880E-01  0.98328544853E-01  0.51100000000E-03 0. -1.
</event>
<event>
 8    1  0.1071333E+005  0.1043930E+01  0.7957747E-01            NaN
         13   -1    0    0    0    0  0.00000000000E+00  0.00000000000E+00  0.74505805969E-08  0.10566000000E+00  0.10566000000E+00 0.  1.
     999900   -1    0    0    0    0 -0.00000000000E+00 -0.00000000000E+00 -0.74505805969E-08  0.93827000000E+00  0.93827000000E+00 0.  1.
     999902    2    1    2    0    0 -0.74542367927E-02  0.65913419801E-02 -0.21652414595E-01  0.10201006380E+01  0.10198222753E+01 0.  0.
     999903    2    3    3    0    0 -0.59233223872E-01 -0.11188670580E+00 -0.25304976784E-01  0.13064493224E+00  0.20013663447E-01 0.  0.
         14    1    1    2    0    0  0.74542367927E-02 -0.65913419801E-02  0.21652414595E-01  0.23829361994E-01  0.00000000000E+00 0.  1.
     999901    1    3    3    0    0  0.51778987079E-01  0.11847804778E+00  0.36525621893E-02  0.88945570577E+00  0.88000000000E+00 0.  1.
        -11    1    4    4    0    0 -0.23700792668E-01 -0.33347394515E-01 -0.40804981797E-03  0.40917037035E-01  0.51100000000E-03 0.  1.
         11    1    4    4    0    0 -0.35532431204E-01 -0.78539311286E-01 -0.24896926966E-01  0.89727895205E-01  0.51100000000E-03 0. -1.
</event>
<event>
 8    1  0.1071333E+005  0.1043930E+01  0.7957747E-01            NaN
         13   -1    0    0    0    0  0.00000000000E+00  0.00000000000E+00  0.74505805969E-08  0.10566000000E+00  0.10566000000E+00 0.  1.
     999900   -1    0    0    0    0 -0.00000000000E+00 -0.00000000000E+00 -0.74505805969E-08  0.93827000000E+00  0.93827000000E+00 0. -1.
     999902    2    1    2    0    0  0.86841609104E-02  0.17985593370E-01 -0.13530425486E-01  0.10198059739E+01  0.10195206010E+01 0.  0.
     999903    2    3    3    0    0 -0.19303603414E-01  0.12291397209E+00 -0.41444530095E-01  0.13269128189E+00  0.20220127950E-01 0.  0.
         14    1    1    2    0    0 -0.86841609104E-02 -0.17985593370E-01  0.13530425486E-01  0.24124026062E-01  0.00000000000E+00 0.  1.
     999901    1    3    3    0    0  0.27987764325E-01 -0.10492837872E+00  0.27914104609E-01  0.88711469205E+00  0.88000000000E+00 0.  1.
        -11    1    4    4    0    0 -0.63724869298E-02  0.24348062986E-01 -0.16818400182E-01  0.30274683591E-01  0.51100000000E-03 0. -1.
         11    1    4    4    0    0 -0.12931116485E-01  0.98565909107E-01 -0.24626129913E-01  0.10241659830E+00  0.51100000000E-03 0.  1.
</event>
<event>
 8    1  0.1071333E+005  0.1043930E+01  0.7957747E-01            NaN
         13   -1    0    0    0    0  0.00000000000E+00  0.00000000000E+00  0.74505805969E-08  0.10566000000E+00  0.10566000000E+00 0.  1.
     999900   -1    0    0    0    0 -0.00000000000E+00 -0.00000000000E+00 -0.74505805969E-08  0.93827000000E+00  0.93827000000E+00 0. -1.
     999902    2    1    2    0    0 -0.53031086833E-02  0.25212031148E-01 -0.41770314794E-02  0.10178298646E+01  0.10174951676E+01 0.  0.
     999903    2    3    3    0    0 -0.54293453969E-01  0.17289718235E-01  0.11353871878E+00  0.12860558758E+00  0.20041032773E-01 0.  0.
         14    1    1    2    0    0  0.53031086833E-02 -0.25212031148E-01  0.41770314794E-02  0.26100135407E-01  0.00000000000E+00 0.  1.
     999901    1    3    3    0    0  0.48990345285E-01  0.79223129125E-02 -0.11771575026E+00  0.88922427701E+00  0.88000000000E+00 0. -1.
        -11    1    4    4    0    0 -0.27956661349E-01  0.17395940141E-01  0.50547978523E-01  0.60328707105E-01  0.51100000000E-03 0.  1.
         11    1    4    4    0    0 -0.26336792620E-01 -0.10622190595E-03  0.62990740253E-01  0.68276880474E-01  0.51100000000E-03 0. -1.
</event>
<event>
 8    1  0.1071333E+005  0.1043930E+01  0.7957747E-01            NaN
         13   -1    0    0    0    0  0.00000000000E+00  0.00000000000E+00  0.74505805969E-08  0.10566000000E+00  0.10566000000E+00 0.  1.
     999900   -1    0    0    0    0 -0.00000000000E+00 -0.00000000000E+00 -0.74505805969E-08  0.93827000000E+00  0.93827000000E+00 0.  1.
     999902    2    1    2    0    0  0.62172193510E-02 -0.82360144417E-02 -0.20875622629E-01  0.10206431503E+01  0.10203774610E+01 0.  0.
     999903    2    3    3    0    0  0.61977778833E-01 -0.14797008035E-01  0.11062561406E+00  0.12910242664E+00  0.19214930720E-01 0.  0.
         14    1    1    2    0    0 -0.62172193510E-02  0.82360144417E-02  0.20875622629E-01  0.23286849733E-01  0.00000000000E+00 0.  1.
     999901    1    3    3    0    0 -0.55760559482E-01  0.65609935930E-02 -0.13150123669E+00  0.89154072362E+00  0.88000000000E+00 0.  1.
        -11    1    4    4    0    0  0.31968877355E-01 -0.99997718031E-02  0.39745705529E-01  0.51980638554E-01  0.51100000000E-03 0.  1.
         11    1    4    4    0    0  0.30008901478E-01 -0.47972362316E-02  0.70879908533E-01  0.77121788089E-01  0.51100000000E-03 0. -1.
</event>
<event>
 8    1  0.1071333E+005  0.1043930E+01  0.7957747E-01            NaN
         13   -1    0    0    0    0  0.00000000000E+00  0.00000000000E+00  0.74505805969E-08  0.10566000000E+00  0.10566000000E+00 0.  1.
     999900   -1    0    0    0    0 -0.00000000000E+00 -0.00000000000E+00 -0.74505805969E-08  0.93827000000E+00  0.93827000000E+00 0. -1.
     999902    2    1    2    0    0 -0.22849174701E-01  0.15222002625E-02  0.27904698620E-02  0.10208607867E+01  0.10206000967E+01 0.  0.
     999903    2    3    3    0    0 -0.34240130252E-01  0.12323946413E+00 -0.25282359821E-01  0.13196656921E+00  0.20386898574E-01 0.  0.
         14    1    1    2    0    0  0.22849174701E-01 -0.15222002625E-02 -0.27904698620E-02  0.23069213255E-01  0.00000000000E+00 0. -1.
     999901    1    3    3    0    0  0.11390955551E-01 -0.12171726387E+00  0.28072829683E-01  0.88889421753E+00  0.88000000000E+00 0. -1.
        -11    1    4    4    0    0 -0.14722976080E-01  0.34515600252E-01 -0.15470110691E-01  0.40591601732E-01  0.51100000000E-03 0. -1.
         11    1    4    4    0    0 -0.19517154172E-01  0.88723863879E-01 -0.98122491303E-02  0.91374967483E-01  0.51100000000E-03 0.  1.
</event>
<event>
 8    1  0.1071333E+005  0.1043930E+01  0.7957747E-01            NaN
         13   -1    0    0    0    0  0.00000000000E+00  0.00000000000E+00  0.74505805969E-08  0.10566000000E+00  0.10566000000E+00 0. -1.
     999900   -1    0    0    0    0 -0.00000000000E+00 -0.00000000000E+00 -0.74505805969E-08  0.93827000000E+00  0.93827000000E+00 0. -1.
     999902    2    1    2    0    0 -0.41141167134E-02  0.11708799566E-01 -0.21535985250E-01  0.10190740026E+01  0.10187708291E+01 0.  0.
     999903    2    3    3    0    0  0.83330192418E-01 -0.94952982351E-01  0.35060479693E-02  0.12797897609E+00  0.20157780734E-01 0.  0.
         14    1    1    2    0    0  0.41141167134E-02 -0.11708799566E-01  0.21535985250E-01  0.24855997351E-01  0.00000000000E+00 0. -1.
     999901    1    3    3    0    0 -0.87444309132E-01  0.10666178192E+00 -0.25042033220E-01  0.89109502655E+00  0.88000000000E+00 0.  1.
        -11    1    4    4    0    0  0.44847216792E-01 -0.43330642260E-01  0.10390029961E-01  0.63222078866E-01  0.51100000000E-03 0. -1.
         11    1    4    4    0    0  0.38482975627E-01 -0.51622340092E-01 -0.68839819919E-02  0.64756897229E-01  0.51100000000E-03 0.  1.
</event>
<event>
 8    1  0.1071333E+005  0.1043930E+01  0.7957747E-01            NaN
         13   -1    0    0    0    0  0.00000000000E+00  0.00000000000E+00  0.74505805969E-08  0.10566000000E+00  0.10566000000E+00 0.  1.
     999900   -1    0    0    0    0 -0.00000000000E+00 -0.00000000000E+00 -0.74505805969E-08  0.93827000000E+00  0.93827000000E+00 0.  1.
     999902    2    1    2    0    0 -0.80137830566E-02  0.50890628863E-02 -0.24907397311E-01  0.10172748369E+01  0.10169255607E+01 0.  0.
     999903    2    3    3    0    0 -0.55027459112E-01 -0.44618194844E-01  0.10203298080E+00  0.12553779223E+00  0.18171503522E-01 0.  0.
         14    1    1    2    0    0  0.80137830566E-02 -0.50890628863E-02  0.24907397311E-01  0.26655163117E-01  0.00000000000E+00 0.  1.
     999901    1    3    3    0    0  0.47013676055E-01  0.49707257731E-01 -0.12694037811E+00  0.89173704465E+00  0.88000000000E+00 0.  1.
        -11    1    4    4    0    0 -0.29048673020E-01 -0.33178405444E-01  0.70004390597E-01  0.82737584059E-01  0.51100000000E-03 0. -1.
         11    1    4    4    0    0 -0.25978786092E-01 -0.11439789400E-01  0.32028590203E-01  0.42800208174E-01  0.51100000000E-03 0.  1.
</event>
<event>
 8    1  0.1071333E+005  0.1043930E+01  0.7957747E-01            NaN
         13   -1    0    0    0    0  0.00000000000E+00  0.00000000000E+00  0.74505805969E-08  0.10566000000E+00  0.10566000000E+00 0.  1.
     999900   -1    0    0    0    0 -0.00000000000E+00 -0.00000000000E+00 -0.74505805969E-08  0.93827000000E+00  0.93827000000E+00 0. -1.
     999902    2    1    2    0    0  0.33095302120E-02  0.22550146249E-01 -0.28944487100E-02  0.10209552330E+01  0.10206966973E+01 0.  0.
     999903    2    3    3    0    0  0.49892345883E-01  0.85318441051E-01  0.87225689939E-01  0.13290599058E+00  0.16946940295E-01 0.  0.
         14    1    1    2    0    0 -0.33095302120E-02 -0.22550146249E-01  0.28944487100E-02  0.22974767015E-01  0.00000000000E+00 0. -1.
     999901    1    3    3    0    0 -0.46582815671E-01 -0.62768294803E-01 -0.90120138648E-01  0.88804924241E+00  0.88000000000E+00 0. -1.
        -11    1    4    4    0    0  0.22519726171E-01  0.54628871297E-01  0.53701604508E-01  0.79847198409E-01  0.51100000000E-03 0.  1.
         11    1    4    4    0    0  0.27372619712E-01  0.30689569755E-01  0.33524085430E-01  0.53058792170E-01  0.51100000000E-03 0. -1.
</event>
<event>
 8    1  0.1071333E+005  0.1043930E+01  0.7957747E-01            NaN
         13   -1    0    0    0    0  0.00000000000E+00  0.00000000000E+00  0.74505805969E-08  0.10566000000E+00  0.10566000000E+00 0. -1.
     999900   -1    0    0    0    0 -0.00000000000E+00 -0.00000000000E+00 -0.74505805969E-08  0.93827000000E+00  0.93827000000E+00 0. -1.
     999902    2    1    2    0    0  0.13015564913E-01 -0.64698925012E-02 -0.18731463126E-01  0.10202206738E+01  0.10199451412E+01 0.  0.
     999903    2    3    3    0    0  0.12845797969E+00  0.11442712220E-02  0.20160348274E-01  0.13179650728E+00  0.21473653294E-01 0.  0.
         14    1    1    2    0    0 -0.13015564913E-01  0.64698925012E-02  0.18731463126E-01  0.23709326220E-01  0.00000000000E+00 0. -1.
     999901    1    3    3    0    0 -0.11544241478E+00 -0.76141637232E-02 -0.38891811400E-01  0.88842416650E+00  0.88000000000E+00 0. -1.
        -11    1    4    4    0    0  0.93144324733E-01 -0.81699151649E-02  0.17903462453E-01  0.95201931874E-01  0.51100000000E-03 0. -1.
         11    1    4    4    0    0  0.35313654962E-01  0.93141863869E-02  0.22568858215E-02  0.36594575410E-01  0.51100000000E-03 0.  1.
</event>
<event>
 8    1  0.1071333E+005  0.1043930E+01  0.7957747E-01            NaN
         13   -1    0    0    0    0  0.00000000000E+00  0.00000000000E+00  0.74505805969E-08  0.10566000000E+00  0.10566000000E+00 0.  1.
     999900   -1    0    0    0    0 -0.00000000000E+00 -0.00000000000E+00 -0.74505805969E-08  0.93827000000E+00  0.93827000000E+00 0. -1.
     999902    2    1    2    0    0  0.21982991611E-02 -0.27625346695E-02 -0.23639947014E-01  0.10200278827E+01  0.10197477974E+01 0.  0.
     999903    2    3    3    0    0  0.85263252039E-01  0.88427251586E-01 -0.41787937025E-01  0.13123954284E+00  0.19707484685E-01 0.  0.
         14    1    1    2    0    0 -0.21982991611E-02  0.27625346695E-02  0.23639947014E-01  0.23902117309E-01  0.00000000000E+00 0.  1.
     999901    1    3    3    0    0 -0.83064952878E-01 -0.91189786256E-01  0.18147990011E-01  0.88878833985E+00  0.88000000000E+00 0.  1.
        -11    1    4    4    0    0  0.49054067494E-01  0.47367476084E-01 -0.33120516053E-01  0.75810349115E-01  0.51100000000E-03 0. -1.
         11    1    4    4    0    0  0.36209184545E-01  0.41059775502E-01 -0.86674209721E-02  0.55429193725E-01  0.51100000000E-03 0.  1.
</event>
<event>
 7    1  0.1071333E+005  0.1043930E+01  0.7957747E-01            NaN
         13   -1    0    0    0    0  0.00000000000E+00  0.00000000000E+00  0.74505805969E-08  0.10566000000E+00  0.10566000000E+00 0.  1.
     999900   -1    0    0    0    0 -0.00000000000E+00 -0.00000000000E+00 -0.74505805969E-08  0.93827000000E+00  0.93827000000E+00 0.  1.
     999903    2    1    2    0    0 -0.47580463567E-02  0.63419415272E-01 -0.22850459704E-01  0.70424881609E-01  0.19820676132E-01 0.  0.
         14    1    1    2    0    0  0.53141472722E-01 -0.49624799152E-01  0.55488988895E-01  0.91464007689E-01  0.00000000000E+00 0.  1.
     999901    1    1    2    0    0 -0.48383426365E-01 -0.13794616121E-01 -0.32638529191E-01  0.88204111070E+00  0.88000000000E+00 0.  1.
        -11    1    3    3    0    0 -0.51254544932E-02  0.33624262866E-01 -0.20426537343E-02  0.34077777103E-01  0.51100000000E-03 0. -1.
         11    1    3    3    0    0  0.36740813647E-03  0.29795152407E-01 -0.20807805970E-01  0.36347104506E-01  0.51100000000E-03 0.  1.
</event>
<event>
 8    1  0.1071333E+005  0.1043930E+01  0.7957747E-01            NaN
         13   -1    0    0    0    0  0.00000000000E+00  0.00000000000E+00  0.74505805969E-08  0.10566000000E+00  0.10566000000E+00 0. -1.
     999900   -1    0    0    0    0 -0.00000000000E+00 -0.00000000000E+00 -0.74505805969E-08  0.93827000000E+00  0.93827000000E+00 0.  1.
     999902    2    1    2    0    0  0.94787177496E-02  0.18017756082E-01 -0.11716258719E-01  0.10204405057E+01  0.10201701178E+01 0.  0.
     999903    2    3    3    0    0  0.79316260210E-02  0.11801348525E+00  0.57166528822E-01  0.13210139377E+00  0.13880663763E-01 0.  0.
         14    1    1    2    0    0 -0.94787177496E-02 -0.18017756082E-01  0.11716258719E-01  0.23489494307E-01  0.00000000000E+00 0. -1.
     999901    1    3    3    0    0  0.15470917286E-02 -0.99995729172E-01 -0.68882787541E-01  0.88833911192E+00  0.88000000000E+00 0. -1.
        -11    1    4    4    0    0  0.31735317398E-02  0.83269448142E-01  0.33618249510E-01  0.89857220737E-01  0.51100000000E-03 0.  1.
         11    1    4    4    0    0  0.47580942812E-02  0.34744037112E-01  0.23548279312E-01  0.42244173037E-01  0.51100000000E-03 0. -1.
</event>
<event>
 8    1  0.1071333E+005  0.1043930E+01  0.7957747E-01            NaN
         13   -1    0    0    0    0  0.00000000000E+00  0.00000000000E+00  0.74505805969E-08  0.10566000000E+00  0.10566000000E+00 0.  1.
     999900   -1    0    0    0    0 -0.00000000000E+00 -0.00000000000E+00 -0.74505805969E-08  0.93827000000E+00  0.93827000000E+00 0. -1.
     999902    2    1    2    0    0 -0.18324809122E-01 -0.31646280689E-01  0.30696302957E-04  0.10073610698E+01  0.10066970937E+01 0.  0.
     999903    2    3    3    0    0 -0.22061646064E-01  0.10533407459E+00 -0.38446183801E-01  0.11592512038E+00  0.19456129887E-01 0.  0.
         14    1    1    2    0    0  0.18324809122E-01  0.31646280689E-01 -0.30696302957E-04  0.36568930160E-01  0.00000000000E+00 0. -1.
     999901    1    3    3    0    0  0.37368369420E-02 -0.13698035528E+00  0.38476880104E-01  0.89143594946E+00  0.88000000000E+00 0.  1.
        -11    1    4    4    0    0 -0.13583829115E-02  0.38648890136E-01 -0.20749482625E-01  0.43890591965E-01  0.51100000000E-03 0. -1.
         11    1    4    4    0    0 -0.20703263152E-01  0.66685184453E-01 -0.17696701176E-01  0.72034528417E-01  0.51100000000E-03 0.  1.
</event>
<event>
 8    1  0.1071333E+005  0.1043930E+01  0.7957747E-01            NaN
         13   -1    0    0    0    0  0.00000000000E+00  0.00000000000E+00  0.74505805969E-08  0.10566000000E+00  0.10566000000E+00 0.  1.
     999900   -1    0    0    0    0 -0.00000000000E+00 -0.00000000000E+00 -0.74505805969E-08  0.93827000000E+00  0.93827000000E+00 0.  1.
     999902    2    1    2    0    0 -0.13744573071E-01  0.97061927064E-02 -0.16947236635E-01  0.10200483691E+01  0.10197687694E+01 0.  0.
     999903    2    3    3    0    0 -0.62701910277E-01  0.10181673273E+00 -0.54549445358E-01  0.13309002815E+00  0.20955595636E-01 0.  0.
         14    1    1    2    0    0  0.13744573071E-01 -0.97061927064E-02  0.16947236635E-01  0.23881630919E-01  0.00000000000E+00 0.  1.
     999901    1    3    3    0    0  0.48957337206E-01 -0.92110540019E-01  0.37602208723E-01  0.88695834093E+00  0.88000000000E+00 0. -1.
        -11    1    4    4    0    0 -0.52173977404E-01  0.93987953732E-01 -0.43640898340E-01  0.11602003488E+00  0.51100000000E-03 0. -1.
         11    1    4    4    0    0 -0.10527932873E-01  0.78287789937E-02 -0.10908547019E-01  0.17069993268E-01  0.51100000000E-03 0.  1.
</event>
<event>
 8    1  0.1071333E+005  0.1043930E+01  0.7957747E-01            NaN
         13   -1    0    0    0    0  0.00000000000E+00  0.00000000000E+00  0.74505805969E-08  0.10566000000E+00  0.10566000000E+00 0.  1.
     999900   -1    0    0    0    0 -0.00000000000E+00 -0.00000000000E+00 -0.74505805969E-08  0.93827000000E+00  0.93827000000E+00 0. -1.
     999902    2    1    2    0    0  0.18602277303E-01  0.91623330089E-02  0.12211534697E-01  0.10198651990E+01  0.10195812422E+01 0.  0.
     999903    2    3    3    0    0  0.10028994898E+00  0.49195616002E-01 -0.66192145949E-01  0.13170830038E+00  0.22076994846E-01 0.  0.
         14    1    1    2    0    0 -0.18602277303E-01 -0.91623330089E-02 -0.12211534697E-01  0.24064800990E-01  0.00000000000E+00 0. -1.
     999901    1    3    3    0    0 -0.81687671681E-01 -0.40033282993E-01  0.78403680646E-01  0.88815689863E+00  0.88000000000E+00 0.  1.
        -11    1    4    4    0    0  0.69227214193E-02  0.73197897856E-02 -0.12768749250E-01  0.16272844642E-01  0.51100000000E-03 0. -1.
         11    1    4    4    0    0  0.93367227565E-01  0.41875826217E-01 -0.53423396699E-01  0.11543545573E+00  0.51100000000E-03 0.  1.
</event>
<event>
 8    1  0.1071333E+005  0.1043930E+01  0.7957747E-01            NaN
         13   -1    0    0    0    0  0.00000000000E+00  0.00000000000E+00  0.74505805969E-08  0.10566000000E+00  0.10566000000E+00 0. -1.
     999900   -1    0    0    0    0 -0.00000000000E+00 -0.00000000000E+00 -0.74505805969E-08  0.93827000000E+00  0.93827000000E+00 0. -1.
     999902    2    1    2    0    0  0.20840021588E-01  0.89315374743E-02 -0.63123768354E-02  0.10203943895E+01  0.10201229265E+01 0.  0.
     999903    2    3    3    0    0  0.20804794961E-01  0.10834711885E+00 -0.70726936765E-01  0.13245706365E+00  0.19251921241E-01 0.  0.
         14    1    1    2    0    0 -0.20840021588E-01 -0.89315374743E-02  0.63123768354E-02  0.23535610524E-01  0.00000000000E+00 0. -1.
     999901    1    3    3    0    0  0.35226626949E-04 -0.99415581372E-01  0.64414559930E-01  0.88793732582E+00  0.88000000000E+00 0.  1.
        -11    1    4    4    0    0  0.32905962461E-03  0.35987963580E-01 -0.15676602866E-01  0.39258869078E-01  0.51100000000E-03 0.  1.
         11    1    4    4    0    0  0.20475735336E-01  0.72359155266E-01 -0.55050333899E-01  0.93198194574E-01  0.51100000000E-03 0. -1.
</event>
<event>
 8    1  0.1071333E+005  0.1043930E+01  0.7957747E-01            NaN
         13   -1    0    0    0    0  0.00000000000E+00  0.00000000000E+00  0.74505805969E-08  0.10566000000E+00  0.10566000000E+00 0. -1.
     999900   -1    0    0    0    0 -0.00000000000E+00 -0.00000000000E+00 -0.74505805969E-08  0.93827000000E+00  0.93827000000E+00 0.  1.
     999902    2    1    2    0    0 -0.12487228894E-01  0.89573817186E-02 -0.19244381794E-01  0.10193025396E+01  0.10190049831E+01 0.  0.
     999903    2    3    3    0    0  0.18452033279E-01  0.99242192432E-01  0.77404325043E-01  0.12888153949E+00  0.20725139210E-01 0.  0.
         14    1    1    2    0    0  0.12487228894E-01 -0.89573817186E-02  0.19244381794E-01  0.24627460351E-01  0.00000000000E+00 0. -1.
     999901    1    3    3    0    0 -0.30939262173E-01 -0.90284810713E-01 -0.96648706838E-01  0.89042100016E+00  0.88000000000E+00 0.  1.
        -11    1    4    4    0    0  0.21453703006E-01  0.81922366890E-01  0.69706970652E-01  0.10968526997E+00  0.51100000000E-03 0. -1.
         11    1    4    4    0    0 -0.30016697273E-02  0.17319825542E-01  0.76973543912E-02  0.19196269522E-01  0.51100000000E-03 0.  1.
</event>
<event>
 8    1  0.1071333E+005  0.1043930E+01  0.7957747E-01            NaN
         13   -1    0    0    0    0  0.00000000000E+00  0.00000000000E+00  0.74505805969E-08  0.10566000000E+00  0.10566000000E+00 0. -1.
     999900   -1    0    0    0    0 -0.00000000000E+00 -0.00000000000E+00 -0.74505805969E-08  0.93827000000E+00  0.93827000000E+00 0. -1.
     999902    2    1    2    0    0 -0.18844184624E-01  0.89842664699E-02  0.10982937209E-01  0.10203409083E+01  0.10200681957E+01 0.  0.
     999903    2    3    3    0    0 -0.10879874360E+00 -0.25119115529E-01 -0.66751410917E-01  0.13169165677E+00  0.20464726475E-01 0.  0.
         14    1    1    2    0    0  0.18844184624E-01 -0.89842664699E-02 -0.10982937209E-01  0.23589091714E-01  0.00000000000E+00 0.  1.
     999901    1    3    3    0    0  0.89954558973E-01  0.34103381999E-01  0.77734348126E-01  0.88864925152E+00  0.88000000000E+00 0.  1.
        -11    1    4    4    0    0 -0.50335916734E-01 -0.47148887424E-02 -0.38906671497E-01  0.63795963017E-01  0.51100000000E-03 0. -1.
         11    1    4    4    0    0 -0.58462826864E-01 -0.20404226787E-01 -0.27844739420E-01  0.67895693752E-01  0.51100000000E-03 0.  1.
</event>
<event>
 8    1  0.1071333E+005  0.1043930E+01  0.7957747E-01            NaN
         13   -1    0    0    0    0  0.00000000000E+00  0.00000000000E+00  0.74505805969E-08  0.10566000000E+00  0.10566000000E+00 0. -1.
     999900   -1    0    0    0    0 -0.00000000000E+00 -0.00000000000E+00 -0.74505805969E-08  0.93827000000E+00  0.93827000000E+00 0.  1.
     999902    2    1    2    0    0  0.22193864796E-01 -0.63670079137E-02 -0.46295676470E-02  0.10203813414E+01  0.10201095738E+01 0.  0.
     999903    2    3    3    0    0 -0.91537555690E-01 -0.82941665705E-01 -0.32919983522E-01  0.12931520366E+00  0.19500065953E-01 0.  0.
         14    1    1    2    0    0 -0.22193864796E-01  0.63670079137E-02  0.46295676470E-02  0.23548658581E-01  0.00000000000E+00 0. -1.
     999901    1    3    3    0    0  0.11373142049E+00  0.76574657791E-01  0.28290415875E-01  0.89106613775E+00  0.88000000000E+00 0.  1.
        -11    1    4    4    0    0 -0.51492777142E-01 -0.39012255553E-01 -0.25311522924E-01  0.69385852267E-01  0.51100000000E-03 0. -1.
         11    1    4    4    0    0 -0.40044778548E-01 -0.43929410152E-01 -0.76084605983E-02  0.59929351398E-01  0.51100000000E-03 0.  1.
</event>
<event>
 8    1  0.1071333E+005  0.1043930E+01  0.7957747E-01            NaN
         13   -1    0    0    0    0  0.00000000000E+00  0.00000000000E+00  0.74505805969E-08  0.10566000000E+00  0.10566000000E+00 0. -1.
     999900   -1    0    0    0    0 -0.00000000000E+00 -0.00000000000E+00 -0.74505805969E-08  0.93827000000E+00  0.93827000000E+00 0. -1.
     999902    2    1    2    0    0 -0.68625608435E-02  0.21433409260E-01 -0.46943081170E-02  0.10209403871E+01  0.10206815133E+01 0.  0.
     999903    2    3    3    0    0  0.38669494825E-01  0.92796756371E-01 -0.85147098979E-01  0.13322503463E+00  0.19806906994E-01 0.  0.
         14    1    1    2    0    0  0.68625608435E-02 -0.21433409260E-01  0.46943081170E-02  0.22989612927E-01  0.00000000000E+00 0. -1.
     999901    1    3    3    0    0 -0.45532055668E-01 -0.71363347111E-01  0.80452790862E-01  0.88771535244E+00  0.88000000000E+00 0.  1.
        -11    1    4    4    0    0  0.39837454854E-01  0.86229654793E-01 -0.74803090789E-01  0.12090632609E+00  0.51100000000E-03 0.  1.
         11    1    4    4    0    0 -0.11679600297E-02  0.65671015785E-02 -0.10344008190E-01  0.12318708544E-01  0.51100000000E-03 0. -1.
</event>
<event>
 8    1  0.1071333E+005  0.1043930E+01  0.7957747E-01            NaN
         13   -1    0    0    0    0  0.00000000000E+00  0.00000000000E+00  0.74505805969E-08  0.10566000000E+00  0.10566000000E+00 0.  1.
     999900   -1    0    0    0    0 -0.00000000000E+00 -0.00000000000E+00 -0.74505805969E-08  0.93827000000E+00  0.93827000000E+00 0.  1.
     999902    2    1    2    0    0 -0.45620473066E-02  0.10094941730E-01 -0.20864778262E-01  0.10203067255E+01  0.10200332127E+01 0.  0.
     999903    2    3    3    0    0 -0.10606614271E-02 -0.12543788278E+00 -0.88673907741E-02  0.12984317012E+00  0.32323842103E-01 0.  0.
         14    1    1    2    0    0  0.45620473066E-02 -0.10094941730E-01  0.20864778262E-01  0.23623274457E-01  0.00000000000E+00 0.  1.
     999901    1    3    3    0    0 -0.35013858795E-02  0.13553282452E+00 -0.11997387487E-01  0.89046355542E+00  0.88000000000E+00 0.  1.
        -11    1    4    4    0    0 -0.47800903758E-02 -0.97424981769E-01  0.63380170070E-02  0.97749209292E-01  0.51100000000E-03 0.  1.
         11    1    4    4    0    0  0.37194289487E-02 -0.28012901016E-01 -0.15205407781E-01  0.32093960831E-01  0.51100000000E-03 0. -1.
</event>
<event>
 8    1  0.1071333E+005  0.1043930E+01  0.7957747E-01            NaN
         13   -1    0    0    0    0  0.00000000000E+00  0.00000000000E+00  0.74505805969E-08  0.10566000000E+00  0.10566000000E+00 0.  1.
     999900   -1    0    0    0    0 -0.00000000000E+00 -0.00000000000E+00 -0.74505805969E-08  0.93827000000E+00  0.93827000000E+00 0. -1.
     999902    2    1    2    0    0  0.22055213569E-01 -0.93082156088E-02  0.98885488922E-03  0.10199705936E+01  0.10196891480E+01 0.  0.
     999903    2    3    3    0    0 -0.27969378299E-01  0.11454181390E+00 -0.47234819640E-01  0.12858582120E+00  0.20026781397E-01 0.  0.
         14    1    1    2    0    0 -0.22055213569E-01  0.93082156088E-02 -0.98885488922E-03  0.23959406449E-01  0.00000000000E+00 0.  1.
     999901    1    3    3    0    0  0.50024591868E-01 -0.12385002951E+00  0.48223674530E-01  0.89138477235E+00  0.88000000000E+00 0. -1.
        -11    1    4    4    0    0 -0.16949343042E-01  0.99230483826E-01 -0.38336002409E-01  0.10772130408E+00  0.51100000000E-03 0. -1.
         11    1    4    4    0    0 -0.11020035257E-01  0.15311330071E-01 -0.88988172309E-02  0.20864517121E-01  0.51100000000E-03 0.  1.
</event>
<event>
 8    1  0.1071333E+005  0.1043930E+01  0.7957747E-01            NaN
         13   -1    0    0    0    0  0.00000000000E+00  0.00000000000E+00  0.74505805969E-08  0.10566000000E+00  0.10566000000E+00 0.  1.
     999900   -1    0    0    0    0 -0.00000000000E+00 -0.00000000000E+00 -0.74505805969E-08  0.93827000000E+00  0.93827000000E+00 0.  1.
     999902    2    1    2    0    0 -0.92649640594E-02 -0.54885629959E-02 -0.21116688213E-01  0.10202260256E+01  0.10199506188E+01 0.  0.
     999903    2    3    3    0    0 -0.11280457628E+00  0.62933932762E-01 -0.14389415209E-01  0.13149246289E+00  0.19941419340E-01 0.  0.
         14    1    1    2    0    0  0.92649640594E-02  0.54885629959E-02  0.21116688213E-01  0.23703974432E-01  0.00000000000E+00 0.  1.
     999901    1    3    3    0    0  0.10353961222E+00 -0.68422495758E-01 -0.67272730036E-02  0.88873356268E+00  0.88000000000E+00 0.  1.
        -11    1    4    4    0    0 -0.82186714953E-01  0.35422467916E-01 -0.11375877730E-01  0.90216844675E-01  0.51100000000E-03 0. -1.
         11    1    4    4    0    0 -0.30617861325E-01  0.27511464845E-01 -0.30135374790E-02  0.41275618217E-01  0.51100000000E-03 0.  1.
</event>
<event>
 8    1  0.1071333E+005  0.1043930E+01  0.7957747E-01            NaN
         13   -1    0    0    0    0  0.00000000000E+00  0.00000000000E+00  0.74505805969E-08  0.10566000000E+00  0.10566000000E+00 0.  1.
     999900   -1    0    0    0    0 -0.00000000000E+00 -0.00000000000E+00 -0.74505805969E-08  0.93827000000E+00  0.93827000000E+00 0. -1.
     999902    2    1    2    0    0  0.11932420031E-01  0.11792040055E-01 -0.16188779852E-01  0.10206166680E+01  0.10203503670E+01 0.  0.
     999903    2    3    3    0    0 -0.11302461039E+00 -0.53063235830E-01  0.24142555235E-01  0.12851404897E+00  0.18512921443E-01 0.  0.
         14    1    1    2    0    0 -0.11932420031E-01 -0.11792040055E-01  0.16188779852E-01  0.23313332013E-01  0.00000000000E+00 0. -1.
     999901    1    3    3    0    0  0.12495703042E+00  0.64855275885E-01 -0.40331335087E-01  0.89210261901E+00  0.88000000000E+00 0. -1.
        -11    1    4    4    0    0 -0.36283277506E-01 -0.85696830164E-02  0.10723224325E-01  0.38796447705E-01  0.51100000000E-03 0. -1.
         11    1    4    4    0    0 -0.76741332881E-01 -0.44493552813E-01  0.13419330910E-01  0.89717601268E-01  0.51100000000E-03 0.  1.
</event>
<event>
 8    1  0.1071333E+005  0.1043930E+01  0.7957747E-01            NaN
         13   -1    0    0    0    0  0.00000000000E+00  0.00000000000E+00  0.74505805969E-08  0.10566000000E+00  0.10566000000E+00 0. -1.
     999900   -1    0    0    0    0 -0.00000000000E+00 -0.00000000000E+00 -0.74505805969E-08  0.93827000000E+00  0.93827000000E+00 0.  1.
     999902    2    1    2    0    0 -0.72804961356E-02 -0.21390567723E-02 -0.22651882585E-01  0.10200409026E+01  0.10197611260E+01 0.  0.
     999903    2    3    3    0    0  0.42242979631E-01  0.10563496605E+00 -0.62317090826E-01  0.13119831625E+00  0.19656118537E-01 0.  0.
         14    1    1    2    0    0  0.72804961356E-02  0.21390567723E-02  0.22651882585E-01  0.23889097357E-01  0.00000000000E+00 0. -1.
     999901    1    3    3    0    0 -0.49523475767E-01 -0.10777402282E+00  0.39665208241E-01  0.88884258640E+00  0.88000000000E+00 0.  1.
        -11    1    4    4    0    0  0.16380771915E-01  0.66860540558E-01 -0.37630261544E-01  0.78453548531E-01  0.51100000000E-03 0.  1.
         11    1    4    4    0    0  0.25862207717E-01  0.38774425494E-01 -0.24686829282E-01  0.52744767716E-01  0.51100000000E-03 0. -1.
</event>
<event>
 8    1  0.1071333E+005  0.1043930E+01  0.7957747E-01            NaN
         13   -1    0    0    0    0  0.00000000000E+00  0.00000000000E+00  0.74505805969E-08  0.10566000000E+00  0.10566000000E+00 0.  1.
     999900   -1    0    0    0    0 -0.00000000000E+00 -0.00000000000E+00 -0.74505805969E-08  0.93827000000E+00  0.93827000000E+00 0.  1.
     999902    2    1    2    0    0  0.13897043474E-01 -0.10376135533E-01  0.14712196601E-01  0.10211870729E+01  0.10209337868E+01 0.  0.
     999903    2    3    3    0    0  0.41421118057E-01 -0.14147776293E-01  0.12494264874E+00  0.13387509135E+00  0.19899899868E-01 0.  0.
         14    1    1    2    0    0 -0.13897043474E-01  0.10376135533E-01 -0.14712196601E-01  0.22742927136E-01  0.00000000000E+00 0. -1.
     999901    1    3    3    0    0 -0.27524074583E-01  0.37716407599E-02 -0.11023045214E+00  0.88731198151E+00  0.88000000000E+00 0.  1.
        -11    1    4    4    0    0  0.65239867726E-02 -0.49196740575E-02  0.78445494443E-02  0.11338592206E-01  0.51100000000E-03 0.  1.
         11    1    4    4    0    0  0.34897131285E-01 -0.92281022353E-02  0.11709809930E+00  0.12253649915E+00  0.51100000000E-03 0. -1.
</event>
<event>
 8    1  0.1071333E+005  0.1043930E+01  0.7957747E-01            NaN
         13   -1    0    0    0    0  0.00000000000E+00  0.00000000000E+00  0.74505805969E-08  0.10566000000E+00  0.10566000000E+00 0. -1.
     999900   -1    0    0    0    0 -0.00000000000E+00 -0.00000000000E+00 -0.74505805969E-08  0.93827000000E+00  0.93827000000E+00 0. -1.
     999902    2    1    2    0    0  0.14065937291E-01 -0.10229191266E-01  0.16532766132E-01  0.10199337648E+01  0.10196514431E+01 0.  0.
     999903    2    3    3    0    0 -0.77322962827E-01  0.98035153712E-01  0.23385500317E-01  0.12857521778E+00  0.19873929093E-01 0.  0.
         14    1    1    2    0    0 -0.14065937291E-01  0.10229191266E-01 -0.16532766132E-01  0.23996235159E-01  0.00000000000E+00 0.  1.
     999901    1    3    3    0    0  0.91388900118E-01 -0.10826434498E+00 -0.68527341850E-02  0.89135854706E+00  0.88000000000E+00 0. -1.
        -11    1    4    4    0    0 -0.49657348188E-02  0.40659923724E-02  0.58242409379E-02  0.86818039465E-02  0.51100000000E-03 0. -1.
         11    1    4    4    0    0 -0.72357228008E-01  0.93969161340E-01  0.17561259379E-01  0.11989341383E+00  0.51100000000E-03 0.  1.
</event>
<event>
 8    1  0.1071333E+005  0.1043930E+01  0.7957747E-01            NaN
         13   -1    0    0    0    0  0.00000000000E+00  0.00000000000E+00  0.74505805969E-08  0.10566000000E+00  0.10566000000E+00 0. -1.
     999900   -1    0    0    0    0 -0.00000000000E+00 -0.00000000000E+00 -0.74505805969E-08  0.93827000000E+00  0.93827000000E+00 0. -1.
     999902    2    1    2    0    0  0.22822057219E-01  0.10498685298E-01  0.86057688773E-02  0.10173757546E+01  0.10170291531E+01 0.  0.
     999903    2    3    3    0    0 -0.23306436911E-01 -0.46024376927E-01 -0.11323774157E+00  0.12599001571E+00  0.19729791435E-01 0.  0.
         14    1    1    2    0    0 -0.22822057219E-01 -0.10498685298E-01 -0.86057688773E-02  0.26554245361E-01  0.00000000000E+00 0.  1.
     999901    1    3    3    0    0  0.46128494130E-01  0.56523062225E-01  0.12184351044E+00  0.89138573893E+00  0.88000000000E+00 0.  1.
        -11    1    4    4    0    0 -0.18642708332E-01 -0.46867076955E-01 -0.10448400310E+00  0.11602259048E+00  0.51100000000E-03 0.  1.
         11    1    4    4    0    0 -0.46637285791E-02  0.84270002770E-03 -0.87537384615E-02  0.99674252267E-02  0.51100000000E-03 0. -1.
</event>
<event>
 8    1  0.1071333E+005  0.1043930E+01  0.7957747E-01            NaN
         13   -1    0    0    0    0  0.00000000000E+00  0.00000000000E+00  0.74505805969E-08  0.10566000000E+00  0.10566000000E+00 0. -1.
     999900   -1    0    0    0    0 -0.00000000000E+00 -0.00000000000E+00 -0.74505805969E-08  0.93827000000E+00  0.93827000000E+00 0. -1.
     999902    2    1    2    0    0 -0.12776517900E-01 -0.76811931601E-02  0.17391411191E-01  0.10210236402E+01  0.10207666592E+01 0.  0.
     999903    2    3    3    0    0 -0.13852569579E-02 -0.36392076885E-01 -0.12256621575E+00  0.12942832107E+00  0.20072639463E-01 0.  0.
         14    1    1    2    0    0  0.12776517900E-01  0.76811931601E-02 -0.17391411191E-01  0.22906359843E-01  0.00000000000E+00 0.  1.
     999901    1    3    3    0    0 -0.11391260943E-01  0.28710883725E-01  0.13995762695E+00  0.89159531908E+00  0.88000000000E+00 0.  1.
        -11    1    4    4    0    0 -0.96844291603E-02 -0.26137226674E-01 -0.92040956563E-01  0.96170377936E-01  0.51100000000E-03 0. -1.
         11    1    4    4    0    0  0.82991722023E-02 -0.10254850211E-01 -0.30525259191E-01  0.33257943138E-01  0.51100000000E-03 0.  1.
</event>
<event>
 8    1  0.1071333E+005  0.1043930E+01  0.7957747E-01            NaN
         13   -1    0    0    0    0  0.00000000000E+00  0.00000000000E+00  0.74505805969E-08  0.10566000000E+00  0.10566000000E+00 0.  1.
     999900   -1    0    0    0    0 -0.00000000000E+00 -0.00000000000E+00 -0.74505805969E-08  0.93827000000E+00  0.93827000000E+00 0. -1.
     999902    2    1    2    0    0  0.12398738785E-01  0.12590200901E-01 -0.15266284154E-01  0.10205783124E+01  0.10203111243E+01 0.  0.
     999903    2    3    3    0    0 -0.52773884139E-01  0.30971956953E-01  0.11185925768E+00  0.12886857087E+00  0.18715503368E-01 0.  0.
         14    1    1    2    0    0 -0.12398738785E-01 -0.12590200901E-01  0.15266284154E-01  0.23351687606E-01  0.00000000000E+00 0. -1.
     999901    1    3    3    0    0  0.65172622924E-01 -0.18381756053E-01 -0.12712554183E+00  0.89170974152E+00  0.88000000000E+00 0. -1.
        -11    1    4    4    0    0 -0.34630717616E-01  0.10228454422E-01  0.57060842895E-01  0.67528577620E-01  0.51100000000E-03 0. -1.
         11    1    4    4    0    0 -0.18143166522E-01  0.20743502531E-01  0.54798414783E-01  0.61339993254E-01  0.51100000000E-03 0.  1.
</event>
<event>
 8    1  0.1071333E+005  0.1043930E+01  0.7957747E-01            NaN
         13   -1    0    0    0    0  0.00000000000E+00  0.00000000000E+00  0.74505805969E-08  0.10566000000E+00  0.10566000000E+00 0. -1.
     999900   -1    0    0    0    0 -0.00000000000E+00 -0.00000000000E+00 -0.74505805969E-08  0.93827000000E+00  0.93827000000E+00 0. -1.
     999902    2    1    2    0    0 -0.94529502697E-02 -0.22348249854E-01 -0.30780571303E-02  0.10194702989E+01  0.10191768313E+01 0.  0.
     999903    2    3    3    0    0  0.10058536512E+00  0.68360335798E-01  0.35181888948E-01  0.12716973196E+00  0.11992673964E-01 0.  0.
         14    1    1    2    0    0  0.94529502697E-02  0.22348249854E-01  0.30780571303E-02  0.24459701061E-01  0.00000000000E+00 0. -1.
     999901    1    3    3    0    0 -0.11003831539E+00 -0.90708585652E-01 -0.38259946079E-01  0.89230056698E+00  0.88000000000E+00 0. -1.
        -11    1    4    4    0    0  0.50958100365E-01  0.38352585613E-01  0.13099436462E-01  0.65111482649E-01  0.51100000000E-03 0. -1.
         11    1    4    4    0    0  0.49627264755E-01  0.30007750185E-01  0.22082452487E-01  0.62058249307E-01  0.51100000000E-03 0.  1.
</event>
<event>
 8    1  0.1071333E+005  0.1043930E+01  0.7957747E-01            NaN
         13   -1    0    0    0    0  0.00000000000E+00  0.00000000000E+00  0.74505805969E-08  0.10566000000E+00  0.10566000000E+00 0.  1.
     999900   -1    0    0    0    0 -0.00000000000E+00 -0.00000000000E+00 -0.74505805969E-08  0.93827000000E+00  0.93827000000E+00 0. -1.
     999902    2    1    2    0    0  0.38104484203E-02  0.30339331804E-01  0.51710008661E-02  0.10129181664E+01  0.10124433209E+01 0.  0.
     999903    2    3    3    0    0  0.29694144975E-01  0.11641183180E+00  0.38603339024E-01  0.12770849509E+00  0.19641412986E-01 0.  0.
         14    1    1    2    0    0 -0.38104484203E-02 -0.30339331804E-01 -0.51710008661E-02  0.31011833571E-01  0.00000000000E+00 0.  1.
     999901    1    3    3    0    0 -0.25883696554E-01 -0.86072499998E-01 -0.33432338158E-01  0.88520967134E+00  0.88000000000E+00 0. -1.
        -11    1    4    4    0    0  0.10358476938E-01  0.30886717669E-01  0.18548216364E-02  0.32634167021E-01  0.51100000000E-03 0. -1.
         11    1    4    4    0    0  0.19335668036E-01  0.85525114133E-01  0.36748517388E-01  0.95074328066E-01  0.51100000000E-03 0.  1.
</event>
<event>
 8    1  0.1071333E+005  0.1043930E+01  0.7957747E-01            NaN
         13   -1    0    0    0    0  0.00000000000E+00  0.00000000000E+00  0.74505805969E-08  0.10566000000E+00  0.10566000000E+00 0. -1.
     999900   -1    0    0    0    0 -0.00000000000E+00 -0.00000000000E+00 -0.74505805969E-08  0.93827000000E+00  0.93827000000E+00 0.  1.
     999902    2    1    2    0    0 -0.19466702981E-01 -0.11210011652E-01  0.82140920389E-02  0.10200116348E+01  0.10197311640E+01 0.  0.
     999903    2    3    3    0    0 -0.65392404790E-01  0.92199156727E-01  0.63161065292E-01  0.13106743178E+00  0.20310105866E-01 0.  0.
         14    1    1    2    0    0  0.19466702981E-01  0.11210011652E-01 -0.82140920389E-02  0.23918365208E-01  0.00000000000E+00 0. -1.
     999901    1    3    3    0    0  0.45925701809E-01 -0.10340916838E+00 -0.54946973253E-01  0.88894420301E+00  0.88000000000E+00 0.  1.
        -11    1    4    4    0    0 -0.41755596928E-01  0.51149126908E-01  0.46864815494E-01  0.80971199265E-01  0.51100000000E-03 0.  1.
         11    1    4    4    0    0 -0.23636807862E-01  0.41050029820E-01  0.16296249798E-01  0.50096232519E-01  0.51100000000E-03 0. -1.
</event>
<event>
 8    1  0.1071333E+005  0.1043930E+01  0.7957747E-01            NaN
         13   -1    0    0    0    0  0.00000000000E+00  0.00000000000E+00  0.74505805969E-08  0.10566000000E+00  0.10566000000E+00 0.  1.
     999900   -1    0    0    0    0 -0.00000000000E+00 -0.00000000000E+00 -0.74505805969E-08  0.93827000000E+00  0.93827000000E+00 0.  1.
     999902    2    1    2    0    0  0.80337774330E-02 -0.17699630591E-01  0.15861258097E-01  0.10188421940E+01  0.10185332681E+01 0.  0.
     999903    2    3    3    0    0 -0.63326845049E-01  0.85173152937E-01 -0.65500117561E-01  0.12626456627E+00  0.19690607119E-01 0.  0.
         14    1    1    2    0    0 -0.80337774330E-02  0.17699630591E-01 -0.15861258097E-01  0.25087806028E-01  0.00000000000E+00 0. -1.
     999901    1    3    3    0    0  0.71360622482E-01 -0.10287278353E+00  0.81361375658E-01  0.89257762771E+00  0.88000000000E+00 0.  1.
        -11    1    4    4    0    0 -0.74985882169E-02  0.21837794361E-01 -0.96270158594E-02  0.25021163905E-01  0.51100000000E-03 0.  1.
         11    1    4    4    0    0 -0.55828256832E-01  0.63335358576E-01 -0.55873101702E-01  0.10124340236E+00  0.51100000000E-03 0. -1.
</event>
<event>
 8    1  0.1071333E+005  0.1043930E+01  0.7957747E-01            NaN
         13   -1    0    0    0    0  0.00000000000E+00  0.00000000000E+00  0.74505805969E-08  0.10566000000E+00  0.10566000000E+00 0.  1.
     999900   -1    0    0    0    0 -0.00000000000E+00 -0.00000000000E+00 -0.74505805969E-08  0.93827000000E+00  0.93827000000E+00 0.  1.
     999902    2    1    2    0    0 -0.10943397007E-01  0.10767480332E-01 -0.18195813833E-01  0.10201227698E+01  0.10198449300E+01 0.  0.
     999903    2    3    3    0    0  0.69163521436E-03 -0.43554678313E-01 -0.12313043368E+00  0.13214892705E+00  0.20118321472E-01 0.  0.
         14    1    1    2    0    0  0.10943397007E-01 -0.10767480332E-01  0.18195813833E-01  0.23807230242E-01  0.00000000000E+00 0.  1.
     999901    1    3    3    0    0 -0.11635032222E-01  0.54322158645E-01  0.10493461985E+00  0.88797384271E+00  0.88000000000E+00 0. -1.
        -11    1    4    4    0    0 -0.13059446980E-02 -0.42917351611E-01 -0.98862853463E-01  0.10778557175E+00  0.51100000000E-03 0.  1.
         11    1    4    4    0    0  0.19975799124E-02 -0.63732670181E-03 -0.24267580219E-01  0.24363355301E-01  0.51100000000E-03 0. -1.
</event>
<event>
 8    1  0.1071333E+005  0.1043930E+01  0.7957747E-01            NaN
         13   -1    0    0    0    0  0.00000000000E+00  0.00000000000E+00  0.74505805969E-08  0.10566000000E+00  0.10566000000E+00 0. -1.
     999900   -1    0    0    0    0 -0.00000000000E+00 -0.00000000000E+00 -0.74505805969E-08  0.93827000000E+00  0.93827000000E+00 0.  1.
     999902    2    1    2    0    0 -0.10053997623E-01 -0.33903010462E-02  0.18921311212E-01  0.10222368438E+01  0.10220066398E+01 0.  0.
     999903    2    3    3    0    0 -0.81748839891E-01 -0.85491914110E-01  0.57277590254E-01  0.13468288517E+00  0.29445152591E-01 0.  0.
         14    1    1    2    0    0  0.10053997623E-01  0.33903010462E-02 -0.18921311212E-01  0.21693156234E-01  0.00000000000E+00 0.  1.
     999901    1    3    3    0    0  0.71694842268E-01  0.82101613064E-01 -0.38356279042E-01  0.88755395859E+00  0.88000000000E+00 0.  1.
        -11    1    4    4    0    0 -0.38491894635E-01 -0.53479310687E-01  0.44060549927E-01  0.79266990640E-01  0.51100000000E-03 0.  1.
         11    1    4    4    0    0 -0.43256945256E-01 -0.32012603423E-01  0.13217040327E-01  0.55415894532E-01  0.51100000000E-03 0. -1.
</event>
<event>
 8    1  0.1071333E+005  0.1043930E+01  0.7957747E-01            NaN
         13   -1    0    0    0    0  0.00000000000E+00  0.00000000000E+00  0.74505805969E-08  0.10566000000E+00  0.10566000000E+00 0.  1.
     999900   -1    0    0    0    0 -0.00000000000E+00 -0.00000000000E+00 -0.74505805969E-08  0.93827000000E+00  0.93827000000E+00 0.  1.
     999902    2    1    2    0    0 -0.19189814120E-01  0.14049904159E-01 -0.17991750006E-02  0.10200786729E+01  0.10197997907E+01 0.  0.
     999903    2    3    3    0    0  0.32606808157E-01 -0.11084942004E+00  0.51718928477E-01  0.12814430388E+00  0.19882585207E-01 0.  0.
         14    1    1    2    0    0  0.19189814120E-01 -0.14049904159E-01  0.17991750006E-02  0.23851327081E-01  0.00000000000E+00 0. -1.
     999901    1    3    3    0    0 -0.51796622277E-01  0.12489932420E+00 -0.53518103477E-01  0.89193436903E+00  0.88000000000E+00 0. -1.
        -11    1    4    4    0    0  0.26493976974E-01 -0.74561912996E-01  0.26181420989E-01  0.83349490770E-01  0.51100000000E-03 0.  1.
         11    1    4    4    0    0  0.61128311823E-02 -0.36287507041E-01  0.25537507487E-01  0.44794813115E-01  0.51100000000E-03 0. -1.
</event>
<event>
 8    1  0.1071333E+005  0.1043930E+01  0.7957747E-01            NaN
         13   -1    0    0    0    0  0.00000000000E+00  0.00000000000E+00  0.74505805969E-08  0.10566000000E+00  0.10566000000E+00 0. -1.
     999900   -1    0    0    0    0 -0.00000000000E+00 -0.00000000000E+00 -0.74505805969E-08  0.93827000000E+00  0.93827000000E+00 0. -1.
     999902    2    1    2    0    0  0.10356728993E-01  0.10925373843E-01  0.18520884259E-01  0.10200626838E+01  0.10197834231E+01 0.  0.
     999903    2    3    3    0    0 -0.40669746418E-01  0.11786949081E+00  0.38439943942E-01  0.13189743212E+00  0.19288809495E-01 0.  0.
         14    1    1    2    0    0 -0.10356728993E-01 -0.10925373843E-01 -0.18520884259E-01  0.23867316204E-01  0.00000000000E+00 0.  1.
     999901    1    3    3    0    0  0.51026475412E-01 -0.10694411697E+00 -0.19919059683E-01  0.88816525168E+00  0.88000000000E+00 0. -1.
        -11    1    4    4    0    0 -0.10189172190E-01  0.50143290668E-01  0.87561342563E-02  0.51914350974E-01  0.51100000000E-03 0.  1.
         11    1    4    4    0    0 -0.30480574228E-01  0.67726200142E-01  0.29683809686E-01  0.79983081145E-01  0.51100000000E-03 0. -1.
</event>
<event>
 8    1  0.1071333E+005  0.1043930E+01  0.7957747E-01            NaN
         13   -1    0    0    0    0  0.00000000000E+00  0.00000000000E+00  0.74505805969E-08  0.10566000000E+00  0.10566000000E+00 0.  1.
     999900   -1    0    0    0    0 -0.00000000000E+00 -0.00000000000E+00 -0.74505805969E-08  0.93827000000E+00  0.93827000000E+00 0.  1.
     999902    2    1    2    0    0  0.18791304067E-01  0.50789154468E-02  0.13520754890E-01  0.10202293818E+01  0.10199540539E+01 0.  0.
     999903    2    3    3    0    0  0.12622584286E+00  0.34903505253E-01 -0.78715577603E-02  0.13293612851E+00  0.21420428488E-01 0.  0.
         14    1    1    2    0    0 -0.18791304067E-01 -0.50789154468E-02 -0.13520754890E-01  0.23700618208E-01  0.00000000000E+00 0. -1.
     999901    1    3    3    0    0 -0.10743453879E+00 -0.29824589806E-01  0.21392312650E-01  0.88729325328E+00  0.88000000000E+00 0. -1.
        -11    1    4    4    0    0  0.69533721627E-01  0.19956819739E-01  0.62988823939E-02  0.72616459138E-01  0.51100000000E-03 0.  1.
         11    1    4    4    0    0  0.56692121233E-01  0.14946685513E-01 -0.14170440154E-01  0.60319669370E-01  0.51100000000E-03 0. -1.
</event>
<event>
 8    1  0.1071333E+005  0.1043930E+01  0.7957747E-01            NaN
         13   -1    0    0    0    0  0.00000000000E+00  0.00000000000E+00  0.74505805969E-08  0.10566000000E+00  0.10566000000E+00 0. -1.
     999900   -1    0    0    0    0 -0.00000000000E+00 -0.00000000000E+00 -0.74505805969E-08  0.93827000000E+00  0.93827000000E+00 0.  1.
     999902    2    1    2    0    0  0.21163452048E-02 -0.21770160944E-01  0.79768001498E-03  0.10220426722E+01  0.10218082837E+01 0.  0.
     999903    2    3    3    0    0  0.43597449926E-02 -0.15558175993E-01  0.12967264568E+00  0.13263141841E+00  0.22694358230E-01 0.  0.
         14    1    1    2    0    0 -0.21163452048E-02  0.21770160944E-01 -0.79768001498E-03  0.21887327794E-01  0.00000000000E+00 0. -1.
     999901    1    3    3    0    0 -0.22433997878E-02 -0.62119849516E-02 -0.12887496567E+00  0.88941125379E+00  0.88000000000E+00 0.  1.
        -11    1    4    4    0    0  0.13410960449E-01 -0.10034729876E-01  0.66859083398E-01  0.68927119610E-01  0.51100000000E-03 0. -1.
         11    1    4    4    0    0 -0.90512154563E-02 -0.55234461172E-02  0.62813562283E-01  0.63704298802E-01  0.51100000000E-03 0.  1.
</event>
<event>
 8    1  0.1071333E+005  0.1043930E+01  0.7957747E-01            NaN
         13   -1    0    0    0    0  0.00000000000E+00  0.00000000000E+00  0.74505805969E-08  0.10566000000E+00  0.10566000000E+00 0.  1.
     999900   -1    0    0    0    0 -0.00000000000E+00 -0.00000000000E+00 -0.74505805969E-08  0.93827000000E+00  0.93827000000E+00 0.  1.
     999902    2    1    2    0    0 -0.21405646311E-01 -0.10693418647E-01 -0.23920239733E-01  0.10100961595E+01  0.10095293570E+01 0.  0.
     999903    2    3    3    0    0 -0.11882210641E+00 -0.25690452467E-01 -0.18404315295E-01  0.12457636683E+00  0.20046446907E-01 0.  0.
         14    1    1    2    0    0  0.21405646311E-01  0.10693418647E-01  0.23920239733E-01  0.33833840533E-01  0.00000000000E+00 0.  1.
     999901    1    3    3    0    0  0.97416460095E-01  0.14997033820E-01 -0.55159244378E-02  0.88551979263E+00  0.88000000000E+00 0.  1.
        -11    1    4    4    0    0 -0.44273228227E-01 -0.39343642130E-02  0.12477437667E-02  0.44468145283E-01  0.51100000000E-03 0.  1.
         11    1    4    4    0    0 -0.74548878179E-01 -0.21756088254E-01 -0.19652059062E-01  0.80108221552E-01  0.51100000000E-03 0. -1.
</event>
<event>
 8    1  0.1071333E+005  0.1043930E+01  0.7957747E-01            NaN
         13   -1    0    0    0    0  0.00000000000E+00  0.00000000000E+00  0.74505805969E-08  0.10566000000E+00  0.10566000000E+00 0. -1.
     999900   -1    0    0    0    0 -0.00000000000E+00 -0.00000000000E+00 -0.74505805969E-08  0.93827000000E+00  0.93827000000E+00 0. -1.
     999902    2    1    2    0    0  0.22472059544E-01  0.51766010714E-02 -0.38549804640E-02  0.10205494197E+01  0.10202815624E+01 0.  0.
     999903    2    3    3    0    0 -0.94121260733E-01 -0.80295428935E-01  0.27127076204E-01  0.12821576125E+00  0.19930768656E-01 0.  0.
         14    1    1    2    0    0 -0.22472059544E-01 -0.51766010714E-02  0.38549804640E-02  0.23380580257E-01  0.00000000000E+00 0. -1.
     999901    1    3    3    0    0  0.11659332028E+00  0.85472030007E-01 -0.30982056668E-01  0.89233365849E+00  0.88000000000E+00 0. -1.
        -11    1    4    4    0    0 -0.15223061442E-01 -0.44493183797E-02  0.36648786869E-02  0.16285898516E-01  0.51100000000E-03 0. -1.
         11    1    4    4    0    0 -0.78898199291E-01 -0.75846110556E-01  0.23462197517E-01  0.11192986273E+00  0.51100000000E-03 0.  1.
</event>
<event>
 8    1  0.1071333E+005  0.1043930E+01  0.7957747E-01            NaN
         13   -1    0    0    0    0  0.00000000000E+00  0.00000000000E+00  0.74505805969E-08  0.10566000000E+00  0.10566000000E+00 0. -1.
     999900   -1    0    0    0    0 -0.00000000000E+00 -0.00000000000E+00 -0.74505805969E-08  0.93827000000E+00  0.93827000000E+00 0.  1.
     999902    2    1    2    0    0 -0.12092579203E-04 -0.12213282365E-01 -0.23262888703E-01  0.10176559367E+01  0.10173167054E+01 0.  0.
     999903    2    3    3    0    0  0.22213723747E-01  0.95586093219E-01  0.73943285300E-01  0.12548794098E+00  0.25484566937E-01 0.  0.
         14    1    1    2    0    0  0.12092579203E-04  0.12213282365E-01  0.23262888703E-01  0.26274063316E-01  0.00000000000E+00 0. -1.
     999901    1    3    3    0    0 -0.22225816326E-01 -0.10779937558E+00 -0.97206174002E-01  0.89216799570E+00  0.88000000000E+00 0.  1.
        -11    1    4    4    0    0  0.14520138554E-01  0.45100477713E-01  0.20689570675E-01  0.51703065376E-01  0.51100000000E-03 0. -1.
         11    1    4    4    0    0  0.76935851928E-02  0.50485615505E-01  0.53253714625E-01  0.73784875607E-01  0.51100000000E-03 0.  1.
</event>
<event>
 8    1  0.1373505E+005  0.1043930E+01  0.7957747E-01            NaN
         13   -1    0    0    0    0  0.00000000000E+00  0.00000000000E+00  0.74505805969E-08  0.10566000000E+00  0.10566000000E+00 0. -1.
     999900   -1    0    0    0    0 -0.00000000000E+00 -0.00000000000E+00 -0.74505805969E-08  0.93827000000E+00  0.93827000000E+00 0. -1.
     999902    2    1    2    0    0  0.14945289709E-01  0.19983567144E-01  0.25661164803E-02  0.10188443548E+01  0.10185354828E+01 0.  0.
     999903    2    3    3    0    0 -0.69288690451E-01 -0.18379591887E-01  0.10439514147E+00  0.12815010553E+00  0.19630893055E-01 0.  0.
         14    1    1    2    0    0 -0.14945289709E-01 -0.19983567144E-01 -0.25661164803E-02  0.25085645180E-01  0.00000000000E+00 0. -1.
     999901    1    3    3    0    0  0.84233980160E-01  0.38363159032E-01 -0.10182902499E+00  0.89069424929E+00  0.88000000000E+00 0. -1.
        -11    1    4    4    0    0 -0.32952596843E-01 -0.64128545787E-02  0.65432482240E-01  0.73543655033E-01  0.51100000000E-03 0.  1.
         11    1    4    4    0    0 -0.36336093608E-01 -0.11966737309E-01  0.38962659234E-01  0.54606450499E-01  0.51100000000E-03 0. -1.
</event>
<event>
 8    1  0.1071333E+005  0.1043930E+01  0.7957747E-01            NaN
         13   -1    0    0    0    0  0.00000000000E+00  0.00000000000E+00  0.74505805969E-08  0.10566000000E+00  0.10566000000E+00 0. -1.
     999900   -1    0    0    0    0 -0.00000000000E+00 -0.00000000000E+00 -0.74505805969E-08  0.93827000000E+00  0.93827000000E+00 0. -1.
     999902    2    1    2    0    0 -0.21224289281E-01 -0.10851081432E-01  0.17380625279E-02  0.10200294292E+01  0.10197493805E+01 0.  0.
     999903    2    3    3    0    0  0.96584099849E-01 -0.17543142471E-01  0.80794902994E-01  0.12864085833E+00  0.19606220727E-01 0.  0.
         14    1    1    2    0    0  0.21224289281E-01  0.10851081432E-01 -0.17380625279E-02  0.23900570811E-01  0.00000000000E+00 0.  1.
     999901    1    3    3    0    0 -0.11780838913E+00  0.66920610392E-02 -0.79056840466E-01  0.89138857086E+00  0.88000000000E+00 0.  1.
        -11    1    4    4    0    0  0.22236444201E-01 -0.90702176651E-02  0.28886526369E-01  0.37568881084E-01  0.51100000000E-03 0.  1.
         11    1    4    4    0    0  0.74347655648E-01 -0.84729248059E-02  0.51908376625E-01  0.91071977248E-01  0.51100000000E-03 0. -1.
</event>
<event>
 8    1  0.1071333E+005  0.1043930E+01  0.7957747E-01            NaN
         13   -1    0    0    0    0  0.00000000000E+00  0.00000000000E+00  0.74505805969E-08  0.10566000000E+00  0.10566000000E+00 0. -1.
     999900   -1    0    0    0    0 -0.00000000000E+00 -0.00000000000E+00 -0.74505805969E-08  0.93827000000E+00  0.93827000000E+00 0.  1.
     999902    2    1    2    0    0 -0.26995374310E-02  0.10986868671E-01  0.18933196448E-01  0.10218740549E+01  0.10216360014E+01 0.  0.
     999903    2    3    3    0    0 -0.10409172812E+00 -0.20988436647E-01 -0.74027445679E-01  0.13061400451E+00  0.17445719315E-01 0.  0.
         14    1    1    2    0    0  0.26995374310E-02 -0.10986868671E-01 -0.18933196448E-01  0.22055945078E-01  0.00000000000E+00 0.  1.
     999901    1    3    3    0    0  0.10139219069E+00  0.31975305319E-01  0.92960642127E-01  0.89126005042E+00  0.88000000000E+00 0. -1.
        -11    1    4    4    0    0 -0.29719558207E-01 -0.90401914900E-02 -0.30879702599E-01  0.43804044970E-01  0.51100000000E-03 0. -1.
         11    1    4    4    0    0 -0.74372169918E-01 -0.11948245157E-01 -0.43147743080E-01  0.86809959535E-01  0.51100000000E-03 0.  1.
</event>
<event>
 8    1  0.1071333E+005  0.1043930E+01  0.7957747E-01            NaN
         13   -1    0    0    0    0  0.00000000000E+00  0.00000000000E+00  0.74505805969E-08  0.10566000000E+00  0.10566000000E+00 0. -1.
     999900   -1    0    0    0    0 -0.00000000000E+00 -0.00000000000E+00 -0.74505805969E-08  0.93827000000E+00  0.93827000000E+00 0.  1.
     999902    2    1    2    0    0 -0.12943326161E-01 -0.18799763102E-01 -0.51836771473E-02  0.10205242038E+01  0.10202557617E+01 0.  0.
     999903    2    3    3    0    0  0.82071859890E-01  0.71052197384E-01 -0.66214036842E-01  0.12876977286E+00  0.20326110988E-01 0.  0.
         14    1    1    2    0    0  0.12943326161E-01  0.18799763102E-01  0.51836771473E-02  0.23405796154E-01  0.00000000000E+00 0. -1.
     999901    1    3    3    0    0 -0.95015186051E-01 -0.89851960487E-01  0.61030359695E-01  0.89175443099E+00  0.88000000000E+00 0. -1.
        -11    1    4    4    0    0  0.38788571195E-01  0.45865323040E-01 -0.31445499641E-01  0.67803109675E-01  0.51100000000E-03 0.  1.
         11    1    4    4    0    0  0.43283288695E-01  0.25186874344E-01 -0.34768537201E-01  0.60966663182E-01  0.51100000000E-03 0. -1.
</event>
<event>
 8    1  0.1071333E+005  0.1043930E+01  0.7957747E-01            NaN
         13   -1    0    0    0    0  0.00000000000E+00  0.00000000000E+00  0.74505805969E-08  0.10566000000E+00  0.10566000000E+00 0.  1.
     999900   -1    0    0    0    0 -0.00000000000E+00 -0.00000000000E+00 -0.74505805969E-08  0.93827000000E+00  0.93827000000E+00 0. -1.
     999902    2    1    2    0    0 -0.10688886882E-01  0.85422609939E-02 -0.19355306194E-01  0.10202266162E+01  0.10199512233E+01 0.  0.
     999903    2    3    3    0    0  0.69336480792E-01 -0.60988466342E-02 -0.11008944721E+00  0.13182856023E+00  0.20355328707E-01 0.  0.
         14    1    1    2    0    0  0.10688886882E-01 -0.85422609939E-02  0.19355306194E-01  0.23703383799E-01  0.00000000000E+00 0.  1.
     999901    1    3    3    0    0 -0.80025367674E-01  0.14641107628E-01  0.90734141016E-01  0.88839805597E+00  0.88000000000E+00 0.  1.
        -11    1    4    4    0    0  0.68731996003E-01 -0.90121388559E-02 -0.10337542222E+00  0.12446704368E+00  0.51100000000E-03 0.  1.
         11    1    4    4    0    0  0.60448478889E-03  0.29132922216E-02 -0.67140249866E-02  0.73615165523E-02  0.51100000000E-03 0. -1.
</event>
<event>
 8    1  0.1071333E+005  0.1043930E+01  0.7957747E-01            NaN
         13   -1    0    0    0    0  0.00000000000E+00  0.00000000000E+00  0.74505805969E-08  0.10566000000E+00  0.10566000000E+00 0. -1.
     999900   -1    0    0    0    0 -0.00000000000E+00 -0.00000000000E+00 -0.74505805969E-08  0.93827000000E+00  0.93827000000E+00 0.  1.
     999902    2    1    2    0    0 -0.67328229785E-02  0.29859054087E-02  0.22303789828E-01  0.10204415863E+01  0.10201712236E+01 0.  0.
     999903    2    3    3    0    0  0.62876257560E-02 -0.12560394333E+00 -0.25316837829E-01  0.12972692637E+00  0.19293738056E-01 0.  0.
         14    1    1    2    0    0  0.67328229785E-02 -0.29859054087E-02 -0.22303789828E-01  0.23488413677E-01  0.00000000000E+00 0.  1.
     999901    1    3    3    0    0 -0.13020448735E-01  0.12858984874E+00  0.47620627657E-01  0.89071465996E+00  0.88000000000E+00 0.  1.
        -11    1    4    4    0    0 -0.34818126778E-02 -0.10267274253E-01  0.13694887769E-02  0.10939678268E-01  0.51100000000E-03 0.  1.
         11    1    4    4    0    0  0.97694384338E-02 -0.11533666908E+00 -0.26686326606E-01  0.11878724810E+00  0.51100000000E-03 0. -1.
</event>
<event>
 8    1  0.1071333E+005  0.1043930E+01  0.7957747E-01            NaN
         13   -1    0    0    0    0  0.00000000000E+00  0.00000000000E+00  0.74505805969E-08  0.10566000000E+00  0.10566000000E+00 0.  1.
     999900   -1    0    0    0    0 -0.00000000000E+00 -0.00000000000E+00 -0.74505805969E-08  0.93827000000E+00  0.93827000000E+00 0.  1.
     999902    2    1    2    0    0 -0.18164454656E-02 -0.21350461199E-01 -0.10642182923E-01  0.10200051651E+01  0.10197245408E+01 0.  0.
     999903    2    3    3    0    0  0.11181534008E+00 -0.19953531329E-01 -0.62278385952E-01  0.13119673154E+00  0.20812768243E-01 0.  0.
         14    1    1    2    0    0  0.18164454656E-02  0.21350461199E-01  0.10642182923E-01  0.23924834898E-01  0.00000000000E+00 0.  1.
     999901    1    3    3    0    0 -0.11363178554E+00 -0.13969298704E-02  0.51636203029E-01  0.88880843356E+00  0.88000000000E+00 0. -1.
        -11    1    4    4    0    0  0.89854599432E-01 -0.23507261080E-01 -0.46146160866E-01  0.10371195517E+00  0.51100000000E-03 0. -1.
         11    1    4    4    0    0  0.21960740647E-01  0.35537297508E-02 -0.16132225086E-01  0.27484776370E-01  0.51100000000E-03 0.  1.
</event>
<event>
 8    1  0.1071333E+005  0.1043930E+01  0.7957747E-01            NaN
         13   -1    0    0    0    0  0.00000000000E+00  0.00000000000E+00  0.74505805969E-08  0.10566000000E+00  0.10566000000E+00 0. -1.
     999900   -1    0    0    0    0 -0.00000000000E+00 -0.00000000000E+00 -0.74505805969E-08  0.93827000000E+00  0.93827000000E+00 0.  1.
     999902    2    1    2    0    0 -0.84755631083E-02  0.65410595680E-02  0.21233449848E-01  0.10201501761E+01  0.10198729832E+01 0.  0.
     999903    2    3    3    0    0 -0.10911184696E+00 -0.44961416050E-01 -0.50777509773E-01  0.13000089376E+00  0.19873419378E-01 0.  0.
         14    1    1    2    0    0  0.84755631083E-02 -0.65410595680E-02 -0.21233449848E-01  0.23779823858E-01  0.00000000000E+00 0.  1.
     999901    1    3    3    0    0  0.10063628386E+00  0.51502475618E-01  0.72010959621E-01  0.89014928238E+00  0.88000000000E+00 0. -1.
        -11    1    4    4    0    0 -0.83998812903E-01 -0.25840425144E-01 -0.33830672637E-01  0.94171671285E-01  0.51100000000E-03 0. -1.
         11    1    4    4    0    0 -0.25113034062E-01 -0.19120990906E-01 -0.16946837136E-01  0.35829222472E-01  0.51100000000E-03 0.  1.
</event>
<event>
 8    1  0.1071333E+005  0.1043930E+01  0.7957747E-01            NaN
         13   -1    0    0    0    0  0.00000000000E+00  0.00000000000E+00  0.74505805969E-08  0.10566000000E+00  0.10566000000E+00 0.  1.
     999900   -1    0    0    0    0 -0.00000000000E+00 -0.00000000000E+00 -0.74505805969E-08  0.93827000000E+00  0.93827000000E+00 0. -1.
     999902    2    1    2    0    0  0.13608734309E-01  0.17018440701E-01 -0.87435520033E-02  0.10204507608E+01  0.10201806117E+01 0.  0.
     999903    2    3    3    0    0  0.10886146825E+00 -0.58336890526E-02 -0.73124373765E-01  0.13267815848E+00  0.19273518143E-01 0.  0.
         14    1    1    2    0    0 -0.13608734309E-01 -0.17018440701E-01  0.87435520033E-02  0.23479239234E-01  0.00000000000E+00 0. -1.
     999901    1    3    3    0    0 -0.95252733942E-01  0.22852129754E-01  0.64380821761E-01  0.88777260229E+00  0.88000000000E+00 0.  1.
        -11    1    4    4    0    0  0.32646760470E-01 -0.59174267639E-02 -0.31889981124E-01  0.46022374187E-01  0.51100000000E-03 0. -1.
         11    1    4    4    0    0  0.76214707781E-01  0.83737711278E-04 -0.41234392641E-01  0.86655784294E-01  0.51100000000E-03 0.  1.
</event>
<event>
 8    1  0.1071333E+005  0.1043930E+01  0.7957747E-01            NaN
         13   -1    0    0    0    0  0.00000000000E+00  0.00000000000E+00  0.74505805969E-08  0.10566000000E+00  0.10566000000E+00 0. -1.
     999900   -1    0    0    0    0 -0.00000000000E+00 -0.00000000000E+00 -0.74505805969E-08  0.93827000000E+00  0.93827000000E+00 0. -1.
     999902    2    1    2    0    0  0.20555055177E-01 -0.10884828890E-01  0.14280103803E-01  0.10166369394E+01  0.10162705129E+01 0.  0.
     999903    2    3    3    0    0 -0.11356995116E-01 -0.71114076520E-01  0.10589599304E+00  0.12925910983E+00  0.17543172854E-01 0.  0.
         14    1    1    2    0    0 -0.20555055177E-01  0.10884828890E-01 -0.14280103803E-01  0.27293060619E-01  0.00000000000E+00 0.  1.
     999901    1    3    3    0    0  0.31912050293E-01  0.60229247630E-01 -0.91615889238E-01  0.88737782955E+00  0.88000000000E+00 0. -1.
        -11    1    4    4    0    0  0.29241910393E-02 -0.23198618780E-02  0.40914731199E-02  0.55618275466E-02  0.51100000000E-03 0.  1.
         11    1    4    4    0    0 -0.14281186155E-01 -0.68794214642E-01  0.10180451992E+00  0.12369728228E+00  0.51100000000E-03 0. -1.
</event>
<event>
 8    1  0.1071333E+005  0.1043930E+01  0.7957747E-01            NaN
         13   -1    0    0    0    0  0.00000000000E+00  0.00000000000E+00  0.74505805969E-08  0.10566000000E+00  0.10566000000E+00 0. -1.
     999900   -1    0    0    0    0 -0.00000000000E+00 -0.00000000000E+00 -0.74505805969E-08  0.93827000000E+00  0.93827000000E+00 0. -1.
     999902    2    1    2    0    0  0.13007622894E-01 -0.14417454580E-01  0.12208335029E-01  0.10209930278E+01  0.10207353516E+01 0.  0.
     999903    2    3    3    0    0  0.36058891624E-01 -0.12629490119E+00 -0.10458027276E-01  0.13332096671E+00  0.20358391326E-01 0.  0.
         14    1    1    2    0    0 -0.13007622894E-01  0.14417454580E-01 -0.12208335029E-01  0.22936972209E-01  0.00000000000E+00 0.  1.
     999901    1    3    3    0    0 -0.23051268730E-01  0.11187744661E+00  0.22666362305E-01  0.88767206108E+00  0.88000000000E+00 0.  1.
        -11    1    4    4    0    0  0.16243870831E-01 -0.82613057669E-01  0.13480844356E-03  0.84196555341E-01  0.51100000000E-03 0.  1.
         11    1    4    4    0    0  0.19815020794E-01 -0.43681843520E-01 -0.10592835719E-01  0.49124411365E-01  0.51100000000E-03 0. -1.
</event>
<event>
 8    1  0.1071333E+005  0.1043930E+01  0.7957747E-01            NaN
         13   -1    0    0    0    0  0.00000000000E+00  0.00000000000E+00  0.74505805969E-08  0.10566000000E+00  0.10566000000E+00 0. -1.
     999900   -1    0    0    0    0 -0.00000000000E+00 -0.00000000000E+00 -0.74505805969E-08  0.93827000000E+00  0.93827000000E+00 0.  1.
     999902    2    1    2    0    0 -0.34274271639E-02 -0.21923692020E-01 -0.28858833701E-02  0.10215531403E+01  0.10213080312E+01 0.  0.
     999903    2    3    3    0    0  0.10809219006E+00 -0.56542928579E-02 -0.72019590719E-01  0.13167630167E+00  0.20879041989E-01 0.  0.
         14    1    1    2    0    0  0.34274271639E-02  0.21923692020E-01  0.28858833701E-02  0.22376859735E-01  0.00000000000E+00 0. -1.
     999901    1    3    3    0    0 -0.11151961723E+00 -0.16269399162E-01  0.69133707349E-01  0.88987683859E+00  0.88000000000E+00 0. -1.
        -11    1    4    4    0    0  0.55841765331E-01  0.74732126924E-02 -0.37960395332E-01  0.67936767644E-01  0.51100000000E-03 0. -1.
         11    1    4    4    0    0  0.52250424731E-01 -0.13127505550E-01 -0.34059195387E-01  0.63739534027E-01  0.51100000000E-03 0.  1.
</event>
<event>
 8    1  0.1071333E+005  0.1043930E+01  0.7957747E-01            NaN
         13   -1    0    0    0    0  0.00000000000E+00  0.00000000000E+00  0.74505805969E-08  0.10566000000E+00  0.10566000000E+00 0.  1.
     999900   -1    0    0    0    0 -0.00000000000E+00 -0.00000000000E+00 -0.74505805969E-08  0.93827000000E+00  0.93827000000E+00 0. -1.
     999902    2    1    2    0    0  0.11225689068E-01 -0.37569041681E-02  0.19863314536E-01  0.10208068149E+01  0.10205448896E+01 0.  0.
     999903    2    3    3    0    0  0.10530372935E+00  0.18764348662E-01  0.77174322144E-01  0.13365269297E+00  0.21591436849E-01 0.  0.
         14    1    1    2    0    0 -0.11225689068E-01  0.37569041681E-02 -0.19863314536E-01  0.23123185082E-01  0.00000000000E+00 0. -1.
     999901    1    3    3    0    0 -0.94078040280E-01 -0.22521252830E-01 -0.57311007608E-01  0.88715412195E+00  0.88000000000E+00 0.  1.
        -11    1    4    4    0    0  0.79287471584E-01  0.47585715879E-02  0.59181927055E-01  0.99055079449E-01  0.51100000000E-03 0.  1.
         11    1    4    4    0    0  0.26016257763E-01  0.14005777074E-01  0.17992395090E-01  0.34597613523E-01  0.51100000000E-03 0. -1.
</event>
<event>
 8    1  0.1071333E+005  0.1043930E+01  0.7957747E-01            NaN
         13   -1    0    0    0    0  0.00000000000E+00  0.00000000000E+00  0.74505805969E-08  0.10566000000E+00  0.10566000000E+00 0. -1.
     999900   -1    0    0    0    0 -0.00000000000E+00 -0.00000000000E+00 -0.74505805969E-08  0.93827000000E+00  0.93827000000E+00 0.  1.
     999902    2    1    2    0    0  0.74616585790E-02  0.19748120957E-01  0.86973974596E-02  0.10210978001E+01  0.10208424991E+01 0.  0.
     999903    2    3    3    0    0 -0.59807253482E-01 -0.87841582209E-02  0.11521455546E+00  0.13166815002E+00  0.20199973639E-01 0.  0.
         14    1    1    2    0    0 -0.74616585790E-02 -0.19748120957E-01 -0.86973974596E-02  0.22832199908E-01  0.00000000000E+00 0. -1.
     999901    1    3    3    0    0  0.67268912061E-01  0.28532279178E-01 -0.10651715800E+00  0.88942965008E+00  0.88000000000E+00 0.  1.
        -11    1    4    4    0    0 -0.21823969881E-01 -0.12265336327E-01  0.54301967003E-01  0.59797064125E-01  0.51100000000E-03 0. -1.
         11    1    4    4    0    0 -0.37983283601E-01  0.34811781056E-02  0.60912588453E-01  0.71871085891E-01  0.51100000000E-03 0.  1.
</event>
<event>
 8    1  0.1071333E+005  0.1043930E+01  0.7957747E-01            NaN
         13   -1    0    0    0    0  0.00000000000E+00  0.00000000000E+00  0.74505805969E-08  0.10566000000E+00  0.10566000000E+00 0.  1.
     999900   -1    0    0    0    0 -0.00000000000E+00 -0.00000000000E+00 -0.74505805969E-08  0.93827000000E+00  0.93827000000E+00 0.  1.
     999902    2    1    2    0    0  0.12169326325E-02  0.18566299347E-01  0.14594268690E-01  0.10202829901E+01  0.10200089210E+01 0.  0.
     999903    2    3    3    0    0  0.78330967089E-01  0.78086968315E-01 -0.67664633318E-01  0.13109470226E+00  0.19339165805E-01 0.  0.
         14    1    1    2    0    0 -0.12169326325E-02 -0.18566299347E-01 -0.14594268690E-01  0.23647009855E-01  0.00000000000E+00 0. -1.
     999901    1    3    3    0    0 -0.77114034456E-01 -0.59520668968E-01  0.82258902008E-01  0.88918828788E+00  0.88000000000E+00 0. -1.
        -11    1    4    4    0    0  0.23626251884E-01  0.14398703877E-01 -0.23068663185E-01  0.36027028653E-01  0.51100000000E-03 0. -1.
         11    1    4    4    0    0  0.54704715204E-01  0.63688264438E-01 -0.44595970133E-01  0.95067673611E-01  0.51100000000E-03 0.  1.
</event>
<event>
 8    1  0.1071333E+005  0.1043930E+01  0.7957747E-01            NaN
         13   -1    0    0    0    0  0.00000000000E+00  0.00000000000E+00  0.74505805969E-08  0.10566000000E+00  0.10566000000E+00 0. -1.
     999900   -1    0    0    0    0 -0.00000000000E+00 -0.00000000000E+00 -0.74505805969E-08  0.93827000000E+00  0.93827000000E+00 0. -1.
     999902    2    1    2    0    0  0.22361458591E-01  0.11683893346E-02 -0.72682885901E-02  0.10203879529E+01  0.10201163396E+01 0.  0.
     999903    2    3    3    0    0 -0.33786793535E-01  0.58368220906E-01 -0.11018047937E+00  0.13077266188E+00  0.20331119837E-01 0.  0.
         14    1    1    2    0    0 -0.22361458591E-01 -0.11683893346E-02  0.72682885901E-02  0.23542047129E-01  0.00000000000E+00 0. -1.
     999901    1    3    3    0    0  0.56148252127E-01 -0.57199831571E-01  0.10291219078E+00  0.88961529099E+00  0.88000000000E+00 0.  1.
        -11    1    4    4    0    0 -0.19371734548E-01  0.16502687635E-01 -0.31615541868E-01  0.40588254547E-01  0.51100000000E-03 0.  1.
         11    1    4    4    0    0 -0.14415058987E-01  0.41865533271E-01 -0.78564937498E-01  0.90184407337E-01  0.51100000000E-03 0. -1.
</event>
<event>
 8    1  0.1071333E+005  0.1043930E+01  0.7957747E-01            NaN
         13   -1    0    0    0    0  0.00000000000E+00  0.00000000000E+00  0.74505805969E-08  0.10566000000E+00  0.10566000000E+00 0.  1.
     999900   -1    0    0    0    0 -0.00000000000E+00 -0.00000000000E+00 -0.74505805969E-08  0.93827000000E+00  0.93827000000E+00 0.  1.
     999902    2    1    2    0    0  0.33169498131E-02  0.13248826939E-01  0.19993173013E-01  0.10197171824E+01  0.10194296795E+01 0.  0.
     999903    2    3    3    0    0  0.28497956817E-01  0.11489974291E+00 -0.51558614209E-01  0.13062402071E+00  0.19754989842E-01 0.  0.
         14    1    1    2    0    0 -0.33169498131E-02 -0.13248826939E-01 -0.19993173013E-01  0.24212817648E-01  0.00000000000E+00 0. -1.
     999901    1    3    3    0    0 -0.25181007004E-01 -0.10165091597E+00  0.71551787222E-01  0.88909316165E+00  0.88000000000E+00 0. -1.
        -11    1    4    4    0    0  0.21599641525E-01  0.59832537440E-01 -0.35492552722E-01  0.72845449207E-01  0.51100000000E-03 0. -1.
         11    1    4    4    0    0  0.68983152920E-02  0.55067205467E-01 -0.16066061487E-01  0.57778571499E-01  0.51100000000E-03 0.  1.
</event>
<event>
 8    1  0.1071333E+005  0.1043930E+01  0.7957747E-01            NaN
         13   -1    0    0    0    0  0.00000000000E+00  0.00000000000E+00  0.74505805969E-08  0.10566000000E+00  0.10566000000E+00 0.  1.
     999900   -1    0    0    0    0 -0.00000000000E+00 -0.00000000000E+00 -0.74505805969E-08  0.93827000000E+00  0.93827000000E+00 0.  1.
     999902    2    1    2    0    0  0.78757445735E-02  0.15735724548E-01  0.16268925452E-01  0.10199650607E+01  0.10196834836E+01 0.  0.
     999903    2    3    3    0    0  0.91337696349E-01 -0.54673603656E-01  0.74032848607E-01  0.13133688104E+00  0.20898228089E-01 0.  0.
         14    1    1    2    0    0 -0.78757445735E-02 -0.15735724548E-01 -0.16268925452E-01  0.23964939287E-01  0.00000000000E+00 0. -1.
     999901    1    3    3    0    0 -0.83461951776E-01  0.70409328204E-01 -0.57763923155E-01  0.88862817967E+00  0.88000000000E+00 0.  1.
        -11    1    4    4    0    0  0.13620568069E-01 -0.45765431696E-02  0.28799361772E-02  0.14663552615E-01  0.51100000000E-03 0. -1.
         11    1    4    4    0    0  0.77717128280E-01 -0.50097060487E-01  0.71152912430E-01  0.11667332842E+00  0.51100000000E-03 0.  1.
</event>
<event>
 8    1  0.1071333E+005  0.1043930E+01  0.7957747E-01            NaN
         13   -1    0    0    0    0  0.00000000000E+00  0.00000000000E+00  0.74505805969E-08  0.10566000000E+00  0.10566000000E+00 0. -1.
     999900   -1    0    0    0    0 -0.00000000000E+00 -0.00000000000E+00 -0.74505805969E-08  0.93827000000E+00  0.93827000000E+00 0. -1.
     999902    2    1    2    0    0 -0.24171127529E-02  0.23541812157E-01 -0.26620793777E-02  0.10201151723E+01  0.10198371530E+01 0.  0.
     999903    2    3    3    0    0  0.21820520721E-01 -0.12388380157E+00  0.33781950333E-02  0.12750200892E+00  0.20543092731E-01 0.  0.
         14    1    1    2    0    0  0.24171127529E-02 -0.23541812157E-01  0.26620793777E-02  0.23814827741E-01  0.00000000000E+00 0. -1.
     999901    1    3    3    0    0 -0.24237633474E-01  0.14742561373E+00 -0.60402744109E-02  0.89261316334E+00  0.88000000000E+00 0.  1.
        -11    1    4    4    0    0  0.55501708133E-02 -0.68162159810E-01 -0.61852929019E-02  0.68668794917E-01  0.51100000000E-03 0.  1.
         11    1    4    4    0    0  0.16270349908E-01 -0.55721641763E-01  0.95634879352E-02  0.58833213999E-01  0.51100000000E-03 0. -1.
</event>
<event>
 8    1  0.1071333E+005  0.1043930E+01  0.7957747E-01            NaN
         13   -1    0    0    0    0  0.00000000000E+00  0.00000000000E+00  0.74505805969E-08  0.10566000000E+00  0.10566000000E+00 0.  1.
     999900   -1    0    0    0    0 -0.00000000000E+00 -0.00000000000E+00 -0.74505805969E-08  0.93827000000E+00  0.93827000000E+00 0.  1.
     999902    2    1    2    0    0  0.12666610410E-01  0.18484801300E-01 -0.93806510287E-02  0.10196374597E+01  0.10193480376E+01 0.  0.
     999903    2    3    3    0    0  0.22448853279E-01  0.11318186912E+00  0.60449270291E-01  0.13175264467E+00  0.19762555184E-01 0.  0.
         14    1    1    2    0    0 -0.12666610410E-01 -0.18484801300E-01  0.93806510287E-02  0.24292540256E-01  0.00000000000E+00 0.  1.
     999901    1    3    3    0    0 -0.97822428682E-02 -0.94697067820E-01 -0.69829921319E-01  0.88788481508E+00  0.88000000000E+00 0.  1.
        -11    1    4    4    0    0  0.15383097390E-01  0.74020427335E-01  0.28794019533E-01  0.80901298074E-01  0.51100000000E-03 0.  1.
         11    1    4    4    0    0  0.70657558888E-02  0.39161441786E-01  0.31655250758E-01  0.50851346595E-01  0.51100000000E-03 0. -1.
</event>
<event>
 8    1  0.1071333E+005  0.1043930E+01  0.7957747E-01            NaN
         13   -1    0    0    0    0  0.00000000000E+00  0.00000000000E+00  0.74505805969E-08  0.10566000000E+00  0.10566000000E+00 0.  1.
     999900   -1    0    0    0    0 -0.00000000000E+00 -0.00000000000E+00 -0.74505805969E-08  0.93827000000E+00  0.93827000000E+00 0. -1.
     999902    2    1    2    0    0  0.13258730182E-01  0.12072466368E-01  0.15932182765E-01  0.10199430699E+01  0.10196609696E+01 0.  0.
     999903    2    3    3    0    0  0.80865372040E-01  0.41703785863E-01 -0.90982599898E-01  0.13040417589E+00  0.21189654441E-01 0.  0.
         14    1    1    2    0    0 -0.13258730182E-01 -0.12072466368E-01 -0.15932182765E-01  0.23986930147E-01  0.00000000000E+00 0. -1.
     999901    1    3    3    0    0 -0.67606641858E-01 -0.29631319495E-01  0.10691478266E+00  0.88953889396E+00  0.88000000000E+00 0. -1.
        -11    1    4    4    0    0  0.60388565761E-02  0.61615540510E-02 -0.18137331567E-01  0.20091203410E-01  0.51100000000E-03 0.  1.
         11    1    4    4    0    0  0.74826515463E-01  0.35542231812E-01 -0.72845268331E-01  0.11031297248E+00  0.51100000000E-03 0. -1.
</event>
<event>
 8    1  0.1350082E+005  0.1043930E+01  0.7957747E-01            NaN
         13   -1    0    0    0    0  0.00000000000E+00  0.00000000000E+00  0.74505805969E-08  0.10566000000E+00  0.10566000000E+00 0. -1.
     999900   -1    0    0    0    0 -0.00000000000E+00 -0.00000000000E+00 -0.74505805969E-08  0.93827000000E+00  0.93827000000E+00 0.  1.
     999902    2    1    2    0    0  0.28033076225E-02 -0.20314612597E-01 -0.11002420828E-01  0.10206578002E+01  0.10203924489E+01 0.  0.
     999903    2    3    3    0    0  0.66438593692E-01  0.10859211397E+00  0.20871587285E-02  0.12889677232E+00  0.20091981860E-01 0.  0.
         14    1    1    2    0    0 -0.28033076225E-02  0.20314612597E-01  0.11002420828E-01  0.23272199781E-01  0.00000000000E+00 0.  1.
     999901    1    3    3    0    0 -0.63635286070E-01 -0.12890672656E+00 -0.13089579557E-01  0.89176102790E+00  0.88000000000E+00 0.  1.
        -11    1    4    4    0    0  0.36415521809E-01  0.49892930796E-01  0.96894879079E-02  0.62526331005E-01  0.51100000000E-03 0. -1.
         11    1    4    4    0    0  0.30023071883E-01  0.58699183172E-01 -0.76023291794E-02  0.66370441315E-01  0.51100000000E-03 0.  1.
</event>
<event>
 8    1  0.1071333E+005  0.1043930E+01  0.7957747E-01            NaN
         13   -1    0    0    0    0  0.00000000000E+00  0.00000000000E+00  0.74505805969E-08  0.10566000000E+00  0.10566000000E+00 0. -1.
     999900   -1    0    0    0    0 -0.00000000000E+00 -0.00000000000E+00 -0.74505805969E-08  0.93827000000E+00  0.93827000000E+00 0. -1.
     999902    2    1    2    0    0  0.23614791096E-01 -0.54682160957E-02 -0.46642190137E-02  0.10192456996E+01  0.10189467511E+01 0.  0.
     999903    2    3    3    0    0 -0.79957878686E-02 -0.56068344368E-01  0.11421657711E+00  0.12925005617E+00  0.21273426392E-01 0.  0.
         14    1    1    2    0    0 -0.23614791096E-01  0.54682160957E-02  0.46642190137E-02  0.24684300371E-01  0.00000000000E+00 0. -1.
     999901    1    3    3    0    0  0.31610578965E-01  0.50600128272E-01 -0.11888079612E+00  0.88999564346E+00  0.88000000000E+00 0. -1.
        -11    1    4    4    0    0 -0.13083931573E-01 -0.19078282037E-01  0.45234834768E-01  0.50809659597E-01  0.51100000000E-03 0.  1.
         11    1    4    4    0    0  0.50881437042E-02 -0.36990062331E-01  0.68981742341E-01  0.78440396576E-01  0.51100000000E-03 0. -1.
</event>
<event>
 8    1  0.1071333E+005  0.1043930E+01  0.7957747E-01            NaN
         13   -1    0    0    0    0  0.00000000000E+00  0.00000000000E+00  0.74505805969E-08  0.10566000000E+00  0.10566000000E+00 0.  1.
     999900   -1    0    0    0    0 -0.00000000000E+00 -0.00000000000E+00 -0.74505805969E-08  0.93827000000E+00  0.93827000000E+00 0.  1.
     999902    2    1    2    0    0 -0.31706928154E-02 -0.16800639087E-03  0.23540202499E-01  0.10201766286E+01  0.10199000593E+01 0.  0.
     999903    2    3    3    0    0  0.86082130438E-01  0.59650598078E-01 -0.71923851900E-01  0.12851653777E+00  0.19368349867E-01 0.  0.
         14    1    1    2    0    0  0.31706928154E-02  0.16800639087E-03 -0.23540202499E-01  0.23753371398E-01  0.00000000000E+00 0. -1.
     999901    1    3    3    0    0 -0.89252823254E-01 -0.59818604469E-01  0.95464054399E-01  0.89166009083E+00  0.88000000000E+00 0. -1.
        -11    1    4    4    0    0  0.15599764252E-01  0.30097763956E-02 -0.81185176954E-02  0.17848889300E-01  0.51100000000E-03 0.  1.
         11    1    4    4    0    0  0.70482366186E-01  0.56640821683E-01 -0.63805334204E-01  0.11066764847E+00  0.51100000000E-03 0. -1.
</event>
<event>
 8    1  0.1071333E+005  0.1043930E+01  0.7957747E-01            NaN
         13   -1    0    0    0    0  0.00000000000E+00  0.00000000000E+00  0.74505805969E-08  0.10566000000E+00  0.10566000000E+00 0. -1.
     999900   -1    0    0    0    0 -0.00000000000E+00 -0.00000000000E+00 -0.74505805969E-08  0.93827000000E+00  0.93827000000E+00 0. -1.
     999902    2    1    2    0    0  0.19820344347E-01  0.78938383770E-02 -0.10287920811E-01  0.10202445604E+01  0.10199695892E+01 0.  0.
     999903    2    3    3    0    0 -0.16454244861E-01  0.10429956398E-02 -0.12893298398E+00  0.13151545045E+00  0.20019224094E-01 0.  0.
         14    1    1    2    0    0 -0.19820344347E-01 -0.78938383770E-02  0.10287920811E-01  0.23685439598E-01  0.00000000000E+00 0. -1.
     999901    1    3    3    0    0  0.36274589207E-01  0.68508427372E-02  0.11864506317E+00  0.88872910996E+00  0.88000000000E+00 0.  1.
        -11    1    4    4    0    0  0.34135530362E-02 -0.18720018780E-03 -0.55676205135E-02  0.65533890030E-02  0.51100000000E-03 0. -1.
         11    1    4    4    0    0 -0.19867797897E-01  0.12301958276E-02 -0.12336536347E+00  0.12496206144E+00  0.51100000000E-03 0.  1.
</event>
<event>
 8    1  0.1071333E+005  0.1043930E+01  0.7957747E-01            NaN
         13   -1    0    0    0    0  0.00000000000E+00  0.00000000000E+00  0.74505805969E-08  0.10566000000E+00  0.10566000000E+00 0. -1.
     999900   -1    0    0    0    0 -0.00000000000E+00 -0.00000000000E+00 -0.74505805969E-08  0.93827000000E+00  0.93827000000E+00 0. -1.
     999902    2    1    2    0    0  0.20196430642E-01  0.93598037223E-02  0.85240150007E-02  0.10200938810E+01  0.10198153585E+01 0.  0.
     999903    2    3    3    0    0 -0.25324443240E-01  0.10185085327E+00  0.76526538449E-01  0.13147073964E+00  0.20330286691E-01 0.  0.
         14    1    1    2    0    0 -0.20196430642E-01 -0.93598037223E-02 -0.85240150007E-02  0.23836118982E-01  0.00000000000E+00 0.  1.
     999901    1    3    3    0    0  0.45520873882E-01 -0.92491049544E-01 -0.68002523448E-01  0.88862314138E+00  0.88000000000E+00 0. -1.
        -11    1    4    4    0    0 -0.22433520677E-01  0.93429374311E-01  0.61769412354E-01  0.11422798369E+00  0.51100000000E-03 0.  1.
         11    1    4    4    0    0 -0.28909225628E-02  0.84214789550E-02  0.14757126095E-01  0.17242755946E-01  0.51100000000E-03 0. -1.
</event>
<event>
 8    1  0.1071333E+005  0.1043930E+01  0.7957747E-01            NaN
         13   -1    0    0    0    0  0.00000000000E+00  0.00000000000E+00  0.74505805969E-08  0.10566000000E+00  0.10566000000E+00 0.  1.
     999900   -1    0    0    0    0 -0.00000000000E+00 -0.00000000000E+00 -0.74505805969E-08  0.93827000000E+00  0.93827000000E+00 0. -1.
     999902    2    1    2    0    0  0.26328633893E-02 -0.22446248882E-01 -0.62235442889E-02  0.10204886143E+01  0.10202193457E+01 0.  0.
     999903    2    3    3    0    0 -0.62107436477E-01 -0.77544250361E-01 -0.85740694263E-01  0.13282309549E+00  0.20495453500E-01 0.  0.
         14    1    1    2    0    0 -0.26328633893E-02  0.22446248882E-01  0.62235442889E-02  0.23441385668E-01  0.00000000000E+00 0. -1.
     999901    1    3    3    0    0  0.64740299866E-01  0.55098001479E-01  0.79517149974E-01  0.88766551884E+00  0.88000000000E+00 0.  1.
        -11    1    4    4    0    0 -0.10716582413E-01 -0.15362599211E-01 -0.67442682222E-02  0.19914840396E-01  0.51100000000E-03 0.  1.
         11    1    4    4    0    0 -0.51390854064E-01 -0.62181651150E-01 -0.78996426040E-01  0.11290825510E+00  0.51100000000E-03 0. -1.
</event>
<event>
 8    1  0.1071333E+005  0.1043930E+01  0.7957747E-01            NaN
         13   -1    0    0    0    0  0.00000000000E+00  0.00000000000E+00  0.74505805969E-08  0.10566000000E+00  0.10566000000E+00 0. -1.
     999900   -1    0    0    0    0 -0.00000000000E+00 -0.00000000000E+00 -0.74505805969E-08  0.93827000000E+00  0.93827000000E+00 0. -1.
     999902    2    1    2    0    0  0.22753568080E-01  0.57082319449E-02  0.39040716818E-02  0.10201486933E+01  0.10198714654E+01 0.  0.
     999903    2    3    3    0    0 -0.16168997277E-02  0.45180450550E-01  0.12113382845E+00  0.13116343380E+00  0.22057980310E-01 0.  0.
         14    1    1    2    0    0 -0.22753568080E-01 -0.57082319449E-02 -0.39040716818E-02  0.23781306693E-01  0.00000000000E+00 0. -1.
     999901    1    3    3    0    0  0.24370467808E-01 -0.39472218605E-01 -0.11722975677E+00  0.88898525950E+00  0.88000000000E+00 0. -1.
        -11    1    4    4    0    0  0.41353179987E-03  0.30473710176E-01  0.10453415082E+00  0.10888740895E+00  0.51100000000E-03 0.  1.
         11    1    4    4    0    0 -0.20304315276E-02  0.14706740374E-01  0.16599677635E-01  0.22276024851E-01  0.51100000000E-03 0. -1.
</event>
<event>
 8    1  0.1071333E+005  0.1043930E+01  0.7957747E-01            NaN
         13   -1    0    0    0    0  0.00000000000E+00  0.00000000000E+00  0.74505805969E-08  0.10566000000E+00  0.10566000000E+00 0.  1.
     999900   -1    0    0    0    0 -0.00000000000E+00 -0.00000000000E+00 -0.74505805969E-08  0.93827000000E+00  0.93827000000E+00 0.  1.
     999902    2    1    2    0    0 -0.92598191762E-02 -0.14984752365E-01  0.14554647501E-01  0.10210799493E+01  0.10208242444E+01 0.  0.
     999903    2    3    3    0    0  0.10526280528E+00 -0.62335417437E-03 -0.72861961075E-01  0.12924849393E+00  0.17766853048E-01 0.  0.
         14    1    1    2    0    0  0.92598191762E-02  0.14984752365E-01 -0.14554647501E-01  0.22850050733E-01  0.00000000000E+00 0. -1.
     999901    1    3    3    0    0 -0.11452262445E+00 -0.14361398191E-01  0.87416608576E-01  0.89183145533E+00  0.88000000000E+00 0. -1.
        -11    1    4    4    0    0  0.27564077843E-01 -0.38599097124E-02 -0.11220631169E-01  0.30014012980E-01  0.51100000000E-03 0.  1.
         11    1    4    4    0    0  0.77698727432E-01  0.32365555381E-02 -0.61641329905E-01  0.99234480952E-01  0.51100000000E-03 0. -1.
</event>
<event>
 8    1  0.1071333E+005  0.1043930E+01  0.7957747E-01            NaN
         13   -1    0    0    0    0  0.00000000000E+00  0.00000000000E+00  0.74505805969E-08  0.10566000000E+00  0.10566000000E+00 0. -1.
     999900   -1    0    0    0    0 -0.00000000000E+00 -0.00000000000E+00 -0.74505805969E-08  0.93827000000E+00  0.93827000000E+00 0.  1.
     999902    2    1    2    0    0  0.11395404970E-01 -0.15851071488E-01 -0.16621622497E-01  0.10182903811E+01  0.10179675389E+01 0.  0.
     999903    2    3    3    0    0  0.87029846727E-01  0.18309305606E-01  0.89867013419E-01  0.12799417776E+00  0.19924972930E-01 0.  0.
         14    1    1    2    0    0 -0.11395404970E-01  0.15851071488E-01  0.16621622497E-01  0.25639618878E-01  0.00000000000E+00 0. -1.
     999901    1    3    3    0    0 -0.75634441757E-01 -0.34160377095E-01 -0.10648863592E+00  0.89029620336E+00  0.88000000000E+00 0.  1.
        -11    1    4    4    0    0  0.67121474495E-01  0.17414908705E-01  0.79602613269E-01  0.10557181700E+00  0.51100000000E-03 0.  1.
         11    1    4    4    0    0  0.19908372233E-01  0.89439690196E-03  0.10264400150E-01  0.22422360764E-01  0.51100000000E-03 0. -1.
</event>
<event>
 8    1  0.1071333E+005  0.1043930E+01  0.7957747E-01            NaN
         13   -1    0    0    0    0  0.00000000000E+00  0.00000000000E+00  0.74505805969E-08  0.10566000000E+00  0.10566000000E+00 0. -1.
     999900   -1    0    0    0    0 -0.00000000000E+00 -0.00000000000E+00 -0.74505805969E-08  0.93827000000E+00  0.93827000000E+00 0.  1.
     999902    2    1    2    0    0 -0.87060198538E-02 -0.15216804170E-01 -0.15828810811E-01  0.10203101532E+01  0.10200367207E+01 0.  0.
     999903    2    3    3    0    0 -0.51956071911E-01 -0.11100584116E+00 -0.47043011916E-01  0.13350666147E+00  0.24274544418E-01 0.  0.
         14    1    1    2    0    0  0.87060198538E-02  0.15216804170E-01  0.15828810811E-01  0.23619846793E-01  0.00000000000E+00 0.  1.
     999901    1    3    3    0    0  0.43250052057E-01  0.95789036987E-01  0.31214201106E-01  0.88680349174E+00  0.88000000000E+00 0.  1.
        -11    1    4    4    0    0 -0.61945747314E-02 -0.39488075508E-01 -0.17042236298E-01  0.43455492202E-01  0.51100000000E-03 0. -1.
         11    1    4    4    0    0 -0.45761497180E-01 -0.71517765649E-01 -0.30000775618E-01  0.90051169266E-01  0.51100000000E-03 0.  1.
</event>
<event>
 8    1  0.1071333E+005  0.1043930E+01  0.7957747E-01            NaN
         13   -1    0    0    0    0  0.00000000000E+00  0.00000000000E+00  0.74505805969E-08  0.10566000000E+00  0.10566000000E+00 0.  1.
     999900   -1    0    0    0    0 -0.00000000000E+00 -0.00000000000E+00 -0.74505805969E-08  0.93827000000E+00  0.93827000000E+00 0.  1.
     999902    2    1    2    0    0 -0.20145524254E-02  0.23871038750E-01 -0.10973857032E-02  0.10199489832E+01  0.10196670236E+01 0.  0.
     999903    2    3    3    0    0  0.80027959926E-01  0.16708677210E-02  0.10053498538E+00  0.13003159360E+00  0.19841015068E-01 0.  0.
         14    1    1    2    0    0  0.20145524254E-02 -0.23871038750E-01  0.10973857032E-02  0.23981016823E-01  0.00000000000E+00 0. -1.
     999901    1    3    3    0    0 -0.82042512352E-01  0.22200171029E-01 -0.10163237108E+00  0.88991738958E+00  0.88000000000E+00 0.  1.
        -11    1    4    4    0    0  0.86564507489E-02 -0.60969869140E-02  0.14827757573E-01  0.18227202326E-01  0.51100000000E-03 0. -1.
         11    1    4    4    0    0  0.71371509177E-01  0.77678546351E-02  0.85707227807E-01  0.11180439127E+00  0.51100000000E-03 0.  1.
</event>
<event>
 8    1  0.1071333E+005  0.1043930E+01  0.7957747E-01            NaN
         13   -1    0    0    0    0  0.00000000000E+00  0.00000000000E+00  0.74505805969E-08  0.10566000000E+00  0.10566000000E+00 0. -1.
     999900   -1    0    0    0    0 -0.00000000000E+00 -0.00000000000E+00 -0.74505805969E-08  0.93827000000E+00  0.93827000000E+00 0.  1.
     999902    2    1    2    0    0 -0.78542095053E-02  0.12506450879E-01  0.17964245854E-01  0.10206745910E+01  0.10204096269E+01 0.  0.
     999903    2    3    3    0    0  0.21851048285E-01  0.13524667682E-01 -0.12439745551E+00  0.12873833028E+00  0.20939097367E-01 0.  0.
         14    1    1    2    0    0  0.78542095053E-02 -0.12506450879E-01 -0.17964245854E-01  0.23255409040E-01  0.00000000000E+00 0.  1.
     999901    1    3    3    0    0 -0.29705257790E-01 -0.10182168035E-02  0.14236170136E+00  0.89193626068E+00  0.88000000000E+00 0. -1.
        -11    1    4    4    0    0  0.68513835973E-02  0.16307846737E-01 -0.59901604616E-01  0.62460793134E-01  0.51100000000E-03 0. -1.
         11    1    4    4    0    0  0.14999664687E-01 -0.27831790549E-02 -0.64495850893E-01  0.66277537143E-01  0.51100000000E-03 0.  1.
</event>
<event>
 8    1  0.1071333E+005  0.1043930E+01  0.7957747E-01            NaN
         13   -1    0    0    0    0  0.00000000000E+00  0.00000000000E+00  0.74505805969E-08  0.10566000000E+00  0.10566000000E+00 0. -1.
     999900   -1    0    0    0    0 -0.00000000000E+00 -0.00000000000E+00 -0.74505805969E-08  0.93827000000E+00  0.93827000000E+00 0. -1.
     999902    2    1    2    0    0  0.10732074589E-01 -0.68724505043E-02  0.18684509996E-01  0.10213132161E+01  0.10210627632E+01 0.  0.
     999903    2    3    3    0    0  0.15952127232E-01  0.68582184696E-01 -0.10642902787E+00  0.12925153196E+00  0.20514241897E-01 0.  0.
         14    1    1    2    0    0 -0.10732074589E-01  0.68724505043E-02 -0.18684509996E-01  0.22616783916E-01  0.00000000000E+00 0.  1.
     999901    1    3    3    0    0 -0.52200526425E-02 -0.75454635201E-01  0.12511353786E+00  0.89206168412E+00  0.88000000000E+00 0.  1.
        -11    1    4    4    0    0  0.16085335851E-01  0.24890159704E-01 -0.42247095803E-01  0.51607521780E-01  0.51100000000E-03 0.  1.
         11    1    4    4    0    0 -0.13320861891E-03  0.43692024992E-01 -0.64181932065E-01  0.77644010181E-01  0.51100000000E-03 0. -1.
</event>
<event>
 8    1  0.1071333E+005  0.1043930E+01  0.7957747E-01            NaN
         13   -1    0    0    0    0  0.00000000000E+00  0.00000000000E+00  0.74505805969E-08  0.10566000000E+00  0.10566000000E+00 0. -1.
     999900   -1    0    0    0    0 -0.00000000000E+00 -0.00000000000E+00 -0.74505805969E-08  0.93827000000E+00  0.93827000000E+00 0. -1.
     999902    2    1    2    0    0  0.16292318812E-01  0.14233021194E-01  0.10873437890E-01  0.10197173959E+01  0.10194298982E+01 0.  0.
     999903    2    3    3    0    0  0.24347066370E-01 -0.90018249085E-01  0.88431826401E-01  0.13013968153E+00  0.20495950324E-01 0.  0.
         14    1    1    2    0    0 -0.16292318812E-01 -0.14233021194E-01 -0.10873437890E-01  0.24212604076E-01  0.00000000000E+00 0. -1.
     999901    1    3    3    0    0 -0.80547475574E-02  0.10425127028E+00 -0.77558388511E-01  0.88957771439E+00  0.88000000000E+00 0. -1.
        -11    1    4    4    0    0  0.17686156266E-01 -0.78409660695E-01  0.83404390175E-01  0.11583362394E+00  0.51100000000E-03 0.  1.
         11    1    4    4    0    0  0.66609101039E-02 -0.11608588390E-01  0.50274362258E-02  0.14306057592E-01  0.51100000000E-03 0. -1.
</event>
<event>
 8    1  0.1071333E+005  0.1043930E+01  0.7957747E-01            NaN
         13   -1    0    0    0    0  0.00000000000E+00  0.00000000000E+00  0.74505805969E-08  0.10566000000E+00  0.10566000000E+00 0. -1.
     999900   -1    0    0    0    0 -0.00000000000E+00 -0.00000000000E+00 -0.74505805969E-08  0.93827000000E+00  0.93827000000E+00 0.  1.
     999902    2    1    2    0    0  0.54626546057E-02 -0.21112892170E-01  0.10204242145E-01  0.10198525963E+01  0.10195683385E+01 0.  0.
     999903    2    3    3    0    0  0.27142825121E-01 -0.72172271637E-01 -0.10335571300E+00  0.13082337663E+00  0.22063152848E-01 0.  0.
         14    1    1    2    0    0 -0.54626546057E-02  0.21112892170E-01 -0.10204242145E-01  0.24077403699E-01  0.00000000000E+00 0.  1.
     999901    1    3    3    0    0 -0.21680170516E-01  0.51059379467E-01  0.11355995514E+00  0.88902921968E+00  0.88000000000E+00 0. -1.
        -11    1    4    4    0    0  0.26776012381E-01 -0.40698067478E-01 -0.62293029053E-01  0.79082046794E-01  0.51100000000E-03 0. -1.
         11    1    4    4    0    0  0.36681274039E-03 -0.31474204159E-01 -0.41062683945E-01  0.51741329832E-01  0.51100000000E-03 0.  1.
</event>
<event>
 8    1  0.1071333E+005  0.1043930E+01  0.7957747E-01            NaN
         13   -1    0    0    0    0  0.00000000000E+00  0.00000000000E+00  0.74505805969E-08  0.10566000000E+00  0.10566000000E+00 0.  1.
     999900   -1    0    0    0    0 -0.00000000000E+00 -0.00000000000E+00 -0.74505805969E-08  0.93827000000E+00  0.93827000000E+00 0.  1.
     999902    2    1    2    0    0 -0.80695793609E-02 -0.28874574380E-01  0.49928069348E-02  0.10135361309E+01  0.10130803035E+01 0.  0.
     999903    2    3    3    0    0 -0.72387090242E-01 -0.45639291606E-01  0.91459149889E-01  0.12680380016E+00  0.19788680206E-01 0.  0.
         14    1    1    2    0    0  0.80695793609E-02  0.28874574380E-01 -0.49928069348E-02  0.30393869082E-01  0.00000000000E+00 0. -1.
     999901    1    3    3    0    0  0.64317510881E-01  0.16764717226E-01 -0.86466342954E-01  0.88673233076E+00  0.88000000000E+00 0.  1.
        -11    1    4    4    0    0 -0.14314151114E-01 -0.33534337830E-02  0.82208233631E-02  0.16851809933E-01  0.51100000000E-03 0. -1.
         11    1    4    4    0    0 -0.58072939128E-01 -0.42285857823E-01  0.83238326526E-01  0.10995199023E+00  0.51100000000E-03 0.  1.
</event>
<event>
 8    1  0.1071333E+005  0.1043930E+01  0.7957747E-01            NaN
         13   -1    0    0    0    0  0.00000000000E+00  0.00000000000E+00  0.74505805969E-08  0.10566000000E+00  0.10566000000E+00 0. -1.
     999900   -1    0    0    0    0 -0.00000000000E+00 -0.00000000000E+00 -0.74505805969E-08  0.93827000000E+00  0.93827000000E+00 0. -1.
     999902    2    1    2    0    0 -0.92108294061E-02 -0.45405994042E-02  0.21376537385E-01  0.10202147566E+01  0.10199390848E+01 0.  0.
     999903    2    3    3    0    0 -0.35344120333E-01  0.11817129377E+00  0.39438914008E-01  0.13113241668E+00  0.20654811820E-01 0.  0.
         14    1    1    2    0    0  0.92108294061E-02  0.45405994042E-02 -0.21376537385E-01  0.23715243450E-01  0.00000000000E+00 0.  1.
     999901    1    3    3    0    0  0.26133290927E-01 -0.12271189318E+00 -0.18062376622E-01  0.88908233987E+00  0.88000000000E+00 0. -1.
        -11    1    4    4    0    0 -0.73562231790E-02  0.57002053514E-01  0.22808477399E-01  0.61837172368E-01  0.51100000000E-03 0. -1.
         11    1    4    4    0    0 -0.27987897154E-01  0.61169240261E-01  0.16630436609E-01  0.69295244310E-01  0.51100000000E-03 0.  1.
</event>
<event>
 8    1  0.1071333E+005  0.1043930E+01  0.7957747E-01            NaN
         13   -1    0    0    0    0  0.00000000000E+00  0.00000000000E+00  0.74505805969E-08  0.10566000000E+00  0.10566000000E+00 0.  1.
     999900   -1    0    0    0    0 -0.00000000000E+00 -0.00000000000E+00 -0.74505805969E-08  0.93827000000E+00  0.93827000000E+00 0. -1.
     999902    2    1    2    0    0  0.16856103091E-01 -0.15433420038E-01 -0.77427407620E-02  0.10197997555E+01  0.10195142336E+01 0.  0.
     999903    2    3    3    0    0 -0.16037189477E-01  0.12180379950E+00  0.29190240176E-01  0.12779074870E+00  0.19622647923E-01 0.  0.
         14    1    1    2    0    0 -0.16856103091E-01  0.15433420038E-01  0.77427407620E-02  0.24130244508E-01  0.00000000000E+00 0. -1.
     999901    1    3    3    0    0  0.32893292569E-01 -0.13723721954E+00 -0.36932980938E-01  0.89200900680E+00  0.88000000000E+00 0. -1.
        -11    1    4    4    0    0 -0.83620878217E-02  0.73898069489E-01  0.78461589978E-02  0.74784172917E-01  0.51100000000E-03 0. -1.
         11    1    4    4    0    0 -0.76751016557E-02  0.47905730013E-01  0.21344081178E-01  0.53006575780E-01  0.51100000000E-03 0.  1.
</event>
<event>
 8    1  0.1071333E+005  0.1043930E+01  0.7957747E-01            NaN
         13   -1    0    0    0    0  0.00000000000E+00  0.00000000000E+00  0.74505805969E-08  0.10566000000E+00  0.10566000000E+00 0.  1.
     999900   -1    0    0    0    0 -0.00000000000E+00 -0.00000000000E+00 -0.74505805969E-08  0.93827000000E+00  0.93827000000E+00 0.  1.
     999902    2    1    2    0    0  0.18401383797E-01 -0.28285490245E-02 -0.12833429694E-01  0.10213178676E+01  0.10210675189E+01 0.  0.
     999903    2    3    3    0    0  0.12479108279E+00  0.41441221914E-01  0.10502510592E-01  0.13349854655E+00  0.20527298494E-01 0.  0.
         14    1    1    2    0    0 -0.18401383797E-01  0.28285490245E-02  0.12833429694E-01  0.22612132428E-01  0.00000000000E+00 0.  1.
     999901    1    3    3    0    0 -0.10638969900E+00 -0.44269770938E-01 -0.23335940285E-01  0.88781932102E+00  0.88000000000E+00 0. -1.
        -11    1    4    4    0    0  0.47500308392E-01  0.26382332133E-01  0.45979559148E-02  0.54531725314E-01  0.51100000000E-03 0.  1.
         11    1    4    4    0    0  0.77290774402E-01  0.15058889781E-01  0.59045546768E-02  0.78966821236E-01  0.51100000000E-03 0. -1.
</event>
<event>
 8    1  0.1071333E+005  0.1043930E+01  0.7957747E-01            NaN
         13   -1    0    0    0    0  0.00000000000E+00  0.00000000000E+00  0.74505805969E-08  0.10566000000E+00  0.10566000000E+00 0.  1.
     999900   -1    0    0    0    0 -0.00000000000E+00 -0.00000000000E+00 -0.74505805969E-08  0.93827000000E+00  0.93827000000E+00 0.  1.
     999902    2    1    2    0    0 -0.20656177964E-01  0.15237200347E-01 -0.10135873948E-02  0.10182419226E+01  0.10179178432E+01 0.  0.
     999903    2    3    3    0    0  0.33252600512E-01  0.11521423521E+00  0.45166478178E-01  0.12974084640E+00  0.20313075546E-01 0.  0.
         14    1    1    2    0    0  0.20656177964E-01 -0.15237200347E-01  0.10135873948E-02  0.25688077427E-01  0.00000000000E+00 0.  1.
     999901    1    3    3    0    0 -0.53908778476E-01 -0.99977034865E-01 -0.46180065573E-01  0.88850107617E+00  0.88000000000E+00 0. -1.
        -11    1    4    4    0    0  0.48316216299E-02  0.16704681110E-01  0.14714846278E-01  0.22785494521E-01  0.51100000000E-03 0.  1.
         11    1    4    4    0    0  0.28420978883E-01  0.98509554102E-01  0.30451631900E-01  0.10695535188E+00  0.51100000000E-03 0. -1.
</event>
<event>
 8    1  0.1071333E+005  0.1043930E+01  0.7957747E-01            NaN
         13   -1    0    0    0    0  0.00000000000E+00  0.00000000000E+00  0.74505805969E-08  0.10566000000E+00  0.10566000000E+00 0.  1.
     999900   -1    0    0    0    0 -0.00000000000E+00 -0.00000000000E+00 -0.74505805969E-08  0.93827000000E+00  0.93827000000E+00 0.  1.
     999902    2    1    2    0    0 -0.11448258327E-01  0.19539042998E-01 -0.59919517483E-02  0.10205047934E+01  0.10202359007E+01 0.  0.
     999903    2    3    3    0    0 -0.14299046434E-01 -0.12517929769E+00  0.15886059282E-01  0.12841165222E+00  0.19049048406E-01 0.  0.
         14    1    1    2    0    0  0.11448258327E-01 -0.19539042998E-01  0.59919517483E-02  0.23425206632E-01  0.00000000000E+00 0. -1.
     999901    1    3    3    0    0  0.28507881071E-02  0.14471834069E+00 -0.21878011030E-01  0.89209314115E+00  0.88000000000E+00 0.  1.
        -11    1    4    4    0    0 -0.14709968960E-01 -0.11862047290E+00  0.10669029312E-01  0.12000537107E+00  0.51100000000E-03 0.  1.
         11    1    4    4    0    0  0.41092252613E-03 -0.65588247892E-02  0.52170299702E-02  0.84062811426E-02  0.51100000000E-03 0. -1.
</event>
<event>
 8    1  0.1071333E+005  0.1043930E+01  0.7957747E-01            NaN
         13   -1    0    0    0    0  0.00000000000E+00  0.00000000000E+00  0.74505805969E-08  0.10566000000E+00  0.10566000000E+00 0. -1.
     999900   -1    0    0    0    0 -0.00000000000E+00 -0.00000000000E+00 -0.74505805969E-08  0.93827000000E+00  0.93827000000E+00 0.  1.
     999902    2    1    2    0    0  0.22148873001E-01  0.85334484873E-02  0.20253245258E-03  0.10201932492E+01  0.10199170713E+01 0.  0.
     999903    2    3    3    0    0  0.12768655692E-01 -0.10525249180E+00 -0.72274794893E-01  0.12986286579E+00  0.19989805792E-01 0.  0.
         14    1    1    2    0    0 -0.22148873001E-01 -0.85334484873E-02 -0.20253245258E-03  0.23736750782E-01  0.00000000000E+00 0. -1.
     999901    1    3    3    0    0  0.93802173089E-02  0.11378594028E+00  0.72477327346E-01  0.89033038343E+00  0.88000000000E+00 0. -1.
        -11    1    4    4    0    0  0.86328764825E-02 -0.39528832147E-01 -0.38492654669E-01  0.55848014393E-01  0.51100000000E-03 0.  1.
         11    1    4    4    0    0  0.41357792092E-02 -0.65723659651E-01 -0.33782140225E-01  0.74014851393E-01  0.51100000000E-03 0. -1.
</event>
<event>
 8    1  0.1071333E+005  0.1043930E+01  0.7957747E-01            NaN
         13   -1    0    0    0    0  0.00000000000E+00  0.00000000000E+00  0.74505805969E-08  0.10566000000E+00  0.10566000000E+00 0. -1.
     999900   -1    0    0    0    0 -0.00000000000E+00 -0.00000000000E+00 -0.74505805969E-08  0.93827000000E+00  0.93827000000E+00 0.  1.
     999902    2    1    2    0    0 -0.17702810272E-01 -0.15017332822E-01  0.26187434835E-03  0.10207140926E+01  0.10204500382E+01 0.  0.
     999903    2    3    3    0    0 -0.67154047828E-01  0.84548139021E-01 -0.71119468817E-01  0.13085230324E+00  0.20156697793E-01 0.  0.
         14    1    1    2    0    0  0.17702810272E-01  0.15017332822E-01 -0.26187434835E-03  0.23215907365E-01  0.00000000000E+00 0.  1.
     999901    1    3    3    0    0  0.49451237556E-01 -0.99565471843E-01  0.71381343166E-01  0.88986178940E+00  0.88000000000E+00 0. -1.
        -11    1    4    4    0    0 -0.43663269523E-01  0.47124362308E-01 -0.31717200712E-01  0.71647948821E-01  0.51100000000E-03 0.  1.
         11    1    4    4    0    0 -0.23490778305E-01  0.37423776713E-01 -0.39402268106E-01  0.59204354415E-01  0.51100000000E-03 0. -1.
</event>
<event>
 8    1  0.1071333E+005  0.1043930E+01  0.7957747E-01            NaN
         13   -1    0    0    0    0  0.00000000000E+00  0.00000000000E+00  0.74505805969E-08  0.10566000000E+00  0.10566000000E+00 0. -1.
     999900   -1    0    0    0    0 -0.00000000000E+00 -0.00000000000E+00 -0.74505805969E-08  0.93827000000E+00  0.93827000000E+00 0. -1.
     999902    2    1    2    0    0  0.99807580569E-02 -0.33361675422E-02  0.28737791885E-01  0.10133259769E+01  0.10128637269E+01 0.  0.
     999903    2    3    3    0    0 -0.87094566260E-01 -0.30384786838E-01  0.83267510206E-01  0.12589781839E+00  0.20201081076E-01 0.  0.
         14    1    1    2    0    0 -0.99807580569E-02  0.33361675422E-02 -0.28737791885E-01  0.30604023064E-01  0.00000000000E+00 0.  1.
     999901    1    3    3    0    0  0.97075324317E-01  0.27048619296E-01 -0.54529718321E-01  0.88742815854E+00  0.88000000000E+00 0. -1.
        -11    1    4    4    0    0 -0.76790297732E-02  0.22485978696E-02  0.36709850528E-02  0.88182165371E-02  0.51100000000E-03 0.  1.
         11    1    4    4    0    0 -0.79415536487E-01 -0.32633384707E-01  0.79596525154E-01  0.11707960185E+00  0.51100000000E-03 0. -1.
</event>
<event>
 8    1  0.1071333E+005  0.1043930E+01  0.7957747E-01            NaN
         13   -1    0    0    0    0  0.00000000000E+00  0.00000000000E+00  0.74505805969E-08  0.10566000000E+00  0.10566000000E+00 0. -1.
     999900   -1    0    0    0    0 -0.00000000000E+00 -0.00000000000E+00 -0.74505805969E-08  0.93827000000E+00  0.93827000000E+00 0.  1.
     999902    2    1    2    0    0  0.73068993514E-02 -0.37657874384E-02  0.21650540068E-01  0.10207714634E+01  0.10205087274E+01 0.  0.
     999903    2    3    3    0    0 -0.10574722331E+00 -0.65194944188E-01 -0.32002759397E-01  0.12979814588E+00  0.19761732744E-01 0.  0.
         14    1    1    2    0    0 -0.73068993514E-02  0.37657874384E-02 -0.21650540068E-01  0.23158536620E-01  0.00000000000E+00 0.  1.
     999901    1    3    3    0    0  0.11305412266E+00  0.61429156750E-01  0.53653299465E-01  0.89097331750E+00  0.88000000000E+00 0.  1.
        -11    1    4    4    0    0 -0.46023775658E-01 -0.19967832274E-01 -0.19584655023E-01  0.53858352045E-01  0.51100000000E-03 0.  1.
         11    1    4    4    0    0 -0.59723447647E-01 -0.45227111914E-01 -0.12418104374E-01  0.75939793838E-01  0.51100000000E-03 0. -1.
</event>
<event>
 8    1  0.1071333E+005  0.1043930E+01  0.7957747E-01            NaN
         13   -1    0    0    0    0  0.00000000000E+00  0.00000000000E+00  0.74505805969E-08  0.10566000000E+00  0.10566000000E+00 0.  1.
     999900   -1    0    0    0    0 -0.00000000000E+00 -0.00000000000E+00 -0.74505805969E-08  0.93827000000E+00  0.93827000000E+00 0.  1.
     999902    2    1    2    0    0  0.14563419304E-01  0.15872893333E-01 -0.10161608785E-01  0.10201119351E+01  0.10198338393E+01 0.  0.
     999903    2    3    3    0    0  0.89458246872E-01 -0.63391305323E-01  0.66478540411E-01  0.13007499152E+00  0.21883134159E-01 0.  0.
         14    1    1    2    0    0 -0.14563419304E-01 -0.15872893333E-01  0.10161608785E-01  0.23818064944E-01  0.00000000000E+00 0.  1.
     999901    1    3    3    0    0 -0.74894827568E-01  0.79264198656E-01 -0.76640149196E-01  0.89003694353E+00  0.88000000000E+00 0.  1.
        -11    1    4    4    0    0  0.71645292273E-01 -0.60438797924E-01  0.56237554458E-01  0.10931065754E+00  0.51100000000E-03 0.  1.
         11    1    4    4    0    0  0.17812954599E-01 -0.29525073991E-02  0.10240985952E-01  0.20764333983E-01  0.51100000000E-03 0. -1.
</event>
<event>
 8    1  0.1071333E+005  0.1043930E+01  0.7957747E-01            NaN
         13   -1    0    0    0    0  0.00000000000E+00  0.00000000000E+00  0.74505805969E-08  0.10566000000E+00  0.10566000000E+00 0. -1.
     999900   -1    0    0    0    0 -0.00000000000E+00 -0.00000000000E+00 -0.74505805969E-08  0.93827000000E+00  0.93827000000E+00 0.  1.
     999902    2    1    2    0    0 -0.19452056761E-01  0.11847492245E-01  0.46540468453E-02  0.10206833715E+01  0.10204186097E+01 0.  0.
     999903    2    3    3    0    0  0.74990897104E-01  0.78492237082E-01  0.69458925762E-01  0.13076165254E+00  0.22122420189E-01 0.  0.
         14    1    1    2    0    0  0.19452056761E-01 -0.11847492245E-01 -0.46540468453E-02  0.23246628503E-01  0.00000000000E+00 0. -1.
     999901    1    3    3    0    0 -0.94442953865E-01 -0.66644744838E-01 -0.64804878917E-01  0.88992171896E+00  0.88000000000E+00 0.  1.
        -11    1    4    4    0    0 -0.27199660894E-03  0.38160396158E-02  0.61878378555E-02  0.72929142893E-02  0.51100000000E-03 0.  1.
         11    1    4    4    0    0  0.75262893713E-01  0.74676197467E-01  0.63271087907E-01  0.12346873825E+00  0.51100000000E-03 0. -1.
</event>
<event>
 8    1  0.1071333E+005  0.1043930E+01  0.7957747E-01            NaN
         13   -1    0    0    0    0  0.00000000000E+00  0.00000000000E+00  0.74505805969E-08  0.10566000000E+00  0.10566000000E+00 0.  1.
     999900   -1    0    0    0    0 -0.00000000000E+00 -0.00000000000E+00 -0.74505805969E-08  0.93827000000E+00  0.93827000000E+00 0.  1.
     999902    2    1    2    0    0  0.18637802893E-01  0.95162510641E-02 -0.11887549616E-01  0.10198625829E+01  0.10195785636E+01 0.  0.
     999903    2    3    3    0    0  0.15462791380E-02 -0.12037724058E+00  0.40369727558E-01  0.12863014273E+00  0.20565205767E-01 0.  0.
         14    1    1    2    0    0 -0.18637802893E-01 -0.95162510641E-02  0.11887549616E-01  0.24067417120E-01  0.00000000000E+00 0. -1.
     999901    1    3    3    0    0  0.17091523755E-01  0.12989349164E+00 -0.52257277173E-01  0.89123244015E+00  0.88000000000E+00 0.  1.
        -11    1    4    4    0    0 -0.19733391312E-02 -0.93625188159E-01  0.22657167218E-01  0.96349251541E-01  0.51100000000E-03 0. -1.
         11    1    4    4    0    0  0.35196182692E-02 -0.26752052416E-01  0.17712560340E-01  0.32280891190E-01  0.51100000000E-03 0.  1.
</event>
<event>
 8    1  0.1071333E+005  0.1043930E+01  0.7957747E-01            NaN
         13   -1    0    0    0    0  0.00000000000E+00  0.00000000000E+00  0.74505805969E-08  0.10566000000E+00  0.10566000000E+00 0. -1.
     999900   -1    0    0    0    0 -0.00000000000E+00 -0.00000000000E+00 -0.74505805969E-08  0.93827000000E+00  0.93827000000E+00 0.  1.
     999902    2    1    2    0    0  0.60499913825E-02 -0.18403099170E-01 -0.13970985518E-01  0.10200455931E+01  0.10197659276E+01 0.  0.
     999903    2    3    3    0    0  0.24200289440E-01 -0.10885587224E+00  0.66652319979E-01  0.13155740815E+00  0.20725948709E-01 0.  0.
         14    1    1    2    0    0 -0.60499913825E-02  0.18403099170E-01  0.13970985518E-01  0.23884406862E-01  0.00000000000E+00 0. -1.
     999901    1    3    3    0    0 -0.18150298057E-01  0.90452773072E-01 -0.80623305497E-01  0.88848818499E+00  0.88000000000E+00 0.  1.
        -11    1    4    4    0    0  0.20966465614E-01 -0.74057855311E-01  0.55416535597E-01  0.94844146642E-01  0.51100000000E-03 0.  1.
         11    1    4    4    0    0  0.32338238256E-02 -0.34798016931E-01  0.11235784382E-01  0.36713261508E-01  0.51100000000E-03 0. -1.
</event>
<event>
 8    1  0.1071333E+005  0.1043930E+01  0.7957747E-01            NaN
         13   -1    0    0    0    0  0.00000000000E+00  0.00000000000E+00  0.74505805969E-08  0.10566000000E+00  0.10566000000E+00 0.  1.
     999900   -1    0    0    0    0 -0.00000000000E+00 -0.00000000000E+00 -0.74505805969E-08  0.93827000000E+00  0.93827000000E+00 0.  1.
     999902    2    1    2    0    0  0.22500173219E-02 -0.64244050044E-02  0.22210153339E-01  0.10207001384E+01  0.10204357629E+01 0.  0.
     999903    2    3    3    0    0  0.23182932110E-01 -0.12483993347E+00 -0.26417618917E-01  0.13119179977E+00  0.19772212999E-01 0.  0.
         14    1    1    2    0    0 -0.22500173219E-02  0.64244050044E-02 -0.22210153339E-01  0.23229861579E-01  0.00000000000E+00 0. -1.
     999901    1    3    3    0    0 -0.20932914788E-01  0.11841552846E+00  0.48627772256E-01  0.88950833866E+00  0.88000000000E+00 0. -1.
        -11    1    4    4    0    0  0.12319374070E-01 -0.24826211470E-01 -0.85997352759E-02  0.29022824143E-01  0.51100000000E-03 0.  1.
         11    1    4    4    0    0  0.10863558040E-01 -0.10001372200E+00 -0.17817883641E-01  0.10216897562E+00  0.51100000000E-03 0. -1.
</event>
<event>
 8    1  0.1071333E+005  0.1043930E+01  0.7957747E-01            NaN
         13   -1    0    0    0    0  0.00000000000E+00  0.00000000000E+00  0.74505805969E-08  0.10566000000E+00  0.10566000000E+00 0.  1.
     999900   -1    0    0    0    0 -0.00000000000E+00 -0.00000000000E+00 -0.74505805969E-08  0.93827000000E+00  0.93827000000E+00 0. -1.
     999902    2    1    2    0    0  0.16494395444E-01 -0.15560255925E-01 -0.36001918470E-02  0.10209702956E+01  0.10207121026E+01 0.  0.
     999903    2    3    3    0    0 -0.23132844893E-02 -0.58124328610E-01 -0.11730514044E+00  0.13243540913E+00  0.19870902236E-01 0.  0.
         14    1    1    2    0    0 -0.16494395444E-01  0.15560255925E-01  0.36001918470E-02  0.22959704416E-01  0.00000000000E+00 0.  1.
     999901    1    3    3    0    0  0.18807679934E-01  0.42564072685E-01  0.11370494860E+00  0.88853488645E+00  0.88000000000E+00 0.  1.
        -11    1    4    4    0    0  0.80070245343E-02 -0.20825040104E-01 -0.50834348413E-01  0.55517446238E-01  0.51100000000E-03 0. -1.
         11    1    4    4    0    0 -0.10320309024E-01 -0.37299288505E-01 -0.66470792032E-01  0.76917962893E-01  0.51100000000E-03 0.  1.
</event>
<event>
 8    1  0.1071333E+005  0.1043930E+01  0.7957747E-01            NaN
         13   -1    0    0    0    0  0.00000000000E+00  0.00000000000E+00  0.74505805969E-08  0.10566000000E+00  0.10566000000E+00 0. -1.
     999900   -1    0    0    0    0 -0.00000000000E+00 -0.00000000000E+00 -0.74505805969E-08  0.93827000000E+00  0.93827000000E+00 0. -1.
     999902    2    1    2    0    0  0.61542438404E-02 -0.47965812291E-02  0.21440998691E-01  0.10211133759E+01  0.10208584271E+01 0.  0.
     999903    2    3    3    0    0 -0.90995906772E-01 -0.75402480463E-01  0.57676697023E-01  0.13221722306E+00  0.13747857446E-01 0.  0.
         14    1    1    2    0    0 -0.61542438404E-02  0.47965812291E-02 -0.21440998691E-01  0.22816624062E-01  0.00000000000E+00 0.  1.
     999901    1    3    3    0    0  0.97150150613E-01  0.70605899234E-01 -0.36235698332E-01  0.88889615288E+00  0.88000000000E+00 0. -1.
        -11    1    4    4    0    0 -0.70553966974E-01 -0.51791934496E-01  0.38958080996E-01  0.95803235491E-01  0.51100000000E-03 0.  1.
         11    1    4    4    0    0 -0.20441939799E-01 -0.23610545967E-01  0.18718616027E-01  0.36413987567E-01  0.51100000000E-03 0. -1.
</event>
<event>
 8    1  0.1071333E+005  0.1043930E+01  0.7957747E-01            NaN
         13   -1    0    0    0    0  0.00000000000E+00  0.00000000000E+00  0.74505805969E-08  0.10566000000E+00  0.10566000000E+00 0.  1.
     999900   -1    0    0    0    0 -0.00000000000E+00 -0.00000000000E+00 -0.74505805969E-08  0.93827000000E+00  0.93827000000E+00 0.  1.
     999902    2    1    2    0    0 -0.18297106110E-01 -0.11570629511E-02 -0.16364141092E-01  0.10193554603E+01  0.10190591968E+01 0.  0.
     999903    2    3    3    0    0  0.80366655888E-01  0.20594319958E-01 -0.97854659712E-01  0.12983403550E+00  0.19960384621E-01 0.  0.
         14    1    1    2    0    0  0.18297106110E-01  0.11570629511E-02  0.16364141092E-01  0.24574539677E-01  0.00000000000E+00 0.  1.
     999901    1    3    3    0    0 -0.98663761998E-01 -0.21751382909E-01  0.81490518621E-01  0.88952142482E+00  0.88000000000E+00 0.  1.
        -11    1    4    4    0    0  0.57312871834E-01  0.53645039233E-02 -0.69420905865E-01  0.90183515524E-01  0.51100000000E-03 0.  1.
         11    1    4    4    0    0  0.23053784054E-01  0.15229816035E-01 -0.28433753847E-01  0.39650519978E-01  0.51100000000E-03 0. -1.
</event>
<event>
 8    1  0.1071333E+005  0.1043930E+01  0.7957747E-01            NaN
         13   -1    0    0    0    0  0.00000000000E+00  0.00000000000E+00  0.74505805969E-08  0.10566000000E+00  0.10566000000E+00 0.  1.
     999900   -1    0    0    0    0 -0.00000000000E+00 -0.00000000000E+00 -0.74505805969E-08  0.93827000000E+00  0.93827000000E+00 0.  1.
     999902    2    1    2    0    0  0.24043766938E-01  0.72886020701E-02 -0.40694155152E-02  0.10184783480E+01  0.10181602814E+01 0.  0.
     999903    2    3    3    0    0  0.19073514231E-01  0.90869709627E-01  0.88206524906E-01  0.12970089881E+00  0.20514118120E-01 0.  0.
         14    1    1    2    0    0 -0.24043766938E-01 -0.72886020701E-02  0.40694155152E-02  0.25451652035E-01  0.00000000000E+00 0.  1.
     999901    1    3    3    0    0  0.49702527066E-02 -0.83581107557E-01 -0.92275940422E-01  0.88877744916E+00  0.88000000000E+00 0.  1.
        -11    1    4    4    0    0 -0.28322809509E-02  0.33034927706E-01  0.28234177236E-01  0.43551786980E-01  0.51100000000E-03 0. -1.
         11    1    4    4    0    0  0.21905795182E-01  0.57834781921E-01  0.59972347671E-01  0.86149111826E-01  0.51100000000E-03 0.  1.
</event>
<event>
 8    1  0.1071333E+005  0.1043930E+01  0.7957747E-01            NaN
         13   -1    0    0    0    0  0.00000000000E+00  0.00000000000E+00  0.74505805969E-08  0.10566000000E+00  0.10566000000E+00 0.  1.
     999900   -1    0    0    0    0 -0.00000000000E+00 -0.00000000000E+00 -0.74505805969E-08  0.93827000000E+00  0.93827000000E+00 0.  1.
     999902    2    1    2    0    0 -0.17565058442E-01  0.57373097125E-02 -0.15528249326E-01  0.10197934193E+01  0.10195077457E+01 0.  0.
     999903    2    3    3    0    0 -0.33341990228E-01  0.71514261838E-01  0.10070943297E+00  0.12957618862E+00  0.20533407153E-01 0.  0.
         14    1    1    2    0    0  0.17565058442E-01 -0.57373097125E-02  0.15528249326E-01  0.24136580701E-01  0.00000000000E+00 0. -1.
     999901    1    3    3    0    0  0.15776931785E-01 -0.65776952126E-01 -0.11623768230E+00  0.89021723068E+00  0.88000000000E+00 0.  1.
        -11    1    4    4    0    0  0.15775115543E-02  0.47955412396E-02  0.13106019163E-01  0.14053989390E-01  0.51100000000E-03 0.  1.
         11    1    4    4    0    0 -0.34919501782E-01  0.66718720599E-01  0.87603413810E-01  0.11552219923E+00  0.51100000000E-03 0. -1.
</event>
<event>
 8    1  0.1071333E+005  0.1043930E+01  0.7957747E-01            NaN
         13   -1    0    0    0    0  0.00000000000E+00  0.00000000000E+00  0.74505805969E-08  0.10566000000E+00  0.10566000000E+00 0.  1.
     999900   -1    0    0    0    0 -0.00000000000E+00 -0.00000000000E+00 -0.74505805969E-08  0.93827000000E+00  0.93827000000E+00 0.  1.
     999902    2    1    2    0    0 -0.10677693767E-01 -0.18658203294E-01 -0.89443883010E-02  0.10206460189E+01  0.10203803958E+01 0.  0.
     999903    2    3    3    0    0  0.59489146233E-01 -0.56009273113E-01  0.99514476593E-01  0.13043154292E+00  0.20814877903E-01 0.  0.
         14    1    1    2    0    0  0.10677693767E-01  0.18658203294E-01  0.89443883010E-02  0.23283981112E-01  0.00000000000E+00 0. -1.
     999901    1    3    3    0    0 -0.70166840000E-01  0.37351069819E-01 -0.10845886489E+00  0.89021447597E+00  0.88000000000E+00 0.  1.
        -11    1    4    4    0    0  0.36521084364E-01 -0.46094292988E-01  0.75971676358E-01  0.96075127784E-01  0.51100000000E-03 0. -1.
         11    1    4    4    0    0  0.22968061869E-01 -0.99149801255E-02  0.23542800236E-01  0.34356415134E-01  0.51100000000E-03 0.  1.
</event>
