<event>
 8    1  0.1180500E+005  0.1043930E+01  0.7957747E-01            NaN
         13   -1    0    0    0    0  0.00000000000E+00  0.00000000000E+00  0.74505805969E-08  0.10566000000E+00  0.10566000000E+00 0. -1.
     999900   -1    0    0    0    0 -0.00000000000E+00 -0.00000000000E+00 -0.74505805969E-08  0.93827000000E+00  0.93827000000E+00 0.  1.
     999902    2    1    2    0    0  0.33312096952E-02 -0.95858220152E-03 -0.23305640328E-01  0.10203679816E+01  0.10200959020E+01 0.  0.
     999903    2    3    3    0    0  0.65979386786E-01  0.11943458374E-01  0.10750878644E+00  0.12840179899E+00  0.20807622275E-01 0.  0.
         14    1    1    2    0    0 -0.33312096952E-02  0.95858220152E-03  0.23305640328E-01  0.23562018355E-01  0.00000000000E+00 0. -1.
     999901    1    3    3    0    0 -0.62648177091E-01 -0.12902040575E-01 -0.13081442677E+00  0.89196618265E+00  0.88000000000E+00 0.  1.
        -11    1    4    4    0    0  0.34141463794E-01  0.11890659551E-01  0.41011419654E-01  0.54673805406E-01  0.51100000000E-03 0.  1.
         11    1    4    4    0    0  0.31837922992E-01  0.52798822239E-04  0.66497366784E-01  0.73727993587E-01  0.51100000000E-03 0. -1.
</event>
<event>
 8    1  0.1180500E+005  0.1043930E+01  0.7957747E-01            NaN
         13   -1    0    0    0    0  0.00000000000E+00  0.00000000000E+00  0.74505805969E-08  0.10566000000E+00  0.10566000000E+00 0.  1.
     999900   -1    0    0    0    0 -0.00000000000E+00 -0.00000000000E+00 -0.74505805969E-08  0.93827000000E+00  0.93827000000E+00 0.  1.
     999902    2    1    2    0    0 -0.22744567358E-01 -0.37783511870E-02  0.21864056506E-02  0.10207703011E+01  0.10205075384E+01 0.  0.
     999903    2    3    3    0    0  0.11559495451E+00 -0.35563573047E-01  0.39161315243E-01  0.12862946719E+00  0.19620651928E-01 0.  0.
         14    1    1    2    0    0  0.22744567358E-01  0.37783511870E-02 -0.21864056506E-02  0.23159698868E-01  0.00000000000E+00 0.  1.
     999901    1    3    3    0    0 -0.13833952187E+00  0.31785221860E-01 -0.36974909592E-01  0.89214083394E+00  0.88000000000E+00 0.  1.
        -11    1    4    4    0    0  0.70831413694E-01 -0.28962657751E-01  0.31404372213E-01  0.82718924225E-01  0.51100000000E-03 0.  1.
         11    1    4    4    0    0  0.44763540820E-01 -0.66009152956E-02  0.77569430296E-02  0.45910542969E-01  0.51100000000E-03 0. -1.
</event>
<event>
 8    1  0.1180500E+005  0.1043930E+01  0.7957747E-01            NaN
         13   -1    0    0    0    0  0.00000000000E+00  0.00000000000E+00  0.74505805969E-08  0.10566000000E+00  0.10566000000E+00 0. -1.
     999900   -1    0    0    0    0 -0.00000000000E+00 -0.00000000000E+00 -0.74505805969E-08  0.93827000000E+00  0.93827000000E+00 0. -1.
     999902    2    1    2    0    0 -0.29994385190E-01 -0.26041036276E-02 -0.10904425815E-01  0.10119088976E+01  0.10114021287E+01 0.  0.
     999903    2    3    3    0    0  0.10349068585E+00 -0.42871742862E-01 -0.39156575180E-01  0.12048423395E+00  0.20854372619E-01 0.  0.
         14    1    1    2    0    0  0.29994385190E-01  0.26041036276E-02  0.10904425815E-01  0.32021102433E-01  0.00000000000E+00 0.  1.
     999901    1    3    3    0    0 -0.13348507104E+00  0.40267639234E-01  0.28252149364E-01  0.89142466362E+00  0.88000000000E+00 0.  1.
        -11    1    4    4    0    0  0.50008965499E-01 -0.30263247930E-01 -0.14331325643E-01  0.60186450479E-01  0.51100000000E-03 0. -1.
         11    1    4    4    0    0  0.53481720351E-01 -0.12608494932E-01 -0.24825249536E-01  0.60297783472E-01  0.51100000000E-03 0.  1.
</event>
<event>
 8    1  0.1180500E+005  0.1043930E+01  0.7957747E-01            NaN
         13   -1    0    0    0    0  0.00000000000E+00  0.00000000000E+00  0.74505805969E-08  0.10566000000E+00  0.10566000000E+00 0.  1.
     999900   -1    0    0    0    0 -0.00000000000E+00 -0.00000000000E+00 -0.74505805969E-08  0.93827000000E+00  0.93827000000E+00 0.  1.
     999902    2    1    2    0    0 -0.11509404054E-01 -0.18468525059E-01  0.86318860483E-02  0.10205192705E+01  0.10202507139E+01 0.  0.
     999903    2    3    3    0    0 -0.10278876663E+00 -0.48907382695E-01 -0.64318392173E-01  0.13227370243E+00  0.20050290613E-01 0.  0.
         14    1    1    2    0    0  0.11509404054E-01  0.18468525059E-01 -0.86318860483E-02  0.23410729512E-01  0.00000000000E+00 0. -1.
     999901    1    3    3    0    0  0.91279362581E-01  0.30438857636E-01  0.72950278221E-01  0.88824556806E+00  0.88000000000E+00 0. -1.
        -11    1    4    4    0    0 -0.34693133867E-01 -0.10852135940E-01 -0.29628967272E-01  0.46899032128E-01  0.51100000000E-03 0.  1.
         11    1    4    4    0    0 -0.68095632767E-01 -0.38055246756E-01 -0.34689424901E-01  0.85374670299E-01  0.51100000000E-03 0. -1.
</event>
<event>
 8    1  0.1180500E+005  0.1043930E+01  0.7957747E-01            NaN
         13   -1    0    0    0    0  0.00000000000E+00  0.00000000000E+00  0.74505805969E-08  0.10566000000E+00  0.10566000000E+00 0.  1.
     999900   -1    0    0    0    0 -0.00000000000E+00 -0.00000000000E+00 -0.74505805969E-08  0.93827000000E+00  0.93827000000E+00 0.  1.
     999902    2    1    2    0    0 -0.91123098266E-02  0.22554195778E-02 -0.21930397792E-01  0.10200749491E+01  0.10197959787E+01 0.  0.
     999903    2    3    3    0    0  0.10197191132E+00  0.35691805258E-01 -0.71331848528E-01  0.13108777289E+00  0.20581446140E-01 0.  0.
         14    1    1    2    0    0  0.91123098266E-02 -0.22554195778E-02  0.21930397792E-01  0.23855050936E-01  0.00000000000E+00 0.  1.
     999901    1    3    3    0    0 -0.11108422114E+00 -0.33436385681E-01  0.49401450736E-01  0.88898717618E+00  0.88000000000E+00 0. -1.
        -11    1    4    4    0    0  0.45317198481E-01  0.20012359142E-01 -0.21434540012E-01  0.53980029855E-01  0.51100000000E-03 0. -1.
         11    1    4    4    0    0  0.56654712837E-01  0.15679446116E-01 -0.49897308516E-01  0.77107743031E-01  0.51100000000E-03 0.  1.
</event>
<event>
 8    1  0.1180500E+005  0.1043930E+01  0.7957747E-01            NaN
         13   -1    0    0    0    0  0.00000000000E+00  0.00000000000E+00  0.74505805969E-08  0.10566000000E+00  0.10566000000E+00 0. -1.
     999900   -1    0    0    0    0 -0.00000000000E+00 -0.00000000000E+00 -0.74505805969E-08  0.93827000000E+00  0.93827000000E+00 0. -1.
     999902    2    1    2    0    0 -0.26159366245E-02  0.46423565031E-02 -0.22852648969E-01  0.10204643195E+01  0.10201944859E+01 0.  0.
     999903    2    3    3    0    0 -0.44431043446E-01 -0.53757080410E-01  0.10650791778E+00  0.12811172456E+00  0.14308602513E-01 0.  0.
         14    1    1    2    0    0  0.26159366245E-02 -0.46423565031E-02  0.22852648969E-01  0.23465680540E-01  0.00000000000E+00 0. -1.
     999901    1    3    3    0    0  0.41815106821E-01  0.58399436913E-01 -0.12936056674E+00  0.89235259490E+00  0.88000000000E+00 0. -1.
        -11    1    4    4    0    0 -0.29950559704E-01 -0.42559810729E-01  0.86819743366E-01  0.10122402123E+00  0.51100000000E-03 0.  1.
         11    1    4    4    0    0 -0.14480483741E-01 -0.11197269681E-01  0.19688174410E-01  0.26887703328E-01  0.51100000000E-03 0. -1.
</event>
<event>
 8    1  0.1180500E+005  0.1043930E+01  0.7957747E-01            NaN
         13   -1    0    0    0    0  0.00000000000E+00  0.00000000000E+00  0.74505805969E-08  0.10566000000E+00  0.10566000000E+00 0.  1.
     999900   -1    0    0    0    0 -0.00000000000E+00 -0.00000000000E+00 -0.74505805969E-08  0.93827000000E+00  0.93827000000E+00 0.  1.
     999902    2    1    2    0    0  0.30005763096E-03 -0.12318306966E-01 -0.19647645635E-01  0.10207381760E+01  0.10204746755E+01 0.  0.
     999903    2    3    3    0    0 -0.97400988331E-01 -0.80720941165E-01  0.29286563229E-01  0.13134570272E+00  0.19777966682E-01 0.  0.
         14    1    1    2    0    0 -0.30005763096E-03  0.12318306966E-01  0.19647645635E-01  0.23191823992E-01  0.00000000000E+00 0.  1.
     999901    1    3    3    0    0  0.97701045962E-01  0.68402634199E-01 -0.48934208864E-01  0.88939247329E+00  0.88000000000E+00 0. -1.
        -11    1    4    4    0    0 -0.51688325127E-01 -0.45383287882E-01  0.59967315149E-02  0.69047430678E-01  0.51100000000E-03 0. -1.
         11    1    4    4    0    0 -0.45712663205E-01 -0.35337653283E-01  0.23289831714E-01  0.62298272040E-01  0.51100000000E-03 0.  1.
</event>
<event>
 8    1  0.1180500E+005  0.1043930E+01  0.7957747E-01            NaN
         13   -1    0    0    0    0  0.00000000000E+00  0.00000000000E+00  0.74505805969E-08  0.10566000000E+00  0.10566000000E+00 0.  1.
     999900   -1    0    0    0    0 -0.00000000000E+00 -0.00000000000E+00 -0.74505805969E-08  0.93827000000E+00  0.93827000000E+00 0.  1.
     999902    2    1    2    0    0  0.10692142970E-01 -0.14491716040E-01 -0.15607032016E-01  0.10200991124E+01  0.10198207136E+01 0.  0.
     999903    2    3    3    0    0 -0.43158924175E-01 -0.77310680825E-01 -0.96435578850E-01  0.13252972709E+00  0.20607609978E-01 0.  0.
         14    1    1    2    0    0 -0.10692142970E-01  0.14491716040E-01  0.15607032016E-01  0.23830887592E-01  0.00000000000E+00 0.  1.
     999901    1    3    3    0    0  0.53851067145E-01  0.62818964785E-01  0.80828546835E-01  0.88756938532E+00  0.88000000000E+00 0. -1.
        -11    1    4    4    0    0 -0.10948712607E-01 -0.26605444739E-01 -0.45163761017E-01  0.53551381193E-01  0.51100000000E-03 0.  1.
         11    1    4    4    0    0 -0.32210211568E-01 -0.50705236086E-01 -0.51271817833E-01  0.78978345898E-01  0.51100000000E-03 0. -1.
</event>
<event>
 8    1  0.1180500E+005  0.1043930E+01  0.7957747E-01            NaN
         13   -1    0    0    0    0  0.00000000000E+00  0.00000000000E+00  0.74505805969E-08  0.10566000000E+00  0.10566000000E+00 0.  1.
     999900   -1    0    0    0    0 -0.00000000000E+00 -0.00000000000E+00 -0.74505805969E-08  0.93827000000E+00  0.93827000000E+00 0. -1.
     999902    2    1    2    0    0  0.37948704695E-02  0.24244392047E-02 -0.23625581931E-01  0.10198790734E+01  0.10195954479E+01 0.  0.
     999903    2    3    3    0    0 -0.30104092118E-01 -0.12293657309E+00  0.18021590613E-01  0.12937415483E+00  0.19830200294E-01 0.  0.
         14    1    1    2    0    0 -0.37948704695E-02 -0.24244392047E-02  0.23625581931E-01  0.24050926571E-01  0.00000000000E+00 0.  1.
     999901    1    3    3    0    0  0.33898962588E-01  0.12536101230E+00 -0.41647172544E-01  0.89050491860E+00  0.88000000000E+00 0.  1.
        -11    1    4    4    0    0 -0.13367914413E-01 -0.23477237350E-01  0.70118867883E-02  0.27916115179E-01  0.51100000000E-03 0. -1.
         11    1    4    4    0    0 -0.16736177705E-01 -0.99459335742E-01  0.11009703825E-01  0.10145803965E+00  0.51100000000E-03 0.  1.
</event>
<event>
 8    1  0.1180500E+005  0.1043930E+01  0.7957747E-01            NaN
         13   -1    0    0    0    0  0.00000000000E+00  0.00000000000E+00  0.74505805969E-08  0.10566000000E+00  0.10566000000E+00 0.  1.
     999900   -1    0    0    0    0 -0.00000000000E+00 -0.00000000000E+00 -0.74505805969E-08  0.93827000000E+00  0.93827000000E+00 0. -1.
     999902    2    1    2    0    0 -0.93715049633E-03 -0.92846909223E-02  0.21598579965E-01  0.10204016683E+01  0.10201303751E+01 0.  0.
     999903    2    3    3    0    0  0.10265489521E+00  0.14986741816E-01 -0.73983970695E-01  0.12885445228E+00  0.19162776754E-01 0.  0.
         14    1    1    2    0    0  0.93715049633E-03  0.92846909223E-02 -0.21598579965E-01  0.23528331710E-01  0.00000000000E+00 0. -1.
     999901    1    3    3    0    0 -0.10359204570E+00 -0.24271432739E-01  0.95582550659E-01  0.89154721601E+00  0.88000000000E+00 0.  1.
        -11    1    4    4    0    0  0.71760006654E-01  0.99017656067E-02 -0.61910739051E-01  0.95292939130E-01  0.51100000000E-03 0. -1.
         11    1    4    4    0    0  0.30894888553E-01  0.50849762096E-02 -0.12073231644E-01  0.33561513153E-01  0.51100000000E-03 0.  1.
</event>
<event>
 8    1  0.1180500E+005  0.1043930E+01  0.7957747E-01            NaN
         13   -1    0    0    0    0  0.00000000000E+00  0.00000000000E+00  0.74505805969E-08  0.10566000000E+00  0.10566000000E+00 0.  1.
     999900   -1    0    0    0    0 -0.00000000000E+00 -0.00000000000E+00 -0.74505805969E-08  0.93827000000E+00  0.93827000000E+00 0. -1.
     999902    2    1    2    0    0 -0.13520664737E-01 -0.13607239546E-01 -0.15477625923E-01  0.10192820336E+01  0.10189839752E+01 0.  0.
     999903    2    3    3    0    0 -0.60905218590E-01  0.70941223845E-01  0.85290362595E-01  0.12824447766E+00  0.20738785064E-01 0.  0.
         14    1    1    2    0    0  0.13520664737E-01  0.13607239546E-01  0.15477625923E-01  0.24647966391E-01  0.00000000000E+00 0.  1.
     999901    1    3    3    0    0  0.47384553853E-01 -0.84548463391E-01 -0.10076798852E+00  0.89103755595E+00  0.88000000000E+00 0. -1.
        -11    1    4    4    0    0 -0.20330721696E-01  0.36010254360E-01  0.28697911671E-01  0.50337937175E-01  0.51100000000E-03 0. -1.
         11    1    4    4    0    0 -0.40574496894E-01  0.34930969485E-01  0.56592450924E-01  0.77906540482E-01  0.51100000000E-03 0.  1.
</event>
<event>
 8    1  0.1180500E+005  0.1043930E+01  0.7957747E-01            NaN
         13   -1    0    0    0    0  0.00000000000E+00  0.00000000000E+00  0.74505805969E-08  0.10566000000E+00  0.10566000000E+00 0.  1.
     999900   -1    0    0    0    0 -0.00000000000E+00 -0.00000000000E+00 -0.74505805969E-08  0.93827000000E+00  0.93827000000E+00 0. -1.
     999902    2    1    2    0    0 -0.54030781736E-02 -0.13080470161E-01  0.18270433505E-01  0.10208193814E+01  0.10205577439E+01 0.  0.
     999903    2    3    3    0    0  0.42972840546E-01  0.11665136837E+00 -0.25967694481E-01  0.12889584685E+00  0.22036592583E-01 0.  0.
         14    1    1    2    0    0  0.54030781736E-02  0.13080470161E-01 -0.18270433505E-01  0.23110618638E-01  0.00000000000E+00 0. -1.
     999901    1    3    3    0    0 -0.48375918720E-01 -0.12973183853E+00  0.44238127987E-01  0.89192353451E+00  0.88000000000E+00 0. -1.
        -11    1    4    4    0    0  0.35249372917E-02  0.29580398907E-01  0.17254732359E-03  0.29794564537E-01  0.51100000000E-03 0. -1.
         11    1    4    4    0    0  0.39447903254E-01  0.87070969462E-01 -0.26140241805E-01  0.99101282317E-01  0.51100000000E-03 0.  1.
</event>
<event>
 8    1  0.1180500E+005  0.1043930E+01  0.7957747E-01            NaN
         13   -1    0    0    0    0  0.00000000000E+00  0.00000000000E+00  0.74505805969E-08  0.10566000000E+00  0.10566000000E+00 0.  1.
     999900   -1    0    0    0    0 -0.00000000000E+00 -0.00000000000E+00 -0.74505805969E-08  0.93827000000E+00  0.93827000000E+00 0. -1.
     999902    2    1    2    0    0 -0.18505117751E-01 -0.97073936206E-02 -0.93149560849E-02  0.10210511609E+01  0.10207948040E+01 0.  0.
     999903    2    3    3    0    0  0.18299774523E-01  0.11411627370E+00 -0.56867930321E-01  0.13035020877E+00  0.19995243361E-01 0.  0.
         14    1    1    2    0    0  0.18505117751E-01  0.97073936206E-02  0.93149560849E-02  0.22878839148E-01  0.00000000000E+00 0. -1.
     999901    1    3    3    0    0 -0.36804892274E-01 -0.12382366732E+00  0.47552974236E-01  0.89070095208E+00  0.88000000000E+00 0. -1.
        -11    1    4    4    0    0  0.17218176542E-01  0.78867963813E-01 -0.48236936053E-01  0.94040865799E-01  0.51100000000E-03 0.  1.
         11    1    4    4    0    0  0.10815979802E-02  0.35248309884E-01 -0.86309942687E-02  0.36309342970E-01  0.51100000000E-03 0. -1.
</event>
<event>
 8    1  0.1180500E+005  0.1043930E+01  0.7957747E-01            NaN
         13   -1    0    0    0    0  0.00000000000E+00  0.00000000000E+00  0.74505805969E-08  0.10566000000E+00  0.10566000000E+00 0.  1.
     999900   -1    0    0    0    0 -0.00000000000E+00 -0.00000000000E+00 -0.74505805969E-08  0.93827000000E+00  0.93827000000E+00 0.  1.
     999902    2    1    2    0    0 -0.21074443485E-01 -0.10100965864E-01 -0.85361850887E-02  0.10190497240E+01  0.10187459506E+01 0.  0.
     999903    2    3    3    0    0  0.59173920132E-01 -0.91985492436E-01 -0.67033112594E-01  0.12968660011E+00  0.19033980688E-01 0.  0.
         14    1    1    2    0    0  0.21074443485E-01  0.10100965864E-01  0.85361850887E-02  0.24880276032E-01  0.00000000000E+00 0. -1.
     999901    1    3    3    0    0 -0.80248363617E-01  0.81884526572E-01  0.58496927505E-01  0.88936312386E+00  0.88000000000E+00 0. -1.
        -11    1    4    4    0    0  0.30893345902E-01 -0.63709939872E-01 -0.46697519568E-01  0.84819070464E-01  0.51100000000E-03 0.  1.
         11    1    4    4    0    0  0.28280574231E-01 -0.28275552564E-01 -0.20335593025E-01  0.44867529644E-01  0.51100000000E-03 0. -1.
</event>
<event>
 8    1  0.1180500E+005  0.1043930E+01  0.7957747E-01            NaN
         13   -1    0    0    0    0  0.00000000000E+00  0.00000000000E+00  0.74505805969E-08  0.10566000000E+00  0.10566000000E+00 0. -1.
     999900   -1    0    0    0    0 -0.00000000000E+00 -0.00000000000E+00 -0.74505805969E-08  0.93827000000E+00  0.93827000000E+00 0. -1.
     999902    2    1    2    0    0 -0.92330791497E-02 -0.22008249654E-01  0.28823353484E-03  0.10200616971E+01  0.10197824131E+01 0.  0.
     999903    2    3    3    0    0 -0.91872868383E-01 -0.24335534372E-01 -0.89018331387E-01  0.13168654352E+00  0.19602046880E-01 0.  0.
         14    1    1    2    0    0  0.92330791497E-02  0.22008249654E-01 -0.28823353484E-03  0.23868302872E-01  0.00000000000E+00 0. -1.
     999901    1    3    3    0    0  0.82639789234E-01  0.23272847184E-02  0.89306564922E-01  0.88837515361E+00  0.88000000000E+00 0.  1.
        -11    1    4    4    0    0 -0.96121271472E-02 -0.93013014606E-02 -0.11147748125E-01  0.17419546677E-01  0.51100000000E-03 0.  1.
         11    1    4    4    0    0 -0.82260741236E-01 -0.15034232912E-01 -0.77870583262E-01  0.11426699684E+00  0.51100000000E-03 0. -1.
</event>
<event>
 8    1  0.1180500E+005  0.1043930E+01  0.7957747E-01            NaN
         13   -1    0    0    0    0  0.00000000000E+00  0.00000000000E+00  0.74505805969E-08  0.10566000000E+00  0.10566000000E+00 0.  1.
     999900   -1    0    0    0    0 -0.00000000000E+00 -0.00000000000E+00 -0.74505805969E-08  0.93827000000E+00  0.93827000000E+00 0. -1.
     999902    2    1    2    0    0  0.50858581594E-02 -0.15632432340E-01  0.16883955335E-01  0.10203650506E+01  0.10200929024E+01 0.  0.
     999903    2    3    3    0    0 -0.99494999627E-02 -0.10197280765E+00  0.82618532789E-01  0.13357208878E+00  0.22764773016E-01 0.  0.
         14    1    1    2    0    0 -0.50858581594E-02  0.15632432340E-01 -0.16883955335E-01  0.23564949434E-01  0.00000000000E+00 0. -1.
     999901    1    3    3    0    0  0.15035358122E-01  0.86340375312E-01 -0.65734577454E-01  0.88679296179E+00  0.88000000000E+00 0. -1.
        -11    1    4    4    0    0  0.90316445971E-03 -0.24429139461E-01  0.88750359181E-02  0.26012034607E-01  0.51100000000E-03 0. -1.
         11    1    4    4    0    0 -0.10852664422E-01 -0.77543668191E-01  0.73743496871E-01  0.10756005417E+00  0.51100000000E-03 0.  1.
</event>
<event>
 8    1  0.1180500E+005  0.1043930E+01  0.7957747E-01            NaN
         13   -1    0    0    0    0  0.00000000000E+00  0.00000000000E+00  0.74505805969E-08  0.10566000000E+00  0.10566000000E+00 0. -1.
     999900   -1    0    0    0    0 -0.00000000000E+00 -0.00000000000E+00 -0.74505805969E-08  0.93827000000E+00  0.93827000000E+00 0. -1.
     999902    2    1    2    0    0  0.13287216955E-01  0.23588827523E-01 -0.17614033023E-01  0.10116308192E+01  0.10111150663E+01 0.  0.
     999903    2    3    3    0    0  0.65968030265E-01 -0.22351490637E-01  0.97081530477E-01  0.12143934927E+00  0.21709947967E-01 0.  0.
         14    1    1    2    0    0 -0.13287216955E-01 -0.23588827523E-01  0.17614033023E-01  0.32299180759E-01  0.00000000000E+00 0. -1.
     999901    1    3    3    0    0 -0.52680813310E-01  0.45940318160E-01 -0.11469556350E+00  0.89019146997E+00  0.88000000000E+00 0. -1.
        -11    1    4    4    0    0  0.10691328851E-01 -0.12286913434E-01  0.27955371153E-01  0.32357945726E-01  0.51100000000E-03 0.  1.
         11    1    4    4    0    0  0.55276701414E-01 -0.10064577203E-01  0.69126159324E-01  0.89081403544E-01  0.51100000000E-03 0. -1.
</event>
<event>
 8    1  0.1180500E+005  0.1043930E+01  0.7957747E-01            NaN
         13   -1    0    0    0    0  0.00000000000E+00  0.00000000000E+00  0.74505805969E-08  0.10566000000E+00  0.10566000000E+00 0.  1.
     999900   -1    0    0    0    0 -0.00000000000E+00 -0.00000000000E+00 -0.74505805969E-08  0.93827000000E+00  0.93827000000E+00 0. -1.
     999902    2    1    2    0    0  0.31283116264E-02  0.67793836629E-02  0.22297686822E-01  0.10204154680E+01  0.10201444967E+01 0.  0.
     999903    2    3    3    0    0  0.31770437345E-02  0.87741065764E-01  0.98466016155E-01  0.13342256459E+00  0.19935801383E-01 0.  0.
         14    1    1    2    0    0 -0.31283116264E-02 -0.67793836629E-02 -0.22297686822E-01  0.23514531977E-01  0.00000000000E+00 0. -1.
     999901    1    3    3    0    0 -0.48732108028E-04 -0.80961682101E-01 -0.76168329333E-01  0.88699290343E+00  0.88000000000E+00 0. -1.
        -11    1    4    4    0    0  0.28326224161E-02  0.54159390162E-01  0.74546638618E-01  0.92188533684E-01  0.51100000000E-03 0.  1.
         11    1    4    4    0    0  0.34442131838E-03  0.33581675601E-01  0.23919377537E-01  0.41234030909E-01  0.51100000000E-03 0. -1.
</event>
<event>
 8    1  0.1180500E+005  0.1043930E+01  0.7957747E-01            NaN
         13   -1    0    0    0    0  0.00000000000E+00  0.00000000000E+00  0.74505805969E-08  0.10566000000E+00  0.10566000000E+00 0.  1.
     999900   -1    0    0    0    0 -0.00000000000E+00 -0.00000000000E+00 -0.74505805969E-08  0.93827000000E+00  0.93827000000E+00 0.  1.
     999902    2    1    2    0    0  0.48403772383E-02 -0.30388600417E-02  0.23618699384E-01  0.10196296526E+01  0.10193400422E+01 0.  0.
     999903    2    3    3    0    0  0.53835549199E-01  0.50707996417E-01 -0.10218079484E+00  0.12771330890E+00  0.20005178766E-01 0.  0.
         14    1    1    2    0    0 -0.48403772383E-02  0.30388600417E-02 -0.23618699384E-01  0.24300347379E-01  0.00000000000E+00 0. -1.
     999901    1    3    3    0    0 -0.48995171961E-01 -0.53746856459E-01  0.12579949422E+00  0.89191634372E+00  0.88000000000E+00 0. -1.
        -11    1    4    4    0    0  0.39746939184E-01  0.29320195914E-01 -0.78972459395E-01  0.93147214274E-01  0.51100000000E-03 0.  1.
         11    1    4    4    0    0  0.14088610015E-01  0.21387800503E-01 -0.23208335443E-01  0.34566094624E-01  0.51100000000E-03 0. -1.
</event>
<event>
 8    1  0.1180500E+005  0.1043930E+01  0.7957747E-01            NaN
         13   -1    0    0    0    0  0.00000000000E+00  0.00000000000E+00  0.74505805969E-08  0.10566000000E+00  0.10566000000E+00 0. -1.
     999900   -1    0    0    0    0 -0.00000000000E+00 -0.00000000000E+00 -0.74505805969E-08  0.93827000000E+00  0.93827000000E+00 0.  1.
     999902    2    1    2    0    0  0.18434654443E-01 -0.79187114728E-02  0.16498809115E-01  0.10179539884E+01  0.10176225083E+01 0.  0.
     999903    2    3    3    0    0 -0.12027469920E-01  0.33463389286E-01 -0.11911799051E+00  0.12608385458E+00  0.21061440304E-01 0.  0.
         14    1    1    2    0    0 -0.18434654443E-01  0.79187114728E-02 -0.16498809115E-01  0.25976011588E-01  0.00000000000E+00 0.  1.
     999901    1    3    3    0    0  0.30462124363E-01 -0.41382100759E-01  0.13561679962E+00  0.89187013383E+00  0.88000000000E+00 0. -1.
        -11    1    4    4    0    0 -0.15221435086E-02  0.10699617620E-01 -0.71040911375E-01  0.71860078960E-01  0.51100000000E-03 0. -1.
         11    1    4    4    0    0 -0.10505326412E-01  0.22763771666E-01 -0.48077079132E-01  0.54223775619E-01  0.51100000000E-03 0.  1.
</event>
<event>
 8    1  0.1180500E+005  0.1043930E+01  0.7957747E-01            NaN
         13   -1    0    0    0    0  0.00000000000E+00  0.00000000000E+00  0.74505805969E-08  0.10566000000E+00  0.10566000000E+00 0.  1.
     999900   -1    0    0    0    0 -0.00000000000E+00 -0.00000000000E+00 -0.74505805969E-08  0.93827000000E+00  0.93827000000E+00 0. -1.
     999902    2    1    2    0    0 -0.51211817895E-02 -0.24661608595E-02  0.22169976446E-01  0.10210429664E+01  0.10207864237E+01 0.  0.
     999903    2    3    3    0    0  0.12375360607E+00  0.37723367464E-01 -0.17477940755E-02  0.13042746636E+00  0.16439638927E-01 0.  0.
         14    1    1    2    0    0  0.51211817895E-02  0.24661608595E-02 -0.22169976446E-01  0.22887033620E-01  0.00000000000E+00 0. -1.
     999901    1    3    3    0    0 -0.12887478786E+00 -0.40189528324E-01  0.23917770521E-01  0.89061550002E+00  0.88000000000E+00 0.  1.
        -11    1    4    4    0    0  0.89169531249E-01  0.24747439841E-01 -0.82860115679E-02  0.92911571887E-01  0.51100000000E-03 0.  1.
         11    1    4    4    0    0  0.34584074822E-01  0.12975927623E-01  0.65382174923E-02  0.37515894471E-01  0.51100000000E-03 0. -1.
</event>
<event>
 8    1  0.1180500E+005  0.1043930E+01  0.7957747E-01            NaN
         13   -1    0    0    0    0  0.00000000000E+00  0.00000000000E+00  0.74505805969E-08  0.10566000000E+00  0.10566000000E+00 0.  1.
     999900   -1    0    0    0    0 -0.00000000000E+00 -0.00000000000E+00 -0.74505805969E-08  0.93827000000E+00  0.93827000000E+00 0. -1.
     999902    2    1    2    0    0 -0.14972906885E-01  0.11313534317E-01 -0.13635971528E-01  0.10207325062E+01  0.10204688753E+01 0.  0.
     999903    2    3    3    0    0  0.58591730392E-01 -0.53337253459E-01 -0.10228404750E+00  0.13087298830E+00  0.19694141696E-01 0.  0.
         14    1    1    2    0    0  0.14972906885E-01 -0.11313534317E-01  0.13635971528E-01  0.23197493805E-01  0.00000000000E+00 0.  1.
     999901    1    3    3    0    0 -0.73564637276E-01  0.64650787777E-01  0.88648075968E-01  0.88985951790E+00  0.88000000000E+00 0.  1.
        -11    1    4    4    0    0  0.31492271996E-01 -0.41340758559E-01 -0.63379650845E-01  0.81963789420E-01  0.51100000000E-03 0. -1.
         11    1    4    4    0    0  0.27099458396E-01 -0.11996494900E-01 -0.38904396651E-01  0.48909198879E-01  0.51100000000E-03 0.  1.
</event>
<event>
 8    1  0.1180500E+005  0.1043930E+01  0.7957747E-01            NaN
         13   -1    0    0    0    0  0.00000000000E+00  0.00000000000E+00  0.74505805969E-08  0.10566000000E+00  0.10566000000E+00 0. -1.
     999900   -1    0    0    0    0 -0.00000000000E+00 -0.00000000000E+00 -0.74505805969E-08  0.93827000000E+00  0.93827000000E+00 0. -1.
     999902    2    1    2    0    0  0.10811999607E-02 -0.21154310269E-01 -0.11256613851E-01  0.10199428119E+01  0.10196607055E+01 0.  0.
     999903    2    3    3    0    0  0.12831782682E+00 -0.13675300238E-01 -0.53726269178E-02  0.13074108222E+00  0.20294998036E-01 0.  0.
         14    1    1    2    0    0 -0.10811999607E-02  0.21154310269E-01  0.11256613851E-01  0.23987188074E-01  0.00000000000E+00 0.  1.
     999901    1    3    3    0    0 -0.12723662686E+00 -0.74790100304E-02 -0.58839869334E-02  0.88920172970E+00  0.88000000000E+00 0. -1.
        -11    1    4    4    0    0  0.34670644259E-01 -0.87215579403E-02 -0.90762898328E-02  0.36888471158E-01  0.51100000000E-03 0.  1.
         11    1    4    4    0    0  0.93647182557E-01 -0.49537422981E-02  0.37036629150E-02  0.93852611065E-01  0.51100000000E-03 0. -1.
</event>
<event>
 8    1  0.1180500E+005  0.1043930E+01  0.7957747E-01            NaN
         13   -1    0    0    0    0  0.00000000000E+00  0.00000000000E+00  0.74505805969E-08  0.10566000000E+00  0.10566000000E+00 0.  1.
     999900   -1    0    0    0    0 -0.00000000000E+00 -0.00000000000E+00 -0.74505805969E-08  0.93827000000E+00  0.93827000000E+00 0.  1.
     999902    2    1    2    0    0 -0.15742262964E-01 -0.11375722071E-01  0.16017952841E-01  0.10187546011E+01  0.10184434872E+01 0.  0.
     999903    2    3    3    0    0  0.11448812493E+00 -0.53726596480E-01  0.15377353973E-02  0.12804520564E+00  0.19978291661E-01 0.  0.
         14    1    1    2    0    0  0.15742262964E-01  0.11375722071E-01 -0.16017952841E-01  0.25175398886E-01  0.00000000000E+00 0. -1.
     999901    1    3    3    0    0 -0.13023038789E+00  0.42350874409E-01  0.14480217444E-01  0.89070939548E+00  0.88000000000E+00 0. -1.
        -11    1    4    4    0    0  0.40641751910E-01 -0.21762011267E-01  0.98602828683E-02  0.47146828440E-01  0.51100000000E-03 0.  1.
         11    1    4    4    0    0  0.73846373018E-01 -0.31964585213E-01 -0.83225474710E-02  0.80898377197E-01  0.51100000000E-03 0. -1.
</event>
<event>
 8    1  0.1180500E+005  0.1043930E+01  0.7957747E-01            NaN
         13   -1    0    0    0    0  0.00000000000E+00  0.00000000000E+00  0.74505805969E-08  0.10566000000E+00  0.10566000000E+00 0. -1.
     999900   -1    0    0    0    0 -0.00000000000E+00 -0.00000000000E+00 -0.74505805969E-08  0.93827000000E+00  0.93827000000E+00 0.  1.
     999902    2    1    2    0    0  0.39827311097E-02  0.17512467540E-01 -0.16132582870E-01  0.10197885647E+01  0.10195027748E+01 0.  0.
     999903    2    3    3    0    0  0.12607259361E+00 -0.23348109065E-01  0.76418529103E-02  0.13010280839E+00  0.20710137126E-01 0.  0.
         14    1    1    2    0    0 -0.39827311097E-02 -0.17512467540E-01  0.16132582870E-01  0.24141435261E-01  0.00000000000E+00 0. -1.
     999901    1    3    3    0    0 -0.12208986250E+00  0.40860576604E-01 -0.23774435780E-01  0.88968575634E+00  0.88000000000E+00 0.  1.
        -11    1    4    4    0    0  0.10082930060E+00 -0.15778999854E-01  0.13931330276E-01  0.10300421244E+00  0.51100000000E-03 0. -1.
         11    1    4    4    0    0  0.25243293011E-01 -0.75691092110E-02 -0.62894773658E-02  0.27098595957E-01  0.51100000000E-03 0.  1.
</event>
<event>
 8    1  0.1180500E+005  0.1043930E+01  0.7957747E-01            NaN
         13   -1    0    0    0    0  0.00000000000E+00  0.00000000000E+00  0.74505805969E-08  0.10566000000E+00  0.10566000000E+00 0. -1.
     999900   -1    0    0    0    0 -0.00000000000E+00 -0.00000000000E+00 -0.74505805969E-08  0.93827000000E+00  0.93827000000E+00 0. -1.
     999902    2    1    2    0    0  0.11912505713E-01 -0.70501410829E-02 -0.11112440452E-01  0.10261789827E+01  0.10260254412E+01 0.  0.
     999903    2    3    3    0    0  0.19826767047E-01  0.11291233221E+00  0.67517236268E-01  0.13453092626E+00  0.19942353674E-01 0.  0.
         14    1    1    2    0    0 -0.11912505713E-01  0.70501410829E-02  0.11112440452E-01  0.17751017279E-01  0.00000000000E+00 0.  1.
     999901    1    3    3    0    0 -0.79142613344E-02 -0.11996247329E+00 -0.78629676720E-01  0.89164805646E+00  0.88000000000E+00 0.  1.
        -11    1    4    4    0    0  0.20686026139E-01  0.63276968955E-01  0.41946970214E-01  0.78687330039E-01  0.51100000000E-03 0. -1.
         11    1    4    4    0    0 -0.85925909156E-03  0.49635363256E-01  0.25570266054E-01  0.55843596220E-01  0.51100000000E-03 0.  1.
</event>
<event>
 8    1  0.1180500E+005  0.1043930E+01  0.7957747E-01            NaN
         13   -1    0    0    0    0  0.00000000000E+00  0.00000000000E+00  0.74505805969E-08  0.10566000000E+00  0.10566000000E+00 0. -1.
     999900   -1    0    0    0    0 -0.00000000000E+00 -0.00000000000E+00 -0.74505805969E-08  0.93827000000E+00  0.93827000000E+00 0.  1.
     999902    2    1    2    0    0 -0.73191261847E-02 -0.20759010127E-01  0.11778726554E-01  0.10189651345E+01  0.10186592663E+01 0.  0.
     999903    2    3    3    0    0 -0.87826838607E-01 -0.96324425884E-01 -0.11154985895E-02  0.13197140012E+00  0.20573223125E-01 0.  0.
         14    1    1    2    0    0  0.73191261847E-02  0.20759010127E-01 -0.11778726554E-01  0.24964865487E-01  0.00000000000E+00 0.  1.
     999901    1    3    3    0    0  0.80507712423E-01  0.75565415757E-01  0.12894225143E-01  0.88699373440E+00  0.88000000000E+00 0. -1.
        -11    1    4    4    0    0 -0.36113853466E-01 -0.52619116693E-01  0.48076936234E-02  0.64002788164E-01  0.51100000000E-03 0. -1.
         11    1    4    4    0    0 -0.51712985142E-01 -0.43705309190E-01 -0.59231922128E-02  0.67968611952E-01  0.51100000000E-03 0.  1.
</event>
<event>
 8    1  0.1180500E+005  0.1043930E+01  0.7957747E-01            NaN
         13   -1    0    0    0    0  0.00000000000E+00  0.00000000000E+00  0.74505805969E-08  0.10566000000E+00  0.10566000000E+00 0. -1.
     999900   -1    0    0    0    0 -0.00000000000E+00 -0.00000000000E+00 -0.74505805969E-08  0.93827000000E+00  0.93827000000E+00 0. -1.
     999902    2    1    2    0    0  0.22640591982E-02 -0.40071119405E-02 -0.92627032524E-02  0.10335868582E+01  0.10335351048E+01 0.  0.
     999903    2    3    3    0    0  0.91374363708E-01  0.10640486471E+00  0.99392940303E-02  0.14201511818E+00  0.19955817423E-01 0.  0.
         14    1    1    2    0    0 -0.22640591982E-02  0.40071119405E-02  0.92627032524E-02  0.10343141771E-01  0.00000000000E+00 0. -1.
     999901    1    3    3    0    0 -0.89110304509E-01 -0.11041197665E+00 -0.19201997283E-01  0.89157174005E+00  0.88000000000E+00 0. -1.
        -11    1    4    4    0    0  0.15065780022E-01  0.11891792140E-01 -0.43983844991E-02  0.19697699235E-01  0.51100000000E-03 0. -1.
         11    1    4    4    0    0  0.76308583686E-01  0.94513072567E-01  0.14337678529E-01  0.12231741894E+00  0.51100000000E-03 0.  1.
</event>
<event>
 8    1  0.1180500E+005  0.1043930E+01  0.7957747E-01            NaN
         13   -1    0    0    0    0  0.00000000000E+00  0.00000000000E+00  0.74505805969E-08  0.10566000000E+00  0.10566000000E+00 0. -1.
     999900   -1    0    0    0    0 -0.00000000000E+00 -0.00000000000E+00 -0.74505805969E-08  0.93827000000E+00  0.93827000000E+00 0.  1.
     999902    2    1    2    0    0 -0.75773378293E-02  0.29027831308E-02 -0.21986664340E-01  0.10204937971E+01  0.10202246489E+01 0.  0.
     999903    2    3    3    0    0 -0.76166424362E-01 -0.28712508201E-01  0.98166159588E-01  0.12912367725E+00  0.20263188543E-01 0.  0.
         14    1    1    2    0    0  0.75773378293E-02 -0.29027831308E-02  0.21986664340E-01  0.23436202919E-01  0.00000000000E+00 0. -1.
     999901    1    3    3    0    0  0.68589086532E-01  0.31615291332E-01 -0.12015282393E+00  0.89137011984E+00  0.88000000000E+00 0.  1.
        -11    1    4    4    0    0 -0.30034936805E-01 -0.14567897637E-01  0.55212532499E-01  0.64521360312E-01  0.51100000000E-03 0.  1.
         11    1    4    4    0    0 -0.46131487556E-01 -0.14144610563E-01  0.42953627089E-01  0.64602316934E-01  0.51100000000E-03 0. -1.
</event>
<event>
 8    1  0.1180500E+005  0.1043930E+01  0.7957747E-01            NaN
         13   -1    0    0    0    0  0.00000000000E+00  0.00000000000E+00  0.74505805969E-08  0.10566000000E+00  0.10566000000E+00 0.  1.
     999900   -1    0    0    0    0 -0.00000000000E+00 -0.00000000000E+00 -0.74505805969E-08  0.93827000000E+00  0.93827000000E+00 0. -1.
     999902    2    1    2    0    0 -0.18888222659E-01 -0.10358412982E-01  0.87519905698E-02  0.10206779245E+01  0.10204130373E+01 0.  0.
     999903    2    3    3    0    0  0.73347128116E-01  0.99971876861E-01 -0.26567791402E-01  0.12830601787E+00  0.19555288718E-01 0.  0.
         14    1    1    2    0    0  0.18888222659E-01  0.10358412982E-01 -0.87519905698E-02  0.23252075470E-01  0.00000000000E+00 0. -1.
     999901    1    3    3    0    0 -0.92235350775E-01 -0.11033028984E+00  0.35319781972E-01  0.89237190666E+00  0.88000000000E+00 0. -1.
        -11    1    4    4    0    0  0.50201968142E-01  0.54182924438E-01 -0.10956354638E-01  0.74674826641E-01  0.51100000000E-03 0.  1.
         11    1    4    4    0    0  0.23145159974E-01  0.45788952424E-01 -0.15611436764E-01  0.53631191233E-01  0.51100000000E-03 0. -1.
</event>
<event>
 8    1  0.1300602E+005  0.1043930E+01  0.7957747E-01            NaN
         13   -1    0    0    0    0  0.00000000000E+00  0.00000000000E+00  0.74505805969E-08  0.10566000000E+00  0.10566000000E+00 0.  1.
     999900   -1    0    0    0    0 -0.00000000000E+00 -0.00000000000E+00 -0.74505805969E-08  0.93827000000E+00  0.93827000000E+00 0.  1.
     999902    2    1    2    0    0 -0.39094881681E-02 -0.11987853633E-01  0.20885459022E-01  0.10195333787E+01  0.10192414410E+01 0.  0.
     999903    2    3    3    0    0 -0.38166951821E-01  0.96351671331E-02  0.12488042770E+00  0.13248429192E+00  0.20184492218E-01 0.  0.
         14    1    1    2    0    0  0.39094881681E-02  0.11987853633E-01 -0.20885459022E-01  0.24396621304E-01  0.00000000000E+00 0. -1.
     999901    1    3    3    0    0  0.34257463653E-01 -0.21623020766E-01 -0.10399496868E+00  0.88704908678E+00  0.88000000000E+00 0.  1.
        -11    1    4    4    0    0 -0.15111841182E-01  0.49776461253E-02  0.82406260623E-01  0.83929718311E-01  0.51100000000E-03 0. -1.
         11    1    4    4    0    0 -0.23055110639E-01  0.46575210077E-02  0.42474167076E-01  0.48554573608E-01  0.51100000000E-03 0.  1.
</event>
<event>
 8    1  0.1180500E+005  0.1043930E+01  0.7957747E-01            NaN
         13   -1    0    0    0    0  0.00000000000E+00  0.00000000000E+00  0.74505805969E-08  0.10566000000E+00  0.10566000000E+00 0. -1.
     999900   -1    0    0    0    0 -0.00000000000E+00 -0.00000000000E+00 -0.74505805969E-08  0.93827000000E+00  0.93827000000E+00 0.  1.
     999902    2    1    2    0    0 -0.10515785320E-01 -0.30043692091E-01  0.16091603962E-01  0.10082628598E+01  0.10076318025E+01 0.  0.
     999903    2    3    3    0    0  0.11577910575E+00 -0.20037615132E-01  0.98526884117E-05  0.11904458294E+00  0.19112961114E-01 0.  0.
         14    1    1    2    0    0  0.10515785320E-01  0.30043692091E-01 -0.16091603962E-01  0.35667140247E-01  0.00000000000E+00 0.  1.
     999901    1    3    3    0    0 -0.12629489107E+00 -0.10006076960E-01  0.16081751273E-01  0.88921827681E+00  0.88000000000E+00 0. -1.
        -11    1    4    4    0    0  0.74612158393E-01 -0.21976571280E-01  0.15769898514E-02  0.77799048087E-01  0.51100000000E-03 0. -1.
         11    1    4    4    0    0  0.41166947358E-01  0.19389561484E-02 -0.15671371630E-02  0.41245534857E-01  0.51100000000E-03 0.  1.
</event>
<event>
 8    1  0.1180500E+005  0.1043930E+01  0.7957747E-01            NaN
         13   -1    0    0    0    0  0.00000000000E+00  0.00000000000E+00  0.74505805969E-08  0.10566000000E+00  0.10566000000E+00 0. -1.
     999900   -1    0    0    0    0 -0.00000000000E+00 -0.00000000000E+00 -0.74505805969E-08  0.93827000000E+00  0.93827000000E+00 0.  1.
     999902    2    1    2    0    0 -0.11825276341E-01 -0.13926247136E-01 -0.14754321600E-01  0.10204466543E+01  0.10201764096E+01 0.  0.
     999903    2    3    3    0    0  0.20212574550E-01  0.68228689583E-01  0.10480956975E+00  0.12799420086E+00  0.18269299119E-01 0.  0.
         14    1    1    2    0    0  0.11825276341E-01  0.13926247136E-01  0.14754321600E-01  0.23483345710E-01  0.00000000000E+00 0. -1.
     999901    1    3    3    0    0 -0.32037850892E-01 -0.82154936719E-01 -0.11956389135E+00  0.89245245343E+00  0.88000000000E+00 0.  1.
        -11    1    4    4    0    0  0.58791464899E-02  0.41768443733E-01  0.72187012698E-01  0.83608571202E-01  0.51100000000E-03 0.  1.
         11    1    4    4    0    0  0.14333428061E-01  0.26460245850E-01  0.32622557054E-01  0.44385629658E-01  0.51100000000E-03 0. -1.
</event>
<event>
 8    1  0.1180500E+005  0.1043930E+01  0.7957747E-01            NaN
         13   -1    0    0    0    0  0.00000000000E+00  0.00000000000E+00  0.74505805969E-08  0.10566000000E+00  0.10566000000E+00 0.  1.
     999900   -1    0    0    0    0 -0.00000000000E+00 -0.00000000000E+00 -0.74505805969E-08  0.93827000000E+00  0.93827000000E+00 0.  1.
     999902    2    1    2    0    0  0.17218239771E-01  0.10129213099E-01 -0.35034987749E-02  0.10236484014E+01  0.10234474615E+01 0.  0.
     999903    2    3    3    0    0 -0.43922517671E-01  0.12476691336E+00 -0.95541857983E-02  0.13408861961E+00  0.19811744363E-01 0.  0.
         14    1    1    2    0    0 -0.17218239771E-01 -0.10129213099E-01  0.35034987749E-02  0.20281598618E-01  0.00000000000E+00 0.  1.
     999901    1    3    3    0    0  0.61140757442E-01 -0.11463770026E+00  0.60506870234E-02  0.88955978178E+00  0.88000000000E+00 0.  1.
        -11    1    4    4    0    0 -0.28405493972E-01  0.55046367535E-01  0.55929306611E-03  0.61947950703E-01  0.51100000000E-03 0. -1.
         11    1    4    4    0    0 -0.15517023699E-01  0.69720545820E-01 -0.10113478864E-01  0.72140668903E-01  0.51100000000E-03 0.  1.
</event>
<event>
 8    1  0.1180500E+005  0.1043930E+01  0.7957747E-01            NaN
         13   -1    0    0    0    0  0.00000000000E+00  0.00000000000E+00  0.74505805969E-08  0.10566000000E+00  0.10566000000E+00 0.  1.
     999900   -1    0    0    0    0 -0.00000000000E+00 -0.00000000000E+00 -0.74505805969E-08  0.93827000000E+00  0.93827000000E+00 0. -1.
     999902    2    1    2    0    0 -0.18893177196E-01 -0.13143665665E-01  0.71922194784E-02  0.10198170136E+01  0.10195319049E+01 0.  0.
     999903    2    3    3    0    0  0.58773871138E-02  0.30553885484E-01  0.12510594890E+00  0.13053263591E+00  0.20474056497E-01 0.  0.
         14    1    1    2    0    0  0.18893177196E-01  0.13143665665E-01 -0.71922194784E-02  0.24112986390E-01  0.00000000000E+00 0.  1.
     999901    1    3    3    0    0 -0.24770564309E-01 -0.43697551149E-01 -0.11791372942E+00  0.88928437770E+00  0.88000000000E+00 0. -1.
        -11    1    4    4    0    0 -0.57519408314E-02  0.14772974532E-01  0.76364457665E-01  0.77994340278E-01  0.51100000000E-03 0. -1.
         11    1    4    4    0    0  0.11629327945E-01  0.15780910953E-01  0.48741491238E-01  0.52538295633E-01  0.51100000000E-03 0.  1.
</event>
<event>
 8    1  0.1180500E+005  0.1043930E+01  0.7957747E-01            NaN
         13   -1    0    0    0    0  0.00000000000E+00  0.00000000000E+00  0.74505805969E-08  0.10566000000E+00  0.10566000000E+00 0. -1.
     999900   -1    0    0    0    0 -0.00000000000E+00 -0.00000000000E+00 -0.74505805969E-08  0.93827000000E+00  0.93827000000E+00 0.  1.
     999902    2    1    2    0    0  0.19758330264E-01 -0.94607393482E-02 -0.62030092289E-02  0.10211621602E+01  0.10209083127E+01 0.  0.
     999903    2    3    3    0    0 -0.35226382819E-01 -0.11824779978E+00 -0.42340919552E-01  0.13202556120E+00  0.20360627237E-01 0.  0.
         14    1    1    2    0    0 -0.19758330264E-01  0.94607393482E-02  0.62030092289E-02  0.22767839760E-01  0.00000000000E+00 0. -1.
     999901    1    3    3    0    0  0.54984713083E-01  0.10878706044E+00  0.36137910323E-01  0.88913659904E+00  0.88000000000E+00 0. -1.
        -11    1    4    4    0    0 -0.33671933894E-01 -0.88503779578E-01 -0.26732690424E-01  0.98395203085E-01  0.51100000000E-03 0.  1.
         11    1    4    4    0    0 -0.15544489252E-02 -0.29744020205E-01 -0.15608229128E-01  0.33630358115E-01  0.51100000000E-03 0. -1.
</event>
<event>
 8    1  0.1180500E+005  0.1043930E+01  0.7957747E-01            NaN
         13   -1    0    0    0    0  0.00000000000E+00  0.00000000000E+00  0.74505805969E-08  0.10566000000E+00  0.10566000000E+00 0.  1.
     999900   -1    0    0    0    0 -0.00000000000E+00 -0.00000000000E+00 -0.74505805969E-08  0.93827000000E+00  0.93827000000E+00 0.  1.
     999902    2    1    2    0    0  0.82762950306E-02  0.21980018490E-01  0.76691288649E-02  0.10192230413E+01  0.10189235369E+01 0.  0.
     999903    2    3    3    0    0  0.47937285916E-01 -0.26355601926E-01 -0.11474528691E+00  0.12855216177E+00  0.19146182213E-01 0.  0.
         14    1    1    2    0    0 -0.82762950306E-02 -0.21980018490E-01 -0.76691288649E-02  0.24706958732E-01  0.00000000000E+00 0. -1.
     999901    1    3    3    0    0 -0.39660990886E-01  0.48335620415E-01  0.12241441578E+00  0.89067087950E+00  0.88000000000E+00 0.  1.
        -11    1    4    4    0    0  0.14339260773E-01 -0.16765878612E-01 -0.56120347279E-01  0.60303097639E-01  0.51100000000E-03 0. -1.
         11    1    4    4    0    0  0.33598025143E-01 -0.95897233143E-02 -0.58624939631E-01  0.68249064129E-01  0.51100000000E-03 0.  1.
</event>
<event>
 8    1  0.1180500E+005  0.1043930E+01  0.7957747E-01            NaN
         13   -1    0    0    0    0  0.00000000000E+00  0.00000000000E+00  0.74505805969E-08  0.10566000000E+00  0.10566000000E+00 0.  1.
     999900   -1    0    0    0    0 -0.00000000000E+00 -0.00000000000E+00 -0.74505805969E-08  0.93827000000E+00  0.93827000000E+00 0. -1.
     999902    2    1    2    0    0 -0.16085998641E-02 -0.40966604890E-02 -0.23444311912E-01  0.10200761537E+01  0.10197972119E+01 0.  0.
     999903    2    3    3    0    0  0.37198476688E-01 -0.27211833194E-01  0.11785894995E+00  0.12765982028E+00  0.16795448726E-01 0.  0.
         14    1    1    2    0    0  0.16085998641E-02  0.40966604890E-02  0.23444311912E-01  0.23853846267E-01  0.00000000000E+00 0.  1.
     999901    1    3    3    0    0 -0.38807076552E-01  0.23115172705E-01 -0.14130326186E+00  0.89241633345E+00  0.88000000000E+00 0. -1.
        -11    1    4    4    0    0  0.17031175966E-01 -0.38264367287E-02  0.32657969868E-01  0.37033858694E-01  0.51100000000E-03 0.  1.
         11    1    4    4    0    0  0.20167300721E-01 -0.23385396465E-01  0.85200980078E-01  0.90625961587E-01  0.51100000000E-03 0. -1.
</event>
<event>
 8    1  0.1180500E+005  0.1043930E+01  0.7957747E-01            NaN
         13   -1    0    0    0    0  0.00000000000E+00  0.00000000000E+00  0.74505805969E-08  0.10566000000E+00  0.10566000000E+00 0.  1.
     999900   -1    0    0    0    0 -0.00000000000E+00 -0.00000000000E+00 -0.74505805969E-08  0.93827000000E+00  0.93827000000E+00 0.  1.
     999902    2    1    2    0    0  0.20094366245E-01  0.63609183601E-02 -0.95845011355E-02  0.10207760047E+01  0.10205133729E+01 0.  0.
     999903    2    3    3    0    0  0.89647791413E-03 -0.45580544591E-01  0.12053402034E+00  0.12948631882E+00  0.12643851646E-01 0.  0.
         14    1    1    2    0    0 -0.20094366245E-01 -0.63609183601E-02  0.95845011355E-02  0.23153995318E-01  0.00000000000E+00 0. -1.
     999901    1    3    3    0    0  0.19197888331E-01  0.51941462951E-01 -0.13011852148E+00  0.89128968586E+00  0.88000000000E+00 0.  1.
        -11    1    4    4    0    0  0.60479990950E-02 -0.30301486311E-01  0.72357091105E-01  0.78680163446E-01  0.51100000000E-03 0.  1.
         11    1    4    4    0    0 -0.51515211809E-02 -0.15279058280E-01  0.48176929236E-01  0.50806155375E-01  0.51100000000E-03 0. -1.
</event>
<event>
 8    1  0.1180500E+005  0.1043930E+01  0.7957747E-01            NaN
         13   -1    0    0    0    0  0.00000000000E+00  0.00000000000E+00  0.74505805969E-08  0.10566000000E+00  0.10566000000E+00 0.  1.
     999900   -1    0    0    0    0 -0.00000000000E+00 -0.00000000000E+00 -0.74505805969E-08  0.93827000000E+00  0.93827000000E+00 0.  1.
     999902    2    1    2    0    0  0.97666042990E-02  0.21356337304E-01  0.19385068550E-02  0.10203665217E+01  0.10200944079E+01 0.  0.
     999903    2    3    3    0    0  0.36635046508E-01  0.10383358132E+00  0.72334305989E-01  0.13330396609E+00  0.20350830646E-01 0.  0.
         14    1    1    2    0    0 -0.97666042990E-02 -0.21356337304E-01 -0.19385068550E-02  0.23563478339E-01  0.00000000000E+00 0. -1.
     999901    1    3    3    0    0 -0.26868442209E-01 -0.82477244021E-01 -0.70395799134E-01  0.88706255558E+00  0.88000000000E+00 0. -1.
        -11    1    4    4    0    0  0.35165904305E-01  0.77233847643E-01  0.49726399861E-01  0.98359971591E-01  0.51100000000E-03 0.  1.
         11    1    4    4    0    0  0.14691422031E-02  0.26599733682E-01  0.22607906128E-01  0.34943994495E-01  0.51100000000E-03 0. -1.
</event>
<event>
 8    1  0.1180500E+005  0.1043930E+01  0.7957747E-01            NaN
         13   -1    0    0    0    0  0.00000000000E+00  0.00000000000E+00  0.74505805969E-08  0.10566000000E+00  0.10566000000E+00 0. -1.
     999900   -1    0    0    0    0 -0.00000000000E+00 -0.00000000000E+00 -0.74505805969E-08  0.93827000000E+00  0.93827000000E+00 0.  1.
     999902    2    1    2    0    0  0.47687007925E-03 -0.21047570951E-01 -0.10759836568E-01  0.10202867826E+01  0.10200128023E+01 0.  0.
     999903    2    3    3    0    0  0.18593841078E-01 -0.66851344165E-02 -0.12907103637E+00  0.13206831607E+00  0.19806204373E-01 0.  0.
         14    1    1    2    0    0 -0.47687007925E-03  0.21047570951E-01  0.10759836568E-01  0.23643217441E-01  0.00000000000E+00 0.  1.
     999901    1    3    3    0    0 -0.18116970999E-01 -0.14362436535E-01  0.11831119980E+00  0.88821846649E+00  0.88000000000E+00 0. -1.
        -11    1    4    4    0    0  0.14829956577E-01 -0.12778537365E-01 -0.74656441826E-01  0.77182018996E-01  0.51100000000E-03 0. -1.
         11    1    4    4    0    0  0.37638845011E-02  0.60934029482E-02 -0.54414594540E-01  0.54886297069E-01  0.51100000000E-03 0.  1.
</event>
<event>
 8    1  0.1180500E+005  0.1043930E+01  0.7957747E-01            NaN
         13   -1    0    0    0    0  0.00000000000E+00  0.00000000000E+00  0.74505805969E-08  0.10566000000E+00  0.10566000000E+00 0. -1.
     999900   -1    0    0    0    0 -0.00000000000E+00 -0.00000000000E+00 -0.74505805969E-08  0.93827000000E+00  0.93827000000E+00 0.  1.
     999902    2    1    2    0    0  0.39288365137E-02  0.10450680291E-01 -0.21478511268E-01  0.10197229985E+01  0.10194356354E+01 0.  0.
     999903    2    3    3    0    0 -0.13366864686E-01  0.12353299219E+00  0.35000475893E-01  0.13052300608E+00  0.19291152684E-01 0.  0.
         14    1    1    2    0    0 -0.39288365137E-02 -0.10450680291E-01  0.21478511268E-01  0.24207001491E-01  0.00000000000E+00 0. -1.
     999901    1    3    3    0    0  0.17295701200E-01 -0.11308231190E+00 -0.56478987161E-01  0.88919999243E+00  0.88000000000E+00 0.  1.
        -11    1    4    4    0    0 -0.11272578204E-01  0.56814407346E-01  0.78264496440E-02  0.58450511858E-01  0.51100000000E-03 0. -1.
         11    1    4    4    0    0 -0.20942864818E-02  0.66718584847E-01  0.27174026249E-01  0.72072494222E-01  0.51100000000E-03 0.  1.
</event>
<event>
 8    1  0.1180500E+005  0.1043930E+01  0.7957747E-01            NaN
         13   -1    0    0    0    0  0.00000000000E+00  0.00000000000E+00  0.74505805969E-08  0.10566000000E+00  0.10566000000E+00 0. -1.
     999900   -1    0    0    0    0 -0.00000000000E+00 -0.00000000000E+00 -0.74505805969E-08  0.93827000000E+00  0.93827000000E+00 0. -1.
     999902    2    1    2    0    0  0.19735558913E-01 -0.13652359458E-01  0.22887854677E-02  0.10198236161E+01  0.10195386654E+01 0.  0.
     999903    2    3    3    0    0 -0.32389342168E-01 -0.10900006656E+00 -0.61064986840E-01  0.13087935971E+00  0.21688480400E-01 0.  0.
         14    1    1    2    0    0 -0.19735558913E-01  0.13652359458E-01 -0.22887854677E-02  0.24106383870E-01  0.00000000000E+00 0.  1.
     999901    1    3    3    0    0  0.52124901081E-01  0.95347707107E-01  0.63353772308E-01  0.88894425642E+00  0.88000000000E+00 0. -1.
        -11    1    4    4    0    0 -0.53319846010E-02 -0.19839096543E-01 -0.22036250869E-02  0.20667290484E-01  0.51100000000E-03 0.  1.
         11    1    4    4    0    0 -0.27057357567E-01 -0.89160970022E-01 -0.58861361753E-01  0.11021206922E+00  0.51100000000E-03 0. -1.
</event>
<event>
 8    1  0.1180500E+005  0.1043930E+01  0.7957747E-01            NaN
         13   -1    0    0    0    0  0.00000000000E+00  0.00000000000E+00  0.74505805969E-08  0.10566000000E+00  0.10566000000E+00 0.  1.
     999900   -1    0    0    0    0 -0.00000000000E+00 -0.00000000000E+00 -0.74505805969E-08  0.93827000000E+00  0.93827000000E+00 0. -1.
     999902    2    1    2    0    0 -0.22353345329E-01 -0.10270992800E-01  0.86795721310E-02  0.10178435991E+01  0.10175092589E+01 0.  0.
     999903    2    3    3    0    0 -0.24588061871E-01  0.10092896947E+00  0.72731247379E-01  0.12853316809E+00  0.20969293956E-01 0.  0.
         14    1    1    2    0    0  0.22353345329E-01  0.10270992800E-01 -0.86795721310E-02  0.26086400918E-01  0.00000000000E+00 0.  1.
     999901    1    3    3    0    0  0.22347165419E-02 -0.11119996227E+00 -0.64051675248E-01  0.88931043099E+00  0.88000000000E+00 0. -1.
        -11    1    4    4    0    0 -0.15702413447E-01  0.47824936289E-01  0.46945328359E-01  0.68832516261E-01  0.51100000000E-03 0.  1.
         11    1    4    4    0    0 -0.88856484242E-02  0.53104033183E-01  0.25785919019E-01  0.59700651830E-01  0.51100000000E-03 0. -1.
</event>
<event>
 8    1  0.1180500E+005  0.1043930E+01  0.7957747E-01            NaN
         13   -1    0    0    0    0  0.00000000000E+00  0.00000000000E+00  0.74505805969E-08  0.10566000000E+00  0.10566000000E+00 0. -1.
     999900   -1    0    0    0    0 -0.00000000000E+00 -0.00000000000E+00 -0.74505805969E-08  0.93827000000E+00  0.93827000000E+00 0. -1.
     999902    2    1    2    0    0 -0.90907580507E-02  0.11495732494E-01  0.19122741579E-01  0.10198369929E+01  0.10195523621E+01 0.  0.
     999903    2    3    3    0    0 -0.73916741078E-01  0.55863561383E-01 -0.88506718720E-01  0.12980608719E+00  0.20778809210E-01 0.  0.
         14    1    1    2    0    0  0.90907580507E-02 -0.11495732494E-01 -0.19122741579E-01  0.24093007139E-01  0.00000000000E+00 0.  1.
     999901    1    3    3    0    0  0.64825983028E-01 -0.44367828889E-01  0.10762946030E+00  0.89003090567E+00  0.88000000000E+00 0.  1.
        -11    1    4    4    0    0 -0.44887121019E-01  0.30315996391E-01 -0.64743527284E-01  0.84415038451E-01  0.51100000000E-03 0.  1.
         11    1    4    4    0    0 -0.29029620059E-01  0.25547564992E-01 -0.23763191436E-01  0.45391048743E-01  0.51100000000E-03 0. -1.
</event>
<event>
 8    1  0.1189290E+005  0.1043930E+01  0.7957747E-01            NaN
         13   -1    0    0    0    0  0.00000000000E+00  0.00000000000E+00  0.74505805969E-08  0.10566000000E+00  0.10566000000E+00 0. -1.
     999900   -1    0    0    0    0 -0.00000000000E+00 -0.00000000000E+00 -0.74505805969E-08  0.93827000000E+00  0.93827000000E+00 0. -1.
     999902    2    1    2    0    0 -0.22870597683E-01 -0.56611511509E-02  0.28463423452E-03  0.10203674474E+01  0.10200953552E+01 0.  0.
     999903    2    3    3    0    0 -0.77705170120E-01  0.10345477804E+00  0.15538424208E-01  0.13180355294E+00  0.19742071301E-01 0.  0.
         14    1    1    2    0    0  0.22870597683E-01  0.56611511509E-02 -0.28463423452E-03  0.23562552650E-01  0.00000000000E+00 0.  1.
     999901    1    3    3    0    0  0.54834572437E-01 -0.10911592919E+00 -0.15253789973E-01  0.88856389441E+00  0.88000000000E+00 0.  1.
        -11    1    4    4    0    0 -0.52275546641E-01  0.53416969510E-01  0.97291765285E-02  0.75372564008E-01  0.51100000000E-03 0. -1.
         11    1    4    4    0    0 -0.25429623479E-01  0.50037808527E-01  0.58092476790E-02  0.56430988934E-01  0.51100000000E-03 0.  1.
</event>
<event>
 8    1  0.1180500E+005  0.1043930E+01  0.7957747E-01            NaN
         13   -1    0    0    0    0  0.00000000000E+00  0.00000000000E+00  0.74505805969E-08  0.10566000000E+00  0.10566000000E+00 0.  1.
     999900   -1    0    0    0    0 -0.00000000000E+00 -0.00000000000E+00 -0.74505805969E-08  0.93827000000E+00  0.93827000000E+00 0. -1.
     999902    2    1    2    0    0 -0.20110129518E-01  0.27279002032E-02  0.10521456109E-01  0.10210704334E+01  0.10208145131E+01 0.  0.
     999903    2    3    3    0    0 -0.23746378080E-01 -0.12103983678E+00 -0.39240038470E-01  0.13100982791E+00  0.20230220669E-01 0.  0.
         14    1    1    2    0    0  0.20110129518E-01 -0.27279002032E-02 -0.10521456109E-01  0.22859566649E-01  0.00000000000E+00 0. -1.
     999901    1    3    3    0    0  0.36362485617E-02  0.12376773699E+00  0.49761494579E-01  0.89006060544E+00  0.88000000000E+00 0.  1.
        -11    1    4    4    0    0 -0.14977787988E-01 -0.43214678319E-01 -0.22270915026E-01  0.50873345991E-01  0.51100000000E-03 0.  1.
         11    1    4    4    0    0 -0.87685900915E-02 -0.77825158464E-01 -0.16969123444E-01  0.80136481915E-01  0.51100000000E-03 0. -1.
</event>
<event>
 8    1  0.1180500E+005  0.1043930E+01  0.7957747E-01            NaN
         13   -1    0    0    0    0  0.00000000000E+00  0.00000000000E+00  0.74505805969E-08  0.10566000000E+00  0.10566000000E+00 0. -1.
     999900   -1    0    0    0    0 -0.00000000000E+00 -0.00000000000E+00 -0.74505805969E-08  0.93827000000E+00  0.93827000000E+00 0.  1.
     999902    2    1    2    0    0  0.55754556622E-02 -0.10370900225E-01  0.20581404463E-01  0.10202184946E+01  0.10199429108E+01 0.  0.
     999903    2    3    3    0    0  0.10927158192E+00  0.62450608329E-01 -0.25080415784E-01  0.12997085462E+00  0.20567904608E-01 0.  0.
         14    1    1    2    0    0 -0.55754556622E-02  0.10370900225E-01 -0.20581404463E-01  0.23711505372E-01  0.00000000000E+00 0.  1.
     999901    1    3    3    0    0 -0.10369612626E+00 -0.72821508553E-01  0.45661820247E-01  0.89024764001E+00  0.88000000000E+00 0. -1.
        -11    1    4    4    0    0  0.65823250740E-01  0.46873112264E-01 -0.10077701906E-01  0.81434698919E-01  0.51100000000E-03 0. -1.
         11    1    4    4    0    0  0.43448331177E-01  0.15577496064E-01 -0.15002713878E-01  0.48536155703E-01  0.51100000000E-03 0.  1.
</event>
<event>
 8    1  0.1180500E+005  0.1043930E+01  0.7957747E-01            NaN
         13   -1    0    0    0    0  0.00000000000E+00  0.00000000000E+00  0.74505805969E-08  0.10566000000E+00  0.10566000000E+00 0. -1.
     999900   -1    0    0    0    0 -0.00000000000E+00 -0.00000000000E+00 -0.74505805969E-08  0.93827000000E+00  0.93827000000E+00 0.  1.
     999902    2    1    2    0    0  0.19325976787E-01 -0.54373475838E-02 -0.11632556947E-01  0.10207271013E+01  0.10204633461E+01 0.  0.
     999903    2    3    3    0    0  0.77837662976E-01 -0.55030535266E-01 -0.91792871872E-01  0.13376104908E+00  0.19468572999E-01 0.  0.
         14    1    1    2    0    0 -0.19325976787E-01  0.54373475838E-02  0.11632556947E-01  0.23202898712E-01  0.00000000000E+00 0. -1.
     999901    1    3    3    0    0 -0.58511686189E-01  0.49593187682E-01  0.80160314924E-01  0.88696605221E+00  0.88000000000E+00 0. -1.
        -11    1    4    4    0    0  0.29277231334E-01 -0.14467666580E-01 -0.21086746485E-01  0.38876492244E-01  0.51100000000E-03 0. -1.
         11    1    4    4    0    0  0.48560431642E-01 -0.40562868685E-01 -0.70706125387E-01  0.94884556834E-01  0.51100000000E-03 0.  1.
</event>
<event>
 8    1  0.1180500E+005  0.1043930E+01  0.7957747E-01            NaN
         13   -1    0    0    0    0  0.00000000000E+00  0.00000000000E+00  0.74505805969E-08  0.10566000000E+00  0.10566000000E+00 0.  1.
     999900   -1    0    0    0    0 -0.00000000000E+00 -0.00000000000E+00 -0.74505805969E-08  0.93827000000E+00  0.93827000000E+00 0. -1.
     999902    2    1    2    0    0  0.22558354874E-01 -0.62647429110E-02 -0.51674274688E-03  0.10205121990E+01  0.10202434783E+01 0.  0.
     999903    2    3    3    0    0  0.21190407365E-01  0.27360852855E-01  0.12481581539E+00  0.13099502546E+00  0.19571900559E-01 0.  0.
         14    1    1    2    0    0 -0.22558354874E-01  0.62647429110E-02  0.51674274688E-03  0.23417800952E-01  0.00000000000E+00 0.  1.
     999901    1    3    3    0    0  0.13679475088E-02 -0.33625595766E-01 -0.12533255814E+00  0.88951717358E+00  0.88000000000E+00 0. -1.
        -11    1    4    4    0    0  0.22955545612E-01  0.24873555722E-01  0.91935972169E-01  0.97970071696E-01  0.51100000000E-03 0. -1.
         11    1    4    4    0    0 -0.17651382470E-02  0.24872971322E-02  0.32879843222E-01  0.33024953768E-01  0.51100000000E-03 0.  1.
</event>
<event>
 8    1  0.1180500E+005  0.1043930E+01  0.7957747E-01            NaN
         13   -1    0    0    0    0  0.00000000000E+00  0.00000000000E+00  0.74505805969E-08  0.10566000000E+00  0.10566000000E+00 0.  1.
     999900   -1    0    0    0    0 -0.00000000000E+00 -0.00000000000E+00 -0.74505805969E-08  0.93827000000E+00  0.93827000000E+00 0.  1.
     999902    2    1    2    0    0 -0.22270489010E-01  0.14162519104E-02  0.24450155639E-02  0.10214809788E+01  0.10212342687E+01 0.  0.
     999903    2    3    3    0    0 -0.10439252597E+00 -0.47205574822E-02 -0.81114533215E-01  0.13369503190E+00  0.19357451153E-01 0.  0.
         14    1    1    2    0    0  0.22270489010E-01 -0.14162519104E-02 -0.24450155639E-02  0.22449021166E-01  0.00000000000E+00 0.  1.
     999901    1    3    3    0    0  0.82122036956E-01  0.61368093927E-02  0.83559548779E-01  0.88778594694E+00  0.88000000000E+00 0. -1.
        -11    1    4    4    0    0 -0.25999659579E-01  0.23396254186E-02 -0.30338253449E-01  0.40026577279E-01  0.51100000000E-03 0.  1.
         11    1    4    4    0    0 -0.78392866387E-01 -0.70601829008E-02 -0.50776279766E-01  0.93668454619E-01  0.51100000000E-03 0. -1.
</event>
<event>
 8    1  0.1180500E+005  0.1043930E+01  0.7957747E-01            NaN
         13   -1    0    0    0    0  0.00000000000E+00  0.00000000000E+00  0.74505805969E-08  0.10566000000E+00  0.10566000000E+00 0. -1.
     999900   -1    0    0    0    0 -0.00000000000E+00 -0.00000000000E+00 -0.74505805969E-08  0.93827000000E+00  0.93827000000E+00 0. -1.
     999902    2    1    2    0    0  0.12608110614E-01 -0.77818402323E-02  0.18088083961E-01  0.10205483775E+01  0.10202804960E+01 0.  0.
     999903    2    3    3    0    0 -0.93816782403E-01  0.41089017272E-01 -0.74554030000E-01  0.12796942867E+00  0.18110087906E-01 0.  0.
         14    1    1    2    0    0 -0.12608110614E-01  0.77818402323E-02 -0.18088083961E-01  0.23381622527E-01  0.00000000000E+00 0.  1.
     999901    1    3    3    0    0  0.10642489302E+00 -0.48870857504E-01  0.92642113961E-01  0.89257894880E+00  0.88000000000E+00 0.  1.
        -11    1    4    4    0    0 -0.76932440914E-02 -0.91455271859E-03 -0.89128926499E-02  0.11820456324E-01  0.51100000000E-03 0. -1.
         11    1    4    4    0    0 -0.86123538312E-01  0.42003569991E-01 -0.65641137350E-01  0.11614897235E+00  0.51100000000E-03 0.  1.
</event>
<event>
 8    1  0.1180500E+005  0.1043930E+01  0.7957747E-01            NaN
         13   -1    0    0    0    0  0.00000000000E+00  0.00000000000E+00  0.74505805969E-08  0.10566000000E+00  0.10566000000E+00 0. -1.
     999900   -1    0    0    0    0 -0.00000000000E+00 -0.00000000000E+00 -0.74505805969E-08  0.93827000000E+00  0.93827000000E+00 0.  1.
     999902    2    1    2    0    0  0.17383993648E-01 -0.16594317524E-01 -0.50624586794E-02  0.10193698067E+01  0.10190738931E+01 0.  0.
     999903    2    3    3    0    0 -0.79667797100E-01  0.88384077211E-01  0.39029449393E-01  0.12674244330E+00  0.19535762469E-01 0.  0.
         14    1    1    2    0    0 -0.17383993648E-01  0.16594317524E-01  0.50624586794E-02  0.24560193345E-01  0.00000000000E+00 0.  1.
     999901    1    3    3    0    0  0.97051790747E-01 -0.10497839474E+00 -0.44091908073E-01  0.89262736335E+00  0.88000000000E+00 0. -1.
        -11    1    4    4    0    0 -0.37730383720E-01  0.48933187690E-01  0.11234182932E-01  0.62805307899E-01  0.51100000000E-03 0.  1.
         11    1    4    4    0    0 -0.41937413380E-01  0.39450889521E-01  0.27795266461E-01  0.63937135404E-01  0.51100000000E-03 0. -1.
</event>
<event>
 8    1  0.1180500E+005  0.1043930E+01  0.7957747E-01            NaN
         13   -1    0    0    0    0  0.00000000000E+00  0.00000000000E+00  0.74505805969E-08  0.10566000000E+00  0.10566000000E+00 0.  1.
     999900   -1    0    0    0    0 -0.00000000000E+00 -0.00000000000E+00 -0.74505805969E-08  0.93827000000E+00  0.93827000000E+00 0.  1.
     999902    2    1    2    0    0 -0.82378772385E-02 -0.21754504204E-01  0.23704937667E-02  0.10205475212E+01  0.10202796199E+01 0.  0.
     999903    2    3    3    0    0  0.10219646174E-01 -0.33753061416E-01  0.12548665115E+00  0.13170432143E+00  0.18852542146E-01 0.  0.
         14    1    1    2    0    0  0.82378772385E-02  0.21754504204E-01 -0.23704937667E-02  0.23382478809E-01  0.00000000000E+00 0. -1.
     999901    1    3    3    0    0 -0.18457523412E-01  0.11998557212E-01 -0.12311615738E+00  0.88884319976E+00  0.88000000000E+00 0.  1.
        -11    1    4    4    0    0  0.36159087537E-02 -0.28265669972E-01  0.11302155726E+00  0.11655966893E+00  0.51100000000E-03 0. -1.
         11    1    4    4    0    0  0.66037374202E-02 -0.54873914445E-02  0.12465093885E-01  0.15144652500E-01  0.51100000000E-03 0.  1.
</event>
<event>
 8    1  0.1180500E+005  0.1043930E+01  0.7957747E-01            NaN
         13   -1    0    0    0    0  0.00000000000E+00  0.00000000000E+00  0.74505805969E-08  0.10566000000E+00  0.10566000000E+00 0.  1.
     999900   -1    0    0    0    0 -0.00000000000E+00 -0.00000000000E+00 -0.74505805969E-08  0.93827000000E+00  0.93827000000E+00 0. -1.
     999902    2    1    2    0    0  0.63694162612E-04 -0.23162930086E-01 -0.72462197695E-02  0.10196599961E+01  0.10193711172E+01 0.  0.
     999903    2    3    3    0    0  0.10476121210E+00 -0.50065544513E-01 -0.57980134049E-01  0.13159510492E+00  0.21773961247E-01 0.  0.
         14    1    1    2    0    0 -0.63694162612E-04  0.23162930086E-01  0.72462197695E-02  0.24270003875E-01  0.00000000000E+00 0.  1.
     999901    1    3    3    0    0 -0.10469751793E+00  0.26902614426E-01  0.50733914280E-01  0.88806489120E+00  0.88000000000E+00 0.  1.
        -11    1    4    4    0    0  0.46097347360E-01 -0.20412279191E-01 -0.13393171074E-01  0.52165742857E-01  0.51100000000E-03 0. -1.
         11    1    4    4    0    0  0.58663864737E-01 -0.29653265322E-01 -0.44586962976E-01  0.79429362068E-01  0.51100000000E-03 0.  1.
</event>
<event>
 8    1  0.1180500E+005  0.1043930E+01  0.7957747E-01            NaN
         13   -1    0    0    0    0  0.00000000000E+00  0.00000000000E+00  0.74505805969E-08  0.10566000000E+00  0.10566000000E+00 0.  1.
     999900   -1    0    0    0    0 -0.00000000000E+00 -0.00000000000E+00 -0.74505805969E-08  0.93827000000E+00  0.93827000000E+00 0. -1.
     999902    2    1    2    0    0  0.22472553594E-01  0.57652352719E-02  0.29829381839E-02  0.10205387298E+01  0.10202706246E+01 0.  0.
     999903    2    3    3    0    0  0.10811798035E+00 -0.28761942343E-01  0.69833916745E-01  0.13318518216E+00  0.18567978300E-01 0.  0.
         14    1    1    2    0    0 -0.22472553594E-01 -0.57652352719E-02 -0.29829381839E-02  0.23391270230E-01  0.00000000000E+00 0. -1.
     999901    1    3    3    0    0 -0.85645426752E-01  0.34527177614E-01 -0.66850978561E-01  0.88735354761E+00  0.88000000000E+00 0. -1.
        -11    1    4    4    0    0  0.50593089538E-01 -0.22930272173E-01  0.32507998296E-01  0.64362171849E-01  0.51100000000E-03 0. -1.
         11    1    4    4    0    0  0.57524890808E-01 -0.58316701694E-02  0.37325918449E-01  0.68823010313E-01  0.51100000000E-03 0.  1.
</event>
<event>
 8    1  0.1180500E+005  0.1043930E+01  0.7957747E-01            NaN
         13   -1    0    0    0    0  0.00000000000E+00  0.00000000000E+00  0.74505805969E-08  0.10566000000E+00  0.10566000000E+00 0. -1.
     999900   -1    0    0    0    0 -0.00000000000E+00 -0.00000000000E+00 -0.74505805969E-08  0.93827000000E+00  0.93827000000E+00 0.  1.
     999902    2    1    2    0    0 -0.21476570659E-01 -0.47352313604E-02  0.80348703821E-02  0.10205158025E+01  0.10202471654E+01 0.  0.
     999903    2    3    3    0    0 -0.37200131138E-01 -0.63772642688E-01 -0.10641694606E+00  0.13100365272E+00  0.19661915071E-01 0.  0.
         14    1    1    2    0    0  0.21476570659E-01  0.47352313604E-02 -0.80348703821E-02  0.23414197517E-01  0.00000000000E+00 0.  1.
     999901    1    3    3    0    0  0.15723560479E-01  0.59037411328E-01  0.11445181644E+00  0.88951214976E+00  0.88000000000E+00 0. -1.
        -11    1    4    4    0    0 -0.21932629995E-01 -0.36483801033E-01 -0.44193266974E-01  0.61362968989E-01  0.51100000000E-03 0. -1.
         11    1    4    4    0    0 -0.15267501143E-01 -0.27288841655E-01 -0.62223679089E-01  0.69640683730E-01  0.51100000000E-03 0.  1.
</event>
<event>
 8    1  0.1180500E+005  0.1043930E+01  0.7957747E-01            NaN
         13   -1    0    0    0    0  0.00000000000E+00  0.00000000000E+00  0.74505805969E-08  0.10566000000E+00  0.10566000000E+00 0. -1.
     999900   -1    0    0    0    0 -0.00000000000E+00 -0.00000000000E+00 -0.74505805969E-08  0.93827000000E+00  0.93827000000E+00 0.  1.
     999902    2    1    2    0    0 -0.21237109243E-01 -0.11973345590E-01  0.23257397610E-02  0.10194394941E+01  0.10191452778E+01 0.  0.
     999903    2    3    3    0    0 -0.12780623079E+00  0.23204444978E-01 -0.17004001254E-01  0.13210185064E+00  0.16996587591E-01 0.  0.
         14    1    1    2    0    0  0.21237109243E-01  0.11973345590E-01 -0.23257397610E-02  0.24490505896E-01  0.00000000000E+00 0. -1.
     999901    1    3    3    0    0  0.10656912154E+00 -0.35177790568E-01  0.19329741015E-01  0.88733764346E+00  0.88000000000E+00 0. -1.
        -11    1    4    4    0    0 -0.96173244738E-01  0.21044323017E-01 -0.19239449790E-01  0.10031238251E+00  0.51100000000E-03 0. -1.
         11    1    4    4    0    0 -0.31632986049E-01  0.21601219607E-02  0.22354485362E-02  0.31789468137E-01  0.51100000000E-03 0.  1.
</event>
<event>
 8    1  0.1180500E+005  0.1043930E+01  0.7957747E-01            NaN
         13   -1    0    0    0    0  0.00000000000E+00  0.00000000000E+00  0.74505805969E-08  0.10566000000E+00  0.10566000000E+00 0.  1.
     999900   -1    0    0    0    0 -0.00000000000E+00 -0.00000000000E+00 -0.74505805969E-08  0.93827000000E+00  0.93827000000E+00 0. -1.
     999902    2    1    2    0    0 -0.15114240033E-01 -0.35687182014E-03 -0.18434322849E-01  0.10200890296E+01  0.10198103924E+01 0.  0.
     999903    2    3    3    0    0  0.93378291300E-01 -0.65951955553E-01 -0.58866972665E-01  0.13008445462E+00  0.19684489735E-01 0.  0.
         14    1    1    2    0    0  0.15114240033E-01  0.35687182014E-03  0.18434322849E-01  0.23840970370E-01  0.00000000000E+00 0.  1.
     999901    1    3    3    0    0 -0.10849253133E+00  0.65595083733E-01  0.40432649816E-01  0.89000457501E+00  0.88000000000E+00 0.  1.
        -11    1    4    4    0    0  0.53458314908E-01 -0.49081188691E-01 -0.39282998466E-01  0.82523751767E-01  0.51100000000E-03 0.  1.
         11    1    4    4    0    0  0.39919976392E-01 -0.16870766861E-01 -0.19583974198E-01  0.47560702855E-01  0.51100000000E-03 0. -1.
</event>
<event>
 8    1  0.1180500E+005  0.1043930E+01  0.7957747E-01            NaN
         13   -1    0    0    0    0  0.00000000000E+00  0.00000000000E+00  0.74505805969E-08  0.10566000000E+00  0.10566000000E+00 0. -1.
     999900   -1    0    0    0    0 -0.00000000000E+00 -0.00000000000E+00 -0.74505805969E-08  0.93827000000E+00  0.93827000000E+00 0. -1.
     999902    2    1    2    0    0  0.30150288797E-02 -0.24387773816E-01 -0.62930416840E-02  0.10185635599E+01  0.10182476463E+01 0.  0.
     999903    2    3    3    0    0  0.10857515066E+00  0.89562591605E-02  0.65278079824E-01  0.12874493270E+00  0.21100996928E-01 0.  0.
         14    1    1    2    0    0 -0.30150288797E-02  0.24387773816E-01  0.62930416840E-02  0.25366440122E-01  0.00000000000E+00 0.  1.
     999901    1    3    3    0    0 -0.10556012178E+00 -0.33344032976E-01 -0.71571121508E-01  0.88981862718E+00  0.88000000000E+00 0. -1.
        -11    1    4    4    0    0  0.78157763559E-01 -0.30430441485E-02  0.47735236041E-01  0.91634109387E-01  0.51100000000E-03 0.  1.
         11    1    4    4    0    0  0.30417387097E-01  0.11999303309E-01  0.17542843783E-01  0.37110823310E-01  0.51100000000E-03 0. -1.
</event>
<event>
 8    1  0.1180500E+005  0.1043930E+01  0.7957747E-01            NaN
         13   -1    0    0    0    0  0.00000000000E+00  0.00000000000E+00  0.74505805969E-08  0.10566000000E+00  0.10566000000E+00 0. -1.
     999900   -1    0    0    0    0 -0.00000000000E+00 -0.00000000000E+00 -0.74505805969E-08  0.93827000000E+00  0.93827000000E+00 0. -1.
     999902    2    1    2    0    0 -0.34905425983E-02 -0.20264768026E-01 -0.11486869708E-01  0.10203759582E+01  0.10201040649E+01 0.  0.
     999903    2    3    3    0    0 -0.89510059941E-01 -0.65997967633E-01 -0.70230781857E-01  0.13305317016E+00  0.20074879999E-01 0.  0.
         14    1    1    2    0    0  0.34905425983E-02  0.20264768026E-01  0.11486869708E-01  0.23554041829E-01  0.00000000000E+00 0.  1.
     999901    1    3    3    0    0  0.86019517343E-01  0.45733199607E-01  0.58743912149E-01  0.88732278801E+00  0.88000000000E+00 0. -1.
        -11    1    4    4    0    0 -0.65309740873E-01 -0.37169491744E-01 -0.50634624318E-01  0.90614897618E-01  0.51100000000E-03 0. -1.
         11    1    4    4    0    0 -0.24200319067E-01 -0.28828475888E-01 -0.19596157539E-01  0.42438272542E-01  0.51100000000E-03 0.  1.
</event>
<event>
 8    1  0.1180500E+005  0.1043930E+01  0.7957747E-01            NaN
         13   -1    0    0    0    0  0.00000000000E+00  0.00000000000E+00  0.74505805969E-08  0.10566000000E+00  0.10566000000E+00 0.  1.
     999900   -1    0    0    0    0 -0.00000000000E+00 -0.00000000000E+00 -0.74505805969E-08  0.93827000000E+00  0.93827000000E+00 0.  1.
     999902    2    1    2    0    0  0.62525021209E-02  0.19889972009E-01  0.95958103233E-02  0.10209782170E+01  0.10207202041E+01 0.  0.
     999903    2    3    3    0    0  0.57717296890E-01 -0.27941153682E-01  0.11377663781E+00  0.13205184964E+00  0.19508286760E-01 0.  0.
         14    1    1    2    0    0 -0.62525021209E-02 -0.19889972009E-01 -0.95958103233E-02  0.22951783047E-01  0.00000000000E+00 0.  1.
     999901    1    3    3    0    0 -0.51464794769E-01  0.47831125691E-01 -0.10418082749E+00  0.88892636731E+00  0.88000000000E+00 0.  1.
        -11    1    4    4    0    0  0.34535257942E-01 -0.59191916409E-02  0.60324450791E-01  0.69764040558E-01  0.51100000000E-03 0.  1.
         11    1    4    4    0    0  0.23182038949E-01 -0.22021962041E-01  0.53452187022E-01  0.62287809083E-01  0.51100000000E-03 0. -1.
</event>
<event>
 8    1  0.1180500E+005  0.1043930E+01  0.7957747E-01            NaN
         13   -1    0    0    0    0  0.00000000000E+00  0.00000000000E+00  0.74505805969E-08  0.10566000000E+00  0.10566000000E+00 0.  1.
     999900   -1    0    0    0    0 -0.00000000000E+00 -0.00000000000E+00 -0.74505805969E-08  0.93827000000E+00  0.93827000000E+00 0.  1.
     999902    2    1    2    0    0  0.17063868677E-01  0.97257364469E-02 -0.91802071424E-02  0.10222495534E+01  0.10220196219E+01 0.  0.
     999903    2    3    3    0    0 -0.85276541091E-01  0.63657534833E-02  0.96348887663E-01  0.13004932986E+00  0.17807547958E-01 0.  0.
         14    1    1    2    0    0 -0.17063868677E-01 -0.97257364469E-02  0.91802071424E-02  0.21680446647E-01  0.00000000000E+00 0.  1.
     999901    1    3    3    0    0  0.10234040977E+00  0.33599829636E-02 -0.10552909481E+00  0.89220022350E+00  0.88000000000E+00 0.  1.
        -11    1    4    4    0    0 -0.65838157649E-01  0.12272978059E-01  0.72002286936E-01  0.98335545141E-01  0.51100000000E-03 0.  1.
         11    1    4    4    0    0 -0.19438383442E-01 -0.59072245760E-02  0.24346600727E-01  0.31713784716E-01  0.51100000000E-03 0. -1.
</event>
<event>
 8    1  0.1180500E+005  0.1043930E+01  0.7957747E-01            NaN
         13   -1    0    0    0    0  0.00000000000E+00  0.00000000000E+00  0.74505805969E-08  0.10566000000E+00  0.10566000000E+00 0.  1.
     999900   -1    0    0    0    0 -0.00000000000E+00 -0.00000000000E+00 -0.74505805969E-08  0.93827000000E+00  0.93827000000E+00 0. -1.
     999902    2    1    2    0    0  0.19983374874E-01 -0.15256218495E-02  0.11066383930E-01  0.10210361658E+01  0.10207794689E+01 0.  0.
     999903    2    3    3    0    0 -0.10968416345E+00 -0.46464902724E-01 -0.44291833209E-01  0.12868100010E+00  0.20184905292E-01 0.  0.
         14    1    1    2    0    0 -0.19983374874E-01  0.15256218495E-02 -0.11066383930E-01  0.22893834250E-01  0.00000000000E+00 0. -1.
     999901    1    3    3    0    0  0.12966753832E+00  0.44939280875E-01  0.55358217139E-01  0.89235516565E+00  0.88000000000E+00 0. -1.
        -11    1    4    4    0    0 -0.64103274040E-01 -0.35462410828E-01 -0.20373224499E-01  0.76040395330E-01  0.51100000000E-03 0. -1.
         11    1    4    4    0    0 -0.45580889405E-01 -0.11002491896E-01 -0.23918608710E-01  0.52640604770E-01  0.51100000000E-03 0.  1.
</event>
<event>
 8    1  0.1180500E+005  0.1043930E+01  0.7957747E-01            NaN
         13   -1    0    0    0    0  0.00000000000E+00  0.00000000000E+00  0.74505805969E-08  0.10566000000E+00  0.10566000000E+00 0.  1.
     999900   -1    0    0    0    0 -0.00000000000E+00 -0.00000000000E+00 -0.74505805969E-08  0.93827000000E+00  0.93827000000E+00 0. -1.
     999902    2    1    2    0    0  0.63872559176E-02  0.10036057946E-01 -0.20616511117E-01  0.10201274785E+01  0.10198497499E+01 0.  0.
     999903    2    3    3    0    0  0.11052670135E+00 -0.42870174190E-01  0.48833356625E-01  0.12969647188E+00  0.19556956640E-01 0.  0.
         14    1    1    2    0    0 -0.63872559176E-02 -0.10036057946E-01  0.20616511117E-01  0.23802521461E-01  0.00000000000E+00 0.  1.
     999901    1    3    3    0    0 -0.10413944543E+00  0.52906232137E-01 -0.69449867742E-01  0.89043100666E+00  0.88000000000E+00 0. -1.
        -11    1    4    4    0    0  0.84229603850E-01 -0.36323009824E-01  0.45480581500E-01  0.10238521193E+00  0.51100000000E-03 0. -1.
         11    1    4    4    0    0  0.26297097495E-01 -0.65471643662E-02  0.33527751252E-02  0.27311259948E-01  0.51100000000E-03 0.  1.
</event>
<event>
 8    1  0.1180500E+005  0.1043930E+01  0.7957747E-01            NaN
         13   -1    0    0    0    0  0.00000000000E+00  0.00000000000E+00  0.74505805969E-08  0.10566000000E+00  0.10566000000E+00 0.  1.
     999900   -1    0    0    0    0 -0.00000000000E+00 -0.00000000000E+00 -0.74505805969E-08  0.93827000000E+00  0.93827000000E+00 0.  1.
     999902    2    1    2    0    0  0.49116019299E-02 -0.24083569028E-02 -0.25612791629E-01  0.10177395607E+01  0.10174025134E+01 0.  0.
     999903    2    3    3    0    0 -0.11767404553E+00  0.17134565952E-01  0.37438197412E-01  0.12679366221E+00  0.23113628215E-01 0.  0.
         14    1    1    2    0    0 -0.49116019299E-02  0.24083569028E-02  0.25612791629E-01  0.26190439315E-01  0.00000000000E+00 0.  1.
     999901    1    3    3    0    0  0.12258564746E+00 -0.19542922855E-01 -0.63050989042E-01  0.89094589848E+00  0.88000000000E+00 0.  1.
        -11    1    4    4    0    0 -0.88630779084E-01  0.13458261299E-01  0.38334586357E-01  0.97500468872E-01  0.51100000000E-03 0.  1.
         11    1    4    4    0    0 -0.29043266443E-01  0.36763046533E-02 -0.89638894431E-03  0.29293193334E-01  0.51100000000E-03 0. -1.
</event>
<event>
 8    1  0.1180500E+005  0.1043930E+01  0.7957747E-01            NaN
         13   -1    0    0    0    0  0.00000000000E+00  0.00000000000E+00  0.74505805969E-08  0.10566000000E+00  0.10566000000E+00 0.  1.
     999900   -1    0    0    0    0 -0.00000000000E+00 -0.00000000000E+00 -0.74505805969E-08  0.93827000000E+00  0.93827000000E+00 0.  1.
     999902    2    1    2    0    0 -0.23166476102E-01 -0.71897829776E-02 -0.31089823501E-02  0.10194750544E+01  0.10191817022E+01 0.  0.
     999903    2    3    3    0    0  0.74452457660E-01  0.33310480214E-01 -0.96938195644E-01  0.12819863888E+00  0.19624492162E-01 0.  0.
         14    1    1    2    0    0  0.23166476102E-01  0.71897829776E-02  0.31089823501E-02  0.24454945625E-01  0.00000000000E+00 0.  1.
     999901    1    3    3    0    0 -0.97618933762E-01 -0.40500263192E-01  0.93829213294E-01  0.89127641549E+00  0.88000000000E+00 0. -1.
        -11    1    4    4    0    0  0.32480040413E-01  0.68264472038E-02 -0.49082400879E-01  0.59252819373E-01  0.51100000000E-03 0. -1.
         11    1    4    4    0    0  0.41972417247E-01  0.26484033010E-01 -0.47855794765E-01  0.68945819508E-01  0.51100000000E-03 0.  1.
</event>
<event>
 8    1  0.1180500E+005  0.1043930E+01  0.7957747E-01            NaN
         13   -1    0    0    0    0  0.00000000000E+00  0.00000000000E+00  0.74505805969E-08  0.10566000000E+00  0.10566000000E+00 0.  1.
     999900   -1    0    0    0    0 -0.00000000000E+00 -0.00000000000E+00 -0.74505805969E-08  0.93827000000E+00  0.93827000000E+00 0. -1.
     999902    2    1    2    0    0 -0.24720792136E-02  0.92622993362E-02  0.20888422297E-01  0.10209467985E+01  0.10206880708E+01 0.  0.
     999903    2    3    3    0    0 -0.12331287862E+00  0.40822270157E-01  0.15679017029E-01  0.13211291726E+00  0.18315773472E-01 0.  0.
         14    1    1    2    0    0  0.24720792136E-02 -0.92622993362E-02 -0.20888422297E-01  0.22983201489E-01  0.00000000000E+00 0. -1.
     999901    1    3    3    0    0  0.12084079940E+00 -0.31559970821E-01  0.52094052677E-02  0.88883388125E+00  0.88000000000E+00 0.  1.
        -11    1    4    4    0    0 -0.91263511966E-01  0.37317600892E-01  0.15865264115E-01  0.99867911159E-01  0.51100000000E-03 0.  1.
         11    1    4    4    0    0 -0.32049366652E-01  0.35046692648E-02 -0.18624708630E-03  0.32245006100E-01  0.51100000000E-03 0. -1.
</event>
<event>
 8    1  0.1180500E+005  0.1043930E+01  0.7957747E-01            NaN
         13   -1    0    0    0    0  0.00000000000E+00  0.00000000000E+00  0.74505805969E-08  0.10566000000E+00  0.10566000000E+00 0.  1.
     999900   -1    0    0    0    0 -0.00000000000E+00 -0.00000000000E+00 -0.74505805969E-08  0.93827000000E+00  0.93827000000E+00 0.  1.
     999902    2    1    2    0    0 -0.19651056394E-01  0.15675107489E-01  0.61510317448E-02  0.10180512789E+01  0.10177223091E+01 0.  0.
     999903    2    3    3    0    0  0.20335887995E-01  0.32350725716E-02 -0.12414636983E+00  0.12747218473E+00  0.20318038825E-01 0.  0.
         14    1    1    2    0    0  0.19651056394E-01 -0.15675107489E-01 -0.61510317448E-02  0.25878721061E-01  0.00000000000E+00 0. -1.
     999901    1    3    3    0    0 -0.39986944389E-01  0.12440034917E-01  0.13029740158E+00  0.89057909421E+00  0.88000000000E+00 0. -1.
        -11    1    4    4    0    0  0.16781605149E-01 -0.68840923808E-02 -0.74516941508E-01  0.76694515397E-01  0.51100000000E-03 0. -1.
         11    1    4    4    0    0  0.35542828458E-02  0.10119164952E-01 -0.49629428324E-01  0.50777669330E-01  0.51100000000E-03 0.  1.
</event>
<event>
 8    1  0.1180500E+005  0.1043930E+01  0.7957747E-01            NaN
         13   -1    0    0    0    0  0.00000000000E+00  0.00000000000E+00  0.74505805969E-08  0.10566000000E+00  0.10566000000E+00 0.  1.
     999900   -1    0    0    0    0 -0.00000000000E+00 -0.00000000000E+00 -0.74505805969E-08  0.93827000000E+00  0.93827000000E+00 0.  1.
     999902    2    1    2    0    0  0.18837780190E-01 -0.17374848222E-01 -0.11614132515E-01  0.10157939842E+01  0.10154042460E+01 0.  0.
     999903    2    3    3    0    0  0.41232745244E-01 -0.11887395084E+00 -0.23398935952E-01  0.12959847307E+00  0.20422990692E-01 0.  0.
         14    1    1    2    0    0 -0.18837780190E-01  0.17374848222E-01  0.11614132515E-01  0.28136015839E-01  0.00000000000E+00 0.  1.
     999901    1    3    3    0    0 -0.22394965054E-01  0.10149910262E+00  0.11784803437E-01  0.88619551109E+00  0.88000000000E+00 0. -1.
        -11    1    4    4    0    0  0.30410112243E-01 -0.10291581701E+00 -0.25171839492E-01  0.11022850331E+00  0.51100000000E-03 0. -1.
         11    1    4    4    0    0  0.10822633001E-01 -0.15958133826E-01  0.17729035396E-02  0.19369969753E-01  0.51100000000E-03 0.  1.
</event>
<event>
 8    1  0.1180500E+005  0.1043930E+01  0.7957747E-01            NaN
         13   -1    0    0    0    0  0.00000000000E+00  0.00000000000E+00  0.74505805969E-08  0.10566000000E+00  0.10566000000E+00 0.  1.
     999900   -1    0    0    0    0 -0.00000000000E+00 -0.00000000000E+00 -0.74505805969E-08  0.93827000000E+00  0.93827000000E+00 0.  1.
     999902    2    1    2    0    0 -0.28475571764E-03  0.33651913966E-02  0.23300290194E-01  0.10203862297E+01  0.10201145762E+01 0.  0.
     999903    2    3    3    0    0 -0.12584926331E+00 -0.28205174279E-01  0.86390966053E-02  0.13079189281E+00  0.19957863187E-01 0.  0.
         14    1    1    2    0    0  0.28475571764E-03 -0.33651913966E-02 -0.23300290194E-01  0.23543770345E-01  0.00000000000E+00 0. -1.
     999901    1    3    3    0    0  0.12556450759E+00  0.31570365676E-01  0.14661193589E-01  0.88959433685E+00  0.88000000000E+00 0.  1.
        -11    1    4    4    0    0 -0.10817261661E+00 -0.26670028062E-01  0.87212537434E-03  0.11141645796E+00  0.51100000000E-03 0. -1.
         11    1    4    4    0    0 -0.17676646696E-01 -0.15351462174E-02  0.77669712309E-02  0.19375434845E-01  0.51100000000E-03 0.  1.
</event>
<event>
 8    1  0.1180500E+005  0.1043930E+01  0.7957747E-01            NaN
         13   -1    0    0    0    0  0.00000000000E+00  0.00000000000E+00  0.74505805969E-08  0.10566000000E+00  0.10566000000E+00 0.  1.
     999900   -1    0    0    0    0 -0.00000000000E+00 -0.00000000000E+00 -0.74505805969E-08  0.93827000000E+00  0.93827000000E+00 0.  1.
     999902    2    1    2    0    0 -0.46153692699E-02 -0.36386943323E-02  0.22943970301E-01  0.10202452475E+01  0.10199702924E+01 0.  0.
     999903    2    3    3    0    0  0.81258617040E-01  0.97029476296E-01  0.23910923169E-01  0.13035235665E+00  0.20057979081E-01 0.  0.
         14    1    1    2    0    0  0.46153692699E-02  0.36386943323E-02 -0.22943970301E-01  0.23684752545E-01  0.00000000000E+00 0. -1.
     999901    1    3    3    0    0 -0.85873986310E-01 -0.10066817063E+00 -0.96695286835E-03  0.88989289080E+00  0.88000000000E+00 0. -1.
        -11    1    4    4    0    0  0.47494341624E-01  0.62598880159E-01  0.56381842646E-02  0.78780597397E-01  0.51100000000E-03 0. -1.
         11    1    4    4    0    0  0.33764275416E-01  0.34430596136E-01  0.18272738904E-01  0.51571759256E-01  0.51100000000E-03 0.  1.
</event>
<event>
 8    1  0.1180500E+005  0.1043930E+01  0.7957747E-01            NaN
         13   -1    0    0    0    0  0.00000000000E+00  0.00000000000E+00  0.74505805969E-08  0.10566000000E+00  0.10566000000E+00 0.  1.
     999900   -1    0    0    0    0 -0.00000000000E+00 -0.00000000000E+00 -0.74505805969E-08  0.93827000000E+00  0.93827000000E+00 0. -1.
     999902    2    1    2    0    0  0.11527623668E-01 -0.87017140202E-02  0.19868854754E-01  0.10193662600E+01  0.10190702599E+01 0.  0.
     999903    2    3    3    0    0 -0.33042326180E-01 -0.69640834774E-01  0.10514727869E+00  0.13202615244E+00  0.20816184210E-01 0.  0.
         14    1    1    2    0    0 -0.11527623668E-01  0.87017140202E-02 -0.19868854754E-01  0.24563740016E-01  0.00000000000E+00 0. -1.
     999901    1    3    3    0    0  0.44569949848E-01  0.60939120754E-01 -0.85278423935E-01  0.88734010754E+00  0.88000000000E+00 0. -1.
        -11    1    4    4    0    0 -0.33544477793E-01 -0.61484016619E-01  0.10082862991E+00  0.12276884792E+00  0.51100000000E-03 0. -1.
         11    1    4    4    0    0  0.50215161302E-03 -0.81568181552E-02  0.43186487825E-02  0.92573045194E-02  0.51100000000E-03 0.  1.
</event>
<event>
 8    1  0.1180500E+005  0.1043930E+01  0.7957747E-01            NaN
         13   -1    0    0    0    0  0.00000000000E+00  0.00000000000E+00  0.74505805969E-08  0.10566000000E+00  0.10566000000E+00 0. -1.
     999900   -1    0    0    0    0 -0.00000000000E+00 -0.00000000000E+00 -0.74505805969E-08  0.93827000000E+00  0.93827000000E+00 0. -1.
     999902    2    1    2    0    0 -0.55429130162E-02 -0.13731392713E-01  0.19291202805E-01  0.10196107579E+01  0.10193206915E+01 0.  0.
     999903    2    3    3    0    0  0.10723385288E+00 -0.67239747292E-01 -0.26075478247E-01  0.12964453456E+00  0.10367832782E-01 0.  0.
         14    1    1    2    0    0  0.55429130162E-02  0.13731392713E-01 -0.19291202805E-01  0.24319242098E-01  0.00000000000E+00 0.  1.
     999901    1    3    3    0    0 -0.11277676590E+00  0.53508354579E-01  0.45366681052E-01  0.88996622334E+00  0.88000000000E+00 0.  1.
        -11    1    4    4    0    0  0.35889068482E-01 -0.21541097844E-01 -0.37675056798E-02  0.42029743669E-01  0.51100000000E-03 0. -1.
         11    1    4    4    0    0  0.71344784398E-01 -0.45698649448E-01 -0.22307972567E-01  0.87614790893E-01  0.51100000000E-03 0.  1.
</event>
<event>
 8    1  0.1180500E+005  0.1043930E+01  0.7957747E-01            NaN
         13   -1    0    0    0    0  0.00000000000E+00  0.00000000000E+00  0.74505805969E-08  0.10566000000E+00  0.10566000000E+00 0.  1.
     999900   -1    0    0    0    0 -0.00000000000E+00 -0.00000000000E+00 -0.74505805969E-08  0.93827000000E+00  0.93827000000E+00 0. -1.
     999902    2    1    2    0    0  0.18619414504E-01  0.16239247692E-01  0.17892578486E-02  0.10191591057E+01  0.10188580301E+01 0.  0.
     999903    2    3    3    0    0  0.44059335918E-01  0.73097935382E-01  0.98393004921E-01  0.13168381930E+00  0.19362634391E-01 0.  0.
         14    1    1    2    0    0 -0.18619414504E-01 -0.16239247692E-01 -0.17892578486E-02  0.24770894326E-01  0.00000000000E+00 0. -1.
     999901    1    3    3    0    0 -0.25439921414E-01 -0.56858687690E-01 -0.96603747072E-01  0.88747528637E+00  0.88000000000E+00 0. -1.
        -11    1    4    4    0    0  0.38783702198E-01  0.48572620869E-01  0.65307233973E-01  0.90159697118E-01  0.51100000000E-03 0. -1.
         11    1    4    4    0    0  0.52756337205E-02  0.24525314514E-01  0.33085770948E-01  0.41524122187E-01  0.51100000000E-03 0.  1.
</event>
<event>
 8    1  0.1180500E+005  0.1043930E+01  0.7957747E-01            NaN
         13   -1    0    0    0    0  0.00000000000E+00  0.00000000000E+00  0.74505805969E-08  0.10566000000E+00  0.10566000000E+00 0.  1.
     999900   -1    0    0    0    0 -0.00000000000E+00 -0.00000000000E+00 -0.74505805969E-08  0.93827000000E+00  0.93827000000E+00 0.  1.
     999902    2    1    2    0    0 -0.17086045190E-01 -0.17921286996E-01 -0.20208730299E-02  0.10190867032E+01  0.10187838432E+01 0.  0.
     999903    2    3    3    0    0  0.10750473431E+00 -0.66636630247E-01 -0.14565309127E-01  0.12888818047E+00  0.20057578232E-01 0.  0.
         14    1    1    2    0    0  0.17086045190E-01  0.17921286996E-01  0.20208730299E-02  0.24843296794E-01  0.00000000000E+00 0. -1.
     999901    1    3    3    0    0 -0.12459077950E+00  0.48715343252E-01  0.12544436097E-01  0.89019852274E+00  0.88000000000E+00 0.  1.
        -11    1    4    4    0    0  0.62674183149E-01 -0.32939356254E-01  0.53122344349E-03  0.70806763400E-01  0.51100000000E-03 0. -1.
         11    1    4    4    0    0  0.44830551163E-01 -0.33697273993E-01 -0.15096532570E-01  0.58081417069E-01  0.51100000000E-03 0.  1.
</event>
<event>
 8    1  0.1180500E+005  0.1043930E+01  0.7957747E-01            NaN
         13   -1    0    0    0    0  0.00000000000E+00  0.00000000000E+00  0.74505805969E-08  0.10566000000E+00  0.10566000000E+00 0.  1.
     999900   -1    0    0    0    0 -0.00000000000E+00 -0.00000000000E+00 -0.74505805969E-08  0.93827000000E+00  0.93827000000E+00 0. -1.
     999902    2    1    2    0    0  0.44494709293E-02  0.19682581488E-01  0.12240105958E-01  0.10203286865E+01  0.10200556879E+01 0.  0.
     999903    2    3    3    0    0 -0.81252202306E-01  0.42303153369E-01 -0.89897264036E-01  0.12999812461E+00  0.20652291795E-01 0.  0.
         14    1    1    2    0    0 -0.44494709293E-02 -0.19682581488E-01 -0.12240105958E-01  0.23601313511E-01  0.00000000000E+00 0.  1.
     999901    1    3    3    0    0  0.85701673236E-01 -0.22620571881E-01  0.10213736999E+00  0.89033056188E+00  0.88000000000E+00 0.  1.
        -11    1    4    4    0    0 -0.50759908650E-01  0.17278281260E-01 -0.60206558444E-01  0.80623806224E-01  0.51100000000E-03 0. -1.
         11    1    4    4    0    0 -0.30492293657E-01  0.25024872109E-01 -0.29690705592E-01  0.49374318386E-01  0.51100000000E-03 0.  1.
</event>
<event>
 8    1  0.1180500E+005  0.1043930E+01  0.7957747E-01            NaN
         13   -1    0    0    0    0  0.00000000000E+00  0.00000000000E+00  0.74505805969E-08  0.10566000000E+00  0.10566000000E+00 0. -1.
     999900   -1    0    0    0    0 -0.00000000000E+00 -0.00000000000E+00 -0.74505805969E-08  0.93827000000E+00  0.93827000000E+00 0. -1.
     999902    2    1    2    0    0 -0.10215560822E-01  0.20167308688E-01 -0.97993305781E-02  0.10192905012E+01  0.10189926501E+01 0.  0.
     999903    2    3    3    0    0  0.38033901435E-01 -0.48811325552E-01 -0.11171572442E+00  0.12941803058E+00  0.20964264734E-01 0.  0.
         14    1    1    2    0    0  0.10215560822E-01 -0.20167308688E-01  0.97993305781E-02  0.24639498826E-01  0.00000000000E+00 0. -1.
     999901    1    3    3    0    0 -0.48249462257E-01  0.68978634239E-01  0.10191639384E+00  0.88987247060E+00  0.88000000000E+00 0.  1.
        -11    1    4    4    0    0  0.17517845603E-01 -0.38478953681E-01 -0.75325577196E-01  0.86381181353E-01  0.51100000000E-03 0. -1.
         11    1    4    4    0    0  0.20516055832E-01 -0.10332371871E-01 -0.36390147223E-01  0.43036849226E-01  0.51100000000E-03 0.  1.
</event>
<event>
 7    1  0.1180500E+005  0.1043930E+01  0.7957747E-01            NaN
         13   -1    0    0    0    0  0.00000000000E+00  0.00000000000E+00  0.74505805969E-08  0.10566000000E+00  0.10566000000E+00 0. -1.
     999900   -1    0    0    0    0 -0.00000000000E+00 -0.00000000000E+00 -0.74505805969E-08  0.93827000000E+00  0.93827000000E+00 0. -1.
     999903    2    1    2    0    0  0.28890246175E-01 -0.85995844688E-01  0.76192824383E-01  0.12015608708E+00  0.20055102757E-01 0.  0.
         14    1    1    2    0    0  0.76628113951E-02  0.26907709826E-01 -0.28211804400E-01  0.39732221610E-01  0.00000000000E+00 0.  1.
     999901    1    1    2    0    0 -0.36553057570E-01  0.59088134862E-01 -0.47981019983E-01  0.88404169131E+00  0.88000000000E+00 0. -1.
        -11    1    3    3    0    0  0.13784877710E-01 -0.66456880700E-01  0.60238574262E-01  0.90749582897E-01  0.51100000000E-03 0.  1.
         11    1    3    3    0    0  0.15105368465E-01 -0.19538963988E-01  0.15954250121E-01  0.29406504180E-01  0.51100000000E-03 0. -1.
</event>
<event>
 8    1  0.1180500E+005  0.1043930E+01  0.7957747E-01            NaN
         13   -1    0    0    0    0  0.00000000000E+00  0.00000000000E+00  0.74505805969E-08  0.10566000000E+00  0.10566000000E+00 0. -1.
     999900   -1    0    0    0    0 -0.00000000000E+00 -0.00000000000E+00 -0.74505805969E-08  0.93827000000E+00  0.93827000000E+00 0. -1.
     999902    2    1    2    0    0  0.20202316193E-01 -0.10323710724E-02  0.13018713984E-01  0.10198741009E+01  0.10195903566E+01 0.  0.
     999903    2    3    3    0    0 -0.68846551034E-01 -0.17352293842E-01 -0.10401966274E+00  0.12752101925E+00  0.20014255495E-01 0.  0.
         14    1    1    2    0    0 -0.20202316193E-01  0.10323710724E-02 -0.13018713984E-01  0.24055899139E-01  0.00000000000E+00 0.  1.
     999901    1    3    3    0    0  0.89048867227E-01  0.16319922769E-01  0.11703837673E+00  0.89235308161E+00  0.88000000000E+00 0.  1.
        -11    1    4    4    0    0 -0.19430196636E-01 -0.91957236842E-03 -0.15754589744E-01  0.25036900241E-01  0.51100000000E-03 0.  1.
         11    1    4    4    0    0 -0.49416354398E-01 -0.16432721473E-01 -0.88265072997E-01  0.10248411901E+00  0.51100000000E-03 0. -1.
</event>
<event>
 8    1  0.1180500E+005  0.1043930E+01  0.7957747E-01            NaN
         13   -1    0    0    0    0  0.00000000000E+00  0.00000000000E+00  0.74505805969E-08  0.10566000000E+00  0.10566000000E+00 0.  1.
     999900   -1    0    0    0    0 -0.00000000000E+00 -0.00000000000E+00 -0.74505805969E-08  0.93827000000E+00  0.93827000000E+00 0. -1.
     999902    2    1    2    0    0  0.15438822986E-01 -0.25644971979E-02 -0.17208471122E-01  0.10206691879E+01  0.10204040992E+01 0.  0.
     999903    2    3    3    0    0 -0.70484604802E-01  0.69451129101E-01 -0.83663796146E-01  0.13107074136E+00  0.19707095342E-01 0.  0.
         14    1    1    2    0    0 -0.15438822986E-01  0.25644971979E-02  0.17208471122E-01  0.23260812097E-01  0.00000000000E+00 0. -1.
     999901    1    3    3    0    0  0.85923427787E-01 -0.72015626299E-01  0.66455325024E-01  0.88959844655E+00  0.88000000000E+00 0. -1.
        -11    1    4    4    0    0 -0.26187891790E-01  0.35384120058E-01 -0.46046591716E-01  0.63705504929E-01  0.51100000000E-03 0.  1.
         11    1    4    4    0    0 -0.44296713011E-01  0.34067009044E-01 -0.37617204430E-01  0.67365236427E-01  0.51100000000E-03 0. -1.
</event>
<event>
 8    1  0.1180500E+005  0.1043930E+01  0.7957747E-01            NaN
         13   -1    0    0    0    0  0.00000000000E+00  0.00000000000E+00  0.74505805969E-08  0.10566000000E+00  0.10566000000E+00 0.  1.
     999900   -1    0    0    0    0 -0.00000000000E+00 -0.00000000000E+00 -0.74505805969E-08  0.93827000000E+00  0.93827000000E+00 0. -1.
     999902    2    1    2    0    0  0.81357222109E-02 -0.16134043062E-01 -0.15494154730E-01  0.10201273499E+01  0.10198496182E+01 0.  0.
     999903    2    3    3    0    0  0.83061832119E-01 -0.88841745513E-01 -0.50724392218E-01  0.13325559954E+00  0.19798160046E-01 0.  0.
         14    1    1    2    0    0 -0.81357222109E-02  0.16134043062E-01  0.15494154730E-01  0.23802650110E-01  0.00000000000E+00 0.  1.
     999901    1    3    3    0    0 -0.74926109908E-01  0.72707702451E-01  0.35230237488E-01  0.88687175035E+00  0.88000000000E+00 0. -1.
        -11    1    4    4    0    0  0.78297430304E-01 -0.76246049455E-01 -0.48617625200E-01  0.11961556024E+00  0.51100000000E-03 0.  1.
         11    1    4    4    0    0  0.47644018156E-02 -0.12595696058E-01 -0.21067670187E-02  0.13640039300E-01  0.51100000000E-03 0. -1.
</event>
<event>
 8    1  0.1180500E+005  0.1043930E+01  0.7957747E-01            NaN
         13   -1    0    0    0    0  0.00000000000E+00  0.00000000000E+00  0.74505805969E-08  0.10566000000E+00  0.10566000000E+00 0. -1.
     999900   -1    0    0    0    0 -0.00000000000E+00 -0.00000000000E+00 -0.74505805969E-08  0.93827000000E+00  0.93827000000E+00 0. -1.
     999902    2    1    2    0    0  0.93338534803E-02  0.12811371771E-01  0.17434847501E-01  0.10203667665E+01  0.10200946584E+01 0.  0.
     999903    2    3    3    0    0  0.12919524402E+00 -0.98993458579E-03  0.19993733745E-01  0.13213043704E+00  0.19139277835E-01 0.  0.
         14    1    1    2    0    0 -0.93338534803E-02 -0.12811371771E-01 -0.17434847501E-01  0.23563233540E-01  0.00000000000E+00 0. -1.
     999901    1    3    3    0    0 -0.11986139054E+00  0.13801306357E-01 -0.25588862431E-02  0.88823632942E+00  0.88000000000E+00 0.  1.
        -11    1    4    4    0    0  0.42094996952E-01  0.83201540320E-02  0.41667400865E-02  0.43114227065E-01  0.51100000000E-03 0.  1.
         11    1    4    4    0    0  0.87100247068E-01 -0.93100886178E-02  0.15826993658E-01  0.89016209977E-01  0.51100000000E-03 0. -1.
</event>
<event>
 8    1  0.1180500E+005  0.1043930E+01  0.7957747E-01            NaN
         13   -1    0    0    0    0  0.00000000000E+00  0.00000000000E+00  0.74505805969E-08  0.10566000000E+00  0.10566000000E+00 0.  1.
     999900   -1    0    0    0    0 -0.00000000000E+00 -0.00000000000E+00 -0.74505805969E-08  0.93827000000E+00  0.93827000000E+00 0. -1.
     999902    2    1    2    0    0 -0.17151165592E-01 -0.56231235662E-02  0.12299062266E-01  0.10220885501E+01  0.10218551538E+01 0.  0.
     999903    2    3    3    0    0 -0.70676211404E-01  0.87530954176E-01 -0.66547445678E-01  0.13205518865E+00  0.18794029010E-01 0.  0.
         14    1    1    2    0    0  0.17151165592E-01  0.56231235662E-02 -0.12299062266E-01  0.21841449869E-01  0.00000000000E+00 0. -1.
     999901    1    3    3    0    0  0.53525045812E-01 -0.93154077742E-01  0.78846507943E-01  0.89003336148E+00  0.88000000000E+00 0.  1.
        -11    1    4    4    0    0 -0.17389927410E-01  0.12064251793E-01 -0.17443096047E-01  0.27431340969E-01  0.51100000000E-03 0. -1.
         11    1    4    4    0    0 -0.53286283994E-01  0.75466702383E-01 -0.49104349630E-01  0.10462384768E+00  0.51100000000E-03 0.  1.
</event>
<event>
 8    1  0.1180500E+005  0.1043930E+01  0.7957747E-01            NaN
         13   -1    0    0    0    0  0.00000000000E+00  0.00000000000E+00  0.74505805969E-08  0.10566000000E+00  0.10566000000E+00 0.  1.
     999900   -1    0    0    0    0 -0.00000000000E+00 -0.00000000000E+00 -0.74505805969E-08  0.93827000000E+00  0.93827000000E+00 0. -1.
     999902    2    1    2    0    0  0.11963320569E-01 -0.36683923653E-03 -0.20421214124E-01  0.10202597318E+01  0.10199851169E+01 0.  0.
     999903    2    3    3    0    0  0.58979551679E-02  0.11305742858E+00  0.59367252866E-01  0.12937923889E+00  0.19943638407E-01 0.  0.
         14    1    1    2    0    0 -0.11963320569E-01  0.36683923653E-03  0.20421214124E-01  0.23670268193E-01  0.00000000000E+00 0.  1.
     999901    1    3    3    0    0  0.60653654013E-02 -0.11342426781E+00 -0.79788466989E-01  0.89088049291E+00  0.88000000000E+00 0. -1.
        -11    1    4    4    0    0 -0.18018434416E-02  0.45154198556E-01  0.13847809430E-01  0.47267020574E-01  0.51100000000E-03 0.  1.
         11    1    4    4    0    0  0.76997986095E-02  0.67903230020E-01  0.45519443436E-01  0.82112218320E-01  0.51100000000E-03 0. -1.
</event>
<event>
 8    1  0.1180500E+005  0.1043930E+01  0.7957747E-01            NaN
         13   -1    0    0    0    0  0.00000000000E+00  0.00000000000E+00  0.74505805969E-08  0.10566000000E+00  0.10566000000E+00 0.  1.
     999900   -1    0    0    0    0 -0.00000000000E+00 -0.00000000000E+00 -0.74505805969E-08  0.93827000000E+00  0.93827000000E+00 0. -1.
     999902    2    1    2    0    0  0.15094630166E-01 -0.17980220454E-01 -0.33556556377E-02  0.10202150973E+01  0.10199394335E+01 0.  0.
     999903    2    3    3    0    0 -0.10090088903E+00  0.52265795560E-01 -0.53220300164E-01  0.12843264283E+00  0.27383217554E-01 0.  0.
         14    1    1    2    0    0 -0.15094630166E-01  0.17980220454E-01  0.33556556377E-02  0.23714902745E-01  0.00000000000E+00 0.  1.
     999901    1    3    3    0    0  0.11599551919E+00 -0.70246016014E-01  0.49864644527E-01  0.89178245442E+00  0.88000000000E+00 0.  1.
        -11    1    4    4    0    0 -0.94280700736E-01  0.48896359192E-01 -0.40448339977E-01  0.11364872987E+00  0.51100000000E-03 0. -1.
         11    1    4    4    0    0 -0.66201882920E-02  0.33694363685E-02 -0.12771960188E-01  0.14783912963E-01  0.51100000000E-03 0.  1.
</event>
<event>
 8    1  0.1180500E+005  0.1043930E+01  0.7957747E-01            NaN
         13   -1    0    0    0    0  0.00000000000E+00  0.00000000000E+00  0.74505805969E-08  0.10566000000E+00  0.10566000000E+00 0.  1.
     999900   -1    0    0    0    0 -0.00000000000E+00 -0.00000000000E+00 -0.74505805969E-08  0.93827000000E+00  0.93827000000E+00 0.  1.
     999902    2    1    2    0    0  0.13929593998E-01 -0.93325381922E-02  0.17093296184E-01  0.10199860940E+01  0.10197050169E+01 0.  0.
     999903    2    3    3    0    0 -0.76594160082E-01  0.38614423694E-01  0.96285880304E-01  0.13051157131E+00  0.20113687491E-01 0.  0.
         14    1    1    2    0    0 -0.13929593998E-01  0.93325381922E-02 -0.17093296184E-01  0.23943905957E-01  0.00000000000E+00 0. -1.
     999901    1    3    3    0    0  0.90523754081E-01 -0.47946961887E-01 -0.79192584120E-01  0.88947452273E+00  0.88000000000E+00 0.  1.
        -11    1    4    4    0    0 -0.22017120564E-01  0.21347323432E-01  0.37704419964E-01  0.48603973309E-01  0.51100000000E-03 0. -1.
         11    1    4    4    0    0 -0.54577039518E-01  0.17267100263E-01  0.58581460340E-01  0.81907598003E-01  0.51100000000E-03 0.  1.
</event>
<event>
 8    1  0.1180500E+005  0.1043930E+01  0.7957747E-01            NaN
         13   -1    0    0    0    0  0.00000000000E+00  0.00000000000E+00  0.74505805969E-08  0.10566000000E+00  0.10566000000E+00 0. -1.
     999900   -1    0    0    0    0 -0.00000000000E+00 -0.00000000000E+00 -0.74505805969E-08  0.93827000000E+00  0.93827000000E+00 0.  1.
     999902    2    1    2    0    0 -0.27390365549E-02 -0.23094553735E-01  0.12773545125E-01  0.10173965459E+01  0.10170504940E+01 0.  0.
     999903    2    3    3    0    0  0.11834541288E+00  0.40467025183E-01 -0.36327097304E-02  0.12668296484E+00  0.19803033221E-01 0.  0.
         14    1    1    2    0    0  0.27390365549E-02  0.23094553735E-01 -0.12773545125E-01  0.26533454138E-01  0.00000000000E+00 0.  1.
     999901    1    3    3    0    0 -0.12108444944E+00 -0.63561578918E-01  0.16406254855E-01  0.89071358102E+00  0.88000000000E+00 0.  1.
        -11    1    4    4    0    0  0.80561995728E-01  0.23067327445E-01 -0.10717617109E-01  0.84483520219E-01  0.51100000000E-03 0.  1.
         11    1    4    4    0    0  0.37783417152E-01  0.17399697738E-01  0.70849073791E-02  0.42199444625E-01  0.51100000000E-03 0. -1.
</event>
<event>
 8    1  0.1180500E+005  0.1043930E+01  0.7957747E-01            NaN
         13   -1    0    0    0    0  0.00000000000E+00  0.00000000000E+00  0.74505805969E-08  0.10566000000E+00  0.10566000000E+00 0. -1.
     999900   -1    0    0    0    0 -0.00000000000E+00 -0.00000000000E+00 -0.74505805969E-08  0.93827000000E+00  0.93827000000E+00 0. -1.
     999902    2    1    2    0    0  0.19192838107E-03  0.15545802490E-01 -0.17327503757E-01  0.10206501547E+01  0.10203846270E+01 0.  0.
     999903    2    3    3    0    0 -0.97407917137E-01  0.33817206551E-01  0.76710851255E-01  0.13008696980E+00  0.20153392571E-01 0.  0.
         14    1    1    2    0    0 -0.19192838107E-03 -0.15545802490E-01  0.17327503757E-01  0.23279845317E-01  0.00000000000E+00 0. -1.
     999901    1    3    3    0    0  0.97599845518E-01 -0.18271404061E-01 -0.94038355012E-01  0.89056318488E+00  0.88000000000E+00 0.  1.
        -11    1    4    4    0    0 -0.30400204666E-01  0.93532548156E-02  0.12732508378E-01  0.34264175314E-01  0.51100000000E-03 0. -1.
         11    1    4    4    0    0 -0.67007712471E-01  0.24463951736E-01  0.63978342877E-01  0.95822794487E-01  0.51100000000E-03 0.  1.
</event>
<event>
 8    1  0.1180500E+005  0.1043930E+01  0.7957747E-01            NaN
         13   -1    0    0    0    0  0.00000000000E+00  0.00000000000E+00  0.74505805969E-08  0.10566000000E+00  0.10566000000E+00 0. -1.
     999900   -1    0    0    0    0 -0.00000000000E+00 -0.00000000000E+00 -0.74505805969E-08  0.93827000000E+00  0.93827000000E+00 0. -1.
     999902    2    1    2    0    0 -0.12355946288E-01 -0.11610393398E-01 -0.15819217325E-01  0.10207412467E+01  0.10204778167E+01 0.  0.
     999903    2    3    3    0    0  0.93678719047E-01 -0.93197198274E-02  0.85411749114E-01  0.12861103982E+00  0.19572253227E-01 0.  0.
         14    1    1    2    0    0  0.12355946288E-01  0.11610393398E-01  0.15819217325E-01  0.23188753315E-01  0.00000000000E+00 0. -1.
     999901    1    3    3    0    0 -0.10603466534E+00 -0.22906735705E-02 -0.10123096644E+00  0.89213020687E+00  0.88000000000E+00 0. -1.
        -11    1    4    4    0    0  0.34373584814E-01  0.42075950940E-02  0.38552424863E-01  0.51824683050E-01  0.51100000000E-03 0. -1.
         11    1    4    4    0    0  0.59305134234E-01 -0.13527314921E-01  0.46859324251E-01  0.76786356768E-01  0.51100000000E-03 0.  1.
</event>
<event>
 8    1  0.1180500E+005  0.1043930E+01  0.7957747E-01            NaN
         13   -1    0    0    0    0  0.00000000000E+00  0.00000000000E+00  0.74505805969E-08  0.10566000000E+00  0.10566000000E+00 0. -1.
     999900   -1    0    0    0    0 -0.00000000000E+00 -0.00000000000E+00 -0.74505805969E-08  0.93827000000E+00  0.93827000000E+00 0.  1.
     999902    2    1    2    0    0 -0.92809954156E-02  0.21047929523E-01 -0.53119109600E-02  0.10203213446E+01  0.10200481741E+01 0.  0.
     999903    2    3    3    0    0 -0.91372951828E-01  0.86356263303E-01 -0.38195058835E-01  0.13348112831E+00  0.23493159800E-01 0.  0.
         14    1    1    2    0    0  0.92809954156E-02 -0.21047929523E-01  0.53119109600E-02  0.23608655428E-01  0.00000000000E+00 0. -1.
     999901    1    3    3    0    0  0.82091956413E-01 -0.65308333781E-01  0.32883147875E-01  0.88684021626E+00  0.88000000000E+00 0. -1.
        -11    1    4    4    0    0 -0.25192127523E-01  0.29894661637E-01 -0.22414762146E-01  0.45066803377E-01  0.51100000000E-03 0. -1.
         11    1    4    4    0    0 -0.66180824305E-01  0.56461601666E-01 -0.15780296689E-01  0.88414324931E-01  0.51100000000E-03 0.  1.
</event>
<event>
 8    1  0.1180500E+005  0.1043930E+01  0.7957747E-01            NaN
         13   -1    0    0    0    0  0.00000000000E+00  0.00000000000E+00  0.74505805969E-08  0.10566000000E+00  0.10566000000E+00 0. -1.
     999900   -1    0    0    0    0 -0.00000000000E+00 -0.00000000000E+00 -0.74505805969E-08  0.93827000000E+00  0.93827000000E+00 0. -1.
     999902    2    1    2    0    0  0.24927468318E-01  0.10735518079E-01  0.88074433250E-02  0.10153957910E+01  0.10149947839E+01 0.  0.
     999903    2    3    3    0    0  0.25636746309E-01  0.71810809402E-01  0.10136647951E+00  0.12843588804E+00  0.20163805669E-01 0.  0.
         14    1    1    2    0    0 -0.24927468318E-01 -0.10735518079E-01 -0.88074433250E-02  0.28534208998E-01  0.00000000000E+00 0. -1.
     999901    1    3    3    0    0 -0.70927799023E-03 -0.61075291323E-01 -0.92559036189E-01  0.88695990296E+00  0.88000000000E+00 0. -1.
        -11    1    4    4    0    0  0.47886460984E-02  0.42861767304E-01  0.57981977455E-01  0.72265019604E-01  0.51100000000E-03 0.  1.
         11    1    4    4    0    0  0.20848100210E-01  0.28949042098E-01  0.43384502059E-01  0.56170868434E-01  0.51100000000E-03 0. -1.
</event>
<event>
 8    1  0.1180500E+005  0.1043930E+01  0.7957747E-01            NaN
         13   -1    0    0    0    0  0.00000000000E+00  0.00000000000E+00  0.74505805969E-08  0.10566000000E+00  0.10566000000E+00 0.  1.
     999900   -1    0    0    0    0 -0.00000000000E+00 -0.00000000000E+00 -0.74505805969E-08  0.93827000000E+00  0.93827000000E+00 0. -1.
     999902    2    1    2    0    0  0.11156922500E-01  0.15060433938E-01  0.13404119917E-01  0.10208873435E+01  0.10206272601E+01 0.  0.
     999903    2    3    3    0    0 -0.10428322143E+00  0.71505113166E-01 -0.25996829749E-01  0.13068238757E+00  0.20348950415E-01 0.  0.
         14    1    1    2    0    0 -0.11156922500E-01 -0.15060433938E-01 -0.13404119917E-01  0.23042656548E-01  0.00000000000E+00 0.  1.
     999901    1    3    3    0    0  0.11544014393E+00 -0.56444679228E-01  0.39400949667E-01  0.89020495588E+00  0.88000000000E+00 0.  1.
        -11    1    4    4    0    0 -0.19544953763E-02  0.14166080212E-02 -0.40230235548E-02  0.47193929677E-02  0.51100000000E-03 0.  1.
         11    1    4    4    0    0 -0.10232872605E+00  0.70088505145E-01 -0.21973806194E-01  0.12596299460E+00  0.51100000000E-03 0. -1.
</event>
<event>
 8    1  0.1180500E+005  0.1043930E+01  0.7957747E-01            NaN
         13   -1    0    0    0    0  0.00000000000E+00  0.00000000000E+00  0.74505805969E-08  0.10566000000E+00  0.10566000000E+00 0.  1.
     999900   -1    0    0    0    0 -0.00000000000E+00 -0.00000000000E+00 -0.74505805969E-08  0.93827000000E+00  0.93827000000E+00 0. -1.
     999902    2    1    2    0    0  0.74786945574E-02 -0.21101961832E-01  0.61786750199E-02  0.10207050201E+01  0.10204407569E+01 0.  0.
     999903    2    3    3    0    0  0.33007288612E-01  0.28409917088E-01  0.12233816106E+00  0.13132537033E+00  0.19573521666E-01 0.  0.
         14    1    1    2    0    0 -0.74786945574E-02  0.21101961832E-01 -0.61786750199E-02  0.23224979880E-01  0.00000000000E+00 0. -1.
     999901    1    3    3    0    0 -0.25528594055E-01 -0.49511878920E-01 -0.11615948604E+00  0.88937964979E+00  0.88000000000E+00 0. -1.
        -11    1    4    4    0    0  0.20578356188E-01  0.13843970175E-01  0.93277215640E-01  0.96519554144E-01  0.51100000000E-03 0.  1.
         11    1    4    4    0    0  0.12428932424E-01  0.14565946913E-01  0.29060945417E-01  0.34805816184E-01  0.51100000000E-03 0. -1.
</event>
<event>
 8    1  0.1180500E+005  0.1043930E+01  0.7957747E-01            NaN
         13   -1    0    0    0    0  0.00000000000E+00  0.00000000000E+00  0.74505805969E-08  0.10566000000E+00  0.10566000000E+00 0.  1.
     999900   -1    0    0    0    0 -0.00000000000E+00 -0.00000000000E+00 -0.74505805969E-08  0.93827000000E+00  0.93827000000E+00 0. -1.
     999902    2    1    2    0    0 -0.35823793532E-02  0.14444125629E-01 -0.17825171952E-01  0.10207092558E+01  0.10204450901E+01 0.  0.
     999903    2    3    3    0    0  0.86834783151E-02 -0.12575003059E+00  0.18234652561E-01  0.12879829405E+00  0.19183977881E-01 0.  0.
         14    1    1    2    0    0  0.35823793532E-02 -0.14444125629E-01  0.17825171952E-01  0.23220744220E-01  0.00000000000E+00 0.  1.
     999901    1    3    3    0    0 -0.12265857668E-01  0.14019415622E+00 -0.36059824513E-01  0.89191096173E+00  0.88000000000E+00 0.  1.
        -11    1    4    4    0    0  0.87046655614E-02 -0.88284183147E-01  0.21200405553E-01  0.91211767405E-01  0.51100000000E-03 0. -1.
         11    1    4    4    0    0 -0.21187246340E-04 -0.37465847446E-01 -0.29657529911E-02  0.37586526649E-01  0.51100000000E-03 0.  1.
</event>
<event>
 8    1  0.1180500E+005  0.1043930E+01  0.7957747E-01            NaN
         13   -1    0    0    0    0  0.00000000000E+00  0.00000000000E+00  0.74505805969E-08  0.10566000000E+00  0.10566000000E+00 0. -1.
     999900   -1    0    0    0    0 -0.00000000000E+00 -0.00000000000E+00 -0.74505805969E-08  0.93827000000E+00  0.93827000000E+00 0.  1.
     999902    2    1    2    0    0  0.11900593888E-02  0.55472694229E-02  0.22417776589E-01  0.10208054428E+01  0.10205434860E+01 0.  0.
     999903    2    3    3    0    0  0.10253546961E+00 -0.63155728636E-01  0.49836096362E-01  0.13190569682E+00  0.20329972046E-01 0.  0.
         14    1    1    2    0    0 -0.11900593888E-02 -0.55472694229E-02 -0.22417776589E-01  0.23124557219E-01  0.00000000000E+00 0.  1.
     999901    1    3    3    0    0 -0.10134541023E+00  0.68702998059E-01 -0.27418319773E-01  0.88889974596E+00  0.88000000000E+00 0. -1.
        -11    1    4    4    0    0  0.47543953676E-01 -0.21161621154E-01  0.29319767770E-01  0.59734007434E-01  0.51100000000E-03 0.  1.
         11    1    4    4    0    0  0.54991515939E-01 -0.41994107482E-01  0.20516328592E-01  0.72171689383E-01  0.51100000000E-03 0. -1.
</event>
<event>
 8    1  0.1180500E+005  0.1043930E+01  0.7957747E-01            NaN
         13   -1    0    0    0    0  0.00000000000E+00  0.00000000000E+00  0.74505805969E-08  0.10566000000E+00  0.10566000000E+00 0. -1.
     999900   -1    0    0    0    0 -0.00000000000E+00 -0.00000000000E+00 -0.74505805969E-08  0.93827000000E+00  0.93827000000E+00 0.  1.
     999902    2    1    2    0    0 -0.20999692938E-01  0.77749399557E-02 -0.54374709049E-02  0.10208865002E+01  0.10206263975E+01 0.  0.
     999903    2    3    3    0    0  0.69385178422E-01 -0.99717017443E-01 -0.42576991978E-01  0.12897658885E+00  0.80233205802E-02 0.  0.
         14    1    1    2    0    0  0.20999692938E-01 -0.77749399557E-02  0.54374709049E-02  0.23043499835E-01  0.00000000000E+00 0.  1.
     999901    1    3    3    0    0 -0.90384871360E-01  0.10749195740E+00  0.37139521073E-01  0.89190991131E+00  0.88000000000E+00 0. -1.
        -11    1    4    4    0    0  0.55890348272E-01 -0.76185053745E-01 -0.35495449606E-01  0.10093602681E+00  0.51100000000E-03 0. -1.
         11    1    4    4    0    0  0.13494830150E-01 -0.23531963698E-01 -0.70815423723E-02  0.28040562042E-01  0.51100000000E-03 0.  1.
</event>
<event>
 8    1  0.1180500E+005  0.1043930E+01  0.7957747E-01            NaN
         13   -1    0    0    0    0  0.00000000000E+00  0.00000000000E+00  0.74505805969E-08  0.10566000000E+00  0.10566000000E+00 0. -1.
     999900   -1    0    0    0    0 -0.00000000000E+00 -0.00000000000E+00 -0.74505805969E-08  0.93827000000E+00  0.93827000000E+00 0. -1.
     999902    2    1    2    0    0  0.26872877111E-02 -0.26246063484E-01 -0.90334687485E-02  0.10160430690E+01  0.10156602961E+01 0.  0.
     999903    2    3    3    0    0  0.58306213706E-01  0.74036065093E-01  0.76639589974E-01  0.12447711897E+00  0.27202442986E-01 0.  0.
         14    1    1    2    0    0 -0.26872877111E-02  0.26246063484E-01  0.90334687485E-02  0.27886931012E-01  0.00000000000E+00 0. -1.
     999901    1    3    3    0    0 -0.55618925995E-01 -0.10028212858E+00 -0.85673058722E-01  0.89156595002E+00  0.88000000000E+00 0. -1.
        -11    1    4    4    0    0  0.16468661707E-01  0.35004868235E-01  0.44049189761E-01  0.58627210902E-01  0.51100000000E-03 0. -1.
         11    1    4    4    0    0  0.41837552000E-01  0.39031196858E-01  0.32590400213E-01  0.65849908068E-01  0.51100000000E-03 0.  1.
</event>
<event>
 8    1  0.1180500E+005  0.1043930E+01  0.7957747E-01            NaN
         13   -1    0    0    0    0  0.00000000000E+00  0.00000000000E+00  0.74505805969E-08  0.10566000000E+00  0.10566000000E+00 0.  1.
     999900   -1    0    0    0    0 -0.00000000000E+00 -0.00000000000E+00 -0.74505805969E-08  0.93827000000E+00  0.93827000000E+00 0.  1.
     999902    2    1    2    0    0 -0.13056818324E-02  0.25002181550E-01  0.48808158318E-02  0.10184224276E+01  0.10181029441E+01 0.  0.
     999903    2    3    3    0    0 -0.83935996774E-01 -0.91123020475E-01  0.13876439967E-01  0.12691036780E+00  0.23770348203E-01 0.  0.
         14    1    1    2    0    0  0.13056818324E-02 -0.25002181550E-01 -0.48808158318E-02  0.25507572414E-01  0.00000000000E+00 0. -1.
     999901    1    3    3    0    0  0.82630314941E-01  0.11612520202E+00 -0.89956241348E-02  0.89151205979E+00  0.88000000000E+00 0.  1.
        -11    1    4    4    0    0 -0.17166057799E-01 -0.34185861696E-01  0.69762627048E-02  0.38887993553E-01  0.51100000000E-03 0. -1.
         11    1    4    4    0    0 -0.66769938975E-01 -0.56937158779E-01  0.69001772618E-02  0.88022374245E-01  0.51100000000E-03 0.  1.
</event>
<event>
 8    1  0.1180500E+005  0.1043930E+01  0.7957747E-01            NaN
         13   -1    0    0    0    0  0.00000000000E+00  0.00000000000E+00  0.74505805969E-08  0.10566000000E+00  0.10566000000E+00 0. -1.
     999900   -1    0    0    0    0 -0.00000000000E+00 -0.00000000000E+00 -0.74505805969E-08  0.93827000000E+00  0.93827000000E+00 0. -1.
     999902    2    1    2    0    0 -0.18121012253E-01 -0.13807459533E-01  0.63948727561E-02  0.10202675525E+01  0.10199931212E+01 0.  0.
     999903    2    3    3    0    0  0.94992073731E-01  0.78420824938E-01 -0.25969665427E-01  0.12766008558E+00  0.21197973316E-01 0.  0.
         14    1    1    2    0    0  0.18121012253E-01  0.13807459533E-01 -0.63948727561E-02  0.23662447494E-01  0.00000000000E+00 0.  1.
     999901    1    3    3    0    0 -0.11311308598E+00 -0.92228284472E-01  0.32364538183E-01  0.89260746692E+00  0.88000000000E+00 0. -1.
        -11    1    4    4    0    0  0.48086257912E-01  0.47107333468E-01 -0.50546412618E-02  0.67507033602E-01  0.51100000000E-03 0.  1.
         11    1    4    4    0    0  0.46905815819E-01  0.31313491470E-01 -0.20915024165E-01  0.60153051980E-01  0.51100000000E-03 0. -1.
</event>
<event>
 8    1  0.1180500E+005  0.1043930E+01  0.7957747E-01            NaN
         13   -1    0    0    0    0  0.00000000000E+00  0.00000000000E+00  0.74505805969E-08  0.10566000000E+00  0.10566000000E+00 0. -1.
     999900   -1    0    0    0    0 -0.00000000000E+00 -0.00000000000E+00 -0.74505805969E-08  0.93827000000E+00  0.93827000000E+00 0.  1.
     999902    2    1    2    0    0 -0.95527185149E-03 -0.13706608248E-01 -0.86365050980E-02  0.10277012331E+01  0.10275730882E+01 0.  0.
     999903    2    3    3    0    0 -0.46576944278E-01 -0.11701265088E+00  0.53900124767E-01  0.13828327428E+00  0.18859169951E-01 0.  0.
         14    1    1    2    0    0  0.95527185149E-03  0.13706608248E-01  0.86365050980E-02  0.16228766875E-01  0.00000000000E+00 0. -1.
     999901    1    3    3    0    0  0.45621672426E-01  0.10330604263E+00 -0.62536629865E-01  0.88941795884E+00  0.88000000000E+00 0.  1.
        -11    1    4    4    0    0 -0.15254495524E-01 -0.54653730017E-01  0.31980910794E-01  0.65136545922E-01  0.51100000000E-03 0.  1.
         11    1    4    4    0    0 -0.31322448754E-01 -0.62358920865E-01  0.21919213973E-01  0.73146728358E-01  0.51100000000E-03 0. -1.
</event>
<event>
 8    1  0.1180500E+005  0.1043930E+01  0.7957747E-01            NaN
         13   -1    0    0    0    0  0.00000000000E+00  0.00000000000E+00  0.74505805969E-08  0.10566000000E+00  0.10566000000E+00 0. -1.
     999900   -1    0    0    0    0 -0.00000000000E+00 -0.00000000000E+00 -0.74505805969E-08  0.93827000000E+00  0.93827000000E+00 0. -1.
     999902    2    1    2    0    0 -0.96304529754E-03 -0.54877420966E-02 -0.22758320558E-01  0.10204995940E+01  0.10202305805E+01 0.  0.
     999903    2    3    3    0    0 -0.10016497836E-02 -0.18010316948E-01  0.12482926009E+00  0.12812136125E+00  0.22524746734E-01 0.  0.
         14    1    1    2    0    0  0.96304529754E-03  0.54877420966E-02  0.22758320558E-01  0.23430405975E-01  0.00000000000E+00 0. -1.
     999901    1    3    3    0    0  0.38604486052E-04  0.12522574852E-01 -0.14758758065E+00  0.89237823278E+00  0.88000000000E+00 0. -1.
        -11    1    4    4    0    0 -0.19433172830E-03 -0.13167676041E-01  0.25818219363E-01  0.28987359818E-01  0.51100000000E-03 0.  1.
         11    1    4    4    0    0 -0.80731805528E-03 -0.48426409073E-02  0.99011040724E-01  0.99134001431E-01  0.51100000000E-03 0. -1.
</event>
<event>
 8    1  0.1180500E+005  0.1043930E+01  0.7957747E-01            NaN
         13   -1    0    0    0    0  0.00000000000E+00  0.00000000000E+00  0.74505805969E-08  0.10566000000E+00  0.10566000000E+00 0.  1.
     999900   -1    0    0    0    0 -0.00000000000E+00 -0.00000000000E+00 -0.74505805969E-08  0.93827000000E+00  0.93827000000E+00 0.  1.
     999902    2    1    2    0    0 -0.16802520375E-01  0.15592155425E-01  0.60939588806E-02  0.10202113083E+01  0.10199355554E+01 0.  0.
     999903    2    3    3    0    0 -0.10537536029E+00  0.78945518139E-01 -0.78305600241E-02  0.13338963018E+00  0.19877484228E-01 0.  0.
         14    1    1    2    0    0  0.16802520375E-01 -0.15592155425E-01 -0.60939588806E-02  0.23718691713E-01  0.00000000000E+00 0.  1.
     999901    1    3    3    0    0  0.88572839911E-01 -0.63353362714E-01  0.13924518905E-01  0.88682167811E+00  0.88000000000E+00 0.  1.
        -11    1    4    4    0    0 -0.89208431201E-02  0.40788267538E-02 -0.55181989579E-02  0.11266317517E-01  0.51100000000E-03 0.  1.
         11    1    4    4    0    0 -0.96454517165E-01  0.74866691385E-01 -0.23123610662E-02  0.12212331266E+00  0.51100000000E-03 0. -1.
</event>
<event>
 8    1  0.1180500E+005  0.1043930E+01  0.7957747E-01            NaN
         13   -1    0    0    0    0  0.00000000000E+00  0.00000000000E+00  0.74505805969E-08  0.10566000000E+00  0.10566000000E+00 0. -1.
     999900   -1    0    0    0    0 -0.00000000000E+00 -0.00000000000E+00 -0.74505805969E-08  0.93827000000E+00  0.93827000000E+00 0.  1.
     999902    2    1    2    0    0  0.17564557531E-01  0.14834348669E-01 -0.78258372969E-02  0.10196438865E+01  0.10193546193E+01 0.  0.
     999903    2    3    3    0    0  0.38098306988E-01  0.45599670402E-01 -0.11599965504E+00  0.13224898297E+00  0.22429056861E-01 0.  0.
         14    1    1    2    0    0 -0.17564557531E-01 -0.14834348669E-01  0.78258372969E-02  0.24286113544E-01  0.00000000000E+00 0. -1.
     999901    1    3    3    0    0 -0.20533749457E-01 -0.30765321733E-01  0.10817381774E+00  0.88739490349E+00  0.88000000000E+00 0. -1.
        -11    1    4    4    0    0  0.21510862153E-01  0.12322279214E-01 -0.61113516435E-01  0.65952094490E-01  0.51100000000E-03 0.  1.
         11    1    4    4    0    0  0.16587444836E-01  0.33277391188E-01 -0.54886138603E-01  0.66296888480E-01  0.51100000000E-03 0. -1.
</event>
<event>
 8    1  0.1180500E+005  0.1043930E+01  0.7957747E-01            NaN
         13   -1    0    0    0    0  0.00000000000E+00  0.00000000000E+00  0.74505805969E-08  0.10566000000E+00  0.10566000000E+00 0.  1.
     999900   -1    0    0    0    0 -0.00000000000E+00 -0.00000000000E+00 -0.74505805969E-08  0.93827000000E+00  0.93827000000E+00 0. -1.
     999902    2    1    2    0    0  0.17989738379E-01 -0.16821541386E-02 -0.14854821693E-01  0.10205392741E+01  0.10202711816E+01 0.  0.
     999903    2    3    3    0    0 -0.10306633277E+00 -0.65894451992E-01  0.33911674118E-01  0.12859983522E+00  0.20571053069E-01 0.  0.
         14    1    1    2    0    0 -0.17989738379E-01  0.16821541386E-02  0.14854821693E-01  0.23390725876E-01  0.00000000000E+00 0.  1.
     999901    1    3    3    0    0  0.12105607114E+00  0.64212297854E-01 -0.48766495811E-01  0.89193943890E+00  0.88000000000E+00 0.  1.
        -11    1    4    4    0    0 -0.54610718131E-01 -0.42697075469E-01  0.10983969864E-01  0.70187459730E-01  0.51100000000E-03 0. -1.
         11    1    4    4    0    0 -0.48455614634E-01 -0.23197376523E-01  0.22927704254E-01  0.58412375491E-01  0.51100000000E-03 0.  1.
</event>
<event>
 8    1  0.1180500E+005  0.1043930E+01  0.7957747E-01            NaN
         13   -1    0    0    0    0  0.00000000000E+00  0.00000000000E+00  0.74505805969E-08  0.10566000000E+00  0.10566000000E+00 0. -1.
     999900   -1    0    0    0    0 -0.00000000000E+00 -0.00000000000E+00 -0.74505805969E-08  0.93827000000E+00  0.93827000000E+00 0. -1.
     999902    2    1    2    0    0 -0.64098984310E-02 -0.16039790622E-01  0.17424724686E-01  0.10193946640E+01  0.10190993565E+01 0.  0.
     999903    2    3    3    0    0  0.43786322926E-02 -0.92342228170E-01  0.93459491774E-01  0.13276072593E+00  0.18560016780E-01 0.  0.
         14    1    1    2    0    0  0.64098984310E-02  0.16039790622E-01 -0.17424724686E-01  0.24535335977E-01  0.00000000000E+00 0.  1.
     999901    1    3    3    0    0 -0.10788530724E-01  0.76302437548E-01 -0.76034767088E-01  0.88663393809E+00  0.88000000000E+00 0. -1.
        -11    1    4    4    0    0  0.11181090195E-01 -0.44766954631E-01  0.48579196315E-01  0.67002212206E-01  0.51100000000E-03 0. -1.
         11    1    4    4    0    0 -0.68024579023E-02 -0.47575273539E-01  0.44880295459E-01  0.65758513725E-01  0.51100000000E-03 0.  1.
</event>
<event>
 8    1  0.1180500E+005  0.1043930E+01  0.7957747E-01            NaN
         13   -1    0    0    0    0  0.00000000000E+00  0.00000000000E+00  0.74505805969E-08  0.10566000000E+00  0.10566000000E+00 0. -1.
     999900   -1    0    0    0    0 -0.00000000000E+00 -0.00000000000E+00 -0.74505805969E-08  0.93827000000E+00  0.93827000000E+00 0. -1.
     999902    2    1    2    0    0  0.27472436452E-02 -0.11034365998E-01 -0.21074752746E-01  0.10199831884E+01  0.10197020422E+01 0.  0.
     999903    2    3    3    0    0 -0.22500240945E-02 -0.63520862684E-01 -0.11567746329E+00  0.13334375899E+00  0.18955736397E-01 0.  0.
         14    1    1    2    0    0 -0.27472436452E-02  0.11034365998E-01  0.21074752746E-01  0.23946811561E-01  0.00000000000E+00 0. -1.
     999901    1    3    3    0    0  0.49972677396E-02  0.52486496686E-01  0.94602710545E-01  0.88663942945E+00  0.88000000000E+00 0.  1.
        -11    1    4    4    0    0 -0.71609968883E-02 -0.56370591154E-01 -0.92146781675E-01  0.10825993681E+00  0.51100000000E-03 0. -1.
         11    1    4    4    0    0  0.49109727939E-02 -0.71502715300E-02 -0.23530681616E-01  0.25083822178E-01  0.51100000000E-03 0.  1.
</event>
<event>
 8    1  0.1187930E+005  0.1043930E+01  0.7957747E-01            NaN
         13   -1    0    0    0    0  0.00000000000E+00  0.00000000000E+00  0.74505805969E-08  0.10566000000E+00  0.10566000000E+00 0. -1.
     999900   -1    0    0    0    0 -0.00000000000E+00 -0.00000000000E+00 -0.74505805969E-08  0.93827000000E+00  0.93827000000E+00 0. -1.
     999902    2    1    2    0    0 -0.90642462205E-02  0.15943300192E-01  0.16812138167E-01  0.10190503422E+01  0.10187465841E+01 0.  0.
     999903    2    3    3    0    0 -0.57229572110E-01  0.71102013450E-01 -0.89849035971E-01  0.12959040029E+00  0.19751008618E-01 0.  0.
         14    1    1    2    0    0  0.90642462205E-02 -0.15943300192E-01 -0.16812138167E-01  0.24879657761E-01  0.00000000000E+00 0.  1.
     999901    1    3    3    0    0  0.48165325889E-01 -0.55158713258E-01  0.10666117414E+00  0.88945994195E+00  0.88000000000E+00 0.  1.
        -11    1    4    4    0    0 -0.19890460217E-01  0.40153550102E-01 -0.45696128175E-01  0.64002619045E-01  0.51100000000E-03 0. -1.
         11    1    4    4    0    0 -0.37339111893E-01  0.30948463348E-01 -0.44152907797E-01  0.65587781244E-01  0.51100000000E-03 0.  1.
</event>
<event>
 8    1  0.1180500E+005  0.1043930E+01  0.7957747E-01            NaN
         13   -1    0    0    0    0  0.00000000000E+00  0.00000000000E+00  0.74505805969E-08  0.10566000000E+00  0.10566000000E+00 0. -1.
     999900   -1    0    0    0    0 -0.00000000000E+00 -0.00000000000E+00 -0.74505805969E-08  0.93827000000E+00  0.93827000000E+00 0. -1.
     999902    2    1    2    0    0 -0.10705862765E-01  0.20687432910E-01  0.43013801958E-02  0.10202427197E+01  0.10199677053E+01 0.  0.
     999903    2    3    3    0    0  0.25665288744E-01 -0.19761168201E-01  0.12474416963E+00  0.13037451846E+00  0.19677306550E-01 0.  0.
         14    1    1    2    0    0  0.10705862765E-01 -0.20687432910E-01 -0.43013801958E-02  0.23687280333E-01  0.00000000000E+00 0. -1.
     999901    1    3    3    0    0 -0.36371151510E-01  0.40448601111E-01 -0.12044278943E+00  0.88986820121E+00  0.88000000000E+00 0. -1.
        -11    1    4    4    0    0  0.10104118708E-01 -0.15474890454E-01  0.92300594871E-01  0.94134087258E-01  0.51100000000E-03 0. -1.
         11    1    4    4    0    0  0.15561170036E-01 -0.42862777468E-02  0.32443574755E-01  0.36240431202E-01  0.51100000000E-03 0.  1.
</event>
<event>
 8    1  0.1180500E+005  0.1043930E+01  0.7957747E-01            NaN
         13   -1    0    0    0    0  0.00000000000E+00  0.00000000000E+00  0.74505805969E-08  0.10566000000E+00  0.10566000000E+00 0.  1.
     999900   -1    0    0    0    0 -0.00000000000E+00 -0.00000000000E+00 -0.74505805969E-08  0.93827000000E+00  0.93827000000E+00 0. -1.
     999902    2    1    2    0    0  0.76423598839E-02  0.75452423473E-02 -0.23608243966E-01  0.10179938181E+01  0.10176633668E+01 0.  0.
     999903    2    3    3    0    0  0.73926146243E-01  0.20848773717E-01  0.99169665817E-01  0.12690182546E+00  0.19227694143E-01 0.  0.
         14    1    1    2    0    0 -0.76423598839E-02 -0.75452423473E-02  0.23608243966E-01  0.25936181867E-01  0.00000000000E+00 0.  1.
     999901    1    3    3    0    0 -0.66283786359E-01 -0.13303531369E-01 -0.12277790978E+00  0.89109199268E+00  0.88000000000E+00 0.  1.
        -11    1    4    4    0    0  0.62294806854E-01  0.21472603420E-01  0.73526937625E-01  0.98732909083E-01  0.51100000000E-03 0. -1.
         11    1    4    4    0    0  0.11631339389E-01 -0.62382970314E-03  0.25642728193E-01  0.28168916373E-01  0.51100000000E-03 0.  1.
</event>
<event>
 8    1  0.1180500E+005  0.1043930E+01  0.7957747E-01            NaN
         13   -1    0    0    0    0  0.00000000000E+00  0.00000000000E+00  0.74505805969E-08  0.10566000000E+00  0.10566000000E+00 0. -1.
     999900   -1    0    0    0    0 -0.00000000000E+00 -0.00000000000E+00 -0.74505805969E-08  0.93827000000E+00  0.93827000000E+00 0. -1.
     999902    2    1    2    0    0  0.86905234129E-02 -0.14727697514E-01 -0.16655288477E-01  0.10200589107E+01  0.10197795607E+01 0.  0.
     999903    2    3    3    0    0 -0.16625904686E-01  0.79687020393E-01 -0.10039291992E+00  0.13069562641E+00  0.19395011340E-01 0.  0.
         14    1    1    2    0    0 -0.86905234129E-02  0.14727697514E-01  0.16655288477E-01  0.23871089324E-01  0.00000000000E+00 0. -1.
     999901    1    3    3    0    0  0.25316428099E-01 -0.94414717907E-01  0.83737631447E-01  0.88936328427E+00  0.88000000000E+00 0.  1.
        -11    1    4    4    0    0 -0.54364377005E-02  0.21224536088E-01 -0.41656291820E-01  0.47069560824E-01  0.51100000000E-03 0.  1.
         11    1    4    4    0    0 -0.11189466985E-01  0.58462484304E-01 -0.58736628105E-01  0.83626065581E-01  0.51100000000E-03 0. -1.
</event>
<event>
 8    1  0.1180500E+005  0.1043930E+01  0.7957747E-01            NaN
         13   -1    0    0    0    0  0.00000000000E+00  0.00000000000E+00  0.74505805969E-08  0.10566000000E+00  0.10566000000E+00 0. -1.
     999900   -1    0    0    0    0 -0.00000000000E+00 -0.00000000000E+00 -0.74505805969E-08  0.93827000000E+00  0.93827000000E+00 0. -1.
     999902    2    1    2    0    0 -0.22058313252E-01  0.71685083880E-02 -0.29901986644E-02  0.10205441499E+01  0.10202761704E+01 0.  0.
     999903    2    3    3    0    0  0.15039964476E-01  0.69974626659E-01  0.10741045596E+00  0.13065135006E+00  0.20251427504E-01 0.  0.
         14    1    1    2    0    0  0.22058313252E-01 -0.71685083880E-02  0.29901986644E-02  0.23385850082E-01  0.00000000000E+00 0. -1.
     999901    1    3    3    0    0 -0.37098277727E-01 -0.62806118271E-01 -0.11040065462E+00  0.88989279986E+00  0.88000000000E+00 0. -1.
        -11    1    4    4    0    0  0.17150444994E-01  0.39155535898E-01  0.53122435305E-01  0.68187594243E-01  0.51100000000E-03 0. -1.
         11    1    4    4    0    0 -0.21104805183E-02  0.30819090761E-01  0.54288020650E-01  0.62463755815E-01  0.51100000000E-03 0.  1.
</event>
<event>
 8    1  0.1180500E+005  0.1043930E+01  0.7957747E-01            NaN
         13   -1    0    0    0    0  0.00000000000E+00  0.00000000000E+00  0.74505805969E-08  0.10566000000E+00  0.10566000000E+00 0. -1.
     999900   -1    0    0    0    0 -0.00000000000E+00 -0.00000000000E+00 -0.74505805969E-08  0.93827000000E+00  0.93827000000E+00 0. -1.
     999902    2    1    2    0    0 -0.23288431298E-03  0.22945049285E-01  0.53085277480E-02  0.10203777180E+01  0.10201058658E+01 0.  0.
     999903    2    3    3    0    0 -0.15258721372E-01  0.80194669528E-01 -0.10168819708E+00  0.13192310803E+00  0.19980075308E-01 0.  0.
         14    1    1    2    0    0  0.23288431298E-03 -0.22945049285E-01 -0.53085277480E-02  0.23552282027E-01  0.00000000000E+00 0.  1.
     999901    1    3    3    0    0  0.15025837059E-01 -0.57249620243E-01  0.10699672483E+00  0.88845460994E+00  0.88000000000E+00 0.  1.
        -11    1    4    4    0    0  0.46246787346E-02  0.23575829413E-01 -0.28719984411E-01  0.37447376563E-01  0.51100000000E-03 0. -1.
         11    1    4    4    0    0 -0.19883400107E-01  0.56618840116E-01 -0.72968212670E-01  0.94475731472E-01  0.51100000000E-03 0.  1.
</event>
<event>
 8    1  0.1180500E+005  0.1043930E+01  0.7957747E-01            NaN
         13   -1    0    0    0    0  0.00000000000E+00  0.00000000000E+00  0.74505805969E-08  0.10566000000E+00  0.10566000000E+00 0.  1.
     999900   -1    0    0    0    0 -0.00000000000E+00 -0.00000000000E+00 -0.74505805969E-08  0.93827000000E+00  0.93827000000E+00 0.  1.
     999902    2    1    2    0    0  0.14017154554E-01  0.10793936651E-01  0.18559454430E-01  0.10182893479E+01  0.10179664793E+01 0.  0.
     999903    2    3    3    0    0  0.78335814083E-02 -0.97270803786E-01 -0.77971294894E-01  0.12641805100E+00  0.19468603579E-01 0.  0.
         14    1    1    2    0    0 -0.14017154554E-01 -0.10793936651E-01 -0.18559454430E-01  0.25640652078E-01  0.00000000000E+00 0. -1.
     999901    1    3    3    0    0  0.61835731454E-02  0.10806474044E+00  0.96530749324E-01  0.89187129692E+00  0.88000000000E+00 0. -1.
        -11    1    4    4    0    0  0.53557949248E-02 -0.20837115658E-01 -0.26936112115E-01  0.34477314064E-01  0.51100000000E-03 0. -1.
         11    1    4    4    0    0  0.24777864835E-02 -0.76433688128E-01 -0.51035182779E-01  0.91940736939E-01  0.51100000000E-03 0.  1.
</event>
<event>
 8    1  0.1180500E+005  0.1043930E+01  0.7957747E-01            NaN
         13   -1    0    0    0    0  0.00000000000E+00  0.00000000000E+00  0.74505805969E-08  0.10566000000E+00  0.10566000000E+00 0. -1.
     999900   -1    0    0    0    0 -0.00000000000E+00 -0.00000000000E+00 -0.74505805969E-08  0.93827000000E+00  0.93827000000E+00 0. -1.
     999902    2    1    2    0    0 -0.42321458725E-03 -0.20523290817E-01 -0.90451300374E-02  0.10214979035E+01  0.10212515693E+01 0.  0.
     999903    2    3    3    0    0 -0.23021541301E-01  0.10294132690E+00  0.71350194019E-01  0.12896353198E+00  0.20342916333E-01 0.  0.
         14    1    1    2    0    0  0.42321458725E-03  0.20523290817E-01  0.90451300374E-02  0.22432096512E-01  0.00000000000E+00 0.  1.
     999901    1    3    3    0    0  0.22598326714E-01 -0.12346461772E+00 -0.80395324056E-01  0.89253437151E+00  0.88000000000E+00 0. -1.
        -11    1    4    4    0    0 -0.24314054751E-01  0.10162915477E+00  0.66791295318E-01  0.12402014598E+00  0.51100000000E-03 0.  1.
         11    1    4    4    0    0  0.12925134497E-02  0.13121721294E-02  0.45588987011E-02  0.49433859936E-02  0.51100000000E-03 0. -1.
</event>
<event>
 8    1  0.1180500E+005  0.1043930E+01  0.7957747E-01            NaN
         13   -1    0    0    0    0  0.00000000000E+00  0.00000000000E+00  0.74505805969E-08  0.10566000000E+00  0.10566000000E+00 0. -1.
     999900   -1    0    0    0    0 -0.00000000000E+00 -0.00000000000E+00 -0.74505805969E-08  0.93827000000E+00  0.93827000000E+00 0. -1.
     999902    2    1    2    0    0  0.21059613811E-03 -0.23513375964E-01  0.96766274052E-02  0.10185024496E+01  0.10181849928E+01 0.  0.
     999903    2    3    3    0    0 -0.10669089631E+00  0.37799317976E-01 -0.55183665773E-01  0.12755125391E+00  0.20306393333E-01 0.  0.
         14    1    1    2    0    0 -0.21059613811E-03  0.23513375964E-01 -0.96766274052E-02  0.25427550372E-01  0.00000000000E+00 0.  1.
     999901    1    3    3    0    0  0.10690149245E+00 -0.61312693940E-01  0.64860293178E-01  0.89095119572E+00  0.88000000000E+00 0.  1.
        -11    1    4    4    0    0 -0.41333440776E-01  0.45079629742E-02 -0.22029344376E-01  0.47056648746E-01  0.51100000000E-03 0.  1.
         11    1    4    4    0    0 -0.65357455534E-01  0.33291355002E-01 -0.33154321397E-01  0.80494605161E-01  0.51100000000E-03 0. -1.
</event>
<event>
 8    1  0.1180500E+005  0.1043930E+01  0.7957747E-01            NaN
         13   -1    0    0    0    0  0.00000000000E+00  0.00000000000E+00  0.74505805969E-08  0.10566000000E+00  0.10566000000E+00 0.  1.
     999900   -1    0    0    0    0 -0.00000000000E+00 -0.00000000000E+00 -0.74505805969E-08  0.93827000000E+00  0.93827000000E+00 0. -1.
     999902    2    1    2    0    0 -0.16965048084E-01  0.18424713174E-01 -0.57848981509E-02  0.10182249818E+01  0.10179004694E+01 0.  0.
     999903    2    3    3    0    0  0.46318185906E-01  0.82976273804E-02  0.11659027888E+00  0.12744834905E+00  0.20870160051E-01 0.  0.
         14    1    1    2    0    0  0.16965048084E-01 -0.18424713174E-01  0.57848981509E-02  0.25705018160E-01  0.00000000000E+00 0. -1.
     999901    1    3    3    0    0 -0.63283233989E-01  0.10127085793E-01 -0.12237517703E+00  0.89077663279E+00  0.88000000000E+00 0. -1.
        -11    1    4    4    0    0  0.25889813697E-01 -0.39512511668E-02  0.75940317012E-01  0.80331112951E-01  0.51100000000E-03 0.  1.
         11    1    4    4    0    0  0.20428372209E-01  0.12248878547E-01  0.40649961867E-01  0.47117236099E-01  0.51100000000E-03 0. -1.
</event>
<event>
 8    1  0.1180500E+005  0.1043930E+01  0.7957747E-01            NaN
         13   -1    0    0    0    0  0.00000000000E+00  0.00000000000E+00  0.74505805969E-08  0.10566000000E+00  0.10566000000E+00 0.  1.
     999900   -1    0    0    0    0 -0.00000000000E+00 -0.00000000000E+00 -0.74505805969E-08  0.93827000000E+00  0.93827000000E+00 0. -1.
     999902    2    1    2    0    0 -0.14071845158E-01 -0.14427199252E-01 -0.94841455426E-02  0.10216564749E+01  0.10214136492E+01 0.  0.
     999903    2    3    3    0    0  0.40425394984E-01  0.14814947385E-01  0.12189758559E+00  0.12975613763E+00  0.11132773857E-01 0.  0.
         14    1    1    2    0    0  0.14071845158E-01  0.14427199252E-01  0.94841455426E-02  0.22273525116E-01  0.00000000000E+00 0.  1.
     999901    1    3    3    0    0 -0.54497240142E-01 -0.29242146637E-01 -0.13138173113E+00  0.89190033726E+00  0.88000000000E+00 0. -1.
        -11    1    4    4    0    0  0.38367467581E-01  0.13658244604E-01  0.11987664001E+00  0.12660679348E+00  0.51100000000E-03 0.  1.
         11    1    4    4    0    0  0.20579274030E-02  0.11567027809E-02  0.20209455787E-02  0.31493441462E-02  0.51100000000E-03 0. -1.
</event>
<event>
 8    1  0.1180500E+005  0.1043930E+01  0.7957747E-01            NaN
         13   -1    0    0    0    0  0.00000000000E+00  0.00000000000E+00  0.74505805969E-08  0.10566000000E+00  0.10566000000E+00 0. -1.
     999900   -1    0    0    0    0 -0.00000000000E+00 -0.00000000000E+00 -0.74505805969E-08  0.93827000000E+00  0.93827000000E+00 0. -1.
     999902    2    1    2    0    0 -0.98291678070E-02  0.21074545753E-01  0.42478527192E-02  0.10202911914E+01  0.10200173146E+01 0.  0.
     999903    2    3    3    0    0  0.27775770975E-01 -0.10707124516E+00  0.62089936366E-01  0.12833761539E+00  0.19484309880E-01 0.  0.
         14    1    1    2    0    0  0.98291678070E-02 -0.21074545753E-01 -0.42478527192E-02  0.23638808582E-01  0.00000000000E+00 0.  1.
     999901    1    3    3    0    0 -0.37604938782E-01  0.12814579092E+00 -0.57842083647E-01  0.89195357603E+00  0.88000000000E+00 0. -1.
        -11    1    4    4    0    0  0.15549060322E-01 -0.88849694236E-01  0.47101205403E-01  0.10175866604E+00  0.51100000000E-03 0. -1.
         11    1    4    4    0    0  0.12226710654E-01 -0.18221550928E-01  0.14988730963E-01  0.26578949349E-01  0.51100000000E-03 0.  1.
</event>
<event>
 8    1  0.1180500E+005  0.1043930E+01  0.7957747E-01            NaN
         13   -1    0    0    0    0  0.00000000000E+00  0.00000000000E+00  0.74505805969E-08  0.10566000000E+00  0.10566000000E+00 0.  1.
     999900   -1    0    0    0    0 -0.00000000000E+00 -0.00000000000E+00 -0.74505805969E-08  0.93827000000E+00  0.93827000000E+00 0.  1.
     999902    2    1    2    0    0 -0.82944302419E-02  0.16974705856E-01 -0.14581713700E-01  0.10200644477E+01  0.10197852288E+01 0.  0.
     999903    2    3    3    0    0 -0.12437193137E+00 -0.72741764387E-02  0.34297763622E-01  0.13076629868E+00  0.20054857845E-01 0.  0.
         14    1    1    2    0    0  0.82944302419E-02 -0.16974705856E-01  0.14581713700E-01  0.23865552296E-01  0.00000000000E+00 0.  1.
     999901    1    3    3    0    0  0.11607750113E+00  0.24248882295E-01 -0.48879477322E-01  0.88929814903E+00  0.88000000000E+00 0. -1.
        -11    1    4    4    0    0 -0.56504860781E-02 -0.96912534507E-03 -0.25527216838E-02  0.62964041999E-02  0.51100000000E-03 0. -1.
         11    1    4    4    0    0 -0.11872144530E+00 -0.63050510936E-02  0.36850485306E-01  0.12446989448E+00  0.51100000000E-03 0.  1.
</event>
<event>
 8    1  0.1180500E+005  0.1043930E+01  0.7957747E-01            NaN
         13   -1    0    0    0    0  0.00000000000E+00  0.00000000000E+00  0.74505805969E-08  0.10566000000E+00  0.10566000000E+00 0.  1.
     999900   -1    0    0    0    0 -0.00000000000E+00 -0.00000000000E+00 -0.74505805969E-08  0.93827000000E+00  0.93827000000E+00 0. -1.
     999902    2    1    2    0    0 -0.11621305796E-01 -0.10167255787E-02  0.21646420697E-01  0.10193402459E+01  0.10190436109E+01 0.  0.
     999903    2    3    3    0    0  0.12364754644E+00  0.88213888867E-03 -0.25493770057E-01  0.12775544022E+00  0.19545492693E-01 0.  0.
         14    1    1    2    0    0  0.11621305796E-01  0.10167255787E-02 -0.21646420697E-01  0.24589754133E-01  0.00000000000E+00 0.  1.
     999901    1    3    3    0    0 -0.13526885224E+00 -0.18988644673E-02  0.47140190755E-01  0.89158480564E+00  0.88000000000E+00 0.  1.
        -11    1    4    4    0    0  0.88364649479E-01 -0.68735130219E-02 -0.13306133487E-01  0.89626283914E-01  0.51100000000E-03 0.  1.
         11    1    4    4    0    0  0.35282896963E-01  0.77556519106E-02 -0.12187636570E-01  0.38129156309E-01  0.51100000000E-03 0. -1.
</event>
<event>
 8    1  0.1180500E+005  0.1043930E+01  0.7957747E-01            NaN
         13   -1    0    0    0    0  0.00000000000E+00  0.00000000000E+00  0.74505805969E-08  0.10566000000E+00  0.10566000000E+00 0. -1.
     999900   -1    0    0    0    0 -0.00000000000E+00 -0.00000000000E+00 -0.74505805969E-08  0.93827000000E+00  0.93827000000E+00 0. -1.
     999902    2    1    2    0    0 -0.59031595785E-02 -0.19459865785E-01  0.25356223999E-02  0.10234370000E+01  0.10232318065E+01 0.  0.
     999903    2    3    3    0    0  0.67280649049E-01 -0.11343656402E+00 -0.21201776568E-01  0.13509531246E+00  0.20166514947E-01 0.  0.
         14    1    1    2    0    0  0.59031595785E-02  0.19459865785E-01 -0.25356223999E-02  0.20493000032E-01  0.00000000000E+00 0.  1.
     999901    1    3    3    0    0 -0.73183808627E-01  0.93976698237E-01  0.23737398968E-01  0.88834168751E+00  0.88000000000E+00 0.  1.
        -11    1    4    4    0    0  0.39262840808E-01 -0.55954551096E-01 -0.19658122637E-01  0.71127950647E-01  0.51100000000E-03 0. -1.
         11    1    4    4    0    0  0.28017808241E-01 -0.57482012926E-01 -0.15436539315E-02  0.63967361812E-01  0.51100000000E-03 0.  1.
</event>
<event>
 8    1  0.1180500E+005  0.1043930E+01  0.7957747E-01            NaN
         13   -1    0    0    0    0  0.00000000000E+00  0.00000000000E+00  0.74505805969E-08  0.10566000000E+00  0.10566000000E+00 0. -1.
     999900   -1    0    0    0    0 -0.00000000000E+00 -0.00000000000E+00 -0.74505805969E-08  0.93827000000E+00  0.93827000000E+00 0. -1.
     999902    2    1    2    0    0  0.12137998525E-01 -0.20205741309E-01  0.16532111690E-02  0.10203008634E+01  0.10200272132E+01 0.  0.
     999903    2    3    3    0    0  0.11694129297E+00 -0.59656341906E-01 -0.94293891311E-02  0.13313520555E+00  0.20048053443E-01 0.  0.
         14    1    1    2    0    0 -0.12137998525E-01  0.20205741309E-01 -0.16532111690E-02  0.23629136616E-01  0.00000000000E+00 0. -1.
     999901    1    3    3    0    0 -0.10480329444E+00  0.39450600597E-01  0.11082600300E-01  0.88716565784E+00  0.88000000000E+00 0.  1.
        -11    1    4    4    0    0  0.68628930600E-01 -0.27714044417E-01 -0.12817097535E-01  0.75116825569E-01  0.51100000000E-03 0. -1.
         11    1    4    4    0    0  0.48312362366E-01 -0.31942297489E-01  0.33877084040E-02  0.58018379980E-01  0.51100000000E-03 0.  1.
</event>
<event>
 8    1  0.1180500E+005  0.1043930E+01  0.7957747E-01            NaN
         13   -1    0    0    0    0  0.00000000000E+00  0.00000000000E+00  0.74505805969E-08  0.10566000000E+00  0.10566000000E+00 0.  1.
     999900   -1    0    0    0    0 -0.00000000000E+00 -0.00000000000E+00 -0.74505805969E-08  0.93827000000E+00  0.93827000000E+00 0.  1.
     999902    2    1    2    0    0  0.85678631015E-03  0.15959002464E-01 -0.16611334237E-01  0.10208787469E+01  0.10206184672E+01 0.  0.
     999903    2    3    3    0    0  0.72553007391E-01  0.23096043684E-01  0.10297462536E+00  0.12987252519E+00  0.21580852955E-01 0.  0.
         14    1    1    2    0    0 -0.85678631015E-03 -0.15959002464E-01  0.16611334237E-01  0.23051253058E-01  0.00000000000E+00 0. -1.
     999901    1    3    3    0    0 -0.71696221081E-01 -0.71370412203E-02 -0.11958595960E+00  0.89100622176E+00  0.88000000000E+00 0.  1.
        -11    1    4    4    0    0  0.13985564868E-01  0.42934095086E-02  0.36381328475E-01  0.39215960686E-01  0.51100000000E-03 0.  1.
         11    1    4    4    0    0  0.58567442524E-01  0.18802634176E-01  0.66593296887E-01  0.90656564500E-01  0.51100000000E-03 0. -1.
</event>
<event>
 8    1  0.1180500E+005  0.1043930E+01  0.7957747E-01            NaN
         13   -1    0    0    0    0  0.00000000000E+00  0.00000000000E+00  0.74505805969E-08  0.10566000000E+00  0.10566000000E+00 0.  1.
     999900   -1    0    0    0    0 -0.00000000000E+00 -0.00000000000E+00 -0.74505805969E-08  0.93827000000E+00  0.93827000000E+00 0.  1.
     999902    2    1    2    0    0 -0.18746736683E-01  0.15715652764E-01 -0.21306766654E-02  0.10193747223E+01  0.10190789287E+01 0.  0.
     999903    2    3    3    0    0 -0.22253644636E-01  0.10882464163E+00 -0.68197351792E-01  0.13199296245E+00  0.20814322508E-01 0.  0.
         14    1    1    2    0    0  0.18746736683E-01 -0.15715652764E-01  0.21306766654E-02  0.24555277663E-01  0.00000000000E+00 0. -1.
     999901    1    3    3    0    0  0.35069079536E-02 -0.93108988862E-01  0.66066675126E-01  0.88738175988E+00  0.88000000000E+00 0.  1.
        -11    1    4    4    0    0 -0.21377522172E-01  0.62844166394E-01 -0.33340822442E-01  0.74284986815E-01  0.51100000000E-03 0.  1.
         11    1    4    4    0    0 -0.87612246480E-03  0.45980475232E-01 -0.34856529350E-01  0.57707975640E-01  0.51100000000E-03 0. -1.
</event>
<event>
 8    1  0.1180500E+005  0.1043930E+01  0.7957747E-01            NaN
         13   -1    0    0    0    0  0.00000000000E+00  0.00000000000E+00  0.74505805969E-08  0.10566000000E+00  0.10566000000E+00 0. -1.
     999900   -1    0    0    0    0 -0.00000000000E+00 -0.00000000000E+00 -0.74505805969E-08  0.93827000000E+00  0.93827000000E+00 0. -1.
     999902    2    1    2    0    0  0.52779068527E-02  0.63764784257E-02  0.21797065776E-01  0.10206141716E+01  0.10203478130E+01 0.  0.
     999903    2    3    3    0    0  0.11552387933E-01 -0.17712368516E-01  0.13042213335E+00  0.13358596067E+00  0.19700009017E-01 0.  0.
         14    1    1    2    0    0 -0.52779068527E-02 -0.63764784257E-02 -0.21797065776E-01  0.23315828407E-01  0.00000000000E+00 0.  1.
     999901    1    3    3    0    0 -0.62744810808E-02  0.24088846942E-01 -0.10862506758E+00  0.88702821092E+00  0.88000000000E+00 0. -1.
        -11    1    4    4    0    0 -0.28845140147E-02 -0.47302598912E-02  0.87203546912E-02  0.10344152294E-01  0.51100000000E-03 0.  1.
         11    1    4    4    0    0  0.14436901948E-01 -0.12982108625E-01  0.12170177866E+00  0.12324180838E+00  0.51100000000E-03 0. -1.
</event>
<event>
 8    1  0.1180500E+005  0.1043930E+01  0.7957747E-01            NaN
         13   -1    0    0    0    0  0.00000000000E+00  0.00000000000E+00  0.74505805969E-08  0.10566000000E+00  0.10566000000E+00 0.  1.
     999900   -1    0    0    0    0 -0.00000000000E+00 -0.00000000000E+00 -0.74505805969E-08  0.93827000000E+00  0.93827000000E+00 0. -1.
     999902    2    1    2    0    0  0.95438507080E-02 -0.20873912917E-01  0.32408593026E-02  0.10207500842E+01  0.10204868573E+01 0.  0.
     999903    2    3    3    0    0  0.39645337283E-01 -0.76667525364E-01 -0.98821305560E-01  0.13258584705E+00  0.19070767976E-01 0.  0.
         14    1    1    2    0    0 -0.95438507080E-02  0.20873912917E-01 -0.32408593026E-02  0.23179915786E-01  0.00000000000E+00 0.  1.
     999901    1    3    3    0    0 -0.30101486575E-01  0.55793612447E-01  0.10206216486E+00  0.88816423717E+00  0.88000000000E+00 0.  1.
        -11    1    4    4    0    0  0.26488224783E-01 -0.53471801475E-01 -0.54277401251E-01  0.80666951181E-01  0.51100000000E-03 0. -1.
         11    1    4    4    0    0  0.13157112500E-01 -0.23195723889E-01 -0.44543904309E-01  0.51918895868E-01  0.51100000000E-03 0.  1.
</event>
<event>
 8    1  0.1180500E+005  0.1043930E+01  0.7957747E-01            NaN
         13   -1    0    0    0    0  0.00000000000E+00  0.00000000000E+00  0.74505805969E-08  0.10566000000E+00  0.10566000000E+00 0. -1.
     999900   -1    0    0    0    0 -0.00000000000E+00 -0.00000000000E+00 -0.74505805969E-08  0.93827000000E+00  0.93827000000E+00 0. -1.
     999902    2    1    2    0    0  0.21037571161E-01 -0.13242469882E-01  0.11975788533E-01  0.10163372125E+01  0.10159625818E+01 0.  0.
     999903    2    3    3    0    0 -0.56769571054E-01  0.84818922589E-01 -0.67819123818E-01  0.12390390068E+00  0.18322369442E-01 0.  0.
         14    1    1    2    0    0 -0.21037571161E-01  0.13242469882E-01 -0.11975788533E-01  0.27592787462E-01  0.00000000000E+00 0. -1.
     999901    1    3    3    0    0  0.77807142215E-01 -0.98061392471E-01  0.79794912351E-01  0.89243331186E+00  0.88000000000E+00 0.  1.
        -11    1    4    4    0    0 -0.33735084310E-01  0.41886147934E-01 -0.26211296431E-01  0.59831417196E-01  0.51100000000E-03 0. -1.
         11    1    4    4    0    0 -0.23034486744E-01  0.42932774656E-01 -0.41607827387E-01  0.64072483486E-01  0.51100000000E-03 0.  1.
</event>
<event>
 8    1  0.1180500E+005  0.1043930E+01  0.7957747E-01            NaN
         13   -1    0    0    0    0  0.00000000000E+00  0.00000000000E+00  0.74505805969E-08  0.10566000000E+00  0.10566000000E+00 0.  1.
     999900   -1    0    0    0    0 -0.00000000000E+00 -0.00000000000E+00 -0.74505805969E-08  0.93827000000E+00  0.93827000000E+00 0. -1.
     999902    2    1    2    0    0 -0.64252954875E-02  0.39224454444E-02  0.23047875360E-01  0.10196838754E+01  0.10193955715E+01 0.  0.
     999903    2    3    3    0    0 -0.40231898811E-01  0.11006284672E+00 -0.51397266542E-01  0.12954301554E+00  0.20181128757E-01 0.  0.
         14    1    1    2    0    0  0.64252954875E-02 -0.39224454444E-02 -0.23047875360E-01  0.24246124618E-01  0.00000000000E+00 0. -1.
     999901    1    3    3    0    0  0.33806603323E-01 -0.10614040127E+00  0.74445141902E-01  0.89014085984E+00  0.88000000000E+00 0.  1.
        -11    1    4    4    0    0 -0.20907794013E-01  0.64081686652E-01 -0.39983783846E-01  0.78374501633E-01  0.51100000000E-03 0.  1.
         11    1    4    4    0    0 -0.19324104798E-01  0.45981160064E-01 -0.11413482695E-01  0.51168513905E-01  0.51100000000E-03 0. -1.
</event>
<event>
 8    1  0.1180500E+005  0.1043930E+01  0.7957747E-01            NaN
         13   -1    0    0    0    0  0.00000000000E+00  0.00000000000E+00  0.74505805969E-08  0.10566000000E+00  0.10566000000E+00 0. -1.
     999900   -1    0    0    0    0 -0.00000000000E+00 -0.00000000000E+00 -0.74505805969E-08  0.93827000000E+00  0.93827000000E+00 0.  1.
     999902    2    1    2    0    0 -0.10540302252E-01  0.42818711177E-02  0.23069076262E-01  0.10182081285E+01  0.10178831850E+01 0.  0.
     999903    2    3    3    0    0 -0.58876129602E-01 -0.10530948467E+00  0.43632024238E-01  0.12985602926E+00  0.20058628973E-01 0.  0.
         14    1    1    2    0    0  0.10540302252E-01 -0.42818711177E-02 -0.23069076262E-01  0.25721871460E-01  0.00000000000E+00 0.  1.
     999901    1    3    3    0    0  0.48335827350E-01  0.10959135579E+00 -0.20562947976E-01  0.88835209928E+00  0.88000000000E+00 0.  1.
        -11    1    4    4    0    0 -0.45366391778E-01 -0.80274745951E-01  0.42094795140E-01  0.10136260277E+00  0.51100000000E-03 0. -1.
         11    1    4    4    0    0 -0.13509737824E-01 -0.25034738722E-01  0.15372290983E-02  0.28493426492E-01  0.51100000000E-03 0.  1.
</event>
<event>
 8    1  0.1180500E+005  0.1043930E+01  0.7957747E-01            NaN
         13   -1    0    0    0    0  0.00000000000E+00  0.00000000000E+00  0.74505805969E-08  0.10566000000E+00  0.10566000000E+00 0. -1.
     999900   -1    0    0    0    0 -0.00000000000E+00 -0.00000000000E+00 -0.74505805969E-08  0.93827000000E+00  0.93827000000E+00 0.  1.
     999902    2    1    2    0    0 -0.19002189452E-01 -0.11495095990E-01 -0.64890638429E-02  0.10207928354E+01  0.10205305897E+01 0.  0.
     999903    2    3    3    0    0  0.56330258437E-01 -0.20325722040E-02 -0.11628471896E+00  0.13072564528E+00  0.19744090346E-01 0.  0.
         14    1    1    2    0    0  0.19002189452E-01  0.11495095990E-01  0.64890638429E-02  0.23137164592E-01  0.00000000000E+00 0. -1.
     999901    1    3    3    0    0 -0.75332447889E-01 -0.94625237861E-02  0.10979565512E+00  0.89006719013E+00  0.88000000000E+00 0.  1.
        -11    1    4    4    0    0  0.40899376924E-01  0.74927907864E-02 -0.80745913254E-01  0.90824361131E-01  0.51100000000E-03 0.  1.
         11    1    4    4    0    0  0.15430881513E-01 -0.95253629904E-02 -0.35538805710E-01  0.39901284148E-01  0.51100000000E-03 0. -1.
</event>
<event>
 8    1  0.1180500E+005  0.1043930E+01  0.7957747E-01            NaN
         13   -1    0    0    0    0  0.00000000000E+00  0.00000000000E+00  0.74505805969E-08  0.10566000000E+00  0.10566000000E+00 0. -1.
     999900   -1    0    0    0    0 -0.00000000000E+00 -0.00000000000E+00 -0.74505805969E-08  0.93827000000E+00  0.93827000000E+00 0. -1.
     999902    2    1    2    0    0  0.13169346851E-01 -0.14067915218E-01  0.14463495106E-01  0.10198357968E+01  0.10195511375E+01 0.  0.
     999903    2    3    3    0    0  0.12011233029E+00 -0.55123187728E-02  0.52092892116E-01  0.13252188877E+00  0.19774328049E-01 0.  0.
         14    1    1    2    0    0 -0.13169346851E-01  0.14067915218E-01 -0.14463495106E-01  0.24094203157E-01  0.00000000000E+00 0.  1.
     999901    1    3    3    0    0 -0.10694298344E+00 -0.85555964451E-02 -0.37629397010E-01  0.88731390807E+00  0.88000000000E+00 0. -1.
        -11    1    4    4    0    0  0.48786509279E-01  0.27047138111E-02  0.30266141674E-01  0.57478164700E-01  0.51100000000E-03 0. -1.
         11    1    4    4    0    0  0.71325821007E-01 -0.82170325839E-02  0.21826750442E-01  0.75043724073E-01  0.51100000000E-03 0.  1.
</event>
<event>
 8    1  0.1180500E+005  0.1043930E+01  0.7957747E-01            NaN
         13   -1    0    0    0    0  0.00000000000E+00  0.00000000000E+00  0.74505805969E-08  0.10566000000E+00  0.10566000000E+00 0. -1.
     999900   -1    0    0    0    0 -0.00000000000E+00 -0.00000000000E+00 -0.74505805969E-08  0.93827000000E+00  0.93827000000E+00 0. -1.
     999902    2    1    2    0    0 -0.22195201228E-01 -0.42183120012E-02 -0.94004712383E-02  0.10194598146E+01  0.10191660923E+01 0.  0.
     999903    2    3    3    0    0 -0.12406087057E+00  0.18236431833E-01 -0.39169647952E-01  0.13279920649E+00  0.19434527778E-01 0.  0.
         14    1    1    2    0    0  0.22195201228E-01  0.42183120012E-02  0.94004712383E-02  0.24470185394E-01  0.00000000000E+00 0. -1.
     999901    1    3    3    0    0  0.10186566934E+00 -0.22454743835E-01  0.29769176714E-01  0.88666060812E+00  0.88000000000E+00 0. -1.
        -11    1    4    4    0    0 -0.40675935113E-01 -0.88311060388E-03 -0.18984966081E-01  0.44899906901E-01  0.51100000000E-03 0.  1.
         11    1    4    4    0    0 -0.83384935457E-01  0.19119542437E-01 -0.20184681871E-01  0.87899299584E-01  0.51100000000E-03 0. -1.
</event>
<event>
 8    1  0.1180500E+005  0.1043930E+01  0.7957747E-01            NaN
         13   -1    0    0    0    0  0.00000000000E+00  0.00000000000E+00  0.74505805969E-08  0.10566000000E+00  0.10566000000E+00 0. -1.
     999900   -1    0    0    0    0 -0.00000000000E+00 -0.00000000000E+00 -0.74505805969E-08  0.93827000000E+00  0.93827000000E+00 0.  1.
     999902    2    1    2    0    0 -0.15174851033E-01 -0.15487721532E-01  0.84384775054E-02  0.10206629949E+01  0.10203977635E+01 0.  0.
     999903    2    3    3    0    0  0.12595991189E+00 -0.21388216470E-01 -0.41320624911E-02  0.12930904974E+00  0.19503876446E-01 0.  0.
         14    1    1    2    0    0  0.15174851033E-01  0.15487721532E-01 -0.84384775054E-02  0.23267005066E-01  0.00000000000E+00 0. -1.
     999901    1    3    3    0    0 -0.14113476292E+00  0.59004949387E-02  0.12570539996E-01  0.89135394520E+00  0.88000000000E+00 0.  1.
        -11    1    4    4    0    0  0.53354082938E-01 -0.14533616763E-01  0.62134030201E-02  0.55648465212E-01  0.51100000000E-03 0. -1.
         11    1    4    4    0    0  0.72605828951E-01 -0.68545997074E-02 -0.10345465511E-01  0.73660584524E-01  0.51100000000E-03 0.  1.
</event>
<event>
 8    1  0.1180500E+005  0.1043930E+01  0.7957747E-01            NaN
         13   -1    0    0    0    0  0.00000000000E+00  0.00000000000E+00  0.74505805969E-08  0.10566000000E+00  0.10566000000E+00 0.  1.
     999900   -1    0    0    0    0 -0.00000000000E+00 -0.00000000000E+00 -0.74505805969E-08  0.93827000000E+00  0.93827000000E+00 0. -1.
     999902    2    1    2    0    0  0.20692811809E-01 -0.51225304566E-02  0.95913288239E-02  0.10205542355E+01  0.10202864897E+01 0.  0.
     999903    2    3    3    0    0  0.11282286268E+00  0.74577532554E-02  0.68690718066E-01  0.13368392498E+00  0.19192723163E-01 0.  0.
         14    1    1    2    0    0 -0.20692811809E-01  0.51225304566E-02 -0.95913288239E-02  0.23375764532E-01  0.00000000000E+00 0. -1.
     999901    1    3    3    0    0 -0.92130050875E-01 -0.12580283712E-01 -0.59099389242E-01  0.88687031049E+00  0.88000000000E+00 0. -1.
        -11    1    4    4    0    0  0.40539146125E-01  0.10850088706E-01  0.30317957850E-01  0.51774380563E-01  0.51100000000E-03 0.  1.
         11    1    4    4    0    0  0.72283716559E-01 -0.33923354510E-02  0.38372760216E-01  0.81909544420E-01  0.51100000000E-03 0. -1.
</event>
<event>
 8    1  0.1180500E+005  0.1043930E+01  0.7957747E-01            NaN
         13   -1    0    0    0    0  0.00000000000E+00  0.00000000000E+00  0.74505805969E-08  0.10566000000E+00  0.10566000000E+00 0. -1.
     999900   -1    0    0    0    0 -0.00000000000E+00 -0.00000000000E+00 -0.74505805969E-08  0.93827000000E+00  0.93827000000E+00 0.  1.
     999902    2    1    2    0    0 -0.19741291194E-01 -0.48366830327E-02  0.25658950061E-02  0.10234435191E+01  0.10232384575E+01 0.  0.
     999903    2    3    3    0    0 -0.32114880965E-01  0.11542748089E+00 -0.54928691528E-01  0.13331869513E+00  0.20046056765E-01 0.  0.
         14    1    1    2    0    0  0.19741291194E-01  0.48366830327E-02 -0.25658950061E-02  0.20486480858E-01  0.00000000000E+00 0.  1.
     999901    1    3    3    0    0  0.12373589771E-01 -0.12026416393E+00  0.57494586534E-01  0.89012482402E+00  0.88000000000E+00 0. -1.
        -11    1    4    4    0    0 -0.16714860846E-02  0.39239034878E-01 -0.14685887170E-01  0.41933663408E-01  0.51100000000E-03 0. -1.
         11    1    4    4    0    0 -0.30443394881E-01  0.76188446017E-01 -0.40242804358E-01  0.91385031718E-01  0.51100000000E-03 0.  1.
</event>
<event>
 8    1  0.1180500E+005  0.1043930E+01  0.7957747E-01            NaN
         13   -1    0    0    0    0  0.00000000000E+00  0.00000000000E+00  0.74505805969E-08  0.10566000000E+00  0.10566000000E+00 0.  1.
     999900   -1    0    0    0    0 -0.00000000000E+00 -0.00000000000E+00 -0.74505805969E-08  0.93827000000E+00  0.93827000000E+00 0. -1.
     999902    2    1    2    0    0 -0.20385155636E-01 -0.10834335120E-01  0.49140489714E-02  0.10203273462E+01  0.10200543163E+01 0.  0.
     999903    2    3    3    0    0 -0.54037309471E-02 -0.73070195048E-01  0.10796261607E+00  0.13200490897E+00  0.20022882215E-01 0.  0.
         14    1    1    2    0    0  0.20385155636E-01  0.10834335120E-01 -0.49140489714E-02  0.23602653773E-01  0.00000000000E+00 0.  1.
     999901    1    3    3    0    0 -0.14981424689E-01  0.62235859927E-01 -0.10304856710E+00  0.88832243725E+00  0.88000000000E+00 0. -1.
        -11    1    4    4    0    0  0.50504093287E-02 -0.46473827034E-01  0.58587042783E-01  0.74953491824E-01  0.51100000000E-03 0.  1.
         11    1    4    4    0    0 -0.10454140276E-01 -0.26596368014E-01  0.49375573287E-01  0.57051417150E-01  0.51100000000E-03 0. -1.
</event>
<event>
 8    1  0.1180500E+005  0.1043930E+01  0.7957747E-01            NaN
         13   -1    0    0    0    0  0.00000000000E+00  0.00000000000E+00  0.74505805969E-08  0.10566000000E+00  0.10566000000E+00 0.  1.
     999900   -1    0    0    0    0 -0.00000000000E+00 -0.00000000000E+00 -0.74505805969E-08  0.93827000000E+00  0.93827000000E+00 0. -1.
     999902    2    1    2    0    0 -0.23337087995E-01 -0.57654891399E-02 -0.52001897541E-02  0.10193352340E+01  0.10190384766E+01 0.  0.
     999903    2    3    3    0    0 -0.43615135756E-01  0.11316279224E+00 -0.43264718655E-01  0.13028852899E+00  0.19878815129E-01 0.  0.
         14    1    1    2    0    0  0.23337087995E-01  0.57654891399E-02  0.52001897541E-02  0.24594766000E-01  0.00000000000E+00 0. -1.
     999901    1    3    3    0    0  0.20278047761E-01 -0.11892828138E+00  0.38064528900E-01  0.88904670501E+00  0.88000000000E+00 0.  1.
        -11    1    4    4    0    0 -0.39921517047E-01  0.78875680824E-01 -0.31415047819E-01  0.93820397032E-01  0.51100000000E-03 0.  1.
         11    1    4    4    0    0 -0.36936187089E-02  0.34287111416E-01 -0.11849670836E-01  0.36468131956E-01  0.51100000000E-03 0. -1.
</event>
<event>
 8    1  0.1180500E+005  0.1043930E+01  0.7957747E-01            NaN
         13   -1    0    0    0    0  0.00000000000E+00  0.00000000000E+00  0.74505805969E-08  0.10566000000E+00  0.10566000000E+00 0. -1.
     999900   -1    0    0    0    0 -0.00000000000E+00 -0.00000000000E+00 -0.74505805969E-08  0.93827000000E+00  0.93827000000E+00 0. -1.
     999902    2    1    2    0    0  0.11470868635E-01 -0.17789993720E-01 -0.13900090793E-01  0.10186065479E+01  0.10182917176E+01 0.  0.
     999903    2    3    3    0    0  0.15647109739E-01 -0.10983092287E+00 -0.68931671231E-01  0.13208669560E+00  0.19688986610E-01 0.  0.
         14    1    1    2    0    0 -0.11470868635E-01  0.17789993720E-01  0.13900090793E-01  0.25323452132E-01  0.00000000000E+00 0. -1.
     999901    1    3    3    0    0 -0.41762411037E-02  0.92040929147E-01  0.55031580437E-01  0.88651985227E+00  0.88000000000E+00 0.  1.
        -11    1    4    4    0    0 -0.27613346821E-03 -0.59517025513E-01 -0.41915359832E-01  0.72797740943E-01  0.51100000000E-03 0.  1.
         11    1    4    4    0    0  0.15923243207E-01 -0.50313897354E-01 -0.27016311399E-01  0.59288954652E-01  0.51100000000E-03 0. -1.
</event>
<event>
 8    1  0.1180500E+005  0.1043930E+01  0.7957747E-01            NaN
         13   -1    0    0    0    0  0.00000000000E+00  0.00000000000E+00  0.74505805969E-08  0.10566000000E+00  0.10566000000E+00 0. -1.
     999900   -1    0    0    0    0 -0.00000000000E+00 -0.00000000000E+00 -0.74505805969E-08  0.93827000000E+00  0.93827000000E+00 0.  1.
     999902    2    1    2    0    0 -0.32164328011E-02  0.10242768270E-01  0.20664869790E-01  0.10206427377E+01  0.10203770389E+01 0.  0.
     999903    2    3    3    0    0  0.75842805319E-01 -0.27664815493E-01  0.10299949632E+00  0.13246125920E+00  0.20484526118E-01 0.  0.
         14    1    1    2    0    0  0.32164328011E-02 -0.10242768270E-01 -0.20664869790E-01  0.23287262296E-01  0.00000000000E+00 0.  1.
     999901    1    3    3    0    0 -0.79059238121E-01  0.37907583763E-01 -0.82334626532E-01  0.88818147851E+00  0.88000000000E+00 0.  1.
        -11    1    4    4    0    0  0.54952279857E-01 -0.17406465889E-01  0.86420026493E-01  0.10388176075E+00  0.51100000000E-03 0.  1.
         11    1    4    4    0    0  0.20890525463E-01 -0.10258349603E-01  0.16579469829E-01  0.28579498447E-01  0.51100000000E-03 0. -1.
</event>
<event>
 8    1  0.1180500E+005  0.1043930E+01  0.7957747E-01            NaN
         13   -1    0    0    0    0  0.00000000000E+00  0.00000000000E+00  0.74505805969E-08  0.10566000000E+00  0.10566000000E+00 0. -1.
     999900   -1    0    0    0    0 -0.00000000000E+00 -0.00000000000E+00 -0.74505805969E-08  0.93827000000E+00  0.93827000000E+00 0. -1.
     999902    2    1    2    0    0  0.72089638172E-02  0.21797348168E-01  0.51073028028E-02  0.10204102617E+01  0.10201391690E+01 0.  0.
     999903    2    3    3    0    0  0.29515780141E-01 -0.35735634895E-01  0.12064756199E+00  0.13071526360E+00  0.19555793157E-01 0.  0.
         14    1    1    2    0    0 -0.72089638172E-02 -0.21797348168E-01 -0.51073028028E-02  0.23519738272E-01  0.00000000000E+00 0. -1.
     999901    1    3    3    0    0 -0.22306816324E-01  0.57532983063E-01 -0.11554025919E+00  0.88969499812E+00  0.88000000000E+00 0. -1.
        -11    1    4    4    0    0  0.26656546392E-02 -0.14484780603E-01  0.23821270815E-01  0.28011223608E-01  0.51100000000E-03 0. -1.
         11    1    4    4    0    0  0.26850125502E-01 -0.21250854292E-01  0.96826291176E-01  0.10270404000E+00  0.51100000000E-03 0.  1.
</event>
<event>
 8    1  0.1180500E+005  0.1043930E+01  0.7957747E-01            NaN
         13   -1    0    0    0    0  0.00000000000E+00  0.00000000000E+00  0.74505805969E-08  0.10566000000E+00  0.10566000000E+00 0.  1.
     999900   -1    0    0    0    0 -0.00000000000E+00 -0.00000000000E+00 -0.74505805969E-08  0.93827000000E+00  0.93827000000E+00 0. -1.
     999902    2    1    2    0    0  0.87954065340E-02 -0.17055769280E-01 -0.11916485373E-01  0.10213410411E+01  0.10210912110E+01 0.  0.
     999903    2    3    3    0    0 -0.12796302198E+00  0.30043413707E-02 -0.15291476423E-01  0.13054551663E+00  0.20609260011E-01 0.  0.
         14    1    1    2    0    0 -0.87954065340E-02  0.17055769280E-01  0.11916485373E-01  0.22588958928E-01  0.00000000000E+00 0. -1.
     999901    1    3    3    0    0  0.13675842852E+00 -0.20060110650E-01  0.33749910505E-02  0.89079552445E+00  0.88000000000E+00 0.  1.
        -11    1    4    4    0    0 -0.12349193616E+00 -0.11679000689E-02 -0.14937402864E-01  0.12439859088E+00  0.51100000000E-03 0.  1.
         11    1    4    4    0    0 -0.44710858180E-02  0.41722414396E-02 -0.35407355903E-03  0.61469257444E-02  0.51100000000E-03 0. -1.
</event>
<event>
 8    1  0.1180500E+005  0.1043930E+01  0.7957747E-01            NaN
         13   -1    0    0    0    0  0.00000000000E+00  0.00000000000E+00  0.74505805969E-08  0.10566000000E+00  0.10566000000E+00 0.  1.
     999900   -1    0    0    0    0 -0.00000000000E+00 -0.00000000000E+00 -0.74505805969E-08  0.93827000000E+00  0.93827000000E+00 0.  1.
     999902    2    1    2    0    0 -0.27999117552E-01  0.27187704416E-02  0.31846721063E-02  0.10156194996E+01  0.10152248438E+01 0.  0.
     999903    2    3    3    0    0 -0.59760659553E-01 -0.10328434144E+00 -0.38574426513E-01  0.12770662235E+00  0.24124746507E-01 0.  0.
         14    1    1    2    0    0  0.27999117552E-01 -0.27187704416E-02 -0.31846721063E-02  0.28310500399E-01  0.00000000000E+00 0. -1.
     999901    1    3    3    0    0  0.31761542000E-01  0.10600311188E+00  0.41759098619E-01  0.88791287726E+00  0.88000000000E+00 0.  1.
        -11    1    4    4    0    0 -0.23797647075E-02 -0.21825461723E-01 -0.93475697925E-02  0.23867388661E-01  0.51100000000E-03 0. -1.
         11    1    4    4    0    0 -0.57380894845E-01 -0.81458879714E-01 -0.29226856721E-01  0.10383923368E+00  0.51100000000E-03 0.  1.
</event>
<event>
 8    1  0.1180500E+005  0.1043930E+01  0.7957747E-01            NaN
         13   -1    0    0    0    0  0.00000000000E+00  0.00000000000E+00  0.74505805969E-08  0.10566000000E+00  0.10566000000E+00 0. -1.
     999900   -1    0    0    0    0 -0.00000000000E+00 -0.00000000000E+00 -0.74505805969E-08  0.93827000000E+00  0.93827000000E+00 0. -1.
     999902    2    1    2    0    0  0.13671401131E-01  0.11534130513E-01  0.11068546482E-01  0.10228953596E+01  0.10226790604E+01 0.  0.
     999903    2    3    3    0    0  0.11950740400E+00 -0.11868012115E-01 -0.55481784251E-01  0.13375090210E+00  0.19702946641E-01 0.  0.
         14    1    1    2    0    0 -0.13671401131E-01 -0.11534130513E-01 -0.11068546482E-01  0.21034640401E-01  0.00000000000E+00 0.  1.
     999901    1    3    3    0    0 -0.10583600287E+00  0.23402142628E-01  0.66550330733E-01  0.88914445750E+00  0.88000000000E+00 0. -1.
        -11    1    4    4    0    0  0.93368698200E-01 -0.10069555871E-01 -0.51909207537E-01  0.10730301350E+00  0.51100000000E-03 0. -1.
         11    1    4    4    0    0  0.26138705800E-01 -0.17984562437E-02 -0.35725767145E-02  0.26447888595E-01  0.51100000000E-03 0.  1.
</event>
<event>
 8    1  0.1180500E+005  0.1043930E+01  0.7957747E-01            NaN
         13   -1    0    0    0    0  0.00000000000E+00  0.00000000000E+00  0.74505805969E-08  0.10566000000E+00  0.10566000000E+00 0.  1.
     999900   -1    0    0    0    0 -0.00000000000E+00 -0.00000000000E+00 -0.74505805969E-08  0.93827000000E+00  0.93827000000E+00 0. -1.
     999902    2    1    2    0    0 -0.15012868224E-01  0.90511358752E-02  0.16560907597E-01  0.10198141767E+01  0.10195290001E+01 0.  0.
     999903    2    3    3    0    0  0.19421807581E-01  0.53378010265E-01  0.11761837995E+00  0.13225390753E+00  0.20750763029E-01 0.  0.
         14    1    1    2    0    0  0.15012868224E-01 -0.90511358752E-02 -0.16560907597E-01  0.24115823299E-01  0.00000000000E+00 0.  1.
     999901    1    3    3    0    0 -0.34434675805E-01 -0.44326874390E-01 -0.10105747235E+00  0.88756026917E+00  0.88000000000E+00 0. -1.
        -11    1    4    4    0    0  0.22965562483E-02  0.33607548798E-01  0.75443715860E-01  0.82624190711E-01  0.51100000000E-03 0.  1.
         11    1    4    4    0    0  0.17125251333E-01  0.19770461467E-01  0.42174664087E-01  0.49629716820E-01  0.51100000000E-03 0. -1.
</event>
<event>
 8    1  0.1180500E+005  0.1043930E+01  0.7957747E-01            NaN
         13   -1    0    0    0    0  0.00000000000E+00  0.00000000000E+00  0.74505805969E-08  0.10566000000E+00  0.10566000000E+00 0.  1.
     999900   -1    0    0    0    0 -0.00000000000E+00 -0.00000000000E+00 -0.74505805969E-08  0.93827000000E+00  0.93827000000E+00 0. -1.
     999902    2    1    2    0    0 -0.57783738632E-02 -0.18678675922E-01 -0.13549244560E-01  0.10201420920E+01  0.10198647083E+01 0.  0.
     999903    2    3    3    0    0  0.15159875624E-01  0.12556675196E+00  0.88387589589E-03  0.12803589389E+00  0.19889139245E-01 0.  0.
         14    1    1    2    0    0  0.57783738632E-02  0.18678675922E-01  0.13549244560E-01  0.23787907996E-01  0.00000000000E+00 0.  1.
     999901    1    3    3    0    0 -0.20938249487E-01 -0.14424542788E+00 -0.14433120456E-01  0.89210619812E+00  0.88000000000E+00 0. -1.
        -11    1    4    4    0    0  0.15985565236E-01  0.58736908404E-01 -0.41003194108E-02  0.61013412009E-01  0.51100000000E-03 0. -1.
         11    1    4    4    0    0 -0.82568961189E-03  0.66829843555E-01  0.49841953067E-02  0.67022481876E-01  0.51100000000E-03 0.  1.
</event>
<event>
 8    1  0.1180500E+005  0.1043930E+01  0.7957747E-01            NaN
         13   -1    0    0    0    0  0.00000000000E+00  0.00000000000E+00  0.74505805969E-08  0.10566000000E+00  0.10566000000E+00 0. -1.
     999900   -1    0    0    0    0 -0.00000000000E+00 -0.00000000000E+00 -0.74505805969E-08  0.93827000000E+00  0.93827000000E+00 0.  1.
     999902    2    1    2    0    0 -0.10151498104E-01 -0.14377784854E-01  0.14967155223E-01  0.10208261184E+01  0.10205646352E+01 0.  0.
     999903    2    3    3    0    0 -0.96581943439E-02  0.37565432314E-01  0.12498396231E+00  0.13245567818E+00  0.20471282922E-01 0.  0.
         14    1    1    2    0    0  0.10151498104E-01  0.14377784854E-01 -0.14967155223E-01  0.23103881633E-01  0.00000000000E+00 0.  1.
     999901    1    3    3    0    0 -0.49330376034E-03 -0.51943217168E-01 -0.11001680709E+00  0.88837044019E+00  0.88000000000E+00 0.  1.
        -11    1    4    4    0    0 -0.10065657975E-01  0.39262649892E-01  0.10769045074E+00  0.11506679560E+00  0.51100000000E-03 0.  1.
         11    1    4    4    0    0  0.40746363073E-03 -0.16972175785E-02  0.17293511566E-01  0.17388882580E-01  0.51100000000E-03 0. -1.
</event>
<event>
 7    1  0.1180500E+005  0.1043930E+01  0.7957747E-01            NaN
         13   -1    0    0    0    0  0.00000000000E+00  0.00000000000E+00  0.74505805969E-08  0.10566000000E+00  0.10566000000E+00 0.  1.
     999900   -1    0    0    0    0 -0.00000000000E+00 -0.00000000000E+00 -0.74505805969E-08  0.93827000000E+00  0.93827000000E+00 0.  1.
     999902    2    1    2    0    0  0.14127007104E-01  0.14681011973E-01 -0.14223623913E-01  0.10190821446E+01  0.10187791721E+01 0.  0.
         14    1    1    2    0    0 -0.14127007104E-01 -0.14681011973E-01  0.14223623913E-01  0.24847855430E-01  0.00000000000E+00 0. -1.
     999901    1    3    3    0    0  0.63916645337E-01 -0.54329744354E-01 -0.10068119236E+00  0.88970431109E+00  0.88000000000E+00 0.  1.
        -11    1    3    3    0    0 -0.82898443150E-02  0.34591799042E-01  0.58939333921E-01  0.68843447646E-01  0.51100000000E-03 0. -1.
         11    1    3    3    0    0 -0.41499793918E-01  0.34418957286E-01  0.27518234531E-01  0.60534385836E-01  0.51100000000E-03 0.  1.
</event>
<event>
 8    1  0.1180500E+005  0.1043930E+01  0.7957747E-01            NaN
         13   -1    0    0    0    0  0.00000000000E+00  0.00000000000E+00  0.74505805969E-08  0.10566000000E+00  0.10566000000E+00 0. -1.
     999900   -1    0    0    0    0 -0.00000000000E+00 -0.00000000000E+00 -0.74505805969E-08  0.93827000000E+00  0.93827000000E+00 0.  1.
     999902    2    1    2    0    0  0.65712540325E-02  0.18920892336E-01  0.91863182844E-02  0.10218943473E+01  0.10216567364E+01 0.  0.
     999903    2    3    3    0    0  0.40102393215E-01 -0.86824185182E-01 -0.85439776339E-01  0.12989633357E+00  0.20650932660E-01 0.  0.
         14    1    1    2    0    0 -0.65712540325E-02 -0.18920892336E-01 -0.91863182844E-02  0.22035652701E-01  0.00000000000E+00 0. -1.
     999901    1    3    3    0    0 -0.33531139182E-01  0.10574507752E+00  0.94626094624E-01  0.89199801373E+00  0.88000000000E+00 0.  1.
        -11    1    4    4    0    0  0.20515932504E-01 -0.66442015215E-01 -0.62206861812E-01  0.93302731203E-01  0.51100000000E-03 0. -1.
         11    1    4    4    0    0  0.19586460710E-01 -0.20382169966E-01 -0.23232914527E-01  0.36593602366E-01  0.51100000000E-03 0.  1.
</event>
<event>
 8    1  0.1180500E+005  0.1043930E+01  0.7957747E-01            NaN
         13   -1    0    0    0    0  0.00000000000E+00  0.00000000000E+00  0.74505805969E-08  0.10566000000E+00  0.10566000000E+00 0. -1.
     999900   -1    0    0    0    0 -0.00000000000E+00 -0.00000000000E+00 -0.74505805969E-08  0.93827000000E+00  0.93827000000E+00 0. -1.
     999902    2    1    2    0    0 -0.18836748010E-01  0.14261496805E-02 -0.13852283394E-01  0.10205047415E+01  0.10202358476E+01 0.  0.
     999903    2    3    3    0    0 -0.21072390184E-01 -0.12725036733E+00  0.71875848470E-02  0.13089509671E+00  0.21098894621E-01 0.  0.
         14    1    1    2    0    0  0.18836748010E-01 -0.14261496805E-02  0.13852283394E-01  0.23425258456E-01  0.00000000000E+00 0. -1.
     999901    1    3    3    0    0  0.22356421739E-02  0.12867651701E+00 -0.21039868241E-01  0.88960964483E+00  0.88000000000E+00 0.  1.
        -11    1    4    4    0    0 -0.17932165900E-01 -0.55682588253E-01  0.92452166472E-02  0.59227091439E-01  0.51100000000E-03 0.  1.
         11    1    4    4    0    0 -0.31402242832E-02 -0.71567779074E-01 -0.20576318003E-02  0.71668005272E-01  0.51100000000E-03 0. -1.
</event>
<event>
 8    1  0.1180500E+005  0.1043930E+01  0.7957747E-01            NaN
         13   -1    0    0    0    0  0.00000000000E+00  0.00000000000E+00  0.74505805969E-08  0.10566000000E+00  0.10566000000E+00 0. -1.
     999900   -1    0    0    0    0 -0.00000000000E+00 -0.00000000000E+00 -0.74505805969E-08  0.93827000000E+00  0.93827000000E+00 0.  1.
     999902    2    1    2    0    0  0.31309666492E-02 -0.18431123969E-01  0.14466113546E-01  0.10202915203E+01  0.10200176511E+01 0.  0.
     999903    2    3    3    0    0  0.56414142999E-01 -0.99923750215E-01 -0.61640033994E-01  0.13165644854E+00  0.19147199891E-01 0.  0.
         14    1    1    2    0    0 -0.31309666492E-02  0.18431123969E-01 -0.14466113546E-01  0.23638479732E-01  0.00000000000E+00 0.  1.
     999901    1    3    3    0    0 -0.53283176349E-01  0.81492626245E-01  0.76106147540E-01  0.88863507173E+00  0.88000000000E+00 0. -1.
        -11    1    4    4    0    0  0.29121405829E-01 -0.41191292808E-01 -0.36109977016E-01  0.62040071258E-01  0.51100000000E-03 0. -1.
         11    1    4    4    0    0  0.27292737169E-01 -0.58732457407E-01 -0.25530056977E-01  0.69616377280E-01  0.51100000000E-03 0.  1.
</event>
<event>
 8    1  0.1180500E+005  0.1043930E+01  0.7957747E-01            NaN
         13   -1    0    0    0    0  0.00000000000E+00  0.00000000000E+00  0.74505805969E-08  0.10566000000E+00  0.10566000000E+00 0.  1.
     999900   -1    0    0    0    0 -0.00000000000E+00 -0.00000000000E+00 -0.74505805969E-08  0.93827000000E+00  0.93827000000E+00 0.  1.
     999902    2    1    2    0    0  0.21186771841E-01 -0.13181059819E-01 -0.62905162901E-02  0.10181969428E+01  0.10178717130E+01 0.  0.
     999903    2    3    3    0    0 -0.58042702262E-01  0.54989846894E-01  0.94583358806E-01  0.12628880806E+00  0.24698435807E-01 0.  0.
         14    1    1    2    0    0 -0.21186771841E-01  0.13181059819E-01  0.62905162901E-02  0.25733057226E-01  0.00000000000E+00 0.  1.
     999901    1    3    3    0    0  0.79229474104E-01 -0.68170906713E-01 -0.10087387510E+00  0.89190813471E+00  0.88000000000E+00 0.  1.
        -11    1    4    4    0    0 -0.41606311808E-01  0.52585587716E-01  0.75129205260E-01  0.10070247178E+00  0.51100000000E-03 0.  1.
         11    1    4    4    0    0 -0.16436390454E-01  0.24042591779E-02  0.19454153546E-01  0.25586336286E-01  0.51100000000E-03 0. -1.
</event>
<event>
 8    1  0.1180500E+005  0.1043930E+01  0.7957747E-01            NaN
         13   -1    0    0    0    0  0.00000000000E+00  0.00000000000E+00  0.74505805969E-08  0.10566000000E+00  0.10566000000E+00 0.  1.
     999900   -1    0    0    0    0 -0.00000000000E+00 -0.00000000000E+00 -0.74505805969E-08  0.93827000000E+00  0.93827000000E+00 0. -1.
     999902    2    1    2    0    0 -0.21132410340E-01 -0.43305057426E-02  0.91600861730E-02  0.10204941466E+01  0.10202250065E+01 0.  0.
     999903    2    3    3    0    0  0.99746849525E-01 -0.68508256934E-01  0.42328784112E-01  0.12929790459E+00  0.16834693617E-01 0.  0.
         14    1    1    2    0    0  0.21132410340E-01  0.43305057426E-02 -0.91600861730E-02  0.23435853418E-01  0.00000000000E+00 0. -1.
     999901    1    3    3    0    0 -0.12087925987E+00  0.64177751191E-01 -0.33168697939E-01  0.89119624199E+00  0.88000000000E+00 0.  1.
        -11    1    4    4    0    0  0.72992232848E-01 -0.41192256686E-01  0.31697519246E-01  0.89608380827E-01  0.51100000000E-03 0. -1.
         11    1    4    4    0    0  0.26754616678E-01 -0.27316000247E-01  0.10631264866E-01  0.39689523765E-01  0.51100000000E-03 0.  1.
</event>
<event>
 8    1  0.1180500E+005  0.1043930E+01  0.7957747E-01            NaN
         13   -1    0    0    0    0  0.00000000000E+00  0.00000000000E+00  0.74505805969E-08  0.10566000000E+00  0.10566000000E+00 0.  1.
     999900   -1    0    0    0    0 -0.00000000000E+00 -0.00000000000E+00 -0.74505805969E-08  0.93827000000E+00  0.93827000000E+00 0.  1.
     999902    2    1    2    0    0 -0.21069828968E-01 -0.75086517850E-02 -0.74783577962E-02  0.10203451875E+01  0.10200725750E+01 0.  0.
     999903    2    3    3    0    0  0.86240618056E-01  0.65258787429E-01 -0.67266407659E-01  0.12883790031E+00  0.19449457999E-01 0.  0.
         14    1    1    2    0    0  0.21069828968E-01  0.75086517850E-02  0.74783577962E-02  0.23584812479E-01  0.00000000000E+00 0.  1.
     999901    1    3    3    0    0 -0.10731044702E+00 -0.72767439214E-01  0.59788049863E-01  0.89150728721E+00  0.88000000000E+00 0. -1.
        -11    1    4    4    0    0  0.40911142220E-01  0.26573043621E-01 -0.40933188880E-01  0.63683869841E-01  0.51100000000E-03 0.  1.
         11    1    4    4    0    0  0.45329475837E-01  0.38685743808E-01 -0.26333218780E-01  0.65154030466E-01  0.51100000000E-03 0. -1.
</event>
<event>
 8    1  0.1180500E+005  0.1043930E+01  0.7957747E-01            NaN
         13   -1    0    0    0    0  0.00000000000E+00  0.00000000000E+00  0.74505805969E-08  0.10566000000E+00  0.10566000000E+00 0.  1.
     999900   -1    0    0    0    0 -0.00000000000E+00 -0.00000000000E+00 -0.74505805969E-08  0.93827000000E+00  0.93827000000E+00 0.  1.
     999902    2    1    2    0    0 -0.43777493233E-02 -0.22882124811E-01  0.67590220551E-02  0.10196722032E+01  0.10193836183E+01 0.  0.
     999903    2    3    3    0    0 -0.80588990522E-01  0.67585597844E-01  0.72966297010E-01  0.12929252838E+00  0.18168075473E-01 0.  0.
         14    1    1    2    0    0  0.43777493233E-02  0.22882124811E-01 -0.67590220551E-02  0.24257796770E-01  0.00000000000E+00 0.  1.
     999901    1    3    3    0    0  0.76211241199E-01 -0.90467722655E-01 -0.66207274955E-01  0.89037967485E+00  0.88000000000E+00 0.  1.
        -11    1    4    4    0    0 -0.10914234596E-01  0.12832040201E-01  0.19593788524E-01  0.25844911342E-01  0.51100000000E-03 0.  1.
         11    1    4    4    0    0 -0.69674755926E-01  0.54753557643E-01  0.53372508486E-01  0.10344761704E+00  0.51100000000E-03 0. -1.
</event>
<event>
 8    1  0.1180500E+005  0.1043930E+01  0.7957747E-01            NaN
         13   -1    0    0    0    0  0.00000000000E+00  0.00000000000E+00  0.74505805969E-08  0.10566000000E+00  0.10566000000E+00 0. -1.
     999900   -1    0    0    0    0 -0.00000000000E+00 -0.00000000000E+00 -0.74505805969E-08  0.93827000000E+00  0.93827000000E+00 0.  1.
     999902    2    1    2    0    0 -0.16057017404E-01 -0.17261930971E-01 -0.10704521613E-02  0.10203302556E+01  0.10200572937E+01 0.  0.
     999903    2    3    3    0    0  0.11495114952E+00 -0.15794956235E-01 -0.52636820592E-01  0.12913758159E+00  0.21038837398E-01 0.  0.
         14    1    1    2    0    0  0.16057017404E-01  0.17261930971E-01  0.10704521613E-02  0.23599744418E-01  0.00000000000E+00 0.  1.
     999901    1    3    3    0    0 -0.13100816693E+00 -0.14669747361E-02  0.51566368431E-01  0.89119267399E+00  0.88000000000E+00 0.  1.
        -11    1    4    4    0    0  0.67605184851E-01 -0.16799786347E-01 -0.23436940884E-01  0.73499967069E-01  0.51100000000E-03 0.  1.
         11    1    4    4    0    0  0.47345964671E-01  0.10048301120E-02 -0.29199879707E-01  0.55637614526E-01  0.51100000000E-03 0. -1.
</event>
<event>
 8    1  0.1180500E+005  0.1043930E+01  0.7957747E-01            NaN
         13   -1    0    0    0    0  0.00000000000E+00  0.00000000000E+00  0.74505805969E-08  0.10566000000E+00  0.10566000000E+00 0.  1.
     999900   -1    0    0    0    0 -0.00000000000E+00 -0.00000000000E+00 -0.74505805969E-08  0.93827000000E+00  0.93827000000E+00 0.  1.
     999902    2    1    2    0    0  0.16959330776E-02 -0.16182940623E-01 -0.17041086070E-01  0.10203681161E+01  0.10200960396E+01 0.  0.
     999903    2    3    3    0    0 -0.11957521622E+00  0.16305227726E-01  0.42138188743E-01  0.12948969610E+00  0.20684817172E-01 0.  0.
         14    1    1    2    0    0 -0.16959330776E-02  0.16182940623E-01  0.17041086070E-01  0.23561883851E-01  0.00000000000E+00 0.  1.
     999901    1    3    3    0    0  0.12127114930E+00 -0.32488168348E-01 -0.59179274813E-01  0.89087842004E+00  0.88000000000E+00 0.  1.
        -11    1    4    4    0    0 -0.36783538963E-01  0.13433952155E-01  0.84836331662E-02  0.40071597945E-01  0.51100000000E-03 0. -1.
         11    1    4    4    0    0 -0.82791677256E-01  0.28712755709E-02  0.33654555577E-01  0.89418098159E-01  0.51100000000E-03 0.  1.
</event>
<event>
 8    1  0.1180500E+005  0.1043930E+01  0.7957747E-01            NaN
         13   -1    0    0    0    0  0.00000000000E+00  0.00000000000E+00  0.74505805969E-08  0.10566000000E+00  0.10566000000E+00 0.  1.
     999900   -1    0    0    0    0 -0.00000000000E+00 -0.00000000000E+00 -0.74505805969E-08  0.93827000000E+00  0.93827000000E+00 0. -1.
     999902    2    1    2    0    0  0.66725099264E-02 -0.90835734174E-02  0.20233168059E-01  0.10207693699E+01  0.10205065859E+01 0.  0.
     999903    2    3    3    0    0  0.72909539766E-01  0.10528604192E+00 -0.12879424832E-01  0.13028399845E+00  0.20176448067E-01 0.  0.
         14    1    1    2    0    0 -0.66725099264E-02  0.90835734174E-02 -0.20233168059E-01  0.23160630053E-01  0.00000000000E+00 0. -1.
     999901    1    3    3    0    0 -0.66237029839E-01 -0.11436961534E+00  0.33112592891E-01  0.89048537149E+00  0.88000000000E+00 0.  1.
        -11    1    4    4    0    0  0.24155803131E-01  0.52449406236E-01 -0.62380479856E-02  0.58082849475E-01  0.51100000000E-03 0. -1.
         11    1    4    4    0    0  0.48753736635E-01  0.52836635686E-01 -0.66413768462E-02  0.72201148980E-01  0.51100000000E-03 0.  1.
</event>
<event>
 8    1  0.1180500E+005  0.1043930E+01  0.7957747E-01            NaN
         13   -1    0    0    0    0  0.00000000000E+00  0.00000000000E+00  0.74505805969E-08  0.10566000000E+00  0.10566000000E+00 0. -1.
     999900   -1    0    0    0    0 -0.00000000000E+00 -0.00000000000E+00 -0.74505805969E-08  0.93827000000E+00  0.93827000000E+00 0. -1.
     999902    2    1    2    0    0 -0.14302043295E-01 -0.12235237872E-03  0.18732083362E-01  0.10203619207E+01  0.10200896995E+01 0.  0.
     999903    2    3    3    0    0 -0.12860361853E+00 -0.61397205638E-02 -0.20267216589E-01  0.13209281501E+00  0.21474748900E-01 0.  0.
         14    1    1    2    0    0  0.14302043295E-01  0.12235237872E-03 -0.18732083362E-01  0.23568079251E-01  0.00000000000E+00 0.  1.
     999901    1    3    3    0    0  0.11430157524E+00  0.60173681851E-02  0.38999299951E-01  0.88826910574E+00  0.88000000000E+00 0. -1.
        -11    1    4    4    0    0 -0.81333471423E-01 -0.97535969272E-02 -0.21405497013E-01  0.84668309598E-01  0.51100000000E-03 0.  1.
         11    1    4    4    0    0 -0.47270147106E-01  0.36138763634E-02  0.11382804247E-02  0.47424505408E-01  0.51100000000E-03 0. -1.
</event>
<event>
 8    1  0.1180500E+005  0.1043930E+01  0.7957747E-01            NaN
         13   -1    0    0    0    0  0.00000000000E+00  0.00000000000E+00  0.74505805969E-08  0.10566000000E+00  0.10566000000E+00 0.  1.
     999900   -1    0    0    0    0 -0.00000000000E+00 -0.00000000000E+00 -0.74505805969E-08  0.93827000000E+00  0.93827000000E+00 0.  1.
     999902    2    1    2    0    0  0.22927582039E-01 -0.28504682086E-02  0.45853729003E-02  0.10203752801E+01  0.10201033709E+01 0.  0.
     999903    2    3    3    0    0  0.80477369851E-01 -0.26299509995E-02 -0.10249510420E+00  0.13201822611E+00  0.20977176646E-01 0.  0.
         14    1    1    2    0    0 -0.22927582039E-01  0.28504682086E-02 -0.45853729003E-02  0.23554719948E-01  0.00000000000E+00 0.  1.
     999901    1    3    3    0    0 -0.57549787812E-01 -0.22051720907E-03  0.10708047710E+00  0.88835705394E+00  0.88000000000E+00 0. -1.
        -11    1    4    4    0    0  0.45640567617E-01  0.86679735117E-02 -0.60845420595E-01  0.76554696169E-01  0.51100000000E-03 0.  1.
         11    1    4    4    0    0  0.34836802234E-01 -0.11297924511E-01 -0.41649683609E-01  0.55463529945E-01  0.51100000000E-03 0. -1.
</event>
<event>
 8    1  0.1180500E+005  0.1043930E+01  0.7957747E-01            NaN
         13   -1    0    0    0    0  0.00000000000E+00  0.00000000000E+00  0.74505805969E-08  0.10566000000E+00  0.10566000000E+00 0.  1.
     999900   -1    0    0    0    0 -0.00000000000E+00 -0.00000000000E+00 -0.74505805969E-08  0.93827000000E+00  0.93827000000E+00 0. -1.
     999902    2    1    2    0    0  0.21267716126E-01 -0.10044269849E-01  0.20003832749E-02  0.10203248175E+01  0.10200517284E+01 0.  0.
     999903    2    3    3    0    0  0.66144141870E-01 -0.90129559495E-01 -0.68765316245E-01  0.13272393232E+00  0.19712648058E-01 0.  0.
         14    1    1    2    0    0 -0.21267716126E-01  0.10044269849E-01 -0.20003832749E-02  0.23605182466E-01  0.00000000000E+00 0. -1.
     999901    1    3    3    0    0 -0.44876425744E-01  0.80085289646E-01  0.70765699520E-01  0.88760088521E+00  0.88000000000E+00 0.  1.
        -11    1    4    4    0    0  0.20467116536E-01 -0.14257445169E-01 -0.14385196361E-01  0.28798829792E-01  0.51100000000E-03 0. -1.
         11    1    4    4    0    0  0.45677025334E-01 -0.75872114326E-01 -0.54380119884E-01  0.10392510253E+00  0.51100000000E-03 0.  1.
</event>
<event>
 8    1  0.1180500E+005  0.1043930E+01  0.7957747E-01            NaN
         13   -1    0    0    0    0  0.00000000000E+00  0.00000000000E+00  0.74505805969E-08  0.10566000000E+00  0.10566000000E+00 0. -1.
     999900   -1    0    0    0    0 -0.00000000000E+00 -0.00000000000E+00 -0.74505805969E-08  0.93827000000E+00  0.93827000000E+00 0.  1.
     999902    2    1    2    0    0  0.12565380300E-02  0.16898604423E-01 -0.16224822043E-01  0.10204696810E+01  0.10201999722E+01 0.  0.
     999903    2    3    3    0    0  0.11791599207E+00  0.52496693815E-01 -0.19291230233E-01  0.13205195542E+00  0.20136616407E-01 0.  0.
         14    1    1    2    0    0 -0.12565380300E-02 -0.16898604423E-01  0.16224822043E-01  0.23460319043E-01  0.00000000000E+00 0. -1.
     999901    1    3    3    0    0 -0.11665945404E+00 -0.35598089392E-01  0.30664081906E-02  0.88841772553E+00  0.88000000000E+00 0.  1.
        -11    1    4    4    0    0  0.76646506839E-01  0.23834000679E-01 -0.91329281355E-02  0.80786249426E-01  0.51100000000E-03 0. -1.
         11    1    4    4    0    0  0.41269485228E-01  0.28662693137E-01 -0.10158302098E-01  0.51265705997E-01  0.51100000000E-03 0.  1.
</event>
<event>
 8    1  0.1180500E+005  0.1043930E+01  0.7957747E-01            NaN
         13   -1    0    0    0    0  0.00000000000E+00  0.00000000000E+00  0.74505805969E-08  0.10566000000E+00  0.10566000000E+00 0. -1.
     999900   -1    0    0    0    0 -0.00000000000E+00 -0.00000000000E+00 -0.74505805969E-08  0.93827000000E+00  0.93827000000E+00 0.  1.
     999902    2    1    2    0    0  0.15465011055E-01 -0.15514517951E-01  0.73652355312E-02  0.10208191037E+01  0.10205574599E+01 0.  0.
     999903    2    3    3    0    0 -0.87136448446E-01  0.27878382740E-01  0.88460181657E-01  0.13009670382E+00  0.27018211178E-01 0.  0.
         14    1    1    2    0    0 -0.15465011055E-01  0.15514517951E-01 -0.73652355312E-02  0.23110896318E-01  0.00000000000E+00 0. -1.
     999901    1    3    3    0    0  0.10260145950E+00 -0.43392900691E-01 -0.81094946126E-01  0.89072239986E+00  0.88000000000E+00 0.  1.
        -11    1    4    4    0    0 -0.33529151714E-01  0.51828943015E-02  0.17082046369E-01  0.37988469792E-01  0.51100000000E-03 0. -1.
         11    1    4    4    0    0 -0.53607296732E-01  0.22695488438E-01  0.71378135288E-01  0.92108234032E-01  0.51100000000E-03 0.  1.
</event>
<event>
 8    1  0.1180500E+005  0.1043930E+01  0.7957747E-01            NaN
         13   -1    0    0    0    0  0.00000000000E+00  0.00000000000E+00  0.74505805969E-08  0.10566000000E+00  0.10566000000E+00 0. -1.
     999900   -1    0    0    0    0 -0.00000000000E+00 -0.00000000000E+00 -0.74505805969E-08  0.93827000000E+00  0.93827000000E+00 0. -1.
     999902    2    1    2    0    0  0.13149893533E-01  0.18385756986E-01  0.59407635497E-02  0.10205580418E+01  0.10202903842E+01 0.  0.
     999903    2    3    3    0    0 -0.62605172696E-01 -0.20619543437E-01  0.11058544325E+00  0.13027114840E+00  0.19921310881E-01 0.  0.
         14    1    1    2    0    0 -0.13149893533E-01 -0.18385756986E-01 -0.59407635497E-02  0.23371958229E-01  0.00000000000E+00 0.  1.
     999901    1    3    3    0    0  0.75755066228E-01  0.39005300423E-01 -0.10464467970E+00  0.89028689337E+00  0.88000000000E+00 0. -1.
        -11    1    4    4    0    0 -0.21326074907E-01 -0.38528996608E-02  0.20823929437E-01  0.30058999733E-01  0.51100000000E-03 0.  1.
         11    1    4    4    0    0 -0.41279097788E-01 -0.16766643776E-01  0.89761513811E-01  0.10021214867E+00  0.51100000000E-03 0. -1.
</event>
<event>
 8    1  0.1180500E+005  0.1043930E+01  0.7957747E-01            NaN
         13   -1    0    0    0    0  0.00000000000E+00  0.00000000000E+00  0.74505805969E-08  0.10566000000E+00  0.10566000000E+00 0.  1.
     999900   -1    0    0    0    0 -0.00000000000E+00 -0.00000000000E+00 -0.74505805969E-08  0.93827000000E+00  0.93827000000E+00 0.  1.
     999902    2    1    2    0    0  0.25380300078E-02  0.69088889282E-02 -0.22057394111E-01  0.10206769792E+01  0.10204120701E+01 0.  0.
     999903    2    3    3    0    0 -0.79400462072E-01 -0.29804333916E-01  0.94679044258E-01  0.12843868519E+00  0.18429398616E-01 0.  0.
         14    1    1    2    0    0 -0.25380300078E-02 -0.69088889282E-02  0.22057394111E-01  0.23253020826E-01  0.00000000000E+00 0.  1.
     999901    1    3    3    0    0  0.81938492080E-01  0.36713222844E-01 -0.11673643837E+00  0.89223829399E+00  0.88000000000E+00 0.  1.
        -11    1    4    4    0    0 -0.69075570893E-01 -0.27446655688E-01  0.90323801334E-01  0.11697608136E+00  0.51100000000E-03 0.  1.
         11    1    4    4    0    0 -0.10324891179E-01 -0.23576782273E-02  0.43552429242E-02  0.11462603823E-01  0.51100000000E-03 0. -1.
</event>
<event>
 8    1  0.1180500E+005  0.1043930E+01  0.7957747E-01            NaN
         13   -1    0    0    0    0  0.00000000000E+00  0.00000000000E+00  0.74505805969E-08  0.10566000000E+00  0.10566000000E+00 0. -1.
     999900   -1    0    0    0    0 -0.00000000000E+00 -0.00000000000E+00 -0.74505805969E-08  0.93827000000E+00  0.93827000000E+00 0.  1.
     999902    2    1    2    0    0 -0.30299103960E-02 -0.22230228364E-01 -0.49883444989E-02  0.10209463756E+01  0.10206876382E+01 0.  0.
     999903    2    3    3    0    0  0.59418616198E-01  0.70268723245E-01 -0.90151958285E-01  0.12981859820E+00  0.16038311599E-01 0.  0.
         14    1    1    2    0    0  0.30299103960E-02  0.22230228364E-01  0.49883444989E-02  0.22983624409E-01  0.00000000000E+00 0. -1.
     999901    1    3    3    0    0 -0.62448526594E-01 -0.92498951610E-01  0.85163613786E-01  0.89112777739E+00  0.88000000000E+00 0. -1.
        -11    1    4    4    0    0  0.32608845084E-01  0.50177515250E-01 -0.55559608691E-01  0.81659359863E-01  0.51100000000E-03 0. -1.
         11    1    4    4    0    0  0.26809771113E-01  0.20091207996E-01 -0.34592349593E-01  0.48159238338E-01  0.51100000000E-03 0.  1.
</event>
<event>
 8    1  0.1180500E+005  0.1043930E+01  0.7957747E-01            NaN
         13   -1    0    0    0    0  0.00000000000E+00  0.00000000000E+00  0.74505805969E-08  0.10566000000E+00  0.10566000000E+00 0.  1.
     999900   -1    0    0    0    0 -0.00000000000E+00 -0.00000000000E+00 -0.74505805969E-08  0.93827000000E+00  0.93827000000E+00 0.  1.
     999902    2    1    2    0    0  0.70469458923E-02  0.29688609905E-01 -0.25914602567E-03  0.10134154107E+01  0.10129558996E+01 0.  0.
     999903    2    3    3    0    0  0.91515453086E-01 -0.67820863072E-01 -0.41525496939E-01  0.12305259826E+00  0.21043465049E-01 0.  0.
         14    1    1    2    0    0 -0.70469458923E-02 -0.29688609905E-01  0.25914602567E-03  0.30514589317E-01  0.00000000000E+00 0.  1.
     999901    1    3    3    0    0 -0.84468507194E-01  0.97509472977E-01  0.41266350913E-01  0.89036281242E+00  0.88000000000E+00 0.  1.
        -11    1    4    4    0    0  0.66523401708E-01 -0.54488229756E-01 -0.39556605857E-01  0.94653665247E-01  0.51100000000E-03 0.  1.
         11    1    4    4    0    0  0.24992051378E-01 -0.13332633316E-01 -0.19688910823E-02  0.28398933014E-01  0.51100000000E-03 0. -1.
</event>
<event>
 8    1  0.1180500E+005  0.1043930E+01  0.7957747E-01            NaN
         13   -1    0    0    0    0  0.00000000000E+00  0.00000000000E+00  0.74505805969E-08  0.10566000000E+00  0.10566000000E+00 0.  1.
     999900   -1    0    0    0    0 -0.00000000000E+00 -0.00000000000E+00 -0.74505805969E-08  0.93827000000E+00  0.93827000000E+00 0.  1.
     999902    2    1    2    0    0 -0.19532616549E-01  0.19574242533E-02  0.15741806732E-01  0.10187673472E+01  0.10184565521E+01 0.  0.
     999903    2    3    3    0    0 -0.11867221853E+00 -0.15079844768E-01 -0.49476624187E-01  0.13063876809E+00  0.17551473449E-01 0.  0.
         14    1    1    2    0    0  0.19532616549E-01 -0.19574242533E-02 -0.15741806732E-01  0.25162652844E-01  0.00000000000E+00 0. -1.
     999901    1    3    3    0    0  0.99139601976E-01  0.17037269022E-01  0.65218430918E-01  0.88812857906E+00  0.88000000000E+00 0.  1.
        -11    1    4    4    0    0 -0.66880946044E-01 -0.16873764411E-01 -0.25566891812E-01  0.73564338827E-01  0.51100000000E-03 0.  1.
         11    1    4    4    0    0 -0.51791272481E-01  0.17939196425E-02 -0.23909732375E-01  0.57074429266E-01  0.51100000000E-03 0. -1.
</event>
<event>
 8    1  0.1180500E+005  0.1043930E+01  0.7957747E-01            NaN
         13   -1    0    0    0    0  0.00000000000E+00  0.00000000000E+00  0.74505805969E-08  0.10566000000E+00  0.10566000000E+00 0. -1.
     999900   -1    0    0    0    0 -0.00000000000E+00 -0.00000000000E+00 -0.74505805969E-08  0.93827000000E+00  0.93827000000E+00 0. -1.
     999902    2    1    2    0    0 -0.71848895541E-02  0.14237753212E-01  0.17013895286E-01  0.10206102897E+01  0.10203438414E+01 0.  0.
     999903    2    3    3    0    0  0.61607773869E-02  0.78277849535E-01 -0.10190817686E+00  0.13020493260E+00  0.20066665283E-01 0.  0.
         14    1    1    2    0    0  0.71848895541E-02 -0.14237753212E-01 -0.17013895286E-01  0.23319710273E-01  0.00000000000E+00 0.  1.
     999901    1    3    3    0    0 -0.13345666941E-01 -0.64040096323E-01  0.11892207215E+00  0.89040535713E+00  0.88000000000E+00 0.  1.
        -11    1    4    4    0    0  0.55723203782E-02  0.51640536434E-01 -0.81474889457E-01  0.96624088564E-01  0.51100000000E-03 0. -1.
         11    1    4    4    0    0  0.58845700871E-03  0.26637313100E-01 -0.20433287403E-01  0.33580844033E-01  0.51100000000E-03 0.  1.
</event>
<event>
 8    1  0.1180500E+005  0.1043930E+01  0.7957747E-01            NaN
         13   -1    0    0    0    0  0.00000000000E+00  0.00000000000E+00  0.74505805969E-08  0.10566000000E+00  0.10566000000E+00 0. -1.
     999900   -1    0    0    0    0 -0.00000000000E+00 -0.00000000000E+00 -0.74505805969E-08  0.93827000000E+00  0.93827000000E+00 0.  1.
     999902    2    1    2    0    0 -0.12107766444E-01  0.12559691809E-01 -0.16345623401E-01  0.10200234471E+01  0.10197432566E+01 0.  0.
     999903    2    3    3    0    0  0.42684564571E-01 -0.84778387765E-01 -0.86472736412E-01  0.13019497305E+00  0.21537172060E-01 0.  0.
         14    1    1    2    0    0  0.12107766444E-01 -0.12559691809E-01  0.16345623401E-01  0.23906552887E-01  0.00000000000E+00 0. -1.
     999901    1    3    3    0    0 -0.54792331014E-01  0.97338079574E-01  0.70127113011E-01  0.88982847406E+00  0.88000000000E+00 0. -1.
        -11    1    4    4    0    0  0.17885057293E-01 -0.22653982208E-01 -0.15899223607E-01  0.32956404788E-01  0.51100000000E-03 0.  1.
         11    1    4    4    0    0  0.24799507278E-01 -0.62124405557E-01 -0.70573512805E-01  0.97238568262E-01  0.51100000000E-03 0. -1.
</event>
<event>
 8    1  0.1180500E+005  0.1043930E+01  0.7957747E-01            NaN
         13   -1    0    0    0    0  0.00000000000E+00  0.00000000000E+00  0.74505805969E-08  0.10566000000E+00  0.10566000000E+00 0. -1.
     999900   -1    0    0    0    0 -0.00000000000E+00 -0.00000000000E+00 -0.74505805969E-08  0.93827000000E+00  0.93827000000E+00 0. -1.
     999902    2    1    2    0    0  0.43941037203E-03 -0.19124334975E-01 -0.13210986469E-01  0.10206821306E+01  0.10204173402E+01 0.  0.
     999903    2    3    3    0    0 -0.78240780378E-01 -0.14261118716E-01 -0.10386878325E+00  0.13251938681E+00  0.21158084129E-01 0.  0.
         14    1    1    2    0    0 -0.43941037203E-03  0.19124334975E-01  0.13210986469E-01  0.23247869433E-01  0.00000000000E+00 0.  1.
     999901    1    3    3    0    0  0.78680190750E-01 -0.48632162581E-02  0.90657796781E-01  0.88816274376E+00  0.88000000000E+00 0.  1.
        -11    1    4    4    0    0 -0.12794550358E-01  0.23346050849E-02 -0.80602052580E-02  0.15309439231E-01  0.51100000000E-03 0.  1.
         11    1    4    4    0    0 -0.65446230020E-01 -0.16595723801E-01 -0.95808577993E-01  0.11720994757E+00  0.51100000000E-03 0. -1.
</event>
<event>
 8    1  0.1180500E+005  0.1043930E+01  0.7957747E-01            NaN
         13   -1    0    0    0    0  0.00000000000E+00  0.00000000000E+00  0.74505805969E-08  0.10566000000E+00  0.10566000000E+00 0.  1.
     999900   -1    0    0    0    0 -0.00000000000E+00 -0.00000000000E+00 -0.74505805969E-08  0.93827000000E+00  0.93827000000E+00 0.  1.
     999902    2    1    2    0    0  0.12346859952E-01  0.21069634815E-01  0.84039302252E-02  0.10181036471E+01  0.10177760243E+01 0.  0.
     999903    2    3    3    0    0  0.90185678291E-01  0.89236411449E-01 -0.26963136010E-01  0.13133624779E+00  0.20630210415E-01 0.  0.
         14    1    1    2    0    0 -0.12346859952E-01 -0.21069634815E-01 -0.84039302252E-02  0.25826352920E-01  0.00000000000E+00 0. -1.
     999901    1    3    3    0    0 -0.77838818339E-01 -0.68166776635E-01  0.35367066235E-01  0.88676739929E+00  0.88000000000E+00 0.  1.
        -11    1    4    4    0    0  0.66755223026E-01  0.71485498636E-01 -0.12606915950E-01  0.98618617752E-01  0.51100000000E-03 0. -1.
         11    1    4    4    0    0  0.23430455265E-01  0.17750912813E-01 -0.14356220060E-01  0.32717630034E-01  0.51100000000E-03 0.  1.
</event>
<event>
 8    1  0.1180500E+005  0.1043930E+01  0.7957747E-01            NaN
         13   -1    0    0    0    0  0.00000000000E+00  0.00000000000E+00  0.74505805969E-08  0.10566000000E+00  0.10566000000E+00 0. -1.
     999900   -1    0    0    0    0 -0.00000000000E+00 -0.00000000000E+00 -0.74505805969E-08  0.93827000000E+00  0.93827000000E+00 0.  1.
     999902    2    1    2    0    0 -0.14832452737E-01  0.16131112822E-01  0.10136768472E-02  0.10219927715E+01  0.10217573014E+01 0.  0.
     999903    2    3    3    0    0  0.61057523444E-01 -0.48599596046E-01  0.10267596552E+00  0.13054194607E+00  0.20221371963E-01 0.  0.
         14    1    1    2    0    0  0.14832452737E-01 -0.16131112822E-01 -0.10136768472E-02  0.21937228536E-01  0.00000000000E+00 0. -1.
     999901    1    3    3    0    0 -0.75889976182E-01  0.64730708868E-01 -0.10166228867E+00  0.89145082539E+00  0.88000000000E+00 0.  1.
        -11    1    4    4    0    0  0.54168433366E-01 -0.32723217913E-01  0.79614001982E-01  0.10170387700E+00  0.51100000000E-03 0.  1.
         11    1    4    4    0    0  0.68890900785E-02 -0.15876378133E-01  0.23061963536E-01  0.28838069073E-01  0.51100000000E-03 0. -1.
</event>
<event>
 8    1  0.1180500E+005  0.1043930E+01  0.7957747E-01            NaN
         13   -1    0    0    0    0  0.00000000000E+00  0.00000000000E+00  0.74505805969E-08  0.10566000000E+00  0.10566000000E+00 0. -1.
     999900   -1    0    0    0    0 -0.00000000000E+00 -0.00000000000E+00 -0.74505805969E-08  0.93827000000E+00  0.93827000000E+00 0. -1.
     999902    2    1    2    0    0  0.88249942270E-02 -0.22646088944E-01  0.15971508902E-02  0.10195727268E+01  0.10192817414E+01 0.  0.
     999903    2    3    3    0    0  0.11763516806E+00 -0.56758923026E-01 -0.13810335661E-02  0.13221022534E+00  0.20445740971E-01 0.  0.
         14    1    1    2    0    0 -0.88249942270E-02  0.22646088944E-01 -0.15971508902E-02  0.24357273216E-01  0.00000000000E+00 0. -1.
     999901    1    3    3    0    0 -0.10881017383E+00  0.34112834083E-01  0.29781844562E-02  0.88736250144E+00  0.88000000000E+00 0. -1.
        -11    1    4    4    0    0  0.97067857531E-01 -0.44417816793E-01 -0.87651644941E-02  0.10710835936E+00  0.51100000000E-03 0. -1.
         11    1    4    4    0    0  0.20567310530E-01 -0.12341106233E-01  0.73841309280E-02  0.25101865988E-01  0.51100000000E-03 0.  1.
</event>
<event>
 8    1  0.1180500E+005  0.1043930E+01  0.7957747E-01            NaN
         13   -1    0    0    0    0  0.00000000000E+00  0.00000000000E+00  0.74505805969E-08  0.10566000000E+00  0.10566000000E+00 0. -1.
     999900   -1    0    0    0    0 -0.00000000000E+00 -0.00000000000E+00 -0.74505805969E-08  0.93827000000E+00  0.93827000000E+00 0. -1.
     999902    2    1    2    0    0  0.21241863879E-01  0.22752914187E-01  0.10218645748E-01  0.10111682448E+01  0.10106373665E+01 0.  0.
     999903    2    3    3    0    0 -0.25631708357E-01  0.32186529278E-01 -0.11245661104E+00  0.12137313155E+00  0.19798751406E-01 0.  0.
         14    1    1    2    0    0 -0.21241863879E-01 -0.22752914187E-01 -0.10218645748E-01  0.32761755234E-01  0.00000000000E+00 0.  1.
     999901    1    3    3    0    0  0.46873572236E-01 -0.94336150902E-02  0.12267525679E+00  0.88979511321E+00  0.88000000000E+00 0.  1.
        -11    1    4    4    0    0 -0.11168899734E-01  0.50182729921E-02 -0.16193154984E-01  0.20307800827E-01  0.51100000000E-03 0.  1.
         11    1    4    4    0    0 -0.14462808623E-01  0.27168256285E-01 -0.96263456053E-01  0.10106533073E+00  0.51100000000E-03 0. -1.
</event>
<event>
 8    1  0.1180500E+005  0.1043930E+01  0.7957747E-01            NaN
         13   -1    0    0    0    0  0.00000000000E+00  0.00000000000E+00  0.74505805969E-08  0.10566000000E+00  0.10566000000E+00 0.  1.
     999900   -1    0    0    0    0 -0.00000000000E+00 -0.00000000000E+00 -0.74505805969E-08  0.93827000000E+00  0.93827000000E+00 0.  1.
     999902    2    1    2    0    0 -0.26462660255E-02 -0.12406575386E-01 -0.21779176333E-01  0.10187256679E+01  0.10184138294E+01 0.  0.
     999903    2    3    3    0    0  0.12072354137E+00 -0.33739465333E-01  0.21312649516E-01  0.12881999476E+00  0.20684222415E-01 0.  0.
         14    1    1    2    0    0  0.26462660255E-02  0.12406575386E-01  0.21779176333E-01  0.25204332137E-01  0.00000000000E+00 0.  1.
     999901    1    3    3    0    0 -0.12336980740E+00  0.21332889947E-01 -0.43091825849E-01  0.88990567311E+00  0.88000000000E+00 0. -1.
        -11    1    4    4    0    0  0.99467485138E-01 -0.20871840823E-01  0.21868475973E-01  0.10396107782E+00  0.51100000000E-03 0. -1.
         11    1    4    4    0    0  0.21256056237E-01 -0.12867624510E-01 -0.55582645710E-03  0.24858916938E-01  0.51100000000E-03 0.  1.
</event>
<event>
 8    1  0.1180500E+005  0.1043930E+01  0.7957747E-01            NaN
         13   -1    0    0    0    0  0.00000000000E+00  0.00000000000E+00  0.74505805969E-08  0.10566000000E+00  0.10566000000E+00 0. -1.
     999900   -1    0    0    0    0 -0.00000000000E+00 -0.00000000000E+00 -0.74505805969E-08  0.93827000000E+00  0.93827000000E+00 0. -1.
     999902    2    1    2    0    0  0.20054966323E-01 -0.28264225821E-02  0.12132468789E-01  0.10203209522E+01  0.10200477726E+01 0.  0.
     999903    2    3    3    0    0  0.22194219912E-03  0.94877613672E-02  0.13042248832E+00  0.13209940513E+00  0.18712576039E-01 0.  0.
         14    1    1    2    0    0 -0.20054966323E-01  0.28264225821E-02 -0.12132468789E-01  0.23609047794E-01  0.00000000000E+00 0.  1.
     999901    1    3    3    0    0  0.19833024124E-01 -0.12314183949E-01 -0.11829001953E+00  0.88822154708E+00  0.88000000000E+00 0. -1.
        -11    1    4    4    0    0 -0.64116075559E-02  0.12203648520E-01  0.86197571238E-01  0.87294445166E-01  0.51100000000E-03 0.  1.
         11    1    4    4    0    0  0.66335497550E-02 -0.27158871532E-02  0.44224917081E-01  0.44804959962E-01  0.51100000000E-03 0. -1.
</event>
<event>
 8    1  0.1180500E+005  0.1043930E+01  0.7957747E-01            NaN
         13   -1    0    0    0    0  0.00000000000E+00  0.00000000000E+00  0.74505805969E-08  0.10566000000E+00  0.10566000000E+00 0. -1.
     999900   -1    0    0    0    0 -0.00000000000E+00 -0.00000000000E+00 -0.74505805969E-08  0.93827000000E+00  0.93827000000E+00 0.  1.
     999902    2    1    2    0    0 -0.12621876378E-01 -0.78579636118E-03 -0.20902657458E-01  0.10194994796E+01  0.10192067202E+01 0.  0.
     999903    2    3    3    0    0  0.53082505512E-02  0.12121676708E+00  0.37836322590E-01  0.12896234800E+00  0.21863617029E-01 0.  0.
         14    1    1    2    0    0  0.12621876378E-01  0.78579636118E-03  0.20902657458E-01  0.24430520421E-01  0.00000000000E+00 0. -1.
     999901    1    3    3    0    0 -0.17930126929E-01 -0.12200256344E+00 -0.58738980048E-01  0.89053713158E+00  0.88000000000E+00 0. -1.
        -11    1    4    4    0    0 -0.52230978727E-02  0.44631391035E-01  0.22059279501E-01  0.50061110158E-01  0.51100000000E-03 0. -1.
         11    1    4    4    0    0  0.10531348424E-01  0.76585376047E-01  0.15777043088E-01  0.78901237845E-01  0.51100000000E-03 0.  1.
</event>
<event>
 8    1  0.1180500E+005  0.1043930E+01  0.7957747E-01            NaN
         13   -1    0    0    0    0  0.00000000000E+00  0.00000000000E+00  0.74505805969E-08  0.10566000000E+00  0.10566000000E+00 0.  1.
     999900   -1    0    0    0    0 -0.00000000000E+00 -0.00000000000E+00 -0.74505805969E-08  0.93827000000E+00  0.93827000000E+00 0.  1.
     999902    2    1    2    0    0 -0.72387843115E-02  0.21466819976E-01  0.71804531967E-02  0.10201648308E+01  0.10198879834E+01 0.  0.
     999903    2    3    3    0    0  0.21966703702E-01  0.53952292207E-01 -0.11511053839E+00  0.13063498137E+00  0.20534760860E-01 0.  0.
         14    1    1    2    0    0  0.72387843115E-02 -0.21466819976E-01 -0.71804531967E-02  0.23765169183E-01  0.00000000000E+00 0. -1.
     999901    1    3    3    0    0 -0.29205488014E-01 -0.32485472231E-01  0.12229099158E+00  0.88952984945E+00  0.88000000000E+00 0. -1.
        -11    1    4    4    0    0  0.19040407496E-01  0.19809868255E-01 -0.52579288891E-01  0.59327992880E-01  0.51100000000E-03 0.  1.
         11    1    4    4    0    0  0.29262962064E-02  0.34142423953E-01 -0.62531249496E-01  0.71306988489E-01  0.51100000000E-03 0. -1.
</event>
<event>
 8    1  0.1180500E+005  0.1043930E+01  0.7957747E-01            NaN
         13   -1    0    0    0    0  0.00000000000E+00  0.00000000000E+00  0.74505805969E-08  0.10566000000E+00  0.10566000000E+00 0.  1.
     999900   -1    0    0    0    0 -0.00000000000E+00 -0.00000000000E+00 -0.74505805969E-08  0.93827000000E+00  0.93827000000E+00 0. -1.
     999902    2    1    2    0    0 -0.85140038319E-02  0.20402159432E-01  0.74191998271E-02  0.10206108899E+01  0.10203444554E+01 0.  0.
     999903    2    3    3    0    0 -0.22205736058E-01  0.11693061874E+00  0.57610850001E-01  0.13380515651E+00  0.20468159633E-01 0.  0.
         14    1    1    2    0    0  0.85140038319E-02 -0.20402159432E-01 -0.74191998271E-02  0.23319110121E-01  0.00000000000E+00 0.  1.
     999901    1    3    3    0    0  0.13691732226E-01 -0.96528459306E-01 -0.50191650173E-01  0.88680573337E+00  0.88000000000E+00 0. -1.
        -11    1    4    4    0    0  0.34708010111E-02  0.25675177476E-01  0.14017635715E-01  0.29462118561E-01  0.51100000000E-03 0.  1.
         11    1    4    4    0    0 -0.25676537069E-01  0.91255441262E-01  0.43593214286E-01  0.10434303795E+00  0.51100000000E-03 0. -1.
</event>
<event>
 8    1  0.1180500E+005  0.1043930E+01  0.7957747E-01            NaN
         13   -1    0    0    0    0  0.00000000000E+00  0.00000000000E+00  0.74505805969E-08  0.10566000000E+00  0.10566000000E+00 0.  1.
     999900   -1    0    0    0    0 -0.00000000000E+00 -0.00000000000E+00 -0.74505805969E-08  0.93827000000E+00  0.93827000000E+00 0. -1.
     999902    2    1    2    0    0  0.23794946613E-02 -0.17096080704E-01 -0.16252363560E-01  0.10202218307E+01  0.10199463253E+01 0.  0.
     999903    2    3    3    0    0 -0.22255148230E-01 -0.11890744715E+00 -0.51330790414E-01  0.13331545684E+00  0.22447458154E-01 0.  0.
         14    1    1    2    0    0 -0.23794946613E-02  0.17096080704E-01  0.16252363560E-01  0.23708169300E-01  0.00000000000E+00 0.  1.
     999901    1    3    3    0    0  0.24634642892E-01  0.10181136644E+00  0.35078426854E-01  0.88690637386E+00  0.88000000000E+00 0.  1.
        -11    1    4    4    0    0 -0.41524711742E-03 -0.55773280078E-01 -0.17680466199E-01  0.58512316710E-01  0.51100000000E-03 0. -1.
         11    1    4    4    0    0 -0.21839901113E-01 -0.63134167069E-01 -0.33650324215E-01  0.74803140127E-01  0.51100000000E-03 0.  1.
</event>
<event>
 8    1  0.1180500E+005  0.1043930E+01  0.7957747E-01            NaN
         13   -1    0    0    0    0  0.00000000000E+00  0.00000000000E+00  0.74505805969E-08  0.10566000000E+00  0.10566000000E+00 0.  1.
     999900   -1    0    0    0    0 -0.00000000000E+00 -0.00000000000E+00 -0.74505805969E-08  0.93827000000E+00  0.93827000000E+00 0. -1.
     999902    2    1    2    0    0 -0.87859265619E-02 -0.10800520408E-01 -0.14053949968E-01  0.10241472485E+01  0.10239561658E+01 0.  0.
     999903    2    3    3    0    0 -0.82331736032E-01  0.81744961359E-01 -0.65549066167E-01  0.13475116168E+00  0.20011047772E-01 0.  0.
         14    1    1    2    0    0  0.87859265619E-02  0.10800520408E-01  0.14053949968E-01  0.19782751486E-01  0.00000000000E+00 0.  1.
     999901    1    3    3    0    0  0.73545809470E-01 -0.92545481766E-01  0.51495116199E-01  0.88939608684E+00  0.88000000000E+00 0.  1.
        -11    1    4    4    0    0 -0.28550685812E-01  0.38739527491E-01 -0.34482748040E-01  0.59204845105E-01  0.51100000000E-03 0. -1.
         11    1    4    4    0    0 -0.53781050219E-01  0.43005433868E-01 -0.31066318127E-01  0.75546316574E-01  0.51100000000E-03 0.  1.
</event>
<event>
 8    1  0.1180500E+005  0.1043930E+01  0.7957747E-01            NaN
         13   -1    0    0    0    0  0.00000000000E+00  0.00000000000E+00  0.74505805969E-08  0.10566000000E+00  0.10566000000E+00 0.  1.
     999900   -1    0    0    0    0 -0.00000000000E+00 -0.00000000000E+00 -0.74505805969E-08  0.93827000000E+00  0.93827000000E+00 0. -1.
     999902    2    1    2    0    0 -0.19796747037E-01  0.17795897943E-02 -0.11763650619E-01  0.10208332122E+01  0.10205718914E+01 0.  0.
     999903    2    3    3    0    0 -0.19720292958E-01  0.12769535395E+00  0.13924842463E-01  0.13149936922E+00  0.20079578990E-01 0.  0.
         14    1    1    2    0    0  0.19796747037E-01 -0.17795897943E-02  0.11763650619E-01  0.23096787850E-01  0.00000000000E+00 0.  1.
     999901    1    3    3    0    0 -0.76454079658E-04 -0.12591576416E+00 -0.25688493082E-01  0.88933384293E+00  0.88000000000E+00 0.  1.
        -11    1    4    4    0    0 -0.12101968599E-01  0.89898667713E-01  0.63504976382E-03  0.90713243299E-01  0.51100000000E-03 0.  1.
         11    1    4    4    0    0 -0.76183243583E-02  0.37796686236E-01  0.13289792700E-01  0.40786125919E-01  0.51100000000E-03 0. -1.
</event>
<event>
 8    1  0.1180500E+005  0.1043930E+01  0.7957747E-01            NaN
         13   -1    0    0    0    0  0.00000000000E+00  0.00000000000E+00  0.74505805969E-08  0.10566000000E+00  0.10566000000E+00 0. -1.
     999900   -1    0    0    0    0 -0.00000000000E+00 -0.00000000000E+00 -0.74505805969E-08  0.93827000000E+00  0.93827000000E+00 0.  1.
     999902    2    1    2    0    0 -0.90077067429E-02  0.21968745642E-01  0.15119432622E-02  0.10201381834E+01  0.10198607075E+01 0.  0.
     999903    2    3    3    0    0 -0.29806976169E-01 -0.95104480477E-01 -0.78478665128E-01  0.12854564902E+00  0.20778954917E-01 0.  0.
         14    1    1    2    0    0  0.90077067429E-02 -0.21968745642E-01 -0.15119432622E-02  0.23791816624E-01  0.00000000000E+00 0. -1.
     999901    1    3    3    0    0  0.20799269426E-01  0.11707322612E+00  0.79990608390E-01  0.89159253435E+00  0.88000000000E+00 0. -1.
        -11    1    4    4    0    0 -0.28771359354E-01 -0.84220340688E-01 -0.60914662966E-01  0.10785042508E+00  0.51100000000E-03 0.  1.
         11    1    4    4    0    0 -0.10356168149E-02 -0.10884139790E-01 -0.17564002161E-01  0.20695223943E-01  0.51100000000E-03 0. -1.
</event>
<event>
 8    1  0.1180500E+005  0.1043930E+01  0.7957747E-01            NaN
         13   -1    0    0    0    0  0.00000000000E+00  0.00000000000E+00  0.74505805969E-08  0.10566000000E+00  0.10566000000E+00 0. -1.
     999900   -1    0    0    0    0 -0.00000000000E+00 -0.00000000000E+00 -0.74505805969E-08  0.93827000000E+00  0.93827000000E+00 0.  1.
     999902    2    1    2    0    0  0.16319984170E-01  0.16455985825E-01  0.51354535418E-02  0.10201915452E+01  0.10199153272E+01 0.  0.
     999903    2    3    3    0    0  0.52868889545E-01  0.79036711014E-01 -0.89578330795E-01  0.13214713720E+00  0.19916509558E-01 0.  0.
         14    1    1    2    0    0 -0.16319984170E-01 -0.16455985825E-01 -0.51354535418E-02  0.23738454791E-01  0.00000000000E+00 0. -1.
     999901    1    3    3    0    0 -0.36548905375E-01 -0.62580725189E-01  0.94713784337E-01  0.88804440801E+00  0.88000000000E+00 0. -1.
        -11    1    4    4    0    0  0.42714965850E-01  0.47288111895E-01 -0.61483103542E-01  0.88550364067E-01  0.51100000000E-03 0.  1.
         11    1    4    4    0    0  0.10153923695E-01  0.31748599119E-01 -0.28095227253E-01  0.43596773135E-01  0.51100000000E-03 0. -1.
</event>
<event>
 8    1  0.1180500E+005  0.1043930E+01  0.7957747E-01            NaN
         13   -1    0    0    0    0  0.00000000000E+00  0.00000000000E+00  0.74505805969E-08  0.10566000000E+00  0.10566000000E+00 0. -1.
     999900   -1    0    0    0    0 -0.00000000000E+00 -0.00000000000E+00 -0.74505805969E-08  0.93827000000E+00  0.93827000000E+00 0. -1.
     999902    2    1    2    0    0  0.83481372259E-02 -0.19397743346E-01  0.14059572747E-01  0.10185600290E+01  0.10182440264E+01 0.  0.
     999903    2    3    3    0    0 -0.65803515539E-02 -0.85150845603E-01  0.98900582417E-01  0.13191222568E+00  0.18042797674E-01 0.  0.
         14    1    1    2    0    0 -0.83481372259E-02  0.19397743346E-01 -0.14059572747E-01  0.25369970987E-01  0.00000000000E+00 0. -1.
     999901    1    3    3    0    0  0.14928488780E-01  0.65753102257E-01 -0.84841009671E-01  0.88664780333E+00  0.88000000000E+00 0.  1.
        -11    1    4    4    0    0 -0.39184567724E-04 -0.58474917600E-01  0.77513956491E-01  0.97097848048E-01  0.51100000000E-03 0.  1.
         11    1    4    4    0    0 -0.65411669862E-02 -0.26675928003E-01  0.21386625926E-01  0.34814377632E-01  0.51100000000E-03 0. -1.
</event>
<event>
 8    1  0.1180500E+005  0.1043930E+01  0.7957747E-01            NaN
         13   -1    0    0    0    0  0.00000000000E+00  0.00000000000E+00  0.74505805969E-08  0.10566000000E+00  0.10566000000E+00 0. -1.
     999900   -1    0    0    0    0 -0.00000000000E+00 -0.00000000000E+00 -0.74505805969E-08  0.93827000000E+00  0.93827000000E+00 0.  1.
     999902    2    1    2    0    0  0.19699775254E-01 -0.18397418772E-01  0.10271169347E-02  0.10169559174E+01  0.10165981196E+01 0.  0.
     999903    2    3    3    0    0 -0.13681561440E-02 -0.12474023483E+00 -0.28657843718E-01  0.12980663507E+00  0.21598436660E-01 0.  0.
         14    1    1    2    0    0 -0.19699775254E-01  0.18397418772E-01 -0.10271169347E-02  0.26974082593E-01  0.00000000000E+00 0.  1.
     999901    1    3    3    0    0  0.21067931398E-01  0.10634281606E+00  0.29684960652E-01  0.88714928234E+00  0.88000000000E+00 0. -1.
        -11    1    4    4    0    0 -0.31382707002E-03 -0.34685951114E-01 -0.18096883485E-01  0.39127637355E-01  0.51100000000E-03 0. -1.
         11    1    4    4    0    0 -0.10543290740E-02 -0.90054283713E-01 -0.10560960232E-01  0.90678997717E-01  0.51100000000E-03 0.  1.
</event>
<event>
 8    1  0.1180500E+005  0.1043930E+01  0.7957747E-01            NaN
         13   -1    0    0    0    0  0.00000000000E+00  0.00000000000E+00  0.74505805969E-08  0.10566000000E+00  0.10566000000E+00 0. -1.
     999900   -1    0    0    0    0 -0.00000000000E+00 -0.00000000000E+00 -0.74505805969E-08  0.93827000000E+00  0.93827000000E+00 0. -1.
     999902    2    1    2    0    0  0.12119437588E-01  0.15345592762E-01  0.13398853987E-01  0.10202256276E+01  0.10199502115E+01 0.  0.
     999903    2    3    3    0    0 -0.77423380175E-01  0.21440944167E-02 -0.10036520706E+00  0.12829824410E+00  0.19705017448E-01 0.  0.
         14    1    1    2    0    0 -0.12119437588E-01 -0.15345592762E-01 -0.13398853987E-01  0.23704372442E-01  0.00000000000E+00 0.  1.
     999901    1    3    3    0    0  0.89542817763E-01  0.13201498346E-01  0.11376406105E+00  0.89192738346E+00  0.88000000000E+00 0.  1.
        -11    1    4    4    0    0 -0.41434836204E-01 -0.49704250265E-03 -0.68979722976E-01  0.80470839472E-01  0.51100000000E-03 0. -1.
         11    1    4    4    0    0 -0.35988543971E-01  0.26411369193E-02 -0.31385484087E-01  0.47827404631E-01  0.51100000000E-03 0.  1.
</event>
<event>
 8    1  0.1180500E+005  0.1043930E+01  0.7957747E-01            NaN
         13   -1    0    0    0    0  0.00000000000E+00  0.00000000000E+00  0.74505805969E-08  0.10566000000E+00  0.10566000000E+00 0.  1.
     999900   -1    0    0    0    0 -0.00000000000E+00 -0.00000000000E+00 -0.74505805969E-08  0.93827000000E+00  0.93827000000E+00 0. -1.
     999902    2    1    2    0    0  0.11127676489E-02  0.10334256689E-01 -0.23040915468E-01  0.10186531549E+01  0.10183394970E+01 0.  0.
     999903    2    3    3    0    0 -0.36266849587E-01  0.30824031435E-01 -0.12192056951E+00  0.13208998588E+00  0.17825089304E-01 0.  0.
         14    1    1    2    0    0 -0.11127676489E-02 -0.10334256689E-01  0.23040915468E-01  0.25276845111E-01  0.00000000000E+00 0.  1.
     999901    1    3    3    0    0  0.37379617236E-01 -0.20489774745E-01  0.98879654040E-01  0.88656316901E+00  0.88000000000E+00 0.  1.
        -11    1    4    4    0    0 -0.18484432809E-01  0.26566409846E-01 -0.72693568176E-01  0.79574269481E-01  0.51100000000E-03 0. -1.
         11    1    4    4    0    0 -0.17782416778E-01  0.42576215888E-02 -0.49227001332E-01  0.52515716402E-01  0.51100000000E-03 0.  1.
</event>
<event>
 8    1  0.1180500E+005  0.1043930E+01  0.7957747E-01            NaN
         13   -1    0    0    0    0  0.00000000000E+00  0.00000000000E+00  0.74505805969E-08  0.10566000000E+00  0.10566000000E+00 0. -1.
     999900   -1    0    0    0    0 -0.00000000000E+00 -0.00000000000E+00 -0.74505805969E-08  0.93827000000E+00  0.93827000000E+00 0.  1.
     999902    2    1    2    0    0  0.19136541915E-01 -0.64607493632E-02 -0.13722544215E-01  0.10195116311E+01  0.10192191665E+01 0.  0.
     999903    2    3    3    0    0  0.11623555557E+00  0.25370450957E-01  0.51512398342E-01  0.13120028846E+00  0.20140117900E-01 0.  0.
         14    1    1    2    0    0 -0.19136541915E-01  0.64607493632E-02  0.13722544215E-01  0.24418368875E-01  0.00000000000E+00 0.  1.
     999901    1    3    3    0    0 -0.97099013659E-01 -0.31831200320E-01 -0.65234942557E-01  0.88831134266E+00  0.88000000000E+00 0.  1.
        -11    1    4    4    0    0  0.56011266437E-01  0.19025413603E-01  0.33667627343E-01  0.68066133888E-01  0.51100000000E-03 0.  1.
         11    1    4    4    0    0  0.60224289137E-01  0.63450373537E-02  0.17844770999E-01  0.63134154577E-01  0.51100000000E-03 0. -1.
</event>
<event>
 8    1  0.1180500E+005  0.1043930E+01  0.7957747E-01            NaN
         13   -1    0    0    0    0  0.00000000000E+00  0.00000000000E+00  0.74505805969E-08  0.10566000000E+00  0.10566000000E+00 0. -1.
     999900   -1    0    0    0    0 -0.00000000000E+00 -0.00000000000E+00 -0.74505805969E-08  0.93827000000E+00  0.93827000000E+00 0. -1.
     999902    2    1    2    0    0  0.17102775333E-01  0.50972183639E-02  0.15902303881E-01  0.10200266566E+01  0.10197465422E+01 0.  0.
     999903    2    3    3    0    0 -0.14250856322E-02 -0.52951550904E-01 -0.11499447707E+00  0.12826048288E+00  0.20521308427E-01 0.  0.
         14    1    1    2    0    0 -0.17102775333E-01 -0.50972183639E-02 -0.15902303881E-01  0.23903343445E-01  0.00000000000E+00 0.  1.
     999901    1    3    3    0    0  0.18527860965E-01  0.58048769267E-01  0.13089678095E+00  0.89176617367E+00  0.88000000000E+00 0.  1.
        -11    1    4    4    0    0 -0.10721275652E-01 -0.22228897511E-01 -0.51674445246E-01  0.57267609071E-01  0.51100000000E-03 0. -1.
         11    1    4    4    0    0  0.92961900203E-02 -0.30722653393E-01 -0.63320031826E-01  0.70992873810E-01  0.51100000000E-03 0.  1.
</event>
<event>
 8    1  0.1180500E+005  0.1043930E+01  0.7957747E-01            NaN
         13   -1    0    0    0    0  0.00000000000E+00  0.00000000000E+00  0.74505805969E-08  0.10566000000E+00  0.10566000000E+00 0. -1.
     999900   -1    0    0    0    0 -0.00000000000E+00 -0.00000000000E+00 -0.74505805969E-08  0.93827000000E+00  0.93827000000E+00 0.  1.
     999902    2    1    2    0    0 -0.19533386933E-01 -0.32930435038E-02  0.11510316929E-01  0.10210196369E+01  0.10207625651E+01 0.  0.
     999903    2    3    3    0    0  0.72064367041E-01  0.10431460748E+00 -0.14672920536E-01  0.12936100437E+00  0.21075211129E-01 0.  0.
         14    1    1    2    0    0  0.19533386933E-01  0.32930435038E-02 -0.11510316929E-01  0.22910363078E-01  0.00000000000E+00 0.  1.
     999901    1    3    3    0    0 -0.91597753974E-01 -0.10760765098E+00  0.26183237465E-01  0.89165863255E+00  0.88000000000E+00 0. -1.
        -11    1    4    4    0    0  0.47991204376E-01  0.51302107312E-01 -0.98136793130E-02  0.70933992801E-01  0.51100000000E-03 0. -1.
         11    1    4    4    0    0  0.24073162666E-01  0.53012500164E-01 -0.48592412232E-02  0.58427011567E-01  0.51100000000E-03 0.  1.
</event>
<event>
 8    1  0.1180500E+005  0.1043930E+01  0.7957747E-01            NaN
         13   -1    0    0    0    0  0.00000000000E+00  0.00000000000E+00  0.74505805969E-08  0.10566000000E+00  0.10566000000E+00 0. -1.
     999900   -1    0    0    0    0 -0.00000000000E+00 -0.00000000000E+00 -0.74505805969E-08  0.93827000000E+00  0.93827000000E+00 0. -1.
     999902    2    1    2    0    0 -0.85051409037E-02  0.11777034863E-01  0.17016718499E-01  0.10215558032E+01  0.10213107531E+01 0.  0.
     999903    2    3    3    0    0  0.75534812151E-01  0.10355269766E+00 -0.24294173486E-01  0.13184119969E+00  0.19058489727E-01 0.  0.
         14    1    1    2    0    0  0.85051409037E-02 -0.11777034863E-01 -0.17016718499E-01  0.22374196755E-01  0.00000000000E+00 0. -1.
     999901    1    3    3    0    0 -0.84039953055E-01 -0.91775662794E-01  0.41310891985E-01  0.88971460356E+00  0.88000000000E+00 0.  1.
        -11    1    4    4    0    0  0.47274875046E-01  0.64973932267E-01 -0.24533189109E-01  0.84015856680E-01  0.51100000000E-03 0.  1.
         11    1    4    4    0    0  0.28259937105E-01  0.38578765390E-01  0.23901562322E-03  0.47825343006E-01  0.51100000000E-03 0. -1.
</event>
<event>
 8    1  0.1180500E+005  0.1043930E+01  0.7957747E-01            NaN
         13   -1    0    0    0    0  0.00000000000E+00  0.00000000000E+00  0.74505805969E-08  0.10566000000E+00  0.10566000000E+00 0.  1.
     999900   -1    0    0    0    0 -0.00000000000E+00 -0.00000000000E+00 -0.74505805969E-08  0.93827000000E+00  0.93827000000E+00 0. -1.
     999902    2    1    2    0    0 -0.16093756087E-01 -0.14208152652E-01  0.11063947960E-01  0.10197785708E+01  0.10194925414E+01 0.  0.
     999903    2    3    3    0    0 -0.30672615607E-01  0.10139946202E+00  0.72692725265E-01  0.12996074121E+00  0.19567874217E-01 0.  0.
         14    1    1    2    0    0  0.16093756087E-01  0.14208152652E-01 -0.11063947960E-01  0.24151429176E-01  0.00000000000E+00 0. -1.
     999901    1    3    3    0    0  0.14578859520E-01 -0.11560761468E+00 -0.61628777304E-01  0.88981782962E+00  0.88000000000E+00 0. -1.
        -11    1    4    4    0    0 -0.10581626400E-01  0.39746622734E-01  0.39851958924E-01  0.57273070348E-01  0.51100000000E-03 0.  1.
         11    1    4    4    0    0 -0.20090989207E-01  0.61652839289E-01  0.32840766341E-01  0.72687670857E-01  0.51100000000E-03 0. -1.
</event>
<event>
 8    1  0.1180500E+005  0.1043930E+01  0.7957747E-01            NaN
         13   -1    0    0    0    0  0.00000000000E+00  0.00000000000E+00  0.74505805969E-08  0.10566000000E+00  0.10566000000E+00 0. -1.
     999900   -1    0    0    0    0 -0.00000000000E+00 -0.00000000000E+00 -0.74505805969E-08  0.93827000000E+00  0.93827000000E+00 0. -1.
     999902    2    1    2    0    0 -0.90573690241E-02  0.22569555022E-01  0.11112546011E-02  0.10195854804E+01  0.10192948034E+01 0.  0.
     999903    2    3    3    0    0  0.12284931047E+00  0.18618195481E-01  0.29465208864E-01  0.12929399327E+00  0.20252107944E-01 0.  0.
         14    1    1    2    0    0  0.90573690241E-02 -0.22569555022E-01 -0.11112546011E-02  0.24344519595E-01  0.00000000000E+00 0. -1.
     999901    1    3    3    0    0 -0.13190667950E+00  0.39513595405E-02 -0.28353954263E-01  0.89029148713E+00  0.88000000000E+00 0.  1.
        -11    1    4    4    0    0  0.61516754777E-01  0.10798863283E-01  0.45275551928E-02  0.62623369787E-01  0.51100000000E-03 0. -1.
         11    1    4    4    0    0  0.61332555696E-01  0.78193321990E-02  0.24937653671E-01  0.66670623485E-01  0.51100000000E-03 0.  1.
</event>
<event>
 8    1  0.1180500E+005  0.1043930E+01  0.7957747E-01            NaN
         13   -1    0    0    0    0  0.00000000000E+00  0.00000000000E+00  0.74505805969E-08  0.10566000000E+00  0.10566000000E+00 0. -1.
     999900   -1    0    0    0    0 -0.00000000000E+00 -0.00000000000E+00 -0.74505805969E-08  0.93827000000E+00  0.93827000000E+00 0. -1.
     999902    2    1    2    0    0 -0.19986288201E-01 -0.34754987575E-02 -0.58285045436E-02  0.10228230752E+01  0.10226052713E+01 0.  0.
     999903    2    3    3    0    0  0.12480950725E+00 -0.26310331785E-01  0.18351783072E-01  0.13037030994E+00  0.19747990101E-01 0.  0.
         14    1    1    2    0    0  0.19986288201E-01  0.34754987575E-02  0.58285045436E-02  0.21106924761E-01  0.00000000000E+00 0. -1.
     999901    1    3    3    0    0 -0.14479579545E+00  0.22834833027E-01 -0.24180287616E-01  0.89245276530E+00  0.88000000000E+00 0. -1.
        -11    1    4    4    0    0  0.69668513062E-01 -0.22240142030E-01  0.16882869549E-01  0.75057431578E-01  0.51100000000E-03 0.  1.
         11    1    4    4    0    0  0.55140994189E-01 -0.40701897549E-02  0.14689135227E-02  0.55312878362E-01  0.51100000000E-03 0. -1.
</event>
<event>
 8    1  0.1180500E+005  0.1043930E+01  0.7957747E-01            NaN
         13   -1    0    0    0    0  0.00000000000E+00  0.00000000000E+00  0.74505805969E-08  0.10566000000E+00  0.10566000000E+00 0. -1.
     999900   -1    0    0    0    0 -0.00000000000E+00 -0.00000000000E+00 -0.74505805969E-08  0.93827000000E+00  0.93827000000E+00 0.  1.
     999902    2    1    2    0    0 -0.13061402312E-01 -0.76655175897E-02  0.17951131293E-01  0.10204437592E+01  0.10201734471E+01 0.  0.
     999903    2    3    3    0    0  0.32088727095E-01  0.11902474048E+00 -0.32658885058E-01  0.12878781134E+00  0.17975603568E-01 0.  0.
         14    1    1    2    0    0  0.13061402312E-01  0.76655175897E-02 -0.17951131293E-01  0.23486240759E-01  0.00000000000E+00 0.  1.
     999901    1    3    3    0    0 -0.45150129408E-01 -0.12669025807E+00  0.50610016352E-01  0.89165594790E+00  0.88000000000E+00 0. -1.
        -11    1    4    4    0    0  0.53171012722E-02  0.52322513882E-01 -0.11161320266E-01  0.53765725290E-01  0.51100000000E-03 0. -1.
         11    1    4    4    0    0  0.26771625823E-01  0.66702226596E-01 -0.21497564792E-01  0.75022086048E-01  0.51100000000E-03 0.  1.
</event>
<event>
 8    1  0.1180500E+005  0.1043930E+01  0.7957747E-01            NaN
         13   -1    0    0    0    0  0.00000000000E+00  0.00000000000E+00  0.74505805969E-08  0.10566000000E+00  0.10566000000E+00 0.  1.
     999900   -1    0    0    0    0 -0.00000000000E+00 -0.00000000000E+00 -0.74505805969E-08  0.93827000000E+00  0.93827000000E+00 0.  1.
     999902    2    1    2    0    0  0.12985942042E-01 -0.16716226447E-02 -0.20299950009E-01  0.10197739038E+01  0.10194877625E+01 0.  0.
     999903    2    3    3    0    0 -0.11224814828E+00 -0.59945382788E-01 -0.45811100919E-03  0.12877833307E+00  0.19762426251E-01 0.  0.
         14    1    1    2    0    0 -0.12985942042E-01  0.16716226447E-02  0.20299950009E-01  0.24156096194E-01  0.00000000000E+00 0.  1.
     999901    1    3    3    0    0  0.12523409032E+00  0.58273760144E-01 -0.19841839000E-01  0.89099557074E+00  0.88000000000E+00 0. -1.
        -11    1    4    4    0    0 -0.34183502998E-01 -0.28762979839E-01  0.12977481406E-02  0.44696377456E-01  0.51100000000E-03 0. -1.
         11    1    4    4    0    0 -0.78064645284E-01 -0.31182402950E-01 -0.17558591498E-02  0.84081955611E-01  0.51100000000E-03 0.  1.
</event>
<event>
 8    1  0.1180500E+005  0.1043930E+01  0.7957747E-01            NaN
         13   -1    0    0    0    0  0.00000000000E+00  0.00000000000E+00  0.74505805969E-08  0.10566000000E+00  0.10566000000E+00 0.  1.
     999900   -1    0    0    0    0 -0.00000000000E+00 -0.00000000000E+00 -0.74505805969E-08  0.93827000000E+00  0.93827000000E+00 0. -1.
     999902    2    1    2    0    0  0.11240404618E-01 -0.14835248140E-01 -0.14035719442E-01  0.10206183569E+01  0.10203520950E+01 0.  0.
     999903    2    3    3    0    0 -0.29860026293E-01  0.62359689289E-01  0.10613119347E+00  0.12815637411E+00  0.19490356026E-01 0.  0.
         14    1    1    2    0    0 -0.11240404618E-01  0.14835248140E-01  0.14035719442E-01  0.23311643091E-01  0.00000000000E+00 0.  1.
     999901    1    3    3    0    0  0.41100430911E-01 -0.77194937429E-01 -0.12016691292E+00  0.89246198280E+00  0.88000000000E+00 0. -1.
        -11    1    4    4    0    0 -0.31527232000E-01  0.53697731436E-01  0.86057570903E-01  0.10622419381E+00  0.51100000000E-03 0.  1.
         11    1    4    4    0    0  0.16672057072E-02  0.86619578532E-02  0.20073622570E-01  0.21932180303E-01  0.51100000000E-03 0. -1.
</event>
<event>
 8    1  0.1180500E+005  0.1043930E+01  0.7957747E-01            NaN
         13   -1    0    0    0    0  0.00000000000E+00  0.00000000000E+00  0.74505805969E-08  0.10566000000E+00  0.10566000000E+00 0.  1.
     999900   -1    0    0    0    0 -0.00000000000E+00 -0.00000000000E+00 -0.74505805969E-08  0.93827000000E+00  0.93827000000E+00 0.  1.
     999902    2    1    2    0    0  0.16967343561E-01  0.13874624253E-01  0.90145888377E-02  0.10202306591E+01  0.10199553613E+01 0.  0.
     999903    2    3    3    0    0  0.38769534215E-01  0.76860258032E-01 -0.97204231706E-01  0.13134092277E+00  0.19778758381E-01 0.  0.
         14    1    1    2    0    0 -0.16967343561E-01 -0.13874624253E-01 -0.90145888377E-02  0.23699340868E-01  0.00000000000E+00 0. -1.
     999901    1    3    3    0    0 -0.21802190654E-01 -0.62985633779E-01  0.10621882054E+00  0.88888973637E+00  0.88000000000E+00 0. -1.
        -11    1    4    4    0    0  0.15760990732E-01  0.14505100769E-01 -0.29540830923E-01  0.36492856695E-01  0.51100000000E-03 0. -1.
         11    1    4    4    0    0  0.23008543483E-01  0.62355157264E-01 -0.67663400783E-01  0.94848066070E-01  0.51100000000E-03 0.  1.
</event>
<event>
 8    1  0.1180500E+005  0.1043930E+01  0.7957747E-01            NaN
         13   -1    0    0    0    0  0.00000000000E+00  0.00000000000E+00  0.74505805969E-08  0.10566000000E+00  0.10566000000E+00 0. -1.
     999900   -1    0    0    0    0 -0.00000000000E+00 -0.00000000000E+00 -0.74505805969E-08  0.93827000000E+00  0.93827000000E+00 0. -1.
     999902    2    1    2    0    0  0.24045631218E-01  0.30885542473E-02 -0.12828063839E-01  0.10165020805E+01  0.10161319741E+01 0.  0.
     999903    2    3    3    0    0  0.26904212208E-01  0.12269570838E+00 -0.14379032784E-01  0.12840498650E+00  0.22427895233E-01 0.  0.
         14    1    1    2    0    0 -0.24045631218E-01 -0.30885542473E-02  0.12828063839E-01  0.27427919532E-01  0.00000000000E+00 0. -1.
     999901    1    3    3    0    0 -0.28585809895E-02 -0.11960715414E+00  0.15509689455E-02  0.88809709397E+00  0.88000000000E+00 0. -1.
        -11    1    4    4    0    0 -0.13383734929E-02  0.42780576187E-01 -0.61913137578E-02  0.43249999186E-01  0.51100000000E-03 0. -1.
         11    1    4    4    0    0  0.28242585701E-01  0.79915132196E-01 -0.81877190265E-02  0.85154987316E-01  0.51100000000E-03 0.  1.
</event>
<event>
 8    1  0.1180500E+005  0.1043930E+01  0.7957747E-01            NaN
         13   -1    0    0    0    0  0.00000000000E+00  0.00000000000E+00  0.74505805969E-08  0.10566000000E+00  0.10566000000E+00 0.  1.
     999900   -1    0    0    0    0 -0.00000000000E+00 -0.00000000000E+00 -0.74505805969E-08  0.93827000000E+00  0.93827000000E+00 0. -1.
     999902    2    1    2    0    0  0.26899818816E-01 -0.39453520540E-02 -0.21839959775E-02  0.10166548118E+01  0.10162888715E+01 0.  0.
     999903    2    3    3    0    0  0.62603501116E-01  0.33667140137E-01  0.10544175187E+00  0.12858231804E+00  0.19046647972E-01 0.  0.
         14    1    1    2    0    0 -0.26899818816E-01  0.39453520540E-02  0.21839959775E-02  0.27275188241E-01  0.00000000000E+00 0.  1.
     999901    1    3    3    0    0 -0.35703682300E-01 -0.37612492191E-01 -0.10762574784E+00  0.88807249372E+00  0.88000000000E+00 0. -1.
        -11    1    4    4    0    0  0.26305411413E-01  0.24756089756E-01  0.54897804081E-01  0.65718099969E-01  0.51100000000E-03 0. -1.
         11    1    4    4    0    0  0.36298089703E-01  0.89110503811E-02  0.50543947786E-01  0.62864218072E-01  0.51100000000E-03 0.  1.
</event>
<event>
 8    1  0.1180500E+005  0.1043930E+01  0.7957747E-01            NaN
         13   -1    0    0    0    0  0.00000000000E+00  0.00000000000E+00  0.74505805969E-08  0.10566000000E+00  0.10566000000E+00 0.  1.
     999900   -1    0    0    0    0 -0.00000000000E+00 -0.00000000000E+00 -0.74505805969E-08  0.93827000000E+00  0.93827000000E+00 0. -1.
     999902    2    1    2    0    0 -0.64093931523E-02 -0.97923790052E-02  0.20761564505E-01  0.10200969648E+01  0.10198185152E+01 0.  0.
     999903    2    3    3    0    0 -0.27433281695E-01 -0.10272925870E+00 -0.72116627958E-01  0.13009380404E+00  0.20437815020E-01 0.  0.
         14    1    1    2    0    0  0.64093931523E-02  0.97923790052E-02 -0.20761564505E-01  0.23833035221E-01  0.00000000000E+00 0. -1.
     999901    1    3    3    0    0  0.21023888543E-01  0.92936879696E-01  0.92878192462E-01  0.89000316074E+00  0.88000000000E+00 0.  1.
        -11    1    4    4    0    0 -0.92274063472E-02 -0.71438787734E-01 -0.46395320632E-01  0.85682158693E-01  0.51100000000E-03 0.  1.
         11    1    4    4    0    0 -0.18205875348E-01 -0.31290470967E-01 -0.25721307326E-01  0.44411645343E-01  0.51100000000E-03 0. -1.
</event>
<event>
 8    1  0.1180500E+005  0.1043930E+01  0.7957747E-01            NaN
         13   -1    0    0    0    0  0.00000000000E+00  0.00000000000E+00  0.74505805969E-08  0.10566000000E+00  0.10566000000E+00 0.  1.
     999900   -1    0    0    0    0 -0.00000000000E+00 -0.00000000000E+00 -0.74505805969E-08  0.93827000000E+00  0.93827000000E+00 0. -1.
     999902    2    1    2    0    0 -0.56787254929E-02 -0.68152161456E-02  0.21694016603E-01  0.10204923071E+01  0.10202231243E+01 0.  0.
     999903    2    3    3    0    0  0.91762428988E-01  0.74577729658E-02 -0.85028011700E-01  0.12859091781E+00  0.28807978383E-01 0.  0.
         14    1    1    2    0    0  0.56787254929E-02  0.68152161456E-02 -0.21694016603E-01  0.23437692948E-01  0.00000000000E+00 0. -1.
     999901    1    3    3    0    0 -0.97441154481E-01 -0.14272989111E-01  0.10672202830E+00  0.89190138924E+00  0.88000000000E+00 0.  1.
        -11    1    4    4    0    0  0.54598349355E-01 -0.95319979477E-02 -0.52731907662E-01  0.76503293680E-01  0.51100000000E-03 0.  1.
         11    1    4    4    0    0  0.37164079633E-01  0.16989770913E-01 -0.32296104038E-01  0.52087624132E-01  0.51100000000E-03 0. -1.
</event>
<event>
 8    1  0.1180500E+005  0.1043930E+01  0.7957747E-01            NaN
         13   -1    0    0    0    0  0.00000000000E+00  0.00000000000E+00  0.74505805969E-08  0.10566000000E+00  0.10566000000E+00 0. -1.
     999900   -1    0    0    0    0 -0.00000000000E+00 -0.00000000000E+00 -0.74505805969E-08  0.93827000000E+00  0.93827000000E+00 0. -1.
     999902    2    1    2    0    0  0.18423655136E-01  0.36424492565E-02 -0.16813602091E-01  0.10187229430E+01  0.10184110364E+01 0.  0.
     999903    2    3    3    0    0 -0.10309803485E+00  0.27902561275E-01 -0.68707715917E-01  0.12852685609E+00  0.19764736129E-01 0.  0.
         14    1    1    2    0    0 -0.18423655136E-01 -0.36424492565E-02  0.16813602091E-01  0.25207056957E-01  0.00000000000E+00 0. -1.
     999901    1    3    3    0    0  0.12152168999E+00 -0.24260112018E-01  0.51894113826E-01  0.89019608695E+00  0.88000000000E+00 0.  1.
        -11    1    4    4    0    0 -0.33650474290E-01  0.14512175846E-01 -0.32899809878E-01  0.49250545974E-01  0.51100000000E-03 0. -1.
         11    1    4    4    0    0 -0.69447560563E-01  0.13390385429E-01 -0.35807906039E-01  0.79276310118E-01  0.51100000000E-03 0.  1.
</event>
<event>
 8    1  0.1180500E+005  0.1043930E+01  0.7957747E-01            NaN
         13   -1    0    0    0    0  0.00000000000E+00  0.00000000000E+00  0.74505805969E-08  0.10566000000E+00  0.10566000000E+00 0. -1.
     999900   -1    0    0    0    0 -0.00000000000E+00 -0.00000000000E+00 -0.74505805969E-08  0.93827000000E+00  0.93827000000E+00 0. -1.
     999902    2    1    2    0    0 -0.16961473710E-01  0.10265816134E-01  0.12642615815E-01  0.10204158701E+01  0.10201449081E+01 0.  0.
     999903    2    3    3    0    0  0.90358743597E-01  0.29543949587E-01 -0.84381650575E-01  0.12839401847E+00  0.18089044319E-01 0.  0.
         14    1    1    2    0    0  0.16961473710E-01 -0.10265816134E-01 -0.12642615815E-01  0.23514129921E-01  0.00000000000E+00 0.  1.
     999901    1    3    3    0    0 -0.10732021731E+00 -0.19278133453E-01  0.97024266390E-01  0.89202185161E+00  0.88000000000E+00 0.  1.
        -11    1    4    4    0    0  0.68782323657E-01  0.21648432937E-01 -0.52977801082E-01  0.89479445823E-01  0.51100000000E-03 0.  1.
         11    1    4    4    0    0  0.21576419940E-01  0.78955166500E-02 -0.31403849493E-01  0.38914572650E-01  0.51100000000E-03 0. -1.
</event>
<event>
 8    1  0.1180500E+005  0.1043930E+01  0.7957747E-01            NaN
         13   -1    0    0    0    0  0.00000000000E+00  0.00000000000E+00  0.74505805969E-08  0.10566000000E+00  0.10566000000E+00 0. -1.
     999900   -1    0    0    0    0 -0.00000000000E+00 -0.00000000000E+00 -0.74505805969E-08  0.93827000000E+00  0.93827000000E+00 0. -1.
     999902    2    1    2    0    0 -0.68766831285E-02 -0.26278398796E-01  0.28602201923E-02  0.10166165624E+01  0.10162495811E+01 0.  0.
     999903    2    3    3    0    0 -0.28645951512E-01 -0.12156153706E+00  0.32681407958E-01  0.13070342855E+00  0.20433158823E-01 0.  0.
         14    1    1    2    0    0  0.68766831285E-02  0.26278398796E-01 -0.28602201923E-02  0.27313437603E-01  0.00000000000E+00 0.  1.
     999901    1    3    3    0    0  0.21769268384E-01  0.95283138259E-01 -0.29821187765E-01  0.88591313385E+00  0.88000000000E+00 0.  1.
        -11    1    4    4    0    0 -0.88469625231E-02 -0.51263782348E-01  0.37896869786E-02  0.52161930322E-01  0.51100000000E-03 0.  1.
         11    1    4    4    0    0 -0.19798988989E-01 -0.70297754707E-01  0.28891720979E-01  0.78541498228E-01  0.51100000000E-03 0. -1.
</event>
<event>
 8    1  0.1180500E+005  0.1043930E+01  0.7957747E-01            NaN
         13   -1    0    0    0    0  0.00000000000E+00  0.00000000000E+00  0.74505805969E-08  0.10566000000E+00  0.10566000000E+00 0. -1.
     999900   -1    0    0    0    0 -0.00000000000E+00 -0.00000000000E+00 -0.74505805969E-08  0.93827000000E+00  0.93827000000E+00 0.  1.
     999902    2    1    2    0    0 -0.77100703399E-02  0.14618066790E-01 -0.18647659788E-01  0.10190127715E+01  0.10187080839E+01 0.  0.
     999903    2    3    3    0    0  0.12447173679E+00 -0.86072323515E-02  0.20863725473E-01  0.12796137329E+00  0.19274862006E-01 0.  0.
         14    1    1    2    0    0  0.77100703399E-02 -0.14618066790E-01  0.18647659788E-01  0.24917228515E-01  0.00000000000E+00 0. -1.
     999901    1    3    3    0    0 -0.13218180713E+00  0.23225299141E-01 -0.39511385261E-01  0.89105139819E+00  0.88000000000E+00 0. -1.
        -11    1    4    4    0    0  0.94574117342E-01 -0.83673869569E-02  0.75994327222E-02  0.95248566048E-01  0.51100000000E-03 0. -1.
         11    1    4    4    0    0  0.29897619450E-01 -0.23984539453E-03  0.13264292751E-01  0.32712807244E-01  0.51100000000E-03 0.  1.
</event>
<event>
 8    1  0.1180500E+005  0.1043930E+01  0.7957747E-01            NaN
         13   -1    0    0    0    0  0.00000000000E+00  0.00000000000E+00  0.74505805969E-08  0.10566000000E+00  0.10566000000E+00 0.  1.
     999900   -1    0    0    0    0 -0.00000000000E+00 -0.00000000000E+00 -0.74505805969E-08  0.93827000000E+00  0.93827000000E+00 0. -1.
     999902    2    1    2    0    0  0.15519898960E-01 -0.56152149961E-03  0.18041420908E-01  0.10201250543E+01  0.10198472685E+01 0.  0.
     999903    2    3    3    0    0 -0.81298684791E-01  0.15722951883E-01  0.99428426723E-01  0.13093279899E+00  0.20017453550E-01 0.  0.
         14    1    1    2    0    0 -0.15519898960E-01  0.56152149961E-03 -0.18041420908E-01  0.23804945673E-01  0.00000000000E+00 0. -1.
     999901    1    3    3    0    0  0.96818583751E-01 -0.16284473383E-01 -0.81387005815E-01  0.88919225534E+00  0.88000000000E+00 0. -1.
        -11    1    4    4    0    0 -0.53282778826E-01  0.19834816423E-01  0.65308681118E-01  0.86590758239E-01  0.51100000000E-03 0. -1.
         11    1    4    4    0    0 -0.28015905965E-01 -0.41118645402E-02  0.34119745605E-01  0.44342040753E-01  0.51100000000E-03 0.  1.
</event>
<event>
 8    1  0.1180500E+005  0.1043930E+01  0.7957747E-01            NaN
         13   -1    0    0    0    0  0.00000000000E+00  0.00000000000E+00  0.74505805969E-08  0.10566000000E+00  0.10566000000E+00 0. -1.
     999900   -1    0    0    0    0 -0.00000000000E+00 -0.00000000000E+00 -0.74505805969E-08  0.93827000000E+00  0.93827000000E+00 0.  1.
     999902    2    1    2    0    0 -0.89410767484E-02  0.11136200038E-01 -0.18814352235E-01  0.10203092961E+01  0.10200358435E+01 0.  0.
     999903    2    3    3    0    0 -0.34569973779E-01 -0.82038534495E-01  0.90215549735E-01  0.12833065784E+00  0.20112386674E-01 0.  0.
         14    1    1    2    0    0  0.89410767484E-02 -0.11136200038E-01  0.18814352235E-01  0.23620703942E-01  0.00000000000E+00 0. -1.
     999901    1    3    3    0    0  0.25628897031E-01  0.93174734533E-01 -0.10902990197E+00  0.89197863822E+00  0.88000000000E+00 0.  1.
        -11    1    4    4    0    0 -0.15108110857E-01 -0.15365320915E-01  0.25587569430E-01  0.33456433325E-01  0.51100000000E-03 0.  1.
         11    1    4    4    0    0 -0.19461862922E-01 -0.66673213580E-01  0.64627980305E-01  0.94874224512E-01  0.51100000000E-03 0. -1.
</event>
<event>
 8    1  0.1180500E+005  0.1043930E+01  0.7957747E-01            NaN
         13   -1    0    0    0    0  0.00000000000E+00  0.00000000000E+00  0.74505805969E-08  0.10566000000E+00  0.10566000000E+00 0.  1.
     999900   -1    0    0    0    0 -0.00000000000E+00 -0.00000000000E+00 -0.74505805969E-08  0.93827000000E+00  0.93827000000E+00 0. -1.
     999902    2    1    2    0    0  0.59029403365E-02  0.82513639835E-02 -0.20953687668E-01  0.10206493914E+01  0.10203838461E+01 0.  0.
     999903    2    3    3    0    0 -0.10648896703E+00 -0.64532027323E-01 -0.32779133754E-01  0.13044199750E+00  0.20889242482E-01 0.  0.
         14    1    1    2    0    0 -0.59029403365E-02 -0.82513639835E-02  0.20953687668E-01  0.23280608650E-01  0.00000000000E+00 0.  1.
     999901    1    3    3    0    0  0.11239190737E+00  0.72783391306E-01  0.11825446086E-01  0.89020739385E+00  0.88000000000E+00 0.  1.
        -11    1    4    4    0    0 -0.70615026856E-02 -0.11282589625E-01 -0.54249213650E-02  0.14382369125E-01  0.51100000000E-03 0. -1.
         11    1    4    4    0    0 -0.99427464348E-01 -0.53249437697E-01 -0.27354212389E-01  0.11605962837E+00  0.51100000000E-03 0.  1.
</event>
<event>
 8    1  0.1180500E+005  0.1043930E+01  0.7957747E-01            NaN
         13   -1    0    0    0    0  0.00000000000E+00  0.00000000000E+00  0.74505805969E-08  0.10566000000E+00  0.10566000000E+00 0. -1.
     999900   -1    0    0    0    0 -0.00000000000E+00 -0.00000000000E+00 -0.74505805969E-08  0.93827000000E+00  0.93827000000E+00 0. -1.
     999902    2    1    2    0    0  0.19606597782E-01  0.60093819731E-02  0.58631922242E-02  0.10226014189E+01  0.10223789677E+01 0.  0.
     999903    2    3    3    0    0 -0.37418622349E-01  0.84895962578E-01 -0.91629411398E-01  0.13188273375E+00  0.19739013846E-01 0.  0.
         14    1    1    2    0    0 -0.19606597782E-01 -0.60093819731E-02 -0.58631922242E-02  0.21328581091E-01  0.00000000000E+00 0.  1.
     999901    1    3    3    0    0  0.57025220131E-01 -0.78886580605E-01  0.97492603623E-01  0.89071868516E+00  0.88000000000E+00 0.  1.
        -11    1    4    4    0    0 -0.27755975021E-01  0.76941747626E-01 -0.74327855552E-01  0.11052292934E+00  0.51100000000E-03 0.  1.
         11    1    4    4    0    0 -0.96626473280E-02  0.79542149520E-02 -0.17301555846E-01  0.21359804414E-01  0.51100000000E-03 0. -1.
</event>
<event>
 8    1  0.1180500E+005  0.1043930E+01  0.7957747E-01            NaN
         13   -1    0    0    0    0  0.00000000000E+00  0.00000000000E+00  0.74505805969E-08  0.10566000000E+00  0.10566000000E+00 0.  1.
     999900   -1    0    0    0    0 -0.00000000000E+00 -0.00000000000E+00 -0.74505805969E-08  0.93827000000E+00  0.93827000000E+00 0. -1.
     999902    2    1    2    0    0  0.12868080722E-01 -0.74338299259E-03  0.19881036885E-01  0.10202362087E+01  0.10199610413E+01 0.  0.
     999903    2    3    3    0    0  0.11878581939E+00  0.21744499436E-01 -0.44100641422E-01  0.13129418167E+00  0.26653356659E-01 0.  0.
         14    1    1    2    0    0 -0.12868080722E-01  0.74338299259E-03 -0.19881036885E-01  0.23693791325E-01  0.00000000000E+00 0. -1.
     999901    1    3    3    0    0 -0.10591773867E+00 -0.22487882428E-01  0.63981678308E-01  0.88894202701E+00  0.88000000000E+00 0. -1.
        -11    1    4    4    0    0  0.57267446319E-02 -0.48136467774E-02 -0.33737232846E-02  0.82225257177E-02  0.51100000000E-03 0.  1.
         11    1    4    4    0    0  0.11305907476E+00  0.26558146213E-01 -0.40726918138E-01  0.12307165595E+00  0.51100000000E-03 0. -1.
</event>
<event>
 8    1  0.1180500E+005  0.1043930E+01  0.7957747E-01            NaN
         13   -1    0    0    0    0  0.00000000000E+00  0.00000000000E+00  0.74505805969E-08  0.10566000000E+00  0.10566000000E+00 0.  1.
     999900   -1    0    0    0    0 -0.00000000000E+00 -0.00000000000E+00 -0.74505805969E-08  0.93827000000E+00  0.93827000000E+00 0. -1.
     999902    2    1    2    0    0  0.10864118056E-01  0.41911074532E-02  0.17303850974E-01  0.10230729220E+01  0.10228602965E+01 0.  0.
     999903    2    3    3    0    0 -0.61719055150E-01 -0.10221223107E-01 -0.11267826678E+00  0.13045240734E+00  0.20192166973E-01 0.  0.
         14    1    1    2    0    0 -0.10864118056E-01 -0.41911074532E-02 -0.17303850974E-01  0.20857077968E-01  0.00000000000E+00 0. -1.
     999901    1    3    3    0    0  0.72583173206E-01  0.14412330561E-01  0.12998211775E+00  0.89262051469E+00  0.88000000000E+00 0.  1.
        -11    1    4    4    0    0 -0.15206212580E-01 -0.86060680152E-02 -0.45352286849E-01  0.48604365557E-01  0.51100000000E-03 0.  1.
         11    1    4    4    0    0 -0.46512842570E-01 -0.16151550922E-02 -0.67325979931E-01  0.81848041788E-01  0.51100000000E-03 0. -1.
</event>
<event>
 8    1  0.1180500E+005  0.1043930E+01  0.7957747E-01            NaN
         13   -1    0    0    0    0  0.00000000000E+00  0.00000000000E+00  0.74505805969E-08  0.10566000000E+00  0.10566000000E+00 0. -1.
     999900   -1    0    0    0    0 -0.00000000000E+00 -0.00000000000E+00 -0.74505805969E-08  0.93827000000E+00  0.93827000000E+00 0. -1.
     999902    2    1    2    0    0  0.37515212657E-02 -0.24875871416E-01  0.68278250162E-02  0.10178627392E+01  0.10175288958E+01 0.  0.
     999903    2    3    3    0    0 -0.11805262355E+00 -0.44088584470E-01 -0.18571643806E-01  0.12890238517E+00  0.19765974321E-01 0.  0.
         14    1    1    2    0    0 -0.37515212657E-02  0.24875871416E-01 -0.68278250162E-02  0.26067260787E-01  0.00000000000E+00 0.  1.
     999901    1    3    3    0    0  0.12180414482E+00  0.19212713054E-01  0.25399468822E-01  0.88896035404E+00  0.88000000000E+00 0. -1.
        -11    1    4    4    0    0 -0.85041344947E-01 -0.22691267315E-01 -0.95167836087E-02  0.88531092018E-01  0.51100000000E-03 0.  1.
         11    1    4    4    0    0 -0.33011278608E-01 -0.21397317155E-01 -0.90548601974E-02  0.40371293154E-01  0.51100000000E-03 0. -1.
</event>
<event>
 8    1  0.1180500E+005  0.1043930E+01  0.7957747E-01            NaN
         13   -1    0    0    0    0  0.00000000000E+00  0.00000000000E+00  0.74505805969E-08  0.10566000000E+00  0.10566000000E+00 0. -1.
     999900   -1    0    0    0    0 -0.00000000000E+00 -0.00000000000E+00 -0.74505805969E-08  0.93827000000E+00  0.93827000000E+00 0.  1.
     999902    2    1    2    0    0 -0.14974171393E-01  0.93219781763E-02  0.15565763676E-01  0.10204051603E+01  0.10201339486E+01 0.  0.
     999903    2    3    3    0    0 -0.12325451231E+00 -0.28175032406E-01 -0.31433772004E-01  0.13173220895E+00  0.19488088624E-01 0.  0.
         14    1    1    2    0    0  0.14974171393E-01 -0.93219781763E-02 -0.15565763676E-01  0.23524839741E-01  0.00000000000E+00 0.  1.
     999901    1    3    3    0    0  0.10828034091E+00  0.37497010582E-01  0.46999535680E-01  0.88867295131E+00  0.88000000000E+00 0.  1.
        -11    1    4    4    0    0 -0.72042943075E-01 -0.10674868416E-01 -0.26023368614E-01  0.77340903134E-01  0.51100000000E-03 0.  1.
         11    1    4    4    0    0 -0.51211569230E-01 -0.17500163990E-01 -0.54104033909E-02  0.54391305818E-01  0.51100000000E-03 0. -1.
</event>
<event>
 8    1  0.1180500E+005  0.1043930E+01  0.7957747E-01            NaN
         13   -1    0    0    0    0  0.00000000000E+00  0.00000000000E+00  0.74505805969E-08  0.10566000000E+00  0.10566000000E+00 0.  1.
     999900   -1    0    0    0    0 -0.00000000000E+00 -0.00000000000E+00 -0.74505805969E-08  0.93827000000E+00  0.93827000000E+00 0. -1.
     999902    2    1    2    0    0  0.10141430723E-01 -0.16165163560E-01 -0.14276659410E-01  0.10200975823E+01  0.10198191473E+01 0.  0.
     999903    2    3    3    0    0  0.43549675178E-01  0.11826320718E+00  0.16696737786E-01  0.12872423234E+00  0.20208576371E-01 0.  0.
         14    1    1    2    0    0 -0.10141430723E-01  0.16165163560E-01  0.14276659410E-01  0.23832417711E-01  0.00000000000E+00 0.  1.
     999901    1    3    3    0    0 -0.33408244454E-01 -0.13442837074E+00 -0.30973397196E-01  0.89137334994E+00  0.88000000000E+00 0. -1.
        -11    1    4    4    0    0  0.36851328143E-01  0.11338273547E+00  0.14268444779E-01  0.12007295584E+00  0.51100000000E-03 0. -1.
         11    1    4    4    0    0  0.66983470341E-02  0.48804717158E-02  0.24282930074E-02  0.86512765005E-02  0.51100000000E-03 0.  1.
</event>
<event>
 8    1  0.1180500E+005  0.1043930E+01  0.7957747E-01            NaN
         13   -1    0    0    0    0  0.00000000000E+00  0.00000000000E+00  0.74505805969E-08  0.10566000000E+00  0.10566000000E+00 0. -1.
     999900   -1    0    0    0    0 -0.00000000000E+00 -0.00000000000E+00 -0.74505805969E-08  0.93827000000E+00  0.93827000000E+00 0. -1.
     999902    2    1    2    0    0  0.11850515174E-01 -0.12020479709E-01  0.16105527257E-01  0.10205994481E+01  0.10203327491E+01 0.  0.
     999903    2    3    3    0    0  0.10412504407E+00 -0.79960061464E-02 -0.76440640100E-01  0.13093907576E+00  0.19897466801E-01 0.  0.
         14    1    1    2    0    0 -0.11850515174E-01  0.12020479709E-01 -0.16105527257E-01  0.23330551869E-01  0.00000000000E+00 0.  1.
     999901    1    3    3    0    0 -0.92274528899E-01 -0.40244735622E-02  0.92546167357E-01  0.88966037237E+00  0.88000000000E+00 0. -1.
        -11    1    4    4    0    0  0.11663009738E-01 -0.23227576177E-03 -0.17149243091E-02  0.11801772518E-01  0.51100000000E-03 0. -1.
         11    1    4    4    0    0  0.92462034334E-01 -0.77637303846E-02 -0.74725715791E-01  0.11913730324E+00  0.51100000000E-03 0.  1.
</event>
<event>
 8    1  0.1180500E+005  0.1043930E+01  0.7957747E-01            NaN
         13   -1    0    0    0    0  0.00000000000E+00  0.00000000000E+00  0.74505805969E-08  0.10566000000E+00  0.10566000000E+00 0.  1.
     999900   -1    0    0    0    0 -0.00000000000E+00 -0.00000000000E+00 -0.74505805969E-08  0.93827000000E+00  0.93827000000E+00 0. -1.
     999902    2    1    2    0    0  0.16839947705E-01  0.12504747879E-01 -0.96992443061E-02  0.10208209564E+01  0.10205593550E+01 0.  0.
     999903    2    3    3    0    0  0.28749606290E-01  0.10375833499E+00  0.73950818154E-01  0.13207667925E+00  0.19575335340E-01 0.  0.
         14    1    1    2    0    0 -0.16839947705E-01 -0.12504747879E-01  0.96992443061E-02  0.23109043648E-01  0.00000000000E+00 0.  1.
     999901    1    3    3    0    0 -0.11909658585E-01 -0.91253587116E-01 -0.83650062460E-01  0.88874427710E+00  0.88000000000E+00 0. -1.
        -11    1    4    4    0    0  0.13828236104E-01  0.45182372976E-01  0.44198653446E-01  0.64702774508E-01  0.51100000000E-03 0.  1.
         11    1    4    4    0    0  0.14921370186E-01  0.58575962018E-01  0.29752164708E-01  0.67373904744E-01  0.51100000000E-03 0. -1.
</event>
<event>
 8    1  0.1180500E+005  0.1043930E+01  0.7957747E-01            NaN
         13   -1    0    0    0    0  0.00000000000E+00  0.00000000000E+00  0.74505805969E-08  0.10566000000E+00  0.10566000000E+00 0. -1.
     999900   -1    0    0    0    0 -0.00000000000E+00 -0.00000000000E+00 -0.74505805969E-08  0.93827000000E+00  0.93827000000E+00 0.  1.
     999902    2    1    2    0    0  0.11166626847E-02 -0.97481225206E-02 -0.18795105692E-01  0.10227279051E+01  0.10225081120E+01 0.  0.
     999903    2    3    3    0    0 -0.99536717150E-02 -0.28504842821E-01 -0.13047074974E+00  0.13540281459E+00  0.19992598989E-01 0.  0.
         14    1    1    2    0    0 -0.11166626847E-02  0.97481225206E-02  0.18795105692E-01  0.21202094854E-01  0.00000000000E+00 0. -1.
     999901    1    3    3    0    0  0.11070334400E-01  0.18756720301E-01  0.11167564405E+00  0.88732509056E+00  0.88000000000E+00 0. -1.
        -11    1    4    4    0    0 -0.30262585738E-02 -0.73186877184E-02 -0.77850155577E-01  0.78253621484E-01  0.51100000000E-03 0. -1.
         11    1    4    4    0    0 -0.69274131412E-02 -0.21186155103E-01 -0.52620594167E-01  0.57149193104E-01  0.51100000000E-03 0.  1.
</event>
<event>
 8    1  0.1180500E+005  0.1043930E+01  0.7957747E-01            NaN
         13   -1    0    0    0    0  0.00000000000E+00  0.00000000000E+00  0.74505805969E-08  0.10566000000E+00  0.10566000000E+00 0.  1.
     999900   -1    0    0    0    0 -0.00000000000E+00 -0.00000000000E+00 -0.74505805969E-08  0.93827000000E+00  0.93827000000E+00 0.  1.
     999902    2    1    2    0    0 -0.19860537655E-01  0.60891958181E-02  0.53106862944E-02  0.10224888561E+01  0.10222640257E+01 0.  0.
     999903    2    3    3    0    0  0.11327830416E+00  0.31117905350E-01  0.53811733994E-01  0.13080239827E+00  0.20328955965E-01 0.  0.
         14    1    1    2    0    0  0.19860537655E-01 -0.60891958181E-02 -0.53106862944E-02  0.21441143873E-01  0.00000000000E+00 0. -1.
     999901    1    3    3    0    0 -0.13313884181E+00 -0.25028709532E-01 -0.48501047699E-01  0.89168645786E+00  0.88000000000E+00 0. -1.
        -11    1    4    4    0    0  0.69568112547E-01  0.29216962692E-01  0.34881211866E-01  0.83128293947E-01  0.51100000000E-03 0. -1.
         11    1    4    4    0    0  0.43710191612E-01  0.19009426582E-02  0.18930522128E-01  0.47674104321E-01  0.51100000000E-03 0.  1.
</event>
<event>
 8    1  0.1180500E+005  0.1043930E+01  0.7957747E-01            NaN
         13   -1    0    0    0    0  0.00000000000E+00  0.00000000000E+00  0.74505805969E-08  0.10566000000E+00  0.10566000000E+00 0. -1.
     999900   -1    0    0    0    0 -0.00000000000E+00 -0.00000000000E+00 -0.74505805969E-08  0.93827000000E+00  0.93827000000E+00 0. -1.
     999902    2    1    2    0    0  0.61556125054E-02  0.14210799254E-01 -0.17711836215E-01  0.10204024093E+01  0.10201311335E+01 0.  0.
     999903    2    3    3    0    0 -0.89122608953E-01  0.17046453368E-01 -0.93717048092E-01  0.13199778718E+00  0.20176960096E-01 0.  0.
         14    1    1    2    0    0 -0.61556125054E-02 -0.14210799254E-01  0.17711836215E-01  0.23527590672E-01  0.00000000000E+00 0. -1.
     999901    1    3    3    0    0  0.95278221459E-01 -0.28356541135E-02  0.76005211877E-01  0.88840462215E+00  0.88000000000E+00 0.  1.
        -11    1    4    4    0    0 -0.46029622905E-01  0.14765824635E-01 -0.37816790626E-01  0.61376921853E-01  0.51100000000E-03 0.  1.
         11    1    4    4    0    0 -0.43092986049E-01  0.22806287327E-02 -0.55900257466E-01  0.70620865328E-01  0.51100000000E-03 0. -1.
</event>
<event>
 8    1  0.1180500E+005  0.1043930E+01  0.7957747E-01            NaN
         13   -1    0    0    0    0  0.00000000000E+00  0.00000000000E+00  0.74505805969E-08  0.10566000000E+00  0.10566000000E+00 0.  1.
     999900   -1    0    0    0    0 -0.00000000000E+00 -0.00000000000E+00 -0.74505805969E-08  0.93827000000E+00  0.93827000000E+00 0. -1.
     999902    2    1    2    0    0  0.31659494712E-02 -0.13809291692E-01  0.17838409412E-01  0.10211499951E+01  0.10208958732E+01 0.  0.
     999903    2    3    3    0    0  0.77594376944E-01  0.81820776795E-02  0.10624806071E+00  0.13332147698E+00  0.19953247631E-01 0.  0.
         14    1    1    2    0    0 -0.31659494712E-02  0.13809291692E-01 -0.17838409412E-01  0.22780004904E-01  0.00000000000E+00 0. -1.
     999901    1    3    3    0    0 -0.74428427473E-01 -0.21991369372E-01 -0.88409651294E-01  0.88782851812E+00  0.88000000000E+00 0. -1.
        -11    1    4    4    0    0  0.35416959306E-01 -0.58837667117E-02  0.51738139259E-01  0.62976788520E-01  0.51100000000E-03 0.  1.
         11    1    4    4    0    0  0.42177417638E-01  0.14065844391E-01  0.54509921447E-01  0.70344688457E-01  0.51100000000E-03 0. -1.
</event>
<event>
 8    1  0.1180500E+005  0.1043930E+01  0.7957747E-01            NaN
         13   -1    0    0    0    0  0.00000000000E+00  0.00000000000E+00  0.74505805969E-08  0.10566000000E+00  0.10566000000E+00 0. -1.
     999900   -1    0    0    0    0 -0.00000000000E+00 -0.00000000000E+00 -0.74505805969E-08  0.93827000000E+00  0.93827000000E+00 0. -1.
     999902    2    1    2    0    0  0.17593912622E-01 -0.18982078828E-02  0.15165941487E-01  0.10206243197E+01  0.10203581955E+01 0.  0.
     999903    2    3    3    0    0  0.70583092548E-01 -0.10842044012E+00  0.20609343298E-01  0.13260153293E+00  0.20529410923E-01 0.  0.
         14    1    1    2    0    0 -0.17593912622E-01  0.18982078828E-02 -0.15165941487E-01  0.23305680331E-01  0.00000000000E+00 0. -1.
     999901    1    3    3    0    0 -0.52989179926E-01  0.10652223224E+00 -0.54434018112E-02  0.88802278674E+00  0.88000000000E+00 0.  1.
        -11    1    4    4    0    0  0.34515967734E-01 -0.35046598710E-01  0.92730056134E-02  0.50058624270E-01  0.51100000000E-03 0. -1.
         11    1    4    4    0    0  0.36067124814E-01 -0.73373841414E-01  0.11336337685E-01  0.82542908656E-01  0.51100000000E-03 0.  1.
</event>
<event>
 8    1  0.1180500E+005  0.1043930E+01  0.7957747E-01            NaN
         13   -1    0    0    0    0  0.00000000000E+00  0.00000000000E+00  0.74505805969E-08  0.10566000000E+00  0.10566000000E+00 0. -1.
     999900   -1    0    0    0    0 -0.00000000000E+00 -0.00000000000E+00 -0.74505805969E-08  0.93827000000E+00  0.93827000000E+00 0. -1.
     999902    2    1    2    0    0  0.10077114703E-01  0.11506023043E-01 -0.15446307859E-01  0.10221923545E+01  0.10219611951E+01 0.  0.
     999903    2    3    3    0    0 -0.37152456651E-01 -0.10999278355E+00 -0.58571272140E-01  0.13154519932E+00  0.19870281219E-01 0.  0.
         14    1    1    2    0    0 -0.10077114703E-01 -0.11506023043E-01  0.15446307859E-01  0.21737645537E-01  0.00000000000E+00 0. -1.
     999901    1    3    3    0    0  0.47229571354E-01  0.12149880660E+00  0.43124964281E-01  0.89064715514E+00  0.88000000000E+00 0. -1.
        -11    1    4    4    0    0 -0.20448178149E-01 -0.39965630909E-01 -0.14717596900E-01  0.47246676318E-01  0.51100000000E-03 0.  1.
         11    1    4    4    0    0 -0.16704278501E-01 -0.70027152644E-01 -0.43853675240E-01  0.84298523005E-01  0.51100000000E-03 0. -1.
</event>
<event>
 8    1  0.1180500E+005  0.1043930E+01  0.7957747E-01            NaN
         13   -1    0    0    0    0  0.00000000000E+00  0.00000000000E+00  0.74505805969E-08  0.10566000000E+00  0.10566000000E+00 0. -1.
     999900   -1    0    0    0    0 -0.00000000000E+00 -0.00000000000E+00 -0.74505805969E-08  0.93827000000E+00  0.93827000000E+00 0.  1.
     999902    2    1    2    0    0 -0.20211865069E-01  0.38975606456E-03  0.13619701016E-01  0.10195544455E+01  0.10192630180E+01 0.  0.
     999903    2    3    3    0    0 -0.12478597992E+00  0.20109834965E-01 -0.31902419617E-01  0.13197521501E+00  0.20585109959E-01 0.  0.
         14    1    1    2    0    0  0.20211865069E-01 -0.38975606456E-03 -0.13619701016E-01  0.24375554457E-01  0.00000000000E+00 0.  1.
     999901    1    3    3    0    0  0.10457411485E+00 -0.19720078901E-01  0.45522120633E-01  0.88757923053E+00  0.88000000000E+00 0.  1.
        -11    1    4    4    0    0 -0.24937431618E-01 -0.95595832637E-03  0.31347799069E-03  0.24962947371E-01  0.51100000000E-03 0.  1.
         11    1    4    4    0    0 -0.99848548303E-01  0.21065793291E-01 -0.32215897607E-01  0.10701226764E+00  0.51100000000E-03 0. -1.
</event>
<event>
 8    1  0.1180500E+005  0.1043930E+01  0.7957747E-01            NaN
         13   -1    0    0    0    0  0.00000000000E+00  0.00000000000E+00  0.74505805969E-08  0.10566000000E+00  0.10566000000E+00 0. -1.
     999900   -1    0    0    0    0 -0.00000000000E+00 -0.00000000000E+00 -0.74505805969E-08  0.93827000000E+00  0.93827000000E+00 0.  1.
     999902    2    1    2    0    0 -0.31320912119E-02 -0.21980532046E-01 -0.62662103954E-02  0.10208601240E+01  0.10205994188E+01 0.  0.
     999903    2    3    3    0    0  0.11857001995E+00  0.21198066981E-01 -0.46296589526E-01  0.13053533693E+00  0.19694981915E-01 0.  0.
         14    1    1    2    0    0  0.31320912119E-02  0.21980532046E-01  0.62662103954E-02  0.23069875966E-01  0.00000000000E+00 0. -1.
     999901    1    3    3    0    0 -0.12170211116E+00 -0.43178599027E-01  0.40030379131E-01  0.89032478710E+00  0.88000000000E+00 0. -1.
        -11    1    4    4    0    0  0.71368348413E-01  0.44354695199E-02 -0.32703790088E-01  0.78631504832E-01  0.51100000000E-03 0.  1.
         11    1    4    4    0    0  0.47201671532E-01  0.16762597461E-01 -0.13592799438E-01  0.51903832100E-01  0.51100000000E-03 0. -1.
</event>
<event>
 8    1  0.1180500E+005  0.1043930E+01  0.7957747E-01            NaN
         13   -1    0    0    0    0  0.00000000000E+00  0.00000000000E+00  0.74505805969E-08  0.10566000000E+00  0.10566000000E+00 0. -1.
     999900   -1    0    0    0    0 -0.00000000000E+00 -0.00000000000E+00 -0.74505805969E-08  0.93827000000E+00  0.93827000000E+00 0. -1.
     999902    2    1    2    0    0 -0.17015826965E-02 -0.22793127507E-01  0.49456896305E-02  0.10205444940E+01  0.10202765225E+01 0.  0.
     999903    2    3    3    0    0  0.84443480928E-01 -0.72441095349E-01 -0.68002396543E-01  0.13194598174E+00  0.20174300390E-01 0.  0.
         14    1    1    2    0    0  0.17015826965E-02  0.22793127507E-01 -0.49456896305E-02  0.23385506006E-01  0.00000000000E+00 0.  1.
     999901    1    3    3    0    0 -0.86145063624E-01  0.49647967842E-01  0.72948086174E-01  0.88859851225E+00  0.88000000000E+00 0.  1.
        -11    1    4    4    0    0  0.36800256549E-01 -0.22330636125E-01 -0.34197888864E-01  0.54978840617E-01  0.51100000000E-03 0.  1.
         11    1    4    4    0    0  0.47643224379E-01 -0.50110459224E-01 -0.33804507679E-01  0.76967141127E-01  0.51100000000E-03 0. -1.
</event>
<event>
 8    1  0.1180500E+005  0.1043930E+01  0.7957747E-01            NaN
         13   -1    0    0    0    0  0.00000000000E+00  0.00000000000E+00  0.74505805969E-08  0.10566000000E+00  0.10566000000E+00 0. -1.
     999900   -1    0    0    0    0 -0.00000000000E+00 -0.00000000000E+00 -0.74505805969E-08  0.93827000000E+00  0.93827000000E+00 0. -1.
     999902    2    1    2    0    0 -0.10440405161E-01 -0.64670543800E-02  0.20393456304E-01  0.10201241622E+01  0.10198463553E+01 0.  0.
     999903    2    3    3    0    0 -0.36827798211E-01  0.76296668723E-01 -0.94422713990E-01  0.12842416708E+00  0.19991232934E-01 0.  0.
         14    1    1    2    0    0  0.10440405161E-01  0.64670543800E-02 -0.20393456304E-01  0.23805837777E-01  0.00000000000E+00 0.  1.
     999901    1    3    3    0    0  0.26387393050E-01 -0.82763723103E-01  0.11481617029E+00  0.89169999514E+00  0.88000000000E+00 0.  1.
        -11    1    4    4    0    0 -0.11766260077E-01  0.45215674310E-01 -0.56954267493E-01  0.73667847710E-01  0.51100000000E-03 0. -1.
         11    1    4    4    0    0 -0.25061538133E-01  0.31080994413E-01 -0.37468446496E-01  0.54756319372E-01  0.51100000000E-03 0.  1.
</event>
<event>
 8    1  0.1180500E+005  0.1043930E+01  0.7957747E-01            NaN
         13   -1    0    0    0    0  0.00000000000E+00  0.00000000000E+00  0.74505805969E-08  0.10566000000E+00  0.10566000000E+00 0. -1.
     999900   -1    0    0    0    0 -0.00000000000E+00 -0.00000000000E+00 -0.74505805969E-08  0.93827000000E+00  0.93827000000E+00 0.  1.
     999902    2    1    2    0    0  0.33592622449E-02 -0.16686887229E-02  0.21865541591E-01  0.10217450710E+01  0.10215041944E+01 0.  0.
     999903    2    3    3    0    0 -0.29472634824E-01  0.12663504458E+00 -0.25169580157E-02  0.13150112258E+00  0.19522792865E-01 0.  0.
         14    1    1    2    0    0 -0.33592622449E-02  0.16686887229E-02 -0.21865541591E-01  0.22184928982E-01  0.00000000000E+00 0.  1.
     999901    1    3    3    0    0  0.32831897069E-01 -0.12830373331E+00  0.24382499607E-01  0.89024394844E+00  0.88000000000E+00 0.  1.
        -11    1    4    4    0    0 -0.27857018670E-01  0.10597334882E+00 -0.85562420132E-02  0.10990830063E+00  0.51100000000E-03 0.  1.
         11    1    4    4    0    0 -0.16156161546E-02  0.20661695769E-01  0.60392839975E-02  0.21592821951E-01  0.51100000000E-03 0. -1.
</event>
<event>
 8    1  0.1180500E+005  0.1043930E+01  0.7957747E-01            NaN
         13   -1    0    0    0    0  0.00000000000E+00  0.00000000000E+00  0.74505805969E-08  0.10566000000E+00  0.10566000000E+00 0.  1.
     999900   -1    0    0    0    0 -0.00000000000E+00 -0.00000000000E+00 -0.74505805969E-08  0.93827000000E+00  0.93827000000E+00 0. -1.
     999902    2    1    2    0    0 -0.19601759647E-01  0.85022648564E-02  0.11374019261E-01  0.10197249220E+01  0.10194376051E+01 0.  0.
     999903    2    3    3    0    0  0.74884381755E-01  0.83526966501E-01 -0.59250874817E-01  0.12868944991E+00  0.21584336659E-01 0.  0.
         14    1    1    2    0    0  0.19601759647E-01 -0.85022648564E-02 -0.11374019261E-01  0.24205078044E-01  0.00000000000E+00 0. -1.
     999901    1    3    3    0    0 -0.94486141402E-01 -0.75024701644E-01  0.70624894078E-01  0.89103547204E+00  0.88000000000E+00 0.  1.
        -11    1    4    4    0    0  0.60915637226E-01  0.59137308399E-01 -0.36038585192E-01  0.92233274077E-01  0.51100000000E-03 0. -1.
         11    1    4    4    0    0  0.13968744529E-01  0.24389658102E-01 -0.23212289625E-01  0.36456175838E-01  0.51100000000E-03 0.  1.
</event>
<event>
 8    1  0.1180500E+005  0.1043930E+01  0.7957747E-01            NaN
         13   -1    0    0    0    0  0.00000000000E+00  0.00000000000E+00  0.74505805969E-08  0.10566000000E+00  0.10566000000E+00 0. -1.
     999900   -1    0    0    0    0 -0.00000000000E+00 -0.00000000000E+00 -0.74505805969E-08  0.93827000000E+00  0.93827000000E+00 0.  1.
     999902    2    1    2    0    0 -0.28505095929E-01  0.32076259779E-02 -0.95728811310E-02  0.10136898047E+01  0.10132386445E+01 0.  0.
     999903    2    3    3    0    0  0.62273132687E-01  0.84041447299E-01 -0.63072067201E-01  0.12372522318E+00  0.19721492619E-01 0.  0.
         14    1    1    2    0    0  0.28505095929E-01 -0.32076259779E-02  0.95728811310E-02  0.30240195295E-01  0.00000000000E+00 0.  1.
     999901    1    3    3    0    0 -0.90778228615E-01 -0.80833821321E-01  0.53499186070E-01  0.88996458153E+00  0.88000000000E+00 0. -1.
        -11    1    4    4    0    0  0.44580167214E-02  0.17616551685E-01 -0.80139595706E-02  0.19867095292E-01  0.51100000000E-03 0.  1.
         11    1    4    4    0    0  0.57815115965E-01  0.66424895614E-01 -0.55058107631E-01  0.10385812789E+00  0.51100000000E-03 0. -1.
</event>
<event>
 8    1  0.1180500E+005  0.1043930E+01  0.7957747E-01            NaN
         13   -1    0    0    0    0  0.00000000000E+00  0.00000000000E+00  0.74505805969E-08  0.10566000000E+00  0.10566000000E+00 0. -1.
     999900   -1    0    0    0    0 -0.00000000000E+00 -0.00000000000E+00 -0.74505805969E-08  0.93827000000E+00  0.93827000000E+00 0.  1.
     999902    2    1    2    0    0 -0.13648171675E-01 -0.18189054295E-01 -0.50369574468E-02  0.10206386877E+01  0.10203728954E+01 0.  0.
     999903    2    3    3    0    0 -0.10577712153E+00  0.18994037514E-02  0.76235959041E-01  0.13187742818E+00  0.19680636169E-01 0.  0.
         14    1    1    2    0    0  0.13648171675E-01  0.18189054295E-01  0.50369574468E-02  0.23291312254E-01  0.00000000000E+00 0.  1.
     999901    1    3    3    0    0  0.92128949852E-01 -0.20088458046E-01 -0.81272916487E-01  0.88876125956E+00  0.88000000000E+00 0.  1.
        -11    1    4    4    0    0 -0.51741117094E-01  0.49618996972E-02  0.26388935977E-01  0.58295803535E-01  0.51100000000E-03 0. -1.
         11    1    4    4    0    0 -0.54036004432E-01 -0.30624959458E-02  0.49847023064E-01  0.73581624647E-01  0.51100000000E-03 0.  1.
</event>
<event>
 8    1  0.1180500E+005  0.1043930E+01  0.7957747E-01            NaN
         13   -1    0    0    0    0  0.00000000000E+00  0.00000000000E+00  0.74505805969E-08  0.10566000000E+00  0.10566000000E+00 0.  1.
     999900   -1    0    0    0    0 -0.00000000000E+00 -0.00000000000E+00 -0.74505805969E-08  0.93827000000E+00  0.93827000000E+00 0. -1.
     999902    2    1    2    0    0  0.22600781988E-01 -0.48363831585E-02 -0.49965501325E-02  0.10202836163E+01  0.10200095618E+01 0.  0.
     999903    2    3    3    0    0 -0.71497949018E-01 -0.86909758379E-02 -0.10580886421E+00  0.12953530633E+00  0.19909547105E-01 0.  0.
         14    1    1    2    0    0 -0.22600781988E-01  0.48363831585E-02  0.49965501325E-02  0.23646383693E-01  0.00000000000E+00 0.  1.
     999901    1    3    3    0    0  0.94098731005E-01  0.38545926794E-02  0.10081231407E+00  0.89074830998E+00  0.88000000000E+00 0.  1.
        -11    1    4    4    0    0 -0.22870567507E-01  0.48005331977E-03 -0.19581597300E-01  0.30116330837E-01  0.51100000000E-03 0.  1.
         11    1    4    4    0    0 -0.48627381511E-01 -0.91710291576E-02 -0.86227266907E-01  0.99418975491E-01  0.51100000000E-03 0. -1.
</event>
<event>
 8    1  0.1180500E+005  0.1043930E+01  0.7957747E-01            NaN
         13   -1    0    0    0    0  0.00000000000E+00  0.00000000000E+00  0.74505805969E-08  0.10566000000E+00  0.10566000000E+00 0.  1.
     999900   -1    0    0    0    0 -0.00000000000E+00 -0.00000000000E+00 -0.74505805969E-08  0.93827000000E+00  0.93827000000E+00 0. -1.
     999902    2    1    2    0    0  0.21627289168E-01 -0.38071024402E-03 -0.79363149954E-02  0.10208893908E+01  0.10206293542E+01 0.  0.
     999903    2    3    3    0    0 -0.11303293284E+00 -0.53477851153E-01 -0.16451737281E-01  0.12902326060E+00  0.27203265373E-01 0.  0.
         14    1    1    2    0    0 -0.21627289168E-01  0.38071024402E-03  0.79363149954E-02  0.23040609210E-01  0.00000000000E+00 0.  1.
     999901    1    3    3    0    0  0.13466022200E+00  0.53097140909E-01  0.85154222853E-02  0.89186613019E+00  0.88000000000E+00 0. -1.
        -11    1    4    4    0    0 -0.64691859781E-01 -0.15616355282E-01 -0.76462268375E-02  0.66989799075E-01  0.51100000000E-03 0.  1.
         11    1    4    4    0    0 -0.48341073055E-01 -0.37861495871E-01 -0.88055104432E-02  0.62033461526E-01  0.51100000000E-03 0. -1.
</event>
<event>
 8    1  0.1379075E+005  0.1043930E+01  0.7957747E-01            NaN
         13   -1    0    0    0    0  0.00000000000E+00  0.00000000000E+00  0.74505805969E-08  0.10566000000E+00  0.10566000000E+00 0.  1.
     999900   -1    0    0    0    0 -0.00000000000E+00 -0.00000000000E+00 -0.74505805969E-08  0.93827000000E+00  0.93827000000E+00 0.  1.
     999902    2    1    2    0    0  0.23928714880E-01 -0.58676539267E-02 -0.51698537904E-02  0.10187558040E+01  0.10184447201E+01 0.  0.
     999903    2    3    3    0    0  0.12785173600E-01 -0.20409696899E-01 -0.12613568290E+00  0.13029174653E+00  0.22038881997E-01 0.  0.
         14    1    1    2    0    0 -0.23928714880E-01  0.58676539267E-02  0.51698537904E-02  0.25174196048E-01  0.00000000000E+00 0. -1.
     999901    1    3    3    0    0  0.11143541280E-01  0.14542042972E-01  0.12096582911E+00  0.88846405743E+00  0.88000000000E+00 0. -1.
        -11    1    4    4    0    0 -0.35126065188E-02 -0.12928534325E-01 -0.72672814658E-01  0.73899150981E-01  0.51100000000E-03 0. -1.
         11    1    4    4    0    0  0.16297780119E-01 -0.74811625737E-02 -0.53462868245E-01  0.56392595545E-01  0.51100000000E-03 0.  1.
</event>
<event>
 8    1  0.1180500E+005  0.1043930E+01  0.7957747E-01            NaN
         13   -1    0    0    0    0  0.00000000000E+00  0.00000000000E+00  0.74505805969E-08  0.10566000000E+00  0.10566000000E+00 0.  1.
     999900   -1    0    0    0    0 -0.00000000000E+00 -0.00000000000E+00 -0.74505805969E-08  0.93827000000E+00  0.93827000000E+00 0.  1.
     999902    2    1    2    0    0  0.21570461599E-02  0.23753559962E-01 -0.15595673108E-02  0.10200277677E+01  0.10197476797E+01 0.  0.
     999903    2    3    3    0    0  0.41766097404E-01  0.43587747129E-01  0.11542923028E+00  0.13118095824E+00  0.15499613150E-01 0.  0.
         14    1    1    2    0    0 -0.21570461599E-02 -0.23753559962E-01  0.15595673108E-02  0.23902232306E-01  0.00000000000E+00 0. -1.
     999901    1    3    3    0    0 -0.39609051244E-01 -0.19834187166E-01 -0.11698879759E+00  0.88884680946E+00  0.88000000000E+00 0.  1.
        -11    1    4    4    0    0  0.38053051963E-01  0.31169812342E-01  0.95023488071E-01  0.10700147836E+00  0.51100000000E-03 0. -1.
         11    1    4    4    0    0  0.37130454409E-02  0.12417934787E-01  0.20405742212E-01  0.24179479875E-01  0.51100000000E-03 0.  1.
</event>
<event>
 8    1  0.1180500E+005  0.1043930E+01  0.7957747E-01            NaN
         13   -1    0    0    0    0  0.00000000000E+00  0.00000000000E+00  0.74505805969E-08  0.10566000000E+00  0.10566000000E+00 0.  1.
     999900   -1    0    0    0    0 -0.00000000000E+00 -0.00000000000E+00 -0.74505805969E-08  0.93827000000E+00  0.93827000000E+00 0.  1.
     999902    2    1    2    0    0  0.19394666962E-01 -0.51432306569E-02 -0.12767183435E-01  0.10201475085E+01  0.10198702526E+01 0.  0.
     999903    2    3    3    0    0  0.10147504978E+00  0.64377144294E-01  0.49519607774E-01  0.13141249957E+00  0.19376559398E-01 0.  0.
         14    1    1    2    0    0 -0.19394666962E-01  0.51432306569E-02  0.12767183435E-01  0.23782491481E-01  0.00000000000E+00 0.  1.
     999901    1    3    3    0    0 -0.82080382815E-01 -0.69520374951E-01 -0.62286791209E-01  0.88873500895E+00  0.88000000000E+00 0.  1.
        -11    1    4    4    0    0  0.23281186955E-01  0.11601857882E-01  0.19154403293E-01  0.32307414921E-01  0.51100000000E-03 0.  1.
         11    1    4    4    0    0  0.78193862822E-01  0.52775286411E-01  0.30365204480E-01  0.99105084648E-01  0.51100000000E-03 0. -1.
</event>
<event>
 8    1  0.1180500E+005  0.1043930E+01  0.7957747E-01            NaN
         13   -1    0    0    0    0  0.00000000000E+00  0.00000000000E+00  0.74505805969E-08  0.10566000000E+00  0.10566000000E+00 0.  1.
     999900   -1    0    0    0    0 -0.00000000000E+00 -0.00000000000E+00 -0.74505805969E-08  0.93827000000E+00  0.93827000000E+00 0. -1.
     999902    2    1    2    0    0  0.76192820990E-02  0.46867053771E-03 -0.22843345981E-01  0.10198449099E+01  0.10195604683E+01 0.  0.
     999903    2    3    3    0    0 -0.46257978306E-01  0.51875352551E-01 -0.11077963717E+00  0.13233254518E+00  0.20221813501E-01 0.  0.
         14    1    1    2    0    0 -0.76192820990E-02 -0.46867053771E-03  0.22843345981E-01  0.24085090147E-01  0.00000000000E+00 0.  1.
     999901    1    3    3    0    0  0.53877260405E-01 -0.51406682013E-01  0.87936291193E-01  0.88751236468E+00  0.88000000000E+00 0.  1.
        -11    1    4    4    0    0 -0.28249644454E-01  0.21272358926E-01 -0.68713642088E-01  0.77281183971E-01  0.51100000000E-03 0.  1.
         11    1    4    4    0    0 -0.18008333852E-01  0.30602993625E-01 -0.42065995086E-01  0.55051361205E-01  0.51100000000E-03 0. -1.
</event>
<event>
 8    1  0.1180500E+005  0.1043930E+01  0.7957747E-01            NaN
         13   -1    0    0    0    0  0.00000000000E+00  0.00000000000E+00  0.74505805969E-08  0.10566000000E+00  0.10566000000E+00 0. -1.
     999900   -1    0    0    0    0 -0.00000000000E+00 -0.00000000000E+00 -0.74505805969E-08  0.93827000000E+00  0.93827000000E+00 0.  1.
     999902    2    1    2    0    0  0.71641552989E-02  0.67147227191E-02 -0.21551965950E-01  0.10202466755E+01  0.10199717540E+01 0.  0.
     999903    2    3    3    0    0  0.30983157422E-01 -0.11663716965E+00 -0.46809930958E-01  0.13096550569E+00  0.19915035915E-01 0.  0.
         14    1    1    2    0    0 -0.71641552989E-02 -0.67147227191E-02  0.21551965950E-01  0.23683324485E-01  0.00000000000E+00 0. -1.
     999901    1    3    3    0    0 -0.23819002123E-01  0.12335189237E+00  0.25257965008E-01  0.88928116983E+00  0.88000000000E+00 0. -1.
        -11    1    4    4    0    0  0.19891723383E-01 -0.69422448578E-01 -0.17547146436E-01  0.74319045303E-01  0.51100000000E-03 0.  1.
         11    1    4    4    0    0  0.11091434038E-01 -0.47214721074E-01 -0.29262784522E-01  0.56646460384E-01  0.51100000000E-03 0. -1.
</event>
<event>
 8    1  0.1180500E+005  0.1043930E+01  0.7957747E-01            NaN
         13   -1    0    0    0    0  0.00000000000E+00  0.00000000000E+00  0.74505805969E-08  0.10566000000E+00  0.10566000000E+00 0. -1.
     999900   -1    0    0    0    0 -0.00000000000E+00 -0.00000000000E+00 -0.74505805969E-08  0.93827000000E+00  0.93827000000E+00 0.  1.
     999902    2    1    2    0    0 -0.24584537510E-01 -0.12891564902E-01  0.76983764809E-02  0.10151227625E+01  0.10147139331E+01 0.  0.
     999903    2    3    3    0    0 -0.21255862874E-01  0.31451967306E-01  0.11947955018E+00  0.12693783825E+00  0.19920188637E-01 0.  0.
         14    1    1    2    0    0  0.24584537510E-01  0.12891564902E-01 -0.76983764809E-02  0.28807237469E-01  0.00000000000E+00 0.  1.
     999901    1    3    3    0    0 -0.33286746352E-02 -0.44343532208E-01 -0.11178117370E+00  0.88818492428E+00  0.88000000000E+00 0.  1.
        -11    1    4    4    0    0 -0.13427048693E-01  0.37102210158E-02  0.43118020826E-01  0.45315297831E-01  0.51100000000E-03 0.  1.
         11    1    4    4    0    0 -0.78288141817E-02  0.27741746290E-01  0.76361529352E-01  0.81622540420E-01  0.51100000000E-03 0. -1.
</event>
<event>
 8    1  0.1180500E+005  0.1043930E+01  0.7957747E-01            NaN
         13   -1    0    0    0    0  0.00000000000E+00  0.00000000000E+00  0.74505805969E-08  0.10566000000E+00  0.10566000000E+00 0. -1.
     999900   -1    0    0    0    0 -0.00000000000E+00 -0.00000000000E+00 -0.74505805969E-08  0.93827000000E+00  0.93827000000E+00 0.  1.
     999902    2    1    2    0    0  0.15252562613E-01  0.11299756231E-01 -0.20757051609E-01  0.10158020717E+01  0.10154125608E+01 0.  0.
     999903    2    3    3    0    0  0.17602825610E-01 -0.11816543564E+00 -0.36291332718E-01  0.12619087939E+00  0.18279703539E-01 0.  0.
         14    1    1    2    0    0 -0.15252562613E-01 -0.11299756231E-01  0.20757051609E-01  0.28127928268E-01  0.00000000000E+00 0. -1.
     999901    1    3    3    0    0 -0.23502629970E-02  0.12946519187E+00  0.15534281108E-01  0.88961119234E+00  0.88000000000E+00 0. -1.
        -11    1    4    4    0    0  0.67021712167E-02 -0.87862317236E-01 -0.21257593908E-01  0.90646854931E-01  0.51100000000E-03 0.  1.
         11    1    4    4    0    0  0.10900654394E-01 -0.30303118407E-01 -0.15033738810E-01  0.35544024463E-01  0.51100000000E-03 0. -1.
</event>
<event>
 8    1  0.1180500E+005  0.1043930E+01  0.7957747E-01            NaN
         13   -1    0    0    0    0  0.00000000000E+00  0.00000000000E+00  0.74505805969E-08  0.10566000000E+00  0.10566000000E+00 0.  1.
     999900   -1    0    0    0    0 -0.00000000000E+00 -0.00000000000E+00 -0.74505805969E-08  0.93827000000E+00  0.93827000000E+00 0. -1.
     999902    2    1    2    0    0  0.76452378654E-04  0.14073693602E-01  0.18578345384E-01  0.10206227133E+01  0.10203565520E+01 0.  0.
     999903    2    3    3    0    0  0.12452857264E+00 -0.20386291618E-01 -0.24550514462E-01  0.13015321950E+00  0.20351080955E-01 0.  0.
         14    1    1    2    0    0 -0.76452378654E-04 -0.14073693602E-01 -0.18578345384E-01  0.23307286709E-01  0.00000000000E+00 0. -1.
     999901    1    3    3    0    0 -0.12445212026E+00  0.34459985219E-01  0.43128859846E-01  0.89046949379E+00  0.88000000000E+00 0.  1.
        -11    1    4    4    0    0  0.63319434899E-01 -0.31196807765E-02 -0.49029855872E-02  0.63587605968E-01  0.51100000000E-03 0.  1.
         11    1    4    4    0    0  0.61209137742E-01 -0.17266610841E-01 -0.19647528874E-01  0.66565613533E-01  0.51100000000E-03 0. -1.
</event>
<event>
 8    1  0.1180500E+005  0.1043930E+01  0.7957747E-01            NaN
         13   -1    0    0    0    0  0.00000000000E+00  0.00000000000E+00  0.74505805969E-08  0.10566000000E+00  0.10566000000E+00 0.  1.
     999900   -1    0    0    0    0 -0.00000000000E+00 -0.00000000000E+00 -0.74505805969E-08  0.93827000000E+00  0.93827000000E+00 0. -1.
     999902    2    1    2    0    0  0.23759239897E-01  0.17720223649E-02 -0.38010884630E-02  0.10198034624E+01  0.10195180293E+01 0.  0.
     999903    2    3    3    0    0  0.12981805162E-01 -0.83817492814E-01 -0.97291157281E-01  0.13065661783E+00  0.20289976151E-01 0.  0.
         14    1    1    2    0    0 -0.23759239897E-01 -0.17720223649E-02  0.38010884630E-02  0.24126537614E-01  0.00000000000E+00 0. -1.
     999901    1    3    3    0    0  0.10777434734E-01  0.85589515179E-01  0.93490068818E-01  0.88914684455E+00  0.88000000000E+00 0.  1.
        -11    1    4    4    0    0  0.54266030913E-02 -0.13521359178E-01 -0.28489297879E-01  0.32002755972E-01  0.51100000000E-03 0.  1.
         11    1    4    4    0    0  0.75552020710E-02 -0.70296133635E-01 -0.68801859402E-01  0.98653861863E-01  0.51100000000E-03 0. -1.
</event>
<event>
 8    1  0.1180500E+005  0.1043930E+01  0.7957747E-01            NaN
         13   -1    0    0    0    0  0.00000000000E+00  0.00000000000E+00  0.74505805969E-08  0.10566000000E+00  0.10566000000E+00 0.  1.
     999900   -1    0    0    0    0 -0.00000000000E+00 -0.00000000000E+00 -0.74505805969E-08  0.93827000000E+00  0.93827000000E+00 0.  1.
     999902    2    1    2    0    0  0.97307034997E-02  0.21365595307E-01 -0.59639769048E-03  0.10204453041E+01  0.10201750279E+01 0.  0.
     999903    2    3    3    0    0  0.80733466312E-01  0.88970062446E-01  0.53981244414E-01  0.13332046768E+00  0.20659326184E-01 0.  0.
         14    1    1    2    0    0 -0.97307034997E-02 -0.21365595307E-01  0.59639769048E-03  0.23484695945E-01  0.00000000000E+00 0.  1.
     999901    1    3    3    0    0 -0.71002762812E-01 -0.67604467139E-01 -0.54577642104E-01  0.88712483638E+00  0.88000000000E+00 0.  1.
        -11    1    4    4    0    0  0.40444300060E-01  0.59649249817E-01  0.32277519983E-01  0.78967549211E-01  0.51100000000E-03 0.  1.
         11    1    4    4    0    0  0.40289166252E-01  0.29320812629E-01  0.21703724430E-01  0.54352918465E-01  0.51100000000E-03 0. -1.
</event>
<event>
 8    1  0.1180500E+005  0.1043930E+01  0.7957747E-01            NaN
         13   -1    0    0    0    0  0.00000000000E+00  0.00000000000E+00  0.74505805969E-08  0.10566000000E+00  0.10566000000E+00 0.  1.
     999900   -1    0    0    0    0 -0.00000000000E+00 -0.00000000000E+00 -0.74505805969E-08  0.93827000000E+00  0.93827000000E+00 0. -1.
     999902    2    1    2    0    0 -0.26133567049E-02 -0.54325400825E-02 -0.22615126633E-01  0.10205251698E+01  0.10202567501E+01 0.  0.
     999903    2    3    3    0    0 -0.59726937084E-01 -0.92894640356E-01  0.65609007363E-01  0.12996631273E+00  0.19747895518E-01 0.  0.
         14    1    1    2    0    0  0.26133567049E-02  0.54325400825E-02  0.22615126633E-01  0.23404830221E-01  0.00000000000E+00 0.  1.
     999901    1    3    3    0    0  0.57113580379E-01  0.87462100274E-01 -0.88224133996E-01  0.89055885705E+00  0.88000000000E+00 0. -1.
        -11    1    4    4    0    0 -0.11279670256E-01 -0.23031329670E-01  0.24728752066E-01  0.35629277388E-01  0.51100000000E-03 0.  1.
         11    1    4    4    0    0 -0.48447266828E-01 -0.69863310687E-01  0.40880255297E-01  0.94337035343E-01  0.51100000000E-03 0. -1.
</event>
<event>
 8    1  0.1180500E+005  0.1043930E+01  0.7957747E-01            NaN
         13   -1    0    0    0    0  0.00000000000E+00  0.00000000000E+00  0.74505805969E-08  0.10566000000E+00  0.10566000000E+00 0. -1.
     999900   -1    0    0    0    0 -0.00000000000E+00 -0.00000000000E+00 -0.74505805969E-08  0.93827000000E+00  0.93827000000E+00 0. -1.
     999902    2    1    2    0    0  0.10212218992E-03 -0.10621088580E-02 -0.26351698340E-01  0.10175567084E+01  0.10172148762E+01 0.  0.
     999903    2    3    3    0    0  0.39227214048E-01 -0.11975198502E+00  0.97926125326E-02  0.12799250570E+00  0.20171118422E-01 0.  0.
         14    1    1    2    0    0 -0.10212218992E-03  0.10621088580E-02  0.26351698340E-01  0.26373291596E-01  0.00000000000E+00 0. -1.
     999901    1    3    3    0    0 -0.39125091858E-01  0.11868987616E+00 -0.36144310873E-01  0.88956420270E+00  0.88000000000E+00 0.  1.
        -11    1    4    4    0    0  0.12344430332E-01 -0.39488659420E-01 -0.62285245394E-02  0.41842500187E-01  0.51100000000E-03 0.  1.
         11    1    4    4    0    0  0.26882783716E-01 -0.80263325599E-01  0.16021137072E-01  0.86150005517E-01  0.51100000000E-03 0. -1.
</event>
<event>
 8    1  0.1180500E+005  0.1043930E+01  0.7957747E-01            NaN
         13   -1    0    0    0    0  0.00000000000E+00  0.00000000000E+00  0.74505805969E-08  0.10566000000E+00  0.10566000000E+00 0. -1.
     999900   -1    0    0    0    0 -0.00000000000E+00 -0.00000000000E+00 -0.74505805969E-08  0.93827000000E+00  0.93827000000E+00 0.  1.
     999902    2    1    2    0    0  0.65556489676E-02  0.21105811457E-01 -0.77293666066E-02  0.10205168644E+01  0.10202482519E+01 0.  0.
     999903    2    3    3    0    0 -0.10685045331E+00  0.67808675687E-01 -0.27344429850E-01  0.13179483121E+00  0.24639882717E-01 0.  0.
         14    1    1    2    0    0 -0.65556489676E-02 -0.21105811457E-01  0.77293666066E-02  0.23413135604E-01  0.00000000000E+00 0. -1.
     999901    1    3    3    0    0  0.11340610227E+00 -0.46702864230E-01  0.19615063243E-01  0.88872203318E+00  0.88000000000E+00 0. -1.
        -11    1    4    4    0    0 -0.48983289086E-01  0.34631097251E-01 -0.78484335391E-03  0.59996271606E-01  0.51100000000E-03 0. -1.
         11    1    4    4    0    0 -0.57867164220E-01  0.33177578436E-01 -0.26559586496E-01  0.71798559606E-01  0.51100000000E-03 0.  1.
</event>
<event>
 8    1  0.1180500E+005  0.1043930E+01  0.7957747E-01            NaN
         13   -1    0    0    0    0  0.00000000000E+00  0.00000000000E+00  0.74505805969E-08  0.10566000000E+00  0.10566000000E+00 0.  1.
     999900   -1    0    0    0    0 -0.00000000000E+00 -0.00000000000E+00 -0.74505805969E-08  0.93827000000E+00  0.93827000000E+00 0. -1.
     999902    2    1    2    0    0 -0.61874803027E-02 -0.13087632466E-01  0.18282629234E-01  0.10206099321E+01  0.10203434755E+01 0.  0.
     999903    2    3    3    0    0 -0.87244984922E-01 -0.20241148717E-01  0.96842014181E-01  0.13337091760E+00  0.19698590201E-01 0.  0.
         14    1    1    2    0    0  0.61874803027E-02  0.13087632466E-01 -0.18282629234E-01  0.23320067919E-01  0.00000000000E+00 0. -1.
     999901    1    3    3    0    0  0.81057504619E-01  0.71535162513E-02 -0.78559384947E-01  0.88723901448E+00  0.88000000000E+00 0. -1.
        -11    1    4    4    0    0 -0.72409238505E-01 -0.93713415294E-02  0.81419896537E-01  0.10936352471E+00  0.51100000000E-03 0.  1.
         11    1    4    4    0    0 -0.14835746417E-01 -0.10869807188E-01  0.15422117645E-01  0.24007392897E-01  0.51100000000E-03 0. -1.
</event>
<event>
 8    1  0.1180500E+005  0.1043930E+01  0.7957747E-01            NaN
         13   -1    0    0    0    0  0.00000000000E+00  0.00000000000E+00  0.74505805969E-08  0.10566000000E+00  0.10566000000E+00 0. -1.
     999900   -1    0    0    0    0 -0.00000000000E+00 -0.00000000000E+00 -0.74505805969E-08  0.93827000000E+00  0.93827000000E+00 0. -1.
     999902    2    1    2    0    0  0.21490584533E-01 -0.69421684310E-02 -0.33156873041E-02  0.10211038591E+01  0.10208486951E+01 0.  0.
     999903    2    3    3    0    0 -0.26841121091E-01  0.58082118223E-01 -0.11223266832E+00  0.13069551436E+00  0.19777952282E-01 0.  0.
         14    1    1    2    0    0 -0.21490584533E-01  0.69421684310E-02  0.33156873041E-02  0.22826140900E-01  0.00000000000E+00 0.  1.
     999901    1    3    3    0    0  0.48331705624E-01 -0.65024286654E-01  0.10891698102E+00  0.89040834474E+00  0.88000000000E+00 0.  1.
        -11    1    4    4    0    0 -0.22053674454E-01  0.51836654325E-01 -0.82250141372E-01  0.99693280442E-01  0.51100000000E-03 0.  1.
         11    1    4    4    0    0 -0.47874466368E-02  0.62454638988E-02 -0.29982526953E-01  0.31002233921E-01  0.51100000000E-03 0. -1.
</event>
<event>
 8    1  0.1180500E+005  0.1043930E+01  0.7957747E-01            NaN
         13   -1    0    0    0    0  0.00000000000E+00  0.00000000000E+00  0.74505805969E-08  0.10566000000E+00  0.10566000000E+00 0. -1.
     999900   -1    0    0    0    0 -0.00000000000E+00 -0.00000000000E+00 -0.74505805969E-08  0.93827000000E+00  0.93827000000E+00 0. -1.
     999902    2    1    2    0    0 -0.22072226249E-01  0.66500306956E-02 -0.13844162743E-02  0.10208362197E+01  0.10205749677E+01 0.  0.
     999903    2    3    3    0    0 -0.50921665409E-01  0.11032159147E+00 -0.49940076083E-01  0.13295236764E+00  0.20456082495E-01 0.  0.
         14    1    1    2    0    0  0.22072226249E-01 -0.66500306956E-02  0.13844162743E-02  0.23093780294E-01  0.00000000000E+00 0.  1.
     999901    1    3    3    0    0  0.28849439160E-01 -0.10367156077E+00  0.48555659809E-01  0.88788385206E+00  0.88000000000E+00 0.  1.
        -11    1    4    4    0    0 -0.17399331769E-01  0.54691569340E-01 -0.15577916507E-01  0.59471313308E-01  0.51100000000E-03 0. -1.
         11    1    4    4    0    0 -0.33522333641E-01  0.55630022127E-01 -0.34362159577E-01  0.73481054336E-01  0.51100000000E-03 0.  1.
</event>
<event>
 8    1  0.1180500E+005  0.1043930E+01  0.7957747E-01            NaN
         13   -1    0    0    0    0  0.00000000000E+00  0.00000000000E+00  0.74505805969E-08  0.10566000000E+00  0.10566000000E+00 0. -1.
     999900   -1    0    0    0    0 -0.00000000000E+00 -0.00000000000E+00 -0.74505805969E-08  0.93827000000E+00  0.93827000000E+00 0.  1.
     999902    2    1    2    0    0  0.10918622917E-01 -0.19117850433E-01 -0.32533900989E-02  0.10216748191E+01  0.10214323976E+01 0.  0.
     999903    2    3    3    0    0  0.12901663483E+00  0.24007157070E-01 -0.65212830323E-02  0.13273298417E+00  0.18811759621E-01 0.  0.
         14    1    1    2    0    0 -0.10918622917E-01  0.19117850433E-01  0.32533900989E-02  0.22255180941E-01  0.00000000000E+00 0.  1.
     999901    1    3    3    0    0 -0.11809801192E+00 -0.43125007503E-01  0.32678929334E-02  0.88894183489E+00  0.88000000000E+00 0. -1.
        -11    1    4    4    0    0  0.16687703376E-01 -0.27028043304E-02 -0.32645540190E-02  0.17225069786E-01  0.51100000000E-03 0. -1.
         11    1    4    4    0    0  0.11232893146E+00  0.26709961400E-01 -0.32567290133E-02  0.11550791438E+00  0.51100000000E-03 0.  1.
</event>
<event>
 8    1  0.1180500E+005  0.1043930E+01  0.7957747E-01            NaN
         13   -1    0    0    0    0  0.00000000000E+00  0.00000000000E+00  0.74505805969E-08  0.10566000000E+00  0.10566000000E+00 0.  1.
     999900   -1    0    0    0    0 -0.00000000000E+00 -0.00000000000E+00 -0.74505805969E-08  0.93827000000E+00  0.93827000000E+00 0. -1.
     999902    2    1    2    0    0 -0.31590884512E-01  0.56277739302E-02 -0.98615871899E-02  0.10103605686E+01  0.10098027391E+01 0.  0.
     999903    2    3    3    0    0 -0.11307362687E+00  0.49455109323E-01 -0.80599482049E-02  0.12550831056E+00  0.21352290778E-01 0.  0.
         14    1    1    2    0    0  0.31590884512E-01 -0.56277739302E-02  0.98615871899E-02  0.33569431415E-01  0.00000000000E+00 0.  1.
     999901    1    3    3    0    0  0.81482742363E-01 -0.43827335393E-01 -0.18016389849E-02  0.88485225803E+00  0.88000000000E+00 0.  1.
        -11    1    4    4    0    0 -0.61246357989E-01  0.22301569275E-01 -0.14085846764E-01  0.66686944443E-01  0.51100000000E-03 0.  1.
         11    1    4    4    0    0 -0.51827268885E-01  0.27153540049E-01  0.60258985591E-02  0.58821366116E-01  0.51100000000E-03 0. -1.
</event>
<event>
 8    1  0.1180500E+005  0.1043930E+01  0.7957747E-01            NaN
         13   -1    0    0    0    0  0.00000000000E+00  0.00000000000E+00  0.74505805969E-08  0.10566000000E+00  0.10566000000E+00 0. -1.
     999900   -1    0    0    0    0 -0.00000000000E+00 -0.00000000000E+00 -0.74505805969E-08  0.93827000000E+00  0.93827000000E+00 0.  1.
     999902    2    1    2    0    0 -0.20653968180E-01  0.34483106572E-02 -0.12194271106E-01  0.10196982544E+01  0.10194102964E+01 0.  0.
     999903    2    3    3    0    0 -0.28434218637E-01  0.90825237046E-02 -0.12721563816E+00  0.13216110500E+00  0.19792474729E-01 0.  0.
         14    1    1    2    0    0  0.20653968180E-01 -0.34483106572E-02  0.12194271106E-01  0.24231745619E-01  0.00000000000E+00 0. -1.
     999901    1    3    3    0    0  0.77802504573E-02 -0.56342130474E-02  0.11502136705E+00  0.88753714938E+00  0.88000000000E+00 0. -1.
        -11    1    4    4    0    0 -0.16874516096E-01  0.59361092978E-02 -0.36441758557E-01  0.40598640061E-01  0.51100000000E-03 0.  1.
         11    1    4    4    0    0 -0.11559702541E-01  0.31464144069E-02 -0.90773879602E-01  0.91562464938E-01  0.51100000000E-03 0. -1.
</event>
<event>
 8    1  0.1180500E+005  0.1043930E+01  0.7957747E-01            NaN
         13   -1    0    0    0    0  0.00000000000E+00  0.00000000000E+00  0.74505805969E-08  0.10566000000E+00  0.10566000000E+00 0.  1.
     999900   -1    0    0    0    0 -0.00000000000E+00 -0.00000000000E+00 -0.74505805969E-08  0.93827000000E+00  0.93827000000E+00 0. -1.
     999902    2    1    2    0    0  0.89201479745E-02  0.21351930058E-01 -0.27109320682E-02  0.10206314355E+01  0.10203654757E+01 0.  0.
     999903    2    3    3    0    0  0.44356736500E-01  0.11733160766E+00 -0.42112234878E-01  0.13382801137E+00  0.20056671493E-01 0.  0.
         14    1    1    2    0    0 -0.89201479745E-02 -0.21351930058E-01  0.27109320682E-02  0.23298564543E-01  0.00000000000E+00 0.  1.
     999901    1    3    3    0    0 -0.35436588526E-01 -0.95979677598E-01  0.39401302810E-01  0.88680342409E+00  0.88000000000E+00 0.  1.
        -11    1    4    4    0    0  0.20047056309E-01  0.59064343469E-01 -0.10622731515E-01  0.63273886256E-01  0.51100000000E-03 0.  1.
         11    1    4    4    0    0  0.24309680191E-01  0.58267264187E-01 -0.31489503364E-01  0.70554125109E-01  0.51100000000E-03 0. -1.
</event>
<event>
 8    1  0.1180500E+005  0.1043930E+01  0.7957747E-01            NaN
         13   -1    0    0    0    0  0.00000000000E+00  0.00000000000E+00  0.74505805969E-08  0.10566000000E+00  0.10566000000E+00 0. -1.
     999900   -1    0    0    0    0 -0.00000000000E+00 -0.00000000000E+00 -0.74505805969E-08  0.93827000000E+00  0.93827000000E+00 0.  1.
     999902    2    1    2    0    0  0.18398225518E-01  0.92225459045E-02 -0.11454685572E-01  0.10203766589E+01  0.10201047820E+01 0.  0.
     999903    2    3    3    0    0  0.32123951277E-01  0.12702295688E+00 -0.39384053759E-03  0.13235206765E+00  0.18711891482E-01 0.  0.
         14    1    1    2    0    0 -0.18398225518E-01 -0.92225459045E-02  0.11454685572E-01  0.23553341095E-01  0.00000000000E+00 0. -1.
     999901    1    3    3    0    0 -0.13725725759E-01 -0.11780041097E+00 -0.11060845035E-01  0.88802459125E+00  0.88000000000E+00 0.  1.
        -11    1    4    4    0    0  0.66988355736E-02  0.40639038894E-01  0.78292268951E-02  0.41928078838E-01  0.51100000000E-03 0.  1.
         11    1    4    4    0    0  0.25425115703E-01  0.86383917982E-01 -0.82230674327E-02  0.90423988817E-01  0.51100000000E-03 0. -1.
</event>
<event>
 8    1  0.1180500E+005  0.1043930E+01  0.7957747E-01            NaN
         13   -1    0    0    0    0  0.00000000000E+00  0.00000000000E+00  0.74505805969E-08  0.10566000000E+00  0.10566000000E+00 0. -1.
     999900   -1    0    0    0    0 -0.00000000000E+00 -0.00000000000E+00 -0.74505805969E-08  0.93827000000E+00  0.93827000000E+00 0. -1.
     999902    2    1    2    0    0 -0.34338081804E-02 -0.36686734591E-03  0.23342903890E-01  0.10203330343E+01  0.10200601374E+01 0.  0.
     999903    2    3    3    0    0  0.24551086646E-01  0.96959846888E-01 -0.78429666974E-01  0.12869785111E+00  0.20197931948E-01 0.  0.
         14    1    1    2    0    0  0.34338081804E-02  0.36686734591E-03 -0.23342903890E-01  0.23596965743E-01  0.00000000000E+00 0.  1.
     999901    1    3    3    0    0 -0.27984894826E-01 -0.97326714234E-01  0.10177257086E+00  0.89163518315E+00  0.88000000000E+00 0.  1.
        -11    1    4    4    0    0  0.17713295609E-01  0.81878928221E-01 -0.55818377078E-01  0.10066713500E+00  0.51100000000E-03 0. -1.
         11    1    4    4    0    0  0.68377910364E-02  0.15080918668E-01 -0.22611289896E-01  0.28030716114E-01  0.51100000000E-03 0.  1.
</event>
<event>
 8    1  0.1180500E+005  0.1043930E+01  0.7957747E-01            NaN
         13   -1    0    0    0    0  0.00000000000E+00  0.00000000000E+00  0.74505805969E-08  0.10566000000E+00  0.10566000000E+00 0.  1.
     999900   -1    0    0    0    0 -0.00000000000E+00 -0.00000000000E+00 -0.74505805969E-08  0.93827000000E+00  0.93827000000E+00 0.  1.
     999902    2    1    2    0    0 -0.54985041177E-02  0.17242483817E-01  0.15740362228E-01  0.10199446753E+01  0.10196626133E+01 0.  0.
     999903    2    3    3    0    0  0.55087632464E-01  0.94379187226E-01 -0.68023396521E-01  0.13054200038E+00  0.21724482886E-01 0.  0.
         14    1    1    2    0    0  0.54985041177E-02 -0.17242483817E-01 -0.15740362228E-01  0.23985324655E-01  0.00000000000E+00 0. -1.
     999901    1    3    3    0    0 -0.60586136581E-01 -0.77136703408E-01  0.83763758749E-01  0.88940267497E+00  0.88000000000E+00 0. -1.
        -11    1    4    4    0    0  0.14801746340E-01  0.38793322694E-01 -0.35251589856E-01  0.54469709828E-01  0.51100000000E-03 0. -1.
         11    1    4    4    0    0  0.40285886123E-01  0.55585864531E-01 -0.32771806664E-01  0.76072290550E-01  0.51100000000E-03 0.  1.
</event>
<event>
 8    1  0.1180500E+005  0.1043930E+01  0.7957747E-01            NaN
         13   -1    0    0    0    0  0.00000000000E+00  0.00000000000E+00  0.74505805969E-08  0.10566000000E+00  0.10566000000E+00 0.  1.
     999900   -1    0    0    0    0 -0.00000000000E+00 -0.00000000000E+00 -0.74505805969E-08  0.93827000000E+00  0.93827000000E+00 0.  1.
     999902    2    1    2    0    0  0.20616547721E-01  0.20409846442E-02  0.10923505330E-01  0.10205092693E+01  0.10202404805E+01 0.  0.
     999903    2    3    3    0    0  0.57742037666E-01 -0.11080438948E+00  0.37922968444E-01  0.13211670321E+00  0.20122526902E-01 0.  0.
         14    1    1    2    0    0 -0.20616547721E-01 -0.20409846442E-02 -0.10923505330E-01  0.23420730709E-01  0.00000000000E+00 0. -1.
     999901    1    3    3    0    0 -0.37125489945E-01  0.11284537412E+00 -0.26999463115E-01  0.88839256608E+00  0.88000000000E+00 0.  1.
        -11    1    4    4    0    0  0.93489523731E-02 -0.33581392722E-01  0.50075455368E-02  0.35220015346E-01  0.51100000000E-03 0. -1.
         11    1    4    4    0    0  0.48393085293E-01 -0.77222996757E-01  0.32915422907E-01  0.96896687861E-01  0.51100000000E-03 0.  1.
</event>
<event>
 8    1  0.1180500E+005  0.1043930E+01  0.7957747E-01            NaN
         13   -1    0    0    0    0  0.00000000000E+00  0.00000000000E+00  0.74505805969E-08  0.10566000000E+00  0.10566000000E+00 0.  1.
     999900   -1    0    0    0    0 -0.00000000000E+00 -0.00000000000E+00 -0.74505805969E-08  0.93827000000E+00  0.93827000000E+00 0. -1.
     999902    2    1    2    0    0  0.10400800110E-01  0.27958382983E-02  0.21027195108E-01  0.10203050918E+01  0.10200315407E+01 0.  0.
     999903    2    3    3    0    0 -0.12309514991E+00 -0.29425478586E-02 -0.30457907845E-01  0.12873074626E+00  0.21973765337E-01 0.  0.
         14    1    1    2    0    0 -0.10400800110E-01 -0.27958382983E-02 -0.21027195108E-01  0.23624908230E-01  0.00000000000E+00 0. -1.
     999901    1    3    3    0    0  0.13349595002E+00  0.57383861569E-02  0.51485102953E-01  0.89157434551E+00  0.88000000000E+00 0.  1.
        -11    1    4    4    0    0 -0.62666548926E-01  0.65765550198E-02 -0.77999117066E-02  0.63493678220E-01  0.51100000000E-03 0. -1.
         11    1    4    4    0    0 -0.60428600983E-01 -0.95191028784E-02 -0.22657996138E-01  0.65237068039E-01  0.51100000000E-03 0.  1.
</event>
<event>
 7    1  0.1180500E+005  0.1043930E+01  0.7957747E-01            NaN
         13   -1    0    0    0    0  0.00000000000E+00  0.00000000000E+00  0.74505805969E-08  0.10566000000E+00  0.10566000000E+00 0.  1.
     999900   -1    0    0    0    0 -0.00000000000E+00 -0.00000000000E+00 -0.74505805969E-08  0.93827000000E+00  0.93827000000E+00 0.  1.
     999902    2    1    2    0    0  0.16138651595E-01  0.90039502274E-02  0.14381291067E-01  0.10205131529E+01  0.10202444543E+01 0.  0.
         14    1    1    2    0    0 -0.16138651595E-01 -0.90039502274E-02 -0.14381291067E-01  0.23416847092E-01  0.00000000000E+00 0. -1.
     999901    1    3    3    0    0 -0.46984210273E-01  0.78614331407E-01 -0.59473147583E-01  0.88674956126E+00  0.88000000000E+00 0.  1.
        -11    1    3    3    0    0 -0.27638057433E-03 -0.36211199530E-02  0.33583768664E-01  0.33783421003E-01  0.51100000000E-03 0.  1.
         11    1    3    3    0    0  0.63399242442E-01 -0.65989261227E-01  0.40270669985E-01  0.99980170642E-01  0.51100000000E-03 0. -1.
</event>
<event>
 8    1  0.1180500E+005  0.1043930E+01  0.7957747E-01            NaN
         13   -1    0    0    0    0  0.00000000000E+00  0.00000000000E+00  0.74505805969E-08  0.10566000000E+00  0.10566000000E+00 0. -1.
     999900   -1    0    0    0    0 -0.00000000000E+00 -0.00000000000E+00 -0.74505805969E-08  0.93827000000E+00  0.93827000000E+00 0. -1.
     999902    2    1    2    0    0 -0.19430571508E-02  0.18478831759E-01 -0.13676279262E-01  0.10208587341E+01  0.10205979971E+01 0.  0.
     999903    2    3    3    0    0  0.45978507521E-01 -0.10939152156E+00 -0.48230081837E-01  0.12965658597E+00  0.20103764535E-01 0.  0.
         14    1    1    2    0    0  0.19430571508E-02 -0.18478831759E-01  0.13676279262E-01  0.23071265868E-01  0.00000000000E+00 0. -1.
     999901    1    3    3    0    0 -0.47921564672E-01  0.12787035332E+00  0.34553802575E-01  0.89120214816E+00  0.88000000000E+00 0. -1.
        -11    1    4    4    0    0  0.19779571552E-01 -0.50522907932E-01 -0.11425039020E-01  0.55448970363E-01  0.51100000000E-03 0. -1.
         11    1    4    4    0    0  0.26198935969E-01 -0.58868613626E-01 -0.36805042818E-01  0.74207615607E-01  0.51100000000E-03 0.  1.
</event>
<event>
 8    1  0.1180500E+005  0.1043930E+01  0.7957747E-01            NaN
         13   -1    0    0    0    0  0.00000000000E+00  0.00000000000E+00  0.74505805969E-08  0.10566000000E+00  0.10566000000E+00 0. -1.
     999900   -1    0    0    0    0 -0.00000000000E+00 -0.00000000000E+00 -0.74505805969E-08  0.93827000000E+00  0.93827000000E+00 0.  1.
     999902    2    1    2    0    0 -0.10462391561E-01  0.20966459107E-01 -0.49184066843E-02  0.10199874695E+01  0.10197064249E+01 0.  0.
     999903    2    3    3    0    0 -0.40238117206E-01  0.12511458882E+00 -0.24507682646E-02  0.13334237924E+00  0.22392351944E-01 0.  0.
         14    1    1    2    0    0  0.10462391561E-01 -0.20966459107E-01  0.49184066843E-02  0.23942530547E-01  0.00000000000E+00 0.  1.
     999901    1    3    3    0    0  0.29775725645E-01 -0.10414812971E+00 -0.24676384197E-02  0.88664509021E+00  0.88000000000E+00 0.  1.
        -11    1    4    4    0    0 -0.31498083539E-01  0.11734632303E+00 -0.66925044732E-03  0.12150307738E+00  0.51100000000E-03 0. -1.
         11    1    4    4    0    0 -0.87400336667E-02  0.77682657816E-02 -0.17815178173E-02  0.11839301858E-01  0.51100000000E-03 0.  1.
</event>
<event>
 8    1  0.1180500E+005  0.1043930E+01  0.7957747E-01            NaN
         13   -1    0    0    0    0  0.00000000000E+00  0.00000000000E+00  0.74505805969E-08  0.10566000000E+00  0.10566000000E+00 0.  1.
     999900   -1    0    0    0    0 -0.00000000000E+00 -0.00000000000E+00 -0.74505805969E-08  0.93827000000E+00  0.93827000000E+00 0. -1.
     999902    2    1    2    0    0 -0.19477785796E-01  0.13534915587E-01  0.75366088476E-02  0.10190426829E+01  0.10187387354E+01 0.  0.
     999903    2    3    3    0    0 -0.12248521934E+00  0.46121971939E-01  0.38325528758E-03  0.13240655795E+00  0.20037076923E-01 0.  0.
         14    1    1    2    0    0  0.19477785796E-01 -0.13534915587E-01 -0.75366088476E-02  0.24887317099E-01  0.00000000000E+00 0.  1.
     999901    1    3    3    0    0  0.10300743354E+00 -0.32587056352E-01  0.71533535600E-02  0.88663612495E+00  0.88000000000E+00 0.  1.
        -11    1    4    4    0    0 -0.36387712458E-01  0.21853855612E-01 -0.52668402027E-02  0.42774494149E-01  0.51100000000E-03 0. -1.
         11    1    4    4    0    0 -0.86097506877E-01  0.24268116327E-01  0.56500954903E-02  0.89632063798E-01  0.51100000000E-03 0.  1.
</event>
<event>
 8    1  0.1180500E+005  0.1043930E+01  0.7957747E-01            NaN
         13   -1    0    0    0    0  0.00000000000E+00  0.00000000000E+00  0.74505805969E-08  0.10566000000E+00  0.10566000000E+00 0. -1.
     999900   -1    0    0    0    0 -0.00000000000E+00 -0.00000000000E+00 -0.74505805969E-08  0.93827000000E+00  0.93827000000E+00 0.  1.
     999902    2    1    2    0    0 -0.21078808032E-01 -0.99921370707E-02 -0.24179790341E-02  0.10204778024E+01  0.10202082824E+01 0.  0.
     999903    2    3    3    0    0  0.65667491697E-01 -0.20099167854E-01  0.10777729535E+00  0.12931559991E+00  0.19758111581E-01 0.  0.
         14    1    1    2    0    0  0.21078808032E-01  0.99921370707E-02  0.24179790341E-02  0.23452197635E-01  0.00000000000E+00 0.  1.
     999901    1    3    3    0    0 -0.86746299729E-01  0.10107030783E-01 -0.11019527438E+00  0.89116220245E+00  0.88000000000E+00 0.  1.
        -11    1    4    4    0    0  0.13416227501E-01 -0.10557308963E-01  0.16741873670E-01  0.23916592313E-01  0.51100000000E-03 0.  1.
         11    1    4    4    0    0  0.52251264196E-01 -0.95418588911E-02  0.91035421679E-01  0.10539900760E+00  0.51100000000E-03 0. -1.
</event>
<event>
 8    1  0.1180500E+005  0.1043930E+01  0.7957747E-01            NaN
         13   -1    0    0    0    0  0.00000000000E+00  0.00000000000E+00  0.74505805969E-08  0.10566000000E+00  0.10566000000E+00 0.  1.
     999900   -1    0    0    0    0 -0.00000000000E+00 -0.00000000000E+00 -0.74505805969E-08  0.93827000000E+00  0.93827000000E+00 0.  1.
     999902    2    1    2    0    0  0.12076152346E-01 -0.12525444688E-01 -0.13862298795E-01  0.10216840218E+01  0.10214418029E+01 0.  0.
     999903    2    3    3    0    0  0.12809810975E+00  0.25033798536E-01 -0.16881990222E-01  0.13326919191E+00  0.20972818830E-01 0.  0.
         14    1    1    2    0    0 -0.12076152346E-01  0.12525444688E-01  0.13862298795E-01  0.22245978243E-01  0.00000000000E+00 0.  1.
     999901    1    3    3    0    0 -0.11602195740E+00 -0.37559243224E-01  0.30196914273E-02  0.88841482984E+00  0.88000000000E+00 0.  1.
        -11    1    4    4    0    0  0.10612429613E+00  0.13971051682E-01 -0.18419421304E-01  0.10861442223E+00  0.51100000000E-03 0.  1.
         11    1    4    4    0    0  0.21973813613E-01  0.11062746854E-01  0.15374310820E-02  0.24654769680E-01  0.51100000000E-03 0. -1.
</event>
<event>
 8    1  0.1180500E+005  0.1043930E+01  0.7957747E-01            NaN
         13   -1    0    0    0    0  0.00000000000E+00  0.00000000000E+00  0.74505805969E-08  0.10566000000E+00  0.10566000000E+00 0. -1.
     999900   -1    0    0    0    0 -0.00000000000E+00 -0.00000000000E+00 -0.74505805969E-08  0.93827000000E+00  0.93827000000E+00 0. -1.
     999902    2    1    2    0    0 -0.15184258315E-01  0.15683968601E-01  0.96101411359E-02  0.10200783044E+01  0.10197994134E+01 0.  0.
     999903    2    3    3    0    0  0.85793699982E-01 -0.88865270802E-01 -0.25045672130E-01  0.12748202558E+00  0.19151653769E-01 0.  0.
         14    1    1    2    0    0  0.15184258315E-01 -0.15683968601E-01 -0.96101411359E-02  0.23851695628E-01  0.00000000000E+00 0.  1.
     999901    1    3    3    0    0 -0.10097795830E+00  0.10454923940E+00  0.34655813266E-01  0.89259627879E+00  0.88000000000E+00 0.  1.
        -11    1    4    4    0    0  0.52017648255E-01 -0.55254641244E-01 -0.58694745541E-02  0.76115852236E-01  0.51100000000E-03 0. -1.
         11    1    4    4    0    0  0.33776051727E-01 -0.33610629558E-01 -0.19176197576E-01  0.51366173344E-01  0.51100000000E-03 0.  1.
</event>
<event>
 8    1  0.1180500E+005  0.1043930E+01  0.7957747E-01            NaN
         13   -1    0    0    0    0  0.00000000000E+00  0.00000000000E+00  0.74505805969E-08  0.10566000000E+00  0.10566000000E+00 0.  1.
     999900   -1    0    0    0    0 -0.00000000000E+00 -0.00000000000E+00 -0.74505805969E-08  0.93827000000E+00  0.93827000000E+00 0. -1.
     999902    2    1    2    0    0 -0.18442936332E-01  0.13168381197E-01 -0.82055545784E-02  0.10198285625E+01  0.10195437301E+01 0.  0.
     999903    2    3    3    0    0  0.34360582919E-01 -0.11393833159E+00 -0.43632300438E-01  0.12842552099E+00  0.20657776620E-01 0.  0.
         14    1    1    2    0    0  0.18442936332E-01 -0.13168381197E-01  0.82055545784E-02  0.24101437506E-01  0.00000000000E+00 0. -1.
     999901    1    3    3    0    0 -0.52803519251E-01  0.12710671279E+00  0.35426745859E-01  0.89140304150E+00  0.88000000000E+00 0.  1.
        -11    1    4    4    0    0  0.24104108611E-01 -0.89646941032E-01 -0.25015491116E-01  0.96143736172E-01  0.51100000000E-03 0.  1.
         11    1    4    4    0    0  0.10256474308E-01 -0.24291390562E-01 -0.18616809322E-01  0.32281784817E-01  0.51100000000E-03 0. -1.
</event>
<event>
 8    1  0.1180500E+005  0.1043930E+01  0.7957747E-01            NaN
         13   -1    0    0    0    0  0.00000000000E+00  0.00000000000E+00  0.74505805969E-08  0.10566000000E+00  0.10566000000E+00 0. -1.
     999900   -1    0    0    0    0 -0.00000000000E+00 -0.00000000000E+00 -0.74505805969E-08  0.93827000000E+00  0.93827000000E+00 0. -1.
     999902    2    1    2    0    0 -0.19947228376E-01  0.99923038069E-02 -0.13177712855E-01  0.10180188022E+01  0.10176889955E+01 0.  0.
     999903    2    3    3    0    0  0.20674973845E-01  0.38480238734E-01  0.11751490509E+00  0.12698441110E+00  0.20176828964E-01 0.  0.
         14    1    1    2    0    0  0.19947228376E-01 -0.99923038069E-02  0.13177712855E-01  0.25911197798E-01  0.00000000000E+00 0.  1.
     999901    1    3    3    0    0 -0.40622202221E-01 -0.28487934927E-01 -0.13069261794E+00  0.89103439111E+00  0.88000000000E+00 0. -1.
        -11    1    4    4    0    0  0.16602806857E-01  0.18868168399E-01  0.86344912514E-01  0.89929783789E-01  0.51100000000E-03 0. -1.
         11    1    4    4    0    0  0.40721669883E-02  0.19612070335E-01  0.31169992574E-01  0.37054627307E-01  0.51100000000E-03 0.  1.
</event>
<event>
 8    1  0.1180500E+005  0.1043930E+01  0.7957747E-01            NaN
         13   -1    0    0    0    0  0.00000000000E+00  0.00000000000E+00  0.74505805969E-08  0.10566000000E+00  0.10566000000E+00 0. -1.
     999900   -1    0    0    0    0 -0.00000000000E+00 -0.00000000000E+00 -0.74505805969E-08  0.93827000000E+00  0.93827000000E+00 0. -1.
     999902    2    1    2    0    0  0.16557873891E-01 -0.67434641985E-02 -0.14594789380E-01  0.10208508888E+01  0.10205899724E+01 0.  0.
     999903    2    3    3    0    0 -0.24144231255E-01 -0.34232407549E-01 -0.12405590705E+00  0.13271011186E+00  0.21617217347E-01 0.  0.
         14    1    1    2    0    0 -0.16557873891E-01  0.67434641985E-02  0.14594789380E-01  0.23079111210E-01  0.00000000000E+00 0. -1.
     999901    1    3    3    0    0  0.40702105146E-01  0.27488943351E-01  0.10946111767E+00  0.88814077693E+00  0.88000000000E+00 0.  1.
        -11    1    4    4    0    0 -0.13499809065E-01 -0.29538272063E-01 -0.66752687897E-01  0.74235684301E-01  0.51100000000E-03 0. -1.
         11    1    4    4    0    0 -0.10644422190E-01 -0.46941354860E-02 -0.57303219152E-01  0.58474427556E-01  0.51100000000E-03 0.  1.
</event>
<event>
 8    1  0.1180500E+005  0.1043930E+01  0.7957747E-01            NaN
         13   -1    0    0    0    0  0.00000000000E+00  0.00000000000E+00  0.74505805969E-08  0.10566000000E+00  0.10566000000E+00 0. -1.
     999900   -1    0    0    0    0 -0.00000000000E+00 -0.00000000000E+00 -0.74505805969E-08  0.93827000000E+00  0.93827000000E+00 0. -1.
     999902    2    1    2    0    0  0.11369440855E-01 -0.12402241018E-01  0.17216290223E-01  0.10198576005E+01  0.10195734622E+01 0.  0.
     999903    2    3    3    0    0  0.64553624524E-01 -0.22957540488E-01 -0.10788101668E+00  0.12935812947E+00  0.20024804528E-01 0.  0.
         14    1    1    2    0    0 -0.11369440855E-01  0.12402241018E-01 -0.17216290223E-01  0.24072399479E-01  0.00000000000E+00 0.  1.
     999901    1    3    3    0    0 -0.53184183669E-01  0.10555299469E-01  0.12509730691E+00  0.89049947105E+00  0.88000000000E+00 0.  1.
        -11    1    4    4    0    0  0.50625974704E-01 -0.24426970633E-01 -0.94653217311E-01  0.11008705136E+00  0.51100000000E-03 0. -1.
         11    1    4    4    0    0  0.13927649820E-01  0.14694301448E-02 -0.13227799371E-01  0.19271078113E-01  0.51100000000E-03 0.  1.
</event>
<event>
 8    1  0.1180500E+005  0.1043930E+01  0.7957747E-01            NaN
         13   -1    0    0    0    0  0.00000000000E+00  0.00000000000E+00  0.74505805969E-08  0.10566000000E+00  0.10566000000E+00 0.  1.
     999900   -1    0    0    0    0 -0.00000000000E+00 -0.00000000000E+00 -0.74505805969E-08  0.93827000000E+00  0.93827000000E+00 0. -1.
     999902    2    1    2    0    0 -0.65594565648E-02 -0.19712072712E-01  0.10406337534E-01  0.10206945929E+01  0.10204300897E+01 0.  0.
     999903    2    3    3    0    0  0.94288282570E-01  0.49502802113E-01  0.73873553991E-01  0.12997070027E+00  0.97094439650E-02 0.  0.
         14    1    1    2    0    0  0.65594565648E-02  0.19712072712E-01 -0.10406337534E-01  0.23235407074E-01  0.00000000000E+00 0. -1.
     999901    1    3    3    0    0 -0.10084773913E+00 -0.69214874825E-01 -0.63467216457E-01  0.89072389266E+00  0.88000000000E+00 0.  1.
        -11    1    4    4    0    0  0.49496900933E-01  0.31243175954E-01  0.41900456470E-01  0.71986030722E-01  0.51100000000E-03 0.  1.
         11    1    4    4    0    0  0.44791381637E-01  0.18259626158E-01  0.31973097521E-01  0.57984669547E-01  0.51100000000E-03 0. -1.
</event>
<event>
 8    1  0.1180500E+005  0.1043930E+01  0.7957747E-01            NaN
         13   -1    0    0    0    0  0.00000000000E+00  0.00000000000E+00  0.74505805969E-08  0.10566000000E+00  0.10566000000E+00 0.  1.
     999900   -1    0    0    0    0 -0.00000000000E+00 -0.00000000000E+00 -0.74505805969E-08  0.93827000000E+00  0.93827000000E+00 0. -1.
     999902    2    1    2    0    0  0.18225257064E-01 -0.15924773333E-01  0.54281659624E-02  0.10191263030E+01  0.10188244196E+01 0.  0.
     999903    2    3    3    0    0  0.96453877484E-01  0.84522894789E-01  0.59023288187E-02  0.12996395788E+00  0.20206994781E-01 0.  0.
         14    1    1    2    0    0 -0.18225257064E-01  0.15924773333E-01 -0.54281659624E-02  0.24803697032E-01  0.00000000000E+00 0.  1.
     999901    1    3    3    0    0 -0.78228620421E-01 -0.10044766812E+00 -0.47416285630E-03  0.88916234508E+00  0.88000000000E+00 0. -1.
        -11    1    4    4    0    0  0.14897223244E-01  0.17071391236E-01  0.82028824550E-02  0.24102034368E-01  0.51100000000E-03 0.  1.
         11    1    4    4    0    0  0.81556654240E-01  0.67451503554E-01 -0.23005536363E-02  0.10586192352E+00  0.51100000000E-03 0. -1.
</event>
<event>
 8    1  0.1180500E+005  0.1043930E+01  0.7957747E-01            NaN
         13   -1    0    0    0    0  0.00000000000E+00  0.00000000000E+00  0.74505805969E-08  0.10566000000E+00  0.10566000000E+00 0. -1.
     999900   -1    0    0    0    0 -0.00000000000E+00 -0.00000000000E+00 -0.74505805969E-08  0.93827000000E+00  0.93827000000E+00 0.  1.
     999902    2    1    2    0    0  0.14154911590E-01 -0.13348074563E-01  0.13222579014E-01  0.10204061990E+01  0.10201350116E+01 0.  0.
     999903    2    3    3    0    0 -0.13464053353E-01 -0.11971526491E+00  0.51745746452E-01  0.13273462640E+00  0.20684133633E-01 0.  0.
         14    1    1    2    0    0 -0.14154911590E-01  0.13348074563E-01 -0.13222579014E-01  0.23523800977E-01  0.00000000000E+00 0.  1.
     999901    1    3    3    0    0  0.27618964943E-01  0.10636719035E+00 -0.38523167438E-01  0.88767157262E+00  0.88000000000E+00 0.  1.
        -11    1    4    4    0    0  0.14713781096E-02 -0.75579267888E-01  0.30356995913E-01  0.81462868903E-01  0.51100000000E-03 0.  1.
         11    1    4    4    0    0 -0.14935431463E-01 -0.44135997026E-01  0.21388750539E-01  0.51271757499E-01  0.51100000000E-03 0. -1.
</event>
<event>
 8    1  0.1180500E+005  0.1043930E+01  0.7957747E-01            NaN
         13   -1    0    0    0    0  0.00000000000E+00  0.00000000000E+00  0.74505805969E-08  0.10566000000E+00  0.10566000000E+00 0. -1.
     999900   -1    0    0    0    0 -0.00000000000E+00 -0.00000000000E+00 -0.74505805969E-08  0.93827000000E+00  0.93827000000E+00 0. -1.
     999902    2    1    2    0    0  0.87301352968E-02  0.87765704563E-02  0.19452875727E-01  0.10208722936E+01  0.10206118665E+01 0.  0.
     999903    2    3    3    0    0  0.39092277486E-01 -0.12199264152E+00 -0.10900353765E-01  0.13017382327E+00  0.20395975302E-01 0.  0.
         14    1    1    2    0    0 -0.87301352968E-02 -0.87765704563E-02 -0.19452875727E-01  0.23057706420E-01  0.00000000000E+00 0.  1.
     999901    1    3    3    0    0 -0.30362142190E-01  0.13076921197E+00  0.30353229492E-01  0.89069847031E+00  0.88000000000E+00 0. -1.
        -11    1    4    4    0    0  0.28427373356E-01 -0.10524881235E+00 -0.38116453773E-02  0.10908811951E+00  0.51100000000E-03 0. -1.
         11    1    4    4    0    0  0.10664904130E-01 -0.16743829165E-01 -0.70887083875E-02  0.21085703755E-01  0.51100000000E-03 0.  1.
</event>
<event>
 8    1  0.1180500E+005  0.1043930E+01  0.7957747E-01            NaN
         13   -1    0    0    0    0  0.00000000000E+00  0.00000000000E+00  0.74505805969E-08  0.10566000000E+00  0.10566000000E+00 0. -1.
     999900   -1    0    0    0    0 -0.00000000000E+00 -0.00000000000E+00 -0.74505805969E-08  0.93827000000E+00  0.93827000000E+00 0.  1.
     999902    2    1    2    0    0  0.18241535023E-01 -0.18773257258E-02  0.14308551284E-01  0.10206703226E+01  0.10204052601E+01 0.  0.
     999903    2    3    3    0    0 -0.48538275369E-02  0.11820542653E+00  0.53347723727E-01  0.13135748669E+00  0.20315688053E-01 0.  0.
         14    1    1    2    0    0 -0.18241535023E-01  0.18773257258E-02 -0.14308551284E-01  0.23259677378E-01  0.00000000000E+00 0.  1.
     999901    1    3    3    0    0  0.23095362560E-01 -0.12008275225E+00 -0.39039172443E-01  0.88931283593E+00  0.88000000000E+00 0.  1.
        -11    1    4    4    0    0 -0.37040262288E-02  0.45371499406E-01  0.31307643222E-01  0.55251447164E-01  0.51100000000E-03 0.  1.
         11    1    4    4    0    0 -0.11498013080E-02  0.72833927124E-01  0.22040080506E-01  0.76106039530E-01  0.51100000000E-03 0. -1.
</event>
<event>
 8    1  0.1180500E+005  0.1043930E+01  0.7957747E-01            NaN
         13   -1    0    0    0    0  0.00000000000E+00  0.00000000000E+00  0.74505805969E-08  0.10566000000E+00  0.10566000000E+00 0. -1.
     999900   -1    0    0    0    0 -0.00000000000E+00 -0.00000000000E+00 -0.74505805969E-08  0.93827000000E+00  0.93827000000E+00 0. -1.
     999902    2    1    2    0    0  0.12950669289E-01 -0.18725330480E-01  0.29695202559E-02  0.10209696889E+01  0.10207114821E+01 0.  0.
     999903    2    3    3    0    0 -0.12798900858E+00  0.96196490402E-03  0.50576432532E-02  0.12953492252E+00  0.19277051256E-01 0.  0.
         14    1    1    2    0    0 -0.12950669289E-01  0.18725330480E-01 -0.29695202559E-02  0.22960311129E-01  0.00000000000E+00 0. -1.
     999901    1    3    3    0    0  0.14093967786E+00 -0.19687295384E-01 -0.20881229974E-02  0.89143476635E+00  0.88000000000E+00 0.  1.
        -11    1    4    4    0    0 -0.72880148259E-01 -0.88732671783E-02  0.13966913085E-02  0.73433389873E-01  0.51100000000E-03 0. -1.
         11    1    4    4    0    0 -0.55108860316E-01  0.98352320823E-02  0.36609519447E-02  0.56101532649E-01  0.51100000000E-03 0.  1.
</event>
<event>
 8    1  0.1180500E+005  0.1043930E+01  0.7957747E-01            NaN
         13   -1    0    0    0    0  0.00000000000E+00  0.00000000000E+00  0.74505805969E-08  0.10566000000E+00  0.10566000000E+00 0.  1.
     999900   -1    0    0    0    0 -0.00000000000E+00 -0.00000000000E+00 -0.74505805969E-08  0.93827000000E+00  0.93827000000E+00 0. -1.
     999902    2    1    2    0    0 -0.12227327423E-01  0.15778930769E-01  0.12746054548E-01  0.10202457415E+01  0.10199707981E+01 0.  0.
     999903    2    3    3    0    0  0.83186464264E-01  0.74706000982E-01 -0.62998389110E-01  0.12990119476E+00  0.20113402223E-01 0.  0.
         14    1    1    2    0    0  0.12227327423E-01 -0.15778930769E-01 -0.12746054548E-01  0.23684258457E-01  0.00000000000E+00 0. -1.
     999901    1    3    3    0    0 -0.95413791687E-01 -0.58927070213E-01  0.75744443658E-01  0.89034454679E+00  0.88000000000E+00 0.  1.
        -11    1    4    4    0    0  0.58292022463E-01  0.42198078555E-01 -0.33172568902E-01  0.79242148918E-01  0.51100000000E-03 0.  1.
         11    1    4    4    0    0  0.24894441801E-01  0.32507922428E-01 -0.29825820208E-01  0.50659045838E-01  0.51100000000E-03 0. -1.
</event>
<event>
 8    1  0.1180500E+005  0.1043930E+01  0.7957747E-01            NaN
         13   -1    0    0    0    0  0.00000000000E+00  0.00000000000E+00  0.74505805969E-08  0.10566000000E+00  0.10566000000E+00 0.  1.
     999900   -1    0    0    0    0 -0.00000000000E+00 -0.00000000000E+00 -0.74505805969E-08  0.93827000000E+00  0.93827000000E+00 0. -1.
     999902    2    1    2    0    0  0.86900741813E-02 -0.15773959407E-01 -0.15963595491E-01  0.10198640164E+01  0.10195800314E+01 0.  0.
     999903    2    3    3    0    0  0.18641279775E-01  0.99511784271E-02 -0.12890287451E+00  0.13221763979E+00  0.20470221075E-01 0.  0.
         14    1    1    2    0    0 -0.86900741813E-02  0.15773959407E-01  0.15963595491E-01  0.24065983579E-01  0.00000000000E+00 0.  1.
     999901    1    3    3    0    0 -0.99512055939E-02 -0.25725137834E-01  0.11293927901E+00  0.88764637664E+00  0.88000000000E+00 0.  1.
        -11    1    4    4    0    0  0.38512299141E-02 -0.62601691074E-02 -0.37400837662E-01  0.38119620511E-01  0.51100000000E-03 0.  1.
         11    1    4    4    0    0  0.14790049861E-01  0.16211347535E-01 -0.91502036844E-01  0.94098019274E-01  0.51100000000E-03 0. -1.
</event>
<event>
 8    1  0.1180500E+005  0.1043930E+01  0.7957747E-01            NaN
         13   -1    0    0    0    0  0.00000000000E+00  0.00000000000E+00  0.74505805969E-08  0.10566000000E+00  0.10566000000E+00 0. -1.
     999900   -1    0    0    0    0 -0.00000000000E+00 -0.00000000000E+00 -0.74505805969E-08  0.93827000000E+00  0.93827000000E+00 0.  1.
     999902    2    1    2    0    0 -0.26414085856E-01  0.13614366649E-01 -0.18194186011E-01  0.10090863016E+01  0.10084845467E+01 0.  0.
     999903    2    3    3    0    0  0.59502346699E-01 -0.20125139981E-01  0.96598320686E-01  0.11684344945E+00  0.19380546894E-01 0.  0.
         14    1    1    2    0    0  0.26414085856E-01 -0.13614366649E-01  0.18194186011E-01  0.34843698361E-01  0.00000000000E+00 0.  1.
     999901    1    3    3    0    0 -0.85916432555E-01  0.33739506630E-01 -0.11479250670E+00  0.89224285219E+00  0.88000000000E+00 0.  1.
        -11    1    4    4    0    0  0.54571683602E-01 -0.20988882530E-01  0.95021559563E-01  0.11157042504E+00  0.51100000000E-03 0.  1.
         11    1    4    4    0    0  0.49306630976E-02  0.86374254952E-03  0.15767611227E-02  0.52730244085E-02  0.51100000000E-03 0. -1.
</event>
<event>
 8    1  0.1180500E+005  0.1043930E+01  0.7957747E-01            NaN
         13   -1    0    0    0    0  0.00000000000E+00  0.00000000000E+00  0.74505805969E-08  0.10566000000E+00  0.10566000000E+00 0.  1.
     999900   -1    0    0    0    0 -0.00000000000E+00 -0.00000000000E+00 -0.74505805969E-08  0.93827000000E+00  0.93827000000E+00 0. -1.
     999902    2    1    2    0    0 -0.20140546341E-01 -0.10028003817E-01  0.77113610932E-02  0.10201462333E+01  0.10198689474E+01 0.  0.
     999903    2    3    3    0    0 -0.22161248114E-01  0.85020839943E-01  0.94743687751E-01  0.13075712173E+00  0.20034828968E-01 0.  0.
         14    1    1    2    0    0  0.20140546341E-01  0.10028003817E-01 -0.77113610932E-02  0.23783766678E-01  0.00000000000E+00 0. -1.
     999901    1    3    3    0    0  0.20207017730E-02 -0.95048843760E-01 -0.87032326658E-01  0.88938911159E+00  0.88000000000E+00 0. -1.
        -11    1    4    4    0    0 -0.23821769944E-01  0.74999513530E-01  0.75836328807E-01  0.10928775613E+00  0.51100000000E-03 0. -1.
         11    1    4    4    0    0  0.16605218290E-02  0.10021326413E-01  0.18907358944E-01  0.21469365595E-01  0.51100000000E-03 0.  1.
</event>
<event>
 8    1  0.1180500E+005  0.1043930E+01  0.7957747E-01            NaN
         13   -1    0    0    0    0  0.00000000000E+00  0.00000000000E+00  0.74505805969E-08  0.10566000000E+00  0.10566000000E+00 0.  1.
     999900   -1    0    0    0    0 -0.00000000000E+00 -0.00000000000E+00 -0.74505805969E-08  0.93827000000E+00  0.93827000000E+00 0.  1.
     999902    2    1    2    0    0  0.22065363833E-01  0.57811895411E-02  0.34066649122E-02  0.10208668736E+01  0.10206063226E+01 0.  0.
     999903    2    3    3    0    0  0.56891435389E-01  0.66211230385E-01 -0.97324132585E-01  0.13237864145E+00  0.20773913441E-01 0.  0.
         14    1    1    2    0    0 -0.22065363833E-01 -0.57811895411E-02 -0.34066649122E-02  0.23063126402E-01  0.00000000000E+00 0.  1.
     999901    1    3    3    0    0 -0.34826071556E-01 -0.60430040844E-01  0.10073079750E+00  0.88848823215E+00  0.88000000000E+00 0. -1.
        -11    1    4    4    0    0  0.19322642596E-01  0.31814291870E-01 -0.53530769793E-01  0.65202132785E-01  0.51100000000E-03 0.  1.
         11    1    4    4    0    0  0.37568792793E-01  0.34396938515E-01 -0.43793362792E-01  0.67176508668E-01  0.51100000000E-03 0. -1.
</event>
<event>
 8    1  0.1180500E+005  0.1043930E+01  0.7957747E-01            NaN
         13   -1    0    0    0    0  0.00000000000E+00  0.00000000000E+00  0.74505805969E-08  0.10566000000E+00  0.10566000000E+00 0.  1.
     999900   -1    0    0    0    0 -0.00000000000E+00 -0.00000000000E+00 -0.74505805969E-08  0.93827000000E+00  0.93827000000E+00 0. -1.
     999902    2    1    2    0    0 -0.10295004430E-02 -0.11474794059E-01  0.10751413581E-01  0.10281717113E+01  0.10280509444E+01 0.  0.
     999903    2    3    3    0    0  0.10886494914E+00  0.51295210217E-01  0.63632335375E-01  0.13754650649E+00  0.19677184761E-01 0.  0.
         14    1    1    2    0    0  0.10295004430E-02  0.11474794059E-01 -0.10751413581E-01  0.15758288735E-01  0.00000000000E+00 0. -1.
     999901    1    3    3    0    0 -0.10989444958E+00 -0.62770004277E-01 -0.52880921794E-01  0.89062520477E+00  0.88000000000E+00 0. -1.
        -11    1    4    4    0    0  0.82855041649E-02  0.91250204199E-05  0.85781479010E-02  0.11937143919E-01  0.51100000000E-03 0.  1.
         11    1    4    4    0    0  0.10057944498E+00  0.51286085197E-01  0.55054187474E-01  0.12560936257E+00  0.51100000000E-03 0. -1.
</event>
<event>
 8    1  0.1180500E+005  0.1043930E+01  0.7957747E-01            NaN
         13   -1    0    0    0    0  0.00000000000E+00  0.00000000000E+00  0.74505805969E-08  0.10566000000E+00  0.10566000000E+00 0. -1.
     999900   -1    0    0    0    0 -0.00000000000E+00 -0.00000000000E+00 -0.74505805969E-08  0.93827000000E+00  0.93827000000E+00 0.  1.
     999902    2    1    2    0    0 -0.64138548592E-02  0.21065023566E-01  0.89434499559E-02  0.10201632575E+01  0.10198863730E+01 0.  0.
     999903    2    3    3    0    0  0.10452672836E+00  0.68714320997E-01 -0.33110466088E-01  0.13092380695E+00  0.19931016298E-01 0.  0.
         14    1    1    2    0    0  0.64138548592E-02 -0.21065023566E-01 -0.89434499559E-02  0.23766742501E-01  0.00000000000E+00 0.  1.
     999901    1    3    3    0    0 -0.11094058322E+00 -0.47649297431E-01  0.42053916044E-01  0.88923945055E+00  0.88000000000E+00 0. -1.
        -11    1    4    4    0    0  0.51386628225E-01  0.22340772663E-01 -0.17263874967E-01  0.58634445366E-01  0.51100000000E-03 0. -1.
         11    1    4    4    0    0  0.53140100137E-01  0.46373548334E-01 -0.15846591121E-01  0.72289361588E-01  0.51100000000E-03 0.  1.
</event>
<event>
 8    1  0.1180500E+005  0.1043930E+01  0.7957747E-01            NaN
         13   -1    0    0    0    0  0.00000000000E+00  0.00000000000E+00  0.74505805969E-08  0.10566000000E+00  0.10566000000E+00 0. -1.
     999900   -1    0    0    0    0 -0.00000000000E+00 -0.00000000000E+00 -0.74505805969E-08  0.93827000000E+00  0.93827000000E+00 0.  1.
     999902    2    1    2    0    0  0.71732508689E-02 -0.12438111807E-01  0.19169641400E-01  0.10199792734E+01  0.10196980342E+01 0.  0.
     999903    2    3    3    0    0 -0.12494634246E+00  0.22331517918E-01 -0.10599856729E-01  0.12894014008E+00  0.20072806806E-01 0.  0.
         14    1    1    2    0    0 -0.71732508689E-02  0.12438111807E-01 -0.19169641400E-01  0.23950726601E-01  0.00000000000E+00 0.  1.
     999901    1    3    3    0    0  0.13211959333E+00 -0.34769629724E-01  0.29769498129E-01  0.89103913332E+00  0.88000000000E+00 0. -1.
        -11    1    4    4    0    0 -0.10914247098E+00  0.25369943326E-01 -0.60888296068E-02  0.11221875050E+00  0.51100000000E-03 0.  1.
         11    1    4    4    0    0 -0.15803871478E-01 -0.30384254083E-02 -0.45110271226E-02  0.16721389576E-01  0.51100000000E-03 0. -1.
</event>
<event>
 8    1  0.1180500E+005  0.1043930E+01  0.7957747E-01            NaN
         13   -1    0    0    0    0  0.00000000000E+00  0.00000000000E+00  0.74505805969E-08  0.10566000000E+00  0.10566000000E+00 0.  1.
     999900   -1    0    0    0    0 -0.00000000000E+00 -0.00000000000E+00 -0.74505805969E-08  0.93827000000E+00  0.93827000000E+00 0. -1.
     999902    2    1    2    0    0 -0.77877051608E-02 -0.20410444187E-01 -0.17686798549E-02  0.10220128193E+01  0.10217777840E+01 0.  0.
     999903    2    3    3    0    0 -0.11986018664E+00 -0.57142399051E-01 -0.29825582352E-02  0.13414405017E+00  0.18815218039E-01 0.  0.
         14    1    1    2    0    0  0.77877051608E-02  0.20410444187E-01  0.17686798549E-02  0.21917180750E-01  0.00000000000E+00 0.  1.
     999901    1    3    3    0    0  0.11207248148E+00  0.36731954864E-01  0.12138783803E-02  0.88786876908E+00  0.88000000000E+00 0.  1.
        -11    1    4    4    0    0 -0.63137028653E-01 -0.34581142427E-01 -0.10057362555E-01  0.72688042079E-01  0.51100000000E-03 0.  1.
         11    1    4    4    0    0 -0.56723157991E-01 -0.22561256624E-01  0.70748043200E-02  0.61456008088E-01  0.51100000000E-03 0. -1.
</event>
<event>
 8    1  0.1180500E+005  0.1043930E+01  0.7957747E-01            NaN
         13   -1    0    0    0    0  0.00000000000E+00  0.00000000000E+00  0.74505805969E-08  0.10566000000E+00  0.10566000000E+00 0.  1.
     999900   -1    0    0    0    0 -0.00000000000E+00 -0.00000000000E+00 -0.74505805969E-08  0.93827000000E+00  0.93827000000E+00 0.  1.
     999902    2    1    2    0    0  0.11069830448E-01  0.14826578826E-01  0.15206363314E-01  0.10199800090E+01  0.10196987872E+01 0.  0.
     999903    2    3    3    0    0 -0.55397565799E-01  0.47661490518E-01 -0.10420865988E+00  0.12882570472E+00  0.19902498037E-01 0.  0.
         14    1    1    2    0    0 -0.11069830448E-01 -0.14826578826E-01 -0.15206363314E-01  0.23949991045E-01  0.00000000000E+00 0. -1.
     999901    1    3    3    0    0  0.66467396247E-01 -0.32834911692E-01  0.11941502319E+00  0.89115430423E+00  0.88000000000E+00 0. -1.
        -11    1    4    4    0    0 -0.35357532868E-01  0.30062471786E-01 -0.48895627565E-01  0.67416250685E-01  0.51100000000E-03 0. -1.
         11    1    4    4    0    0 -0.20040032931E-01  0.17599018731E-01 -0.55313032315E-01  0.61409454037E-01  0.51100000000E-03 0.  1.
</event>
<event>
 8    1  0.1180500E+005  0.1043930E+01  0.7957747E-01            NaN
         13   -1    0    0    0    0  0.00000000000E+00  0.00000000000E+00  0.74505805969E-08  0.10566000000E+00  0.10566000000E+00 0.  1.
     999900   -1    0    0    0    0 -0.00000000000E+00 -0.00000000000E+00 -0.74505805969E-08  0.93827000000E+00  0.93827000000E+00 0. -1.
     999902    2    1    2    0    0 -0.18632461949E-02  0.27181362563E-01 -0.11066617203E-01  0.10145230591E+01  0.10140967751E+01 0.  0.
     999903    2    3    3    0    0 -0.11615715090E+00  0.12452076049E-01  0.41186478517E-01  0.12547275987E+00  0.19988735684E-01 0.  0.
         14    1    1    2    0    0  0.18632461949E-02 -0.27181362563E-01  0.11066617203E-01  0.29406940907E-01  0.00000000000E+00 0. -1.
     999901    1    3    3    0    0  0.11429390470E+00  0.14729286514E-01 -0.52253095720E-01  0.88905029922E+00  0.88000000000E+00 0. -1.
        -11    1    4    4    0    0 -0.10550283025E-01 -0.46383003222E-02  0.42367338883E-02  0.12289562109E-01  0.51100000000E-03 0.  1.
         11    1    4    4    0    0 -0.10560686787E+00  0.17090376371E-01  0.36949744628E-01  0.11318319776E+00  0.51100000000E-03 0. -1.
</event>
<event>
 8    1  0.1180500E+005  0.1043930E+01  0.7957747E-01            NaN
         13   -1    0    0    0    0  0.00000000000E+00  0.00000000000E+00  0.74505805969E-08  0.10566000000E+00  0.10566000000E+00 0.  1.
     999900   -1    0    0    0    0 -0.00000000000E+00 -0.00000000000E+00 -0.74505805969E-08  0.93827000000E+00  0.93827000000E+00 0.  1.
     999902    2    1    2    0    0 -0.16586335892E-01 -0.46026078751E-03  0.18702402620E-01  0.10189280352E+01  0.10186212460E+01 0.  0.
     999903    2    3    3    0    0  0.23525710098E-01 -0.77860429819E-01  0.10025631898E+00  0.13086790007E+00  0.21432970046E-01 0.  0.
         14    1    1    2    0    0  0.16586335892E-01  0.46026078751E-03 -0.18702402620E-01  0.25001964764E-01  0.00000000000E+00 0. -1.
     999901    1    3    3    0    0 -0.40112045990E-01  0.77400169032E-01 -0.81553916363E-01  0.88806013517E+00  0.88000000000E+00 0.  1.
        -11    1    4    4    0    0  0.20883662227E-02 -0.31918780945E-01  0.50850960149E-01  0.60077043200E-01  0.51100000000E-03 0.  1.
         11    1    4    4    0    0  0.21437343876E-01 -0.45941648874E-01  0.49405358834E-01  0.70790856869E-01  0.51100000000E-03 0. -1.
</event>
<event>
 8    1  0.1180500E+005  0.1043930E+01  0.7957747E-01            NaN
         13   -1    0    0    0    0  0.00000000000E+00  0.00000000000E+00  0.74505805969E-08  0.10566000000E+00  0.10566000000E+00 0.  1.
     999900   -1    0    0    0    0 -0.00000000000E+00 -0.00000000000E+00 -0.74505805969E-08  0.93827000000E+00  0.93827000000E+00 0.  1.
     999902    2    1    2    0    0  0.15199841672E-01  0.75920872318E-02  0.12684604433E-01  0.10227268360E+01  0.10225070204E+01 0.  0.
     999903    2    3    3    0    0  0.11483593976E+00 -0.54663710529E-01  0.39195254679E-01  0.13452305812E+00  0.19615577202E-01 0.  0.
         14    1    1    2    0    0 -0.15199841672E-01 -0.75920872318E-02 -0.12684604433E-01  0.21203164033E-01  0.00000000000E+00 0.  1.
     999901    1    3    3    0    0 -0.99636098086E-01  0.62255797761E-01 -0.26510650245E-01  0.88820377784E+00  0.88000000000E+00 0.  1.
        -11    1    4    4    0    0  0.77376630791E-01 -0.26572486690E-01  0.23163870974E-01  0.85029795254E-01  0.51100000000E-03 0. -1.
         11    1    4    4    0    0  0.37459308967E-01 -0.28091223840E-01  0.16031383704E-01  0.49493262870E-01  0.51100000000E-03 0.  1.
</event>
<event>
 8    1  0.1180500E+005  0.1043930E+01  0.7957747E-01            NaN
         13   -1    0    0    0    0  0.00000000000E+00  0.00000000000E+00  0.74505805969E-08  0.10566000000E+00  0.10566000000E+00 0. -1.
     999900   -1    0    0    0    0 -0.00000000000E+00 -0.00000000000E+00 -0.74505805969E-08  0.93827000000E+00  0.93827000000E+00 0. -1.
     999902    2    1    2    0    0 -0.10581086552E-01 -0.20427866726E-01 -0.40749870961E-02  0.10205662963E+01  0.10202988300E+01 0.  0.
     999903    2    3    3    0    0  0.47192256356E-01 -0.10119318513E+00 -0.68964321164E-01  0.13260716350E+00  0.19010850666E-01 0.  0.
         14    1    1    2    0    0  0.10581086552E-01  0.20427866726E-01  0.40749870961E-02  0.23363703718E-01  0.00000000000E+00 0. -1.
     999901    1    3    3    0    0 -0.57773342908E-01  0.80765318400E-01  0.64889334068E-01  0.88795913278E+00  0.88000000000E+00 0.  1.
        -11    1    4    4    0    0  0.33055412367E-01 -0.55549635974E-01 -0.47523951432E-01  0.80232221858E-01  0.51100000000E-03 0. -1.
         11    1    4    4    0    0  0.14136843989E-01 -0.45643549152E-01 -0.21440369732E-01  0.52374941646E-01  0.51100000000E-03 0.  1.
</event>
<event>
 8    1  0.1180500E+005  0.1043930E+01  0.7957747E-01            NaN
         13   -1    0    0    0    0  0.00000000000E+00  0.00000000000E+00  0.74505805969E-08  0.10566000000E+00  0.10566000000E+00 0.  1.
     999900   -1    0    0    0    0 -0.00000000000E+00 -0.00000000000E+00 -0.74505805969E-08  0.93827000000E+00  0.93827000000E+00 0.  1.
     999902    2    1    2    0    0 -0.93724451739E-02  0.18891600179E-01  0.11555393642E-01  0.10198829127E+01  0.10195993788E+01 0.  0.
     999903    2    3    3    0    0 -0.94345141918E-01 -0.95594902280E-02  0.89552663755E-01  0.13190014378E+00  0.19636157632E-01 0.  0.
         14    1    1    2    0    0  0.93724451739E-02 -0.18891600179E-01 -0.11555393642E-01  0.24047087310E-01  0.00000000000E+00 0. -1.
     999901    1    3    3    0    0  0.84972696744E-01  0.28451090407E-01 -0.77997270113E-01  0.88798276891E+00  0.88000000000E+00 0.  1.
        -11    1    4    4    0    0 -0.20893585555E-01 -0.15920070615E-02  0.31963738001E-01  0.38223266106E-01  0.51100000000E-03 0.  1.
         11    1    4    4    0    0 -0.73451556363E-01 -0.79674831665E-02  0.57588925754E-01  0.93676877673E-01  0.51100000000E-03 0. -1.
</event>
<event>
 8    1  0.1180500E+005  0.1043930E+01  0.7957747E-01            NaN
         13   -1    0    0    0    0  0.00000000000E+00  0.00000000000E+00  0.74505805969E-08  0.10566000000E+00  0.10566000000E+00 0. -1.
     999900   -1    0    0    0    0 -0.00000000000E+00 -0.00000000000E+00 -0.74505805969E-08  0.93827000000E+00  0.93827000000E+00 0.  1.
     999902    2    1    2    0    0  0.12765211148E-01 -0.14875819034E-01 -0.13821271818E-01  0.10199452515E+01  0.10196632031E+01 0.  0.
     999903    2    3    3    0    0  0.10295677302E+00 -0.54836038919E-01 -0.60967879693E-01  0.13317913820E+00  0.20310396870E-01 0.  0.
         14    1    1    2    0    0 -0.12765211148E-01  0.14875819034E-01  0.13821271818E-01  0.23984748534E-01  0.00000000000E+00 0.  1.
     999901    1    3    3    0    0 -0.90191561876E-01  0.39960219886E-01  0.47146607875E-01  0.88676611327E+00  0.88000000000E+00 0. -1.
        -11    1    4    4    0    0  0.44215319937E-01 -0.13589024170E-01 -0.29048371703E-01  0.54623485010E-01  0.51100000000E-03 0. -1.
         11    1    4    4    0    0  0.58741453087E-01 -0.41247014749E-01 -0.31919507990E-01  0.78555653188E-01  0.51100000000E-03 0.  1.
</event>
<event>
 8    1  0.1180500E+005  0.1043930E+01  0.7957747E-01            NaN
         13   -1    0    0    0    0  0.00000000000E+00  0.00000000000E+00  0.74505805969E-08  0.10566000000E+00  0.10566000000E+00 0. -1.
     999900   -1    0    0    0    0 -0.00000000000E+00 -0.00000000000E+00 -0.74505805969E-08  0.93827000000E+00  0.93827000000E+00 0. -1.
     999902    2    1    2    0    0  0.99839184270E-03 -0.11429360294E-03  0.24027311114E-01  0.10198816835E+01  0.10195981202E+01 0.  0.
     999903    2    3    3    0    0 -0.10676764474E+00 -0.75487796106E-02 -0.68091872184E-01  0.12850368611E+00  0.20503176532E-01 0.  0.
         14    1    1    2    0    0 -0.99839184270E-03  0.11429360294E-03 -0.24027311114E-01  0.24048316545E-01  0.00000000000E+00 0.  1.
     999901    1    3    3    0    0  0.10776603659E+00  0.74344860077E-02  0.92119183298E-01  0.89137799735E+00  0.88000000000E+00 0.  1.
        -11    1    4    4    0    0 -0.88974708842E-01  0.36915389117E-03 -0.50816889363E-01  0.10246585994E+00  0.51100000000E-03 0. -1.
         11    1    4    4    0    0 -0.17792935901E-01 -0.79179335018E-02 -0.17274982822E-01  0.26037826165E-01  0.51100000000E-03 0.  1.
</event>
<event>
 8    1  0.1180500E+005  0.1043930E+01  0.7957747E-01            NaN
         13   -1    0    0    0    0  0.00000000000E+00  0.00000000000E+00  0.74505805969E-08  0.10566000000E+00  0.10566000000E+00 0.  1.
     999900   -1    0    0    0    0 -0.00000000000E+00 -0.00000000000E+00 -0.74505805969E-08  0.93827000000E+00  0.93827000000E+00 0.  1.
     999902    2    1    2    0    0  0.82025428555E-02 -0.53683346389E-02  0.15111584153E-01  0.10259172073E+01  0.10257590631E+01 0.  0.
     999903    2    3    3    0    0  0.12986779145E+00 -0.34356855280E-01  0.17950677738E-01  0.13706917330E+00  0.20486451115E-01 0.  0.
         14    1    1    2    0    0 -0.82025428555E-02  0.53683346389E-02 -0.15111584153E-01  0.18012792723E-01  0.00000000000E+00 0. -1.
     999901    1    3    3    0    0 -0.12166524859E+00  0.28988520641E-01 -0.28390935859E-02  0.88884803397E+00  0.88000000000E+00 0.  1.
        -11    1    4    4    0    0  0.57517142147E-01 -0.48009121382E-02  0.66957376937E-02  0.58106492085E-01  0.51100000000E-03 0. -1.
         11    1    4    4    0    0  0.72350649299E-01 -0.29555943142E-01  0.11254940045E-01  0.78962681220E-01  0.51100000000E-03 0.  1.
</event>
<event>
 8    1  0.1180500E+005  0.1043930E+01  0.7957747E-01            NaN
         13   -1    0    0    0    0  0.00000000000E+00  0.00000000000E+00  0.74505805969E-08  0.10566000000E+00  0.10566000000E+00 0. -1.
     999900   -1    0    0    0    0 -0.00000000000E+00 -0.00000000000E+00 -0.74505805969E-08  0.93827000000E+00  0.93827000000E+00 0.  1.
     999902    2    1    2    0    0 -0.19464332581E-01  0.11810175564E-02  0.14124257909E-01  0.10198520078E+01  0.10195677359E+01 0.  0.
     999903    2    3    3    0    0  0.81912623109E-01 -0.69525527746E-01  0.69615275265E-01  0.12948356966E+00  0.19396686002E-01 0.  0.
         14    1    1    2    0    0  0.19464332581E-01 -0.11810175564E-02 -0.14124257909E-01  0.24077992167E-01  0.00000000000E+00 0.  1.
     999901    1    3    3    0    0 -0.10137695569E+00  0.70706545302E-01 -0.55491017357E-01  0.89036843818E+00  0.88000000000E+00 0.  1.
        -11    1    4    4    0    0  0.18847021508E-01 -0.27458549188E-01  0.23226143081E-01  0.40606612597E-01  0.51100000000E-03 0.  1.
         11    1    4    4    0    0  0.63065601601E-01 -0.42066978558E-01  0.46389132185E-01  0.88876957059E-01  0.51100000000E-03 0. -1.
</event>
<event>
 8    1  0.1180500E+005  0.1043930E+01  0.7957747E-01            NaN
         13   -1    0    0    0    0  0.00000000000E+00  0.00000000000E+00  0.74505805969E-08  0.10566000000E+00  0.10566000000E+00 0. -1.
     999900   -1    0    0    0    0 -0.00000000000E+00 -0.00000000000E+00 -0.74505805969E-08  0.93827000000E+00  0.93827000000E+00 0. -1.
     999902    2    1    2    0    0  0.11344594453E-01 -0.93878157758E-02  0.29842088697E-01  0.10106526629E+01  0.10101046598E+01 0.  0.
     999903    2    3    3    0    0  0.83773898424E-01 -0.70123088810E-01 -0.50421268114E-01  0.12195868635E+00  0.19907366890E-01 0.  0.
         14    1    1    2    0    0 -0.11344594453E-01  0.93878157758E-02 -0.29842088697E-01  0.33277337125E-01  0.00000000000E+00 0.  1.
     999901    1    3    3    0    0 -0.72429303971E-01  0.60735273035E-01  0.80263356811E-01  0.88869397652E+00  0.88000000000E+00 0.  1.
        -11    1    4    4    0    0  0.24644992755E-01 -0.31782111421E-01 -0.13688903217E-01  0.42486768135E-01  0.51100000000E-03 0. -1.
         11    1    4    4    0    0  0.59128905670E-01 -0.38340977389E-01 -0.36732364897E-01  0.79471918215E-01  0.51100000000E-03 0.  1.
</event>
<event>
 8    1  0.1180500E+005  0.1043930E+01  0.7957747E-01            NaN
         13   -1    0    0    0    0  0.00000000000E+00  0.00000000000E+00  0.74505805969E-08  0.10566000000E+00  0.10566000000E+00 0.  1.
     999900   -1    0    0    0    0 -0.00000000000E+00 -0.00000000000E+00 -0.74505805969E-08  0.93827000000E+00  0.93827000000E+00 0.  1.
     999902    2    1    2    0    0 -0.20657544176E-01  0.19240605513E-02 -0.25337085071E-01  0.10111824196E+01  0.10106520082E+01 0.  0.
     999903    2    3    3    0    0  0.61660297023E-01  0.10002712412E+00 -0.25448844863E-01  0.12191280328E+00  0.20190842274E-01 0.  0.
         14    1    1    2    0    0  0.20657544176E-01 -0.19240605513E-02  0.25337085071E-01  0.32747580374E-01  0.00000000000E+00 0.  1.
     999901    1    3    3    0    0 -0.82317841200E-01 -0.98103063564E-01  0.11175979206E-03  0.88926961634E+00  0.88000000000E+00 0.  1.
        -11    1    4    4    0    0  0.50746034856E-01  0.73024689612E-01 -0.11671680660E-01  0.89689768631E-01  0.51100000000E-03 0. -1.
         11    1    4    4    0    0  0.10914262167E-01  0.27002434503E-01 -0.13777164203E-01  0.32223034653E-01  0.51100000000E-03 0.  1.
</event>
<event>
 8    1  0.1180500E+005  0.1043930E+01  0.7957747E-01            NaN
         13   -1    0    0    0    0  0.00000000000E+00  0.00000000000E+00  0.74505805969E-08  0.10566000000E+00  0.10566000000E+00 0.  1.
     999900   -1    0    0    0    0 -0.00000000000E+00 -0.00000000000E+00 -0.74505805969E-08  0.93827000000E+00  0.93827000000E+00 0. -1.
     999902    2    1    2    0    0 -0.16483041774E-01  0.82770792524E-02  0.18860763223E-01  0.10175495319E+01  0.10172075112E+01 0.  0.
     999903    2    3    3    0    0  0.43644132852E-01  0.16395274805E-01 -0.11458460348E+00  0.12542350487E+00  0.20683540586E-01 0.  0.
         14    1    1    2    0    0  0.16483041774E-01 -0.82770792524E-02 -0.18860763223E-01  0.26380468086E-01  0.00000000000E+00 0. -1.
     999901    1    3    3    0    0 -0.60127174626E-01 -0.81181955531E-02  0.13344536671E+00  0.89212602704E+00  0.88000000000E+00 0.  1.
        -11    1    4    4    0    0  0.32557875423E-01  0.17232500441E-02 -0.73126717924E-01  0.80067239481E-01  0.51100000000E-03 0.  1.
         11    1    4    4    0    0  0.11086257429E-01  0.14672024761E-01 -0.41457885559E-01  0.45356265393E-01  0.51100000000E-03 0. -1.
</event>
<event>
 8    1  0.1180500E+005  0.1043930E+01  0.7957747E-01            NaN
         13   -1    0    0    0    0  0.00000000000E+00  0.00000000000E+00  0.74505805969E-08  0.10566000000E+00  0.10566000000E+00 0. -1.
     999900   -1    0    0    0    0 -0.00000000000E+00 -0.00000000000E+00 -0.74505805969E-08  0.93827000000E+00  0.93827000000E+00 0. -1.
     999902    2    1    2    0    0 -0.92582536662E-02  0.18858309685E-01 -0.12226995712E-01  0.10196225828E+01  0.10193328018E+01 0.  0.
     999903    2    3    3    0    0 -0.11690670014E-01 -0.92495605788E-01  0.84442749348E-01  0.12734983824E+00  0.19882015148E-01 0.  0.
         14    1    1    2    0    0  0.92582536662E-02 -0.18858309685E-01  0.12226995712E-01  0.24307417165E-01  0.00000000000E+00 0. -1.
     999901    1    3    3    0    0  0.24324163475E-02  0.11135391547E+00 -0.96669745060E-01  0.89227274460E+00  0.88000000000E+00 0.  1.
        -11    1    4    4    0    0  0.15600819217E-02 -0.15921737380E-01  0.64745585835E-02  0.17266053593E-01  0.51100000000E-03 0.  1.
         11    1    4    4    0    0 -0.13250751935E-01 -0.76573868408E-01  0.77968190764E-01  0.11008378465E+00  0.51100000000E-03 0. -1.
</event>
<event>
 8    1  0.1180500E+005  0.1043930E+01  0.7957747E-01            NaN
         13   -1    0    0    0    0  0.00000000000E+00  0.00000000000E+00  0.74505805969E-08  0.10566000000E+00  0.10566000000E+00 0.  1.
     999900   -1    0    0    0    0 -0.00000000000E+00 -0.00000000000E+00 -0.74505805969E-08  0.93827000000E+00  0.93827000000E+00 0. -1.
     999902    2    1    2    0    0 -0.14864509873E-01  0.39701468674E-02 -0.17753749502E-01  0.10204372066E+01  0.10201667419E+01 0.  0.
     999903    2    3    3    0    0  0.11584799395E+00  0.53346586121E-01 -0.20663489337E-02  0.12927510803E+00  0.21003994964E-01 0.  0.
         14    1    1    2    0    0  0.14864509873E-01 -0.39701468674E-02  0.17753749502E-01  0.23492793391E-01  0.00000000000E+00 0.  1.
     999901    1    3    3    0    0 -0.13071250383E+00 -0.49376439254E-01 -0.15687400568E-01  0.89116209858E+00  0.88000000000E+00 0. -1.
        -11    1    4    4    0    0  0.39073000323E-01  0.29136338770E-01 -0.16376130203E-02  0.48770569902E-01  0.51100000000E-03 0. -1.
         11    1    4    4    0    0  0.76774993629E-01  0.24210247351E-01 -0.42873591338E-03  0.80504538127E-01  0.51100000000E-03 0.  1.
</event>
<event>
 8    1  0.1180500E+005  0.1043930E+01  0.7957747E-01            NaN
         13   -1    0    0    0    0  0.00000000000E+00  0.00000000000E+00  0.74505805969E-08  0.10566000000E+00  0.10566000000E+00 0.  1.
     999900   -1    0    0    0    0 -0.00000000000E+00 -0.00000000000E+00 -0.74505805969E-08  0.93827000000E+00  0.93827000000E+00 0. -1.
     999902    2    1    2    0    0 -0.98324790701E-02  0.65319387683E-03 -0.22414200120E-01  0.10194452971E+01  0.10191512219E+01 0.  0.
     999903    2    3    3    0    0 -0.47717507784E-01 -0.16695403402E-01 -0.11921445813E+00  0.13315722931E+00  0.31033266767E-01 0.  0.
         14    1    1    2    0    0  0.98324790701E-02 -0.65319387683E-03  0.22414200120E-01  0.24484702856E-01  0.00000000000E+00 0.  1.
     999901    1    3    3    0    0  0.37885028714E-01  0.17348597279E-01  0.96800258014E-01  0.88628806783E+00  0.88000000000E+00 0.  1.
        -11    1    4    4    0    0 -0.39465517927E-01 -0.53527785772E-02 -0.10825341906E+00  0.11534835588E+00  0.51100000000E-03 0.  1.
         11    1    4    4    0    0 -0.82519898576E-02 -0.11342624825E-01 -0.10961039069E-01  0.17808873434E-01  0.51100000000E-03 0. -1.
</event>
<event>
 8    1  0.1180500E+005  0.1043930E+01  0.7957747E-01            NaN
         13   -1    0    0    0    0  0.00000000000E+00  0.00000000000E+00  0.74505805969E-08  0.10566000000E+00  0.10566000000E+00 0. -1.
     999900   -1    0    0    0    0 -0.00000000000E+00 -0.00000000000E+00 -0.74505805969E-08  0.93827000000E+00  0.93827000000E+00 0.  1.
     999902    2    1    2    0    0  0.11774893508E-01 -0.19008944136E-01  0.91400051126E-02  0.10197736806E+01  0.10194875339E+01 0.  0.
     999903    2    3    3    0    0  0.54692332276E-01 -0.10429748809E+00 -0.56381230227E-01  0.13218758642E+00  0.20627594327E-01 0.  0.
         14    1    1    2    0    0 -0.11774893508E-01  0.19008944136E-01 -0.91400051126E-02  0.24156319416E-01  0.00000000000E+00 0.  1.
     999901    1    3    3    0    0 -0.42917438768E-01  0.85288543959E-01  0.65521235340E-01  0.88758609417E+00  0.88000000000E+00 0. -1.
        -11    1    4    4    0    0  0.43252289817E-01 -0.63315150952E-01 -0.40906222988E-01  0.86908855214E-01  0.51100000000E-03 0.  1.
         11    1    4    4    0    0  0.11440042459E-01 -0.40982337143E-01 -0.15475007239E-01  0.45278731201E-01  0.51100000000E-03 0. -1.
</event>
<event>
 8    1  0.1180500E+005  0.1043930E+01  0.7957747E-01            NaN
         13   -1    0    0    0    0  0.00000000000E+00  0.00000000000E+00  0.74505805969E-08  0.10566000000E+00  0.10566000000E+00 0.  1.
     999900   -1    0    0    0    0 -0.00000000000E+00 -0.00000000000E+00 -0.74505805969E-08  0.93827000000E+00  0.93827000000E+00 0. -1.
     999902    2    1    2    0    0  0.15180894673E-01 -0.87252202003E-02 -0.18409938073E-01  0.10185230157E+01  0.10182060787E+01 0.  0.
     999903    2    3    3    0    0  0.23028298923E-01  0.40212193186E-01  0.11700846540E+00  0.12678617327E+00  0.15376271462E-01 0.  0.
         14    1    1    2    0    0 -0.15180894673E-01  0.87252202003E-02  0.18409938073E-01  0.25406984285E-01  0.00000000000E+00 0.  1.
     999901    1    3    3    0    0 -0.78474042499E-02 -0.48937413386E-01 -0.13541840347E+00  0.89173684245E+00  0.88000000000E+00 0. -1.
        -11    1    4    4    0    0  0.80650223600E-02  0.21282997253E-01  0.74540393269E-01  0.77939347620E-01  0.51100000000E-03 0. -1.
         11    1    4    4    0    0  0.14963276563E-01  0.18929195933E-01  0.42468072131E-01  0.48846825646E-01  0.51100000000E-03 0.  1.
</event>
<event>
 8    1  0.1180500E+005  0.1043930E+01  0.7957747E-01            NaN
         13   -1    0    0    0    0  0.00000000000E+00  0.00000000000E+00  0.74505805969E-08  0.10566000000E+00  0.10566000000E+00 0.  1.
     999900   -1    0    0    0    0 -0.00000000000E+00 -0.00000000000E+00 -0.74505805969E-08  0.93827000000E+00  0.93827000000E+00 0.  1.
     999902    2    1    2    0    0  0.22460751255E-01 -0.73450917898E-02  0.24085248586E-02  0.10201763327E+01  0.10198997563E+01 0.  0.
     999903    2    3    3    0    0  0.12409712862E+00  0.59299809266E-02  0.43671323908E-01  0.13326664202E+00  0.20434072971E-01 0.  0.
         14    1    1    2    0    0 -0.22460751255E-01  0.73450917898E-02 -0.24085248586E-02  0.23753667344E-01  0.00000000000E+00 0.  1.
     999901    1    3    3    0    0 -0.10163637736E+00 -0.13275072716E-01 -0.41262799049E-01  0.88690969064E+00  0.88000000000E+00 0. -1.
        -11    1    4    4    0    0  0.76196000118E-01 -0.60438925339E-02  0.24020638948E-01  0.80122476793E-01  0.51100000000E-03 0.  1.
         11    1    4    4    0    0  0.47901128500E-01  0.11973873461E-01  0.19650684960E-01  0.53144165226E-01  0.51100000000E-03 0. -1.
</event>
<event>
 7    1  0.1785273E+005  0.1043930E+01  0.7957747E-01            NaN
         13   -1    0    0    0    0  0.00000000000E+00  0.00000000000E+00  0.74505805969E-08  0.10566000000E+00  0.10566000000E+00 0. -1.
     999900   -1    0    0    0    0 -0.00000000000E+00 -0.00000000000E+00 -0.74505805969E-08  0.93827000000E+00  0.93827000000E+00 0. -1.
     999903    2    1    2    0    0  0.31268994467E-01  0.10185564133E+00  0.32083649608E-01  0.11303494857E+00  0.19880073924E-01 0.  0.
         14    1    1    2    0    0 -0.11263574985E-01 -0.17667711586E-01 -0.41623148508E-01  0.46599384608E-01  0.00000000000E+00 0.  1.
     999901    1    1    2    0    0 -0.20005419482E-01 -0.84187929748E-01  0.95394988998E-02  0.88429566682E+00  0.88000000000E+00 0.  1.
        -11    1    3    3    0    0  0.99204561435E-02  0.46353467089E-01  0.23628946777E-01  0.52968364219E-01  0.51100000000E-03 0. -1.
         11    1    3    3    0    0  0.21348538324E-01  0.55502174244E-01  0.84547028319E-02  0.60066584349E-01  0.51100000000E-03 0.  1.
</event>
<event>
 8    1  0.1180500E+005  0.1043930E+01  0.7957747E-01            NaN
         13   -1    0    0    0    0  0.00000000000E+00  0.00000000000E+00  0.74505805969E-08  0.10566000000E+00  0.10566000000E+00 0. -1.
     999900   -1    0    0    0    0 -0.00000000000E+00 -0.00000000000E+00 -0.74505805969E-08  0.93827000000E+00  0.93827000000E+00 0. -1.
     999902    2    1    2    0    0 -0.30647914661E-02 -0.14494732080E-01 -0.18660659938E-01  0.10201033252E+01  0.10198250260E+01 0.  0.
     999903    2    3    3    0    0  0.66797830421E-01 -0.91197052551E-01 -0.66296226925E-01  0.13272900778E+00  0.21046312217E-01 0.  0.
         14    1    1    2    0    0  0.30647914661E-02  0.14494732080E-01  0.18660659938E-01  0.23826674844E-01  0.00000000000E+00 0. -1.
     999901    1    3    3    0    0 -0.69862621887E-01  0.76702320471E-01  0.47635566987E-01  0.88737431738E+00  0.88000000000E+00 0. -1.
        -11    1    4    4    0    0  0.47427649403E-01 -0.48025324391E-01 -0.42471542131E-01  0.79749023334E-01  0.51100000000E-03 0. -1.
         11    1    4    4    0    0  0.19370181017E-01 -0.43171728160E-01 -0.23824684794E-01  0.52979984442E-01  0.51100000000E-03 0.  1.
</event>
<event>
 8    1  0.1180500E+005  0.1043930E+01  0.7957747E-01            NaN
         13   -1    0    0    0    0  0.00000000000E+00  0.00000000000E+00  0.74505805969E-08  0.10566000000E+00  0.10566000000E+00 0.  1.
     999900   -1    0    0    0    0 -0.00000000000E+00 -0.00000000000E+00 -0.74505805969E-08  0.93827000000E+00  0.93827000000E+00 0.  1.
     999902    2    1    2    0    0 -0.22569450667E-01  0.18690690898E-02  0.64211057393E-02  0.10203905837E+01  0.10201190318E+01 0.  0.
     999903    2    3    3    0    0 -0.65652700582E-01  0.67786247532E-01 -0.89594401769E-01  0.13167228267E+00  0.20129101982E-01 0.  0.
         14    1    1    2    0    0  0.22569450667E-01 -0.18690690898E-02 -0.64211057393E-02  0.23539416339E-01  0.00000000000E+00 0. -1.
     999901    1    3    3    0    0  0.43083249915E-01 -0.65917178443E-01  0.96015507508E-01  0.88871830099E+00  0.88000000000E+00 0. -1.
        -11    1    4    4    0    0 -0.28086688579E-01  0.17232329817E-01 -0.37602451548E-01  0.50000207496E-01  0.51100000000E-03 0.  1.
         11    1    4    4    0    0 -0.37566012003E-01  0.50553917715E-01 -0.51991950221E-01  0.81672075172E-01  0.51100000000E-03 0. -1.
</event>
<event>
 8    1  0.1180500E+005  0.1043930E+01  0.7957747E-01            NaN
         13   -1    0    0    0    0  0.00000000000E+00  0.00000000000E+00  0.74505805969E-08  0.10566000000E+00  0.10566000000E+00 0.  1.
     999900   -1    0    0    0    0 -0.00000000000E+00 -0.00000000000E+00 -0.74505805969E-08  0.93827000000E+00  0.93827000000E+00 0. -1.
     999902    2    1    2    0    0  0.20565440272E-01 -0.11056216493E-01  0.42487505981E-02  0.10201975509E+01  0.10199214743E+01 0.  0.
     999903    2    3    3    0    0  0.11040980242E+00 -0.70711396407E-02  0.71131525266E-01  0.13308921720E+00  0.20315520245E-01 0.  0.
         14    1    1    2    0    0 -0.20565440272E-01  0.11056216493E-01 -0.42487505981E-02  0.23732449060E-01  0.00000000000E+00 0. -1.
     999901    1    3    3    0    0 -0.89844362143E-01 -0.39850768524E-02 -0.66882774668E-01  0.88710833374E+00  0.88000000000E+00 0. -1.
        -11    1    4    4    0    0  0.68577795619E-01  0.18951992354E-02  0.34636475811E-01  0.76853447611E-01  0.51100000000E-03 0. -1.
         11    1    4    4    0    0  0.41832006796E-01 -0.89663388761E-02  0.36495049455E-01  0.56235769587E-01  0.51100000000E-03 0.  1.
</event>
<event>
 8    1  0.1180500E+005  0.1043930E+01  0.7957747E-01            NaN
         13   -1    0    0    0    0  0.00000000000E+00  0.00000000000E+00  0.74505805969E-08  0.10566000000E+00  0.10566000000E+00 0. -1.
     999900   -1    0    0    0    0 -0.00000000000E+00 -0.00000000000E+00 -0.74505805969E-08  0.93827000000E+00  0.93827000000E+00 0.  1.
     999902    2    1    2    0    0 -0.12994357463E-01  0.16901417527E-01 -0.89060389322E-02  0.10208252652E+01  0.10205637625E+01 0.  0.
     999903    2    3    3    0    0  0.81586192056E-02  0.12812401628E+00 -0.29900304179E-01  0.13332389954E+00  0.19972665905E-01 0.  0.
         14    1    1    2    0    0  0.12994357463E-01 -0.16901417527E-01  0.89060389322E-02  0.23104734791E-01  0.00000000000E+00 0.  1.
     999901    1    3    3    0    0 -0.21152976669E-01 -0.11122259875E+00  0.20994265247E-01  0.88750136567E+00  0.88000000000E+00 0. -1.
        -11    1    4    4    0    0  0.74698646881E-02  0.11028900307E+00 -0.32636172318E-01  0.11525989737E+00  0.51100000000E-03 0.  1.
         11    1    4    4    0    0  0.68875451752E-03  0.17835013210E-01  0.27358681391E-02  0.18064002172E-01  0.51100000000E-03 0. -1.
</event>
<event>
 8    1  0.1180500E+005  0.1043930E+01  0.7957747E-01            NaN
         13   -1    0    0    0    0  0.00000000000E+00  0.00000000000E+00  0.74505805969E-08  0.10566000000E+00  0.10566000000E+00 0. -1.
     999900   -1    0    0    0    0 -0.00000000000E+00 -0.00000000000E+00 -0.74505805969E-08  0.93827000000E+00  0.93827000000E+00 0. -1.
     999902    2    1    2    0    0 -0.10166500540E-01  0.21043311295E-01  0.41462433237E-02  0.10201945831E+01  0.10199184366E+01 0.  0.
     999903    2    3    3    0    0 -0.10792497509E+00  0.51182758892E-01  0.54491334821E-01  0.13283911095E+00  0.20234840535E-01 0.  0.
         14    1    1    2    0    0  0.10166500540E-01 -0.21043311295E-01 -0.41462433237E-02  0.23735416938E-01  0.00000000000E+00 0.  1.
     999901    1    3    3    0    0  0.97758474550E-01 -0.30139447597E-01 -0.50345091498E-01  0.88735547211E+00  0.88000000000E+00 0.  1.
        -11    1    4    4    0    0 -0.28381108001E-01  0.16621330875E-01  0.24701941501E-01  0.41136394669E-01  0.51100000000E-03 0.  1.
         11    1    4    4    0    0 -0.79543867089E-01  0.34561428017E-01  0.29789393321E-01  0.91702716282E-01  0.51100000000E-03 0. -1.
</event>
<event>
 8    1  0.1180500E+005  0.1043930E+01  0.7957747E-01            NaN
         13   -1    0    0    0    0  0.00000000000E+00  0.00000000000E+00  0.74505805969E-08  0.10566000000E+00  0.10566000000E+00 0. -1.
     999900   -1    0    0    0    0 -0.00000000000E+00 -0.00000000000E+00 -0.74505805969E-08  0.93827000000E+00  0.93827000000E+00 0.  1.
     999902    2    1    2    0    0  0.12081140403E-01  0.11072810216E-02  0.20078297804E-01  0.10204711410E+01  0.10202014661E+01 0.  0.
     999903    2    3    3    0    0 -0.46244259772E-01  0.39909430626E-01 -0.11071044757E+00  0.12805130981E+00  0.20224750375E-01 0.  0.
         14    1    1    2    0    0 -0.12081140403E-01 -0.11072810216E-02 -0.20078297804E-01  0.23458859039E-01  0.00000000000E+00 0.  1.
     999901    1    3    3    0    0  0.58325400174E-01 -0.38802149604E-01  0.13078874537E+00  0.89241983115E+00  0.88000000000E+00 0. -1.
        -11    1    4    4    0    0 -0.34466681356E-01  0.17671399134E-01 -0.59641833601E-01  0.71117085903E-01  0.51100000000E-03 0.  1.
         11    1    4    4    0    0 -0.11777578416E-01  0.22238031492E-01 -0.51068613969E-01  0.56934223905E-01  0.51100000000E-03 0. -1.
</event>
<event>
 8    1  0.1180500E+005  0.1043930E+01  0.7957747E-01            NaN
         13   -1    0    0    0    0  0.00000000000E+00  0.00000000000E+00  0.74505805969E-08  0.10566000000E+00  0.10566000000E+00 0. -1.
     999900   -1    0    0    0    0 -0.00000000000E+00 -0.00000000000E+00 -0.74505805969E-08  0.93827000000E+00  0.93827000000E+00 0.  1.
     999902    2    1    2    0    0 -0.74229552068E-02 -0.23072179215E-01  0.80503635473E-02  0.10183911263E+01  0.10180708482E+01 0.  0.
     999903    2    3    3    0    0 -0.70923844108E-01 -0.43797693305E-01 -0.97110019700E-01  0.12961634264E+00  0.20533162234E-01 0.  0.
         14    1    1    2    0    0  0.74229552068E-02  0.23072179215E-01 -0.80503635473E-02  0.25538873722E-01  0.00000000000E+00 0. -1.
     999901    1    3    3    0    0  0.63500888901E-01  0.20725514090E-01  0.10516038325E+00  0.88877478364E+00  0.88000000000E+00 0. -1.
        -11    1    4    4    0    0 -0.54103036809E-01 -0.31990009130E-01 -0.85138503643E-01  0.10582686426E+00  0.51100000000E-03 0. -1.
         11    1    4    4    0    0 -0.16820807299E-01 -0.11807684175E-01 -0.11971516058E-01  0.23789478378E-01  0.51100000000E-03 0.  1.
</event>
<event>
 8    1  0.1180500E+005  0.1043930E+01  0.7957747E-01            NaN
         13   -1    0    0    0    0  0.00000000000E+00  0.00000000000E+00  0.74505805969E-08  0.10566000000E+00  0.10566000000E+00 0.  1.
     999900   -1    0    0    0    0 -0.00000000000E+00 -0.00000000000E+00 -0.74505805969E-08  0.93827000000E+00  0.93827000000E+00 0. -1.
     999902    2    1    2    0    0 -0.13776392659E-01 -0.10444101774E-01  0.15051259640E-01  0.10210082053E+01  0.10207508739E+01 0.  0.
     999903    2    3    3    0    0 -0.95486553040E-01 -0.37778544657E-01 -0.80016562875E-01  0.13170420048E+00  0.19961108207E-01 0.  0.
         14    1    1    2    0    0  0.13776392659E-01  0.10444101774E-01 -0.15051259640E-01  0.22921794723E-01  0.00000000000E+00 0. -1.
     999901    1    3    3    0    0  0.81710160382E-01  0.27334442883E-01  0.95067822515E-01  0.88930400480E+00  0.88000000000E+00 0.  1.
        -11    1    4    4    0    0 -0.58888788645E-01 -0.22570526780E-01 -0.36607410876E-01  0.72922436597E-01  0.51100000000E-03 0. -1.
         11    1    4    4    0    0 -0.36597764395E-01 -0.15208017877E-01 -0.43409151999E-01  0.58781763879E-01  0.51100000000E-03 0.  1.
</event>
<event>
 8    1  0.1180500E+005  0.1043930E+01  0.7957747E-01            NaN
         13   -1    0    0    0    0  0.00000000000E+00  0.00000000000E+00  0.74505805969E-08  0.10566000000E+00  0.10566000000E+00 0.  1.
     999900   -1    0    0    0    0 -0.00000000000E+00 -0.00000000000E+00 -0.74505805969E-08  0.93827000000E+00  0.93827000000E+00 0. -1.
     999902    2    1    2    0    0  0.15060905713E-01 -0.12466055633E-01  0.12260470802E-01  0.10208528995E+01  0.10205920291E+01 0.  0.
     999903    2    3    3    0    0 -0.71330686334E-01  0.73987890308E-01 -0.73954879221E-01  0.12823266751E+00  0.20298229768E-01 0.  0.
         14    1    1    2    0    0 -0.15060905713E-01  0.12466055633E-01 -0.12260470802E-01  0.23077100516E-01  0.00000000000E+00 0. -1.
     999901    1    3    3    0    0  0.86391592047E-01 -0.86453945941E-01  0.86215350023E-01  0.89262023197E+00  0.88000000000E+00 0.  1.
        -11    1    4    4    0    0 -0.33854558991E-02  0.11906885087E-01 -0.12263458968E-01  0.17432405771E-01  0.51100000000E-03 0. -1.
         11    1    4    4    0    0 -0.67945230435E-01  0.62081005221E-01 -0.61691420252E-01  0.11080026174E+00  0.51100000000E-03 0.  1.
</event>
<event>
 8    1  0.1180500E+005  0.1043930E+01  0.7957747E-01            NaN
         13   -1    0    0    0    0  0.00000000000E+00  0.00000000000E+00  0.74505805969E-08  0.10566000000E+00  0.10566000000E+00 0.  1.
     999900   -1    0    0    0    0 -0.00000000000E+00 -0.00000000000E+00 -0.74505805969E-08  0.93827000000E+00  0.93827000000E+00 0. -1.
     999902    2    1    2    0    0 -0.19109426553E-01  0.12289555376E-01  0.46206815592E-02  0.10207447881E+01  0.10204814395E+01 0.  0.
     999903    2    3    3    0    0  0.26166510001E-01 -0.27591629266E-01 -0.12239949195E+00  0.12958007613E+00  0.19062430256E-01 0.  0.
         14    1    1    2    0    0  0.19109426553E-01 -0.12289555376E-01 -0.46206815592E-02  0.23185211938E-01  0.00000000000E+00 0. -1.
     999901    1    3    3    0    0 -0.45275936553E-01  0.39881184642E-01  0.12702017351E+00  0.89116471194E+00  0.88000000000E+00 0.  1.
        -11    1    4    4    0    0  0.47530243031E-03 -0.77124465555E-02 -0.10417083464E-01  0.12980157671E-01  0.51100000000E-03 0. -1.
         11    1    4    4    0    0  0.25691207571E-01 -0.19879182710E-01 -0.11198240849E+00  0.11659991846E+00  0.51100000000E-03 0.  1.
</event>
<event>
 8    1  0.1180500E+005  0.1043930E+01  0.7957747E-01            NaN
         13   -1    0    0    0    0  0.00000000000E+00  0.00000000000E+00  0.74505805969E-08  0.10566000000E+00  0.10566000000E+00 0. -1.
     999900   -1    0    0    0    0 -0.00000000000E+00 -0.00000000000E+00 -0.74505805969E-08  0.93827000000E+00  0.93827000000E+00 0. -1.
     999902    2    1    2    0    0 -0.22678691775E-02  0.38167419205E-02 -0.21774021027E-01  0.10217079672E+01  0.10214662753E+01 0.  0.
     999903    2    3    3    0    0  0.20426879839E-01  0.12615835944E+00 -0.31544394791E-01  0.13290091098E+00  0.18286995886E-01 0.  0.
         14    1    1    2    0    0  0.22678691775E-02 -0.38167419205E-02  0.21774021027E-01  0.22222032787E-01  0.00000000000E+00 0. -1.
     999901    1    3    3    0    0 -0.22694749016E-01 -0.12234161752E+00  0.97703737642E-02  0.88880705624E+00  0.88000000000E+00 0.  1.
        -11    1    4    4    0    0  0.15377810430E-01  0.10583671499E+00 -0.32944635021E-01  0.11190843306E+00  0.51100000000E-03 0. -1.
         11    1    4    4    0    0  0.50490694083E-02  0.20321644458E-01  0.14002402299E-02  0.20992477917E-01  0.51100000000E-03 0.  1.
</event>
<event>
 8    1  0.1180500E+005  0.1043930E+01  0.7957747E-01            NaN
         13   -1    0    0    0    0  0.00000000000E+00  0.00000000000E+00  0.74505805969E-08  0.10566000000E+00  0.10566000000E+00 0. -1.
     999900   -1    0    0    0    0 -0.00000000000E+00 -0.00000000000E+00 -0.74505805969E-08  0.93827000000E+00  0.93827000000E+00 0. -1.
     999902    2    1    2    0    0  0.11543478737E-02 -0.75979959482E-02 -0.24550313643E-01  0.10182049157E+01  0.10178798900E+01 0.  0.
     999903    2    3    3    0    0  0.74985058636E-02  0.91584247704E-02 -0.12980296195E+00  0.13175178895E+00  0.19225520221E-01 0.  0.
         14    1    1    2    0    0 -0.11543478737E-02  0.75979959482E-02  0.24550313643E-01  0.25725084284E-01  0.00000000000E+00 0. -1.
     999901    1    3    3    0    0 -0.63441579899E-02 -0.16756420719E-01  0.10525264830E+00  0.88645312676E+00  0.88000000000E+00 0.  1.
        -11    1    4    4    0    0  0.11713074233E-01  0.89250666272E-03 -0.95179681240E-01  0.95903209112E-01  0.51100000000E-03 0. -1.
         11    1    4    4    0    0 -0.42145683693E-02  0.82659181077E-02 -0.34623280706E-01  0.35848579840E-01  0.51100000000E-03 0.  1.
</event>
<event>
 8    1  0.1180500E+005  0.1043930E+01  0.7957747E-01            NaN
         13   -1    0    0    0    0  0.00000000000E+00  0.00000000000E+00  0.74505805969E-08  0.10566000000E+00  0.10566000000E+00 0. -1.
     999900   -1    0    0    0    0 -0.00000000000E+00 -0.00000000000E+00 -0.74505805969E-08  0.93827000000E+00  0.93827000000E+00 0. -1.
     999902    2    1    2    0    0 -0.19789998152E-01 -0.10554173730E-01  0.55859481963E-02  0.10208164233E+01  0.10205547181E+01 0.  0.
     999903    2    3    3    0    0  0.48042686055E-01 -0.29919427875E-01  0.11657258173E+00  0.13104436321E+00  0.19498370953E-01 0.  0.
         14    1    1    2    0    0  0.19789998152E-01  0.10554173730E-01 -0.55859481963E-02  0.23113576686E-01  0.00000000000E+00 0. -1.
     999901    1    3    3    0    0 -0.67832684207E-01  0.19365254144E-01 -0.11098663354E+00  0.88977206010E+00  0.88000000000E+00 0. -1.
        -11    1    4    4    0    0  0.19996881703E-01 -0.20838876994E-01  0.43179832187E-01  0.51950871993E-01  0.51100000000E-03 0. -1.
         11    1    4    4    0    0  0.28045804352E-01 -0.90805508805E-02  0.73392749547E-01  0.79093491218E-01  0.51100000000E-03 0.  1.
</event>
<event>
 8    1  0.1180500E+005  0.1043930E+01  0.7957747E-01            NaN
         13   -1    0    0    0    0  0.00000000000E+00  0.00000000000E+00  0.74505805969E-08  0.10566000000E+00  0.10566000000E+00 0. -1.
     999900   -1    0    0    0    0 -0.00000000000E+00 -0.00000000000E+00 -0.74505805969E-08  0.93827000000E+00  0.93827000000E+00 0. -1.
     999902    2    1    2    0    0 -0.12362191059E-02  0.22223714792E-01 -0.68586844914E-02  0.10206391587E+01  0.10203733772E+01 0.  0.
     999903    2    3    3    0    0  0.28587953744E-02  0.72402261074E-01  0.10821031369E+00  0.13172097909E+00  0.19765733567E-01 0.  0.
         14    1    1    2    0    0  0.12362191059E-02 -0.22223714792E-01  0.68586844914E-02  0.23290841328E-01  0.00000000000E+00 0.  1.
     999901    1    3    3    0    0 -0.40950144803E-02 -0.50178546282E-01 -0.11506899818E+00  0.88891817958E+00  0.88000000000E+00 0. -1.
        -11    1    4    4    0    0  0.66228080357E-02  0.67818586290E-01  0.10433894986E+00  0.12461982110E+00  0.51100000000E-03 0.  1.
         11    1    4    4    0    0 -0.37640126614E-02  0.45836747844E-02  0.38713638309E-02  0.71011579870E-02  0.51100000000E-03 0. -1.
</event>
<event>
 8    1  0.1180500E+005  0.1043930E+01  0.7957747E-01            NaN
         13   -1    0    0    0    0  0.00000000000E+00  0.00000000000E+00  0.74505805969E-08  0.10566000000E+00  0.10566000000E+00 0. -1.
     999900   -1    0    0    0    0 -0.00000000000E+00 -0.00000000000E+00 -0.74505805969E-08  0.93827000000E+00  0.93827000000E+00 0. -1.
     999902    2    1    2    0    0 -0.23334165162E-01  0.23656689679E-02  0.18091947318E-02  0.10204065470E+01  0.10201353677E+01 0.  0.
     999903    2    3    3    0    0  0.94668385751E-01  0.81912759565E-01 -0.21918903470E-01  0.12865805992E+00  0.20016358615E-01 0.  0.
         14    1    1    2    0    0  0.23334165162E-01 -0.23656689679E-02 -0.18091947318E-02  0.23523452957E-01  0.00000000000E+00 0.  1.
     999901    1    3    3    0    0 -0.11800255091E+00 -0.79547090597E-01  0.23728098202E-01  0.89174848712E+00  0.88000000000E+00 0.  1.
        -11    1    4    4    0    0  0.85730676545E-01  0.65253234309E-01 -0.20662539059E-01  0.10970385194E+00  0.51100000000E-03 0. -1.
         11    1    4    4    0    0  0.89377092060E-02  0.16659525256E-01 -0.12563644111E-02  0.18954207980E-01  0.51100000000E-03 0.  1.
</event>
<event>
 8    1  0.1180500E+005  0.1043930E+01  0.7957747E-01            NaN
         13   -1    0    0    0    0  0.00000000000E+00  0.00000000000E+00  0.74505805969E-08  0.10566000000E+00  0.10566000000E+00 0. -1.
     999900   -1    0    0    0    0 -0.00000000000E+00 -0.00000000000E+00 -0.74505805969E-08  0.93827000000E+00  0.93827000000E+00 0. -1.
     999902    2    1    2    0    0 -0.16843421872E-01  0.18143434573E-01  0.56999642662E-02  0.10185257745E+01  0.10182089072E+01 0.  0.
     999903    2    3    3    0    0  0.82633219585E-03 -0.99235800687E-02  0.12741932955E+00  0.12952882213E+00  0.21044475573E-01 0.  0.
         14    1    1    2    0    0  0.16843421872E-01 -0.18143434573E-01 -0.56999642662E-02  0.25404225457E-01  0.00000000000E+00 0.  1.
     999901    1    3    3    0    0 -0.17669754068E-01  0.28067014641E-01 -0.12171936528E+00  0.88899695242E+00  0.88000000000E+00 0. -1.
        -11    1    4    4    0    0 -0.48719165152E-02 -0.27590665721E-02  0.81126582979E-02  0.98703781356E-02  0.51100000000E-03 0. -1.
         11    1    4    4    0    0  0.56982487110E-02 -0.71645134966E-02  0.11930667125E+00  0.11965844399E+00  0.51100000000E-03 0.  1.
</event>
<event>
 8    1  0.1180500E+005  0.1043930E+01  0.7957747E-01            NaN
         13   -1    0    0    0    0  0.00000000000E+00  0.00000000000E+00  0.74505805969E-08  0.10566000000E+00  0.10566000000E+00 0. -1.
     999900   -1    0    0    0    0 -0.00000000000E+00 -0.00000000000E+00 -0.74505805969E-08  0.93827000000E+00  0.93827000000E+00 0. -1.
     999902    2    1    2    0    0  0.20516770774E-01  0.34960420879E-03  0.11893574369E-01  0.10202125546E+01  0.10199368310E+01 0.  0.
     999903    2    3    3    0    0 -0.99025960405E-01  0.66970939951E-01 -0.41240559025E-01  0.12805107643E+00  0.20125775384E-01 0.  0.
         14    1    1    2    0    0 -0.20516770774E-01 -0.34960420879E-03 -0.11893574369E-01  0.23717445422E-01  0.00000000000E+00 0. -1.
     999901    1    3    3    0    0  0.11954273118E+00 -0.66621335742E-01  0.53134133393E-01  0.89216147814E+00  0.88000000000E+00 0. -1.
        -11    1    4    4    0    0 -0.44883549962E-01  0.40924438201E-01 -0.15520817050E-01  0.62693696510E-01  0.51100000000E-03 0.  1.
         11    1    4    4    0    0 -0.54142410444E-01  0.26046501750E-01 -0.25719741975E-01  0.65357379922E-01  0.51100000000E-03 0. -1.
</event>
<event>
 8    1  0.1180500E+005  0.1043930E+01  0.7957747E-01            NaN
         13   -1    0    0    0    0  0.00000000000E+00  0.00000000000E+00  0.74505805969E-08  0.10566000000E+00  0.10566000000E+00 0. -1.
     999900   -1    0    0    0    0 -0.00000000000E+00 -0.00000000000E+00 -0.74505805969E-08  0.93827000000E+00  0.93827000000E+00 0. -1.
     999902    2    1    2    0    0  0.17965164024E-01 -0.14316801932E-01  0.51432737396E-02  0.10203891589E+01  0.10201175738E+01 0.  0.
     999903    2    3    3    0    0  0.17098452443E-01 -0.82875390595E-01  0.10016291768E+00  0.13262243051E+00  0.19884957939E-01 0.  0.
         14    1    1    2    0    0 -0.17965164024E-01  0.14316801932E-01 -0.51432737396E-02  0.23540841122E-01  0.00000000000E+00 0. -1.
     999901    1    3    3    0    0  0.86671158031E-03  0.68558588663E-01 -0.95019643945E-01  0.88776672837E+00  0.88000000000E+00 0. -1.
        -11    1    4    4    0    0  0.11200961762E-01 -0.25174019055E-01  0.43772896503E-01  0.51725432517E-01  0.51100000000E-03 0.  1.
         11    1    4    4    0    0  0.58974906811E-02 -0.57701371541E-01  0.56390021181E-01  0.80896997990E-01  0.51100000000E-03 0. -1.
</event>
<event>
 8    1  0.1180500E+005  0.1043930E+01  0.7957747E-01            NaN
         13   -1    0    0    0    0  0.00000000000E+00  0.00000000000E+00  0.74505805969E-08  0.10566000000E+00  0.10566000000E+00 0. -1.
     999900   -1    0    0    0    0 -0.00000000000E+00 -0.00000000000E+00 -0.74505805969E-08  0.93827000000E+00  0.93827000000E+00 0.  1.
     999902    2    1    2    0    0  0.14599210743E-01  0.13868130868E-01 -0.69511161550E-02  0.10226278869E+01  0.10224059932E+01 0.  0.
     999903    2    3    3    0    0  0.38332613553E-01  0.58464573704E-01 -0.11348704577E+00  0.13476414652E+00  0.19863785865E-01 0.  0.
         14    1    1    2    0    0 -0.14599210743E-01 -0.13868130868E-01  0.69511161550E-02  0.21302113133E-01  0.00000000000E+00 0. -1.
     999901    1    3    3    0    0 -0.23733402810E-01 -0.44596442835E-01  0.10653592962E+00  0.88786374035E+00  0.88000000000E+00 0. -1.
        -11    1    4    4    0    0  0.26119507629E-01  0.26126177738E-01 -0.70549961178E-01  0.79638960222E-01  0.51100000000E-03 0. -1.
         11    1    4    4    0    0  0.12213105924E-01  0.32338395965E-01 -0.42937084596E-01  0.55125186299E-01  0.51100000000E-03 0.  1.
</event>
<event>
 8    1  0.1180500E+005  0.1043930E+01  0.7957747E-01            NaN
         13   -1    0    0    0    0  0.00000000000E+00  0.00000000000E+00  0.74505805969E-08  0.10566000000E+00  0.10566000000E+00 0.  1.
     999900   -1    0    0    0    0 -0.00000000000E+00 -0.00000000000E+00 -0.74505805969E-08  0.93827000000E+00  0.93827000000E+00 0.  1.
     999902    2    1    2    0    0  0.30646431140E-01 -0.20402746618E-01 -0.39086058564E-02  0.10069063182E+01  0.10062254125E+01 0.  0.
     999903    2    3    3    0    0  0.11491064277E+00 -0.33176185026E-01  0.17847328803E-01  0.12252125574E+00  0.19693041620E-01 0.  0.
         14    1    1    2    0    0 -0.30646431140E-01  0.20402746618E-01  0.39086058564E-02  0.37023681758E-01  0.00000000000E+00 0. -1.
     999901    1    3    3    0    0 -0.84264211626E-01  0.12773438408E-01 -0.21755934659E-01  0.88438506251E+00  0.88000000000E+00 0.  1.
        -11    1    4    4    0    0  0.77969103932E-01 -0.23216183048E-01  0.21316882367E-01  0.84100195708E-01  0.51100000000E-03 0.  1.
         11    1    4    4    0    0  0.36941538834E-01 -0.99600019780E-02 -0.34695535645E-02  0.38421060029E-01  0.51100000000E-03 0. -1.
</event>
<event>
 8    1  0.1180500E+005  0.1043930E+01  0.7957747E-01            NaN
         13   -1    0    0    0    0  0.00000000000E+00  0.00000000000E+00  0.74505805969E-08  0.10566000000E+00  0.10566000000E+00 0. -1.
     999900   -1    0    0    0    0 -0.00000000000E+00 -0.00000000000E+00 -0.74505805969E-08  0.93827000000E+00  0.93827000000E+00 0. -1.
     999902    2    1    2    0    0 -0.20649003559E-01 -0.67592921934E-02 -0.10638520616E-01  0.10197381109E+01  0.10194511108E+01 0.  0.
     999903    2    3    3    0    0  0.76032950533E-01  0.80474571488E-01  0.59712246861E-01  0.12737810633E+00  0.20061488555E-01 0.  0.
         14    1    1    2    0    0  0.20649003559E-01  0.67592921934E-02  0.10638520616E-01  0.24191889133E-01  0.00000000000E+00 0. -1.
     999901    1    3    3    0    0 -0.96681954093E-01 -0.87233863681E-01 -0.70350767476E-01  0.89236000454E+00  0.88000000000E+00 0. -1.
        -11    1    4    4    0    0  0.55801801416E-01  0.48452062622E-01  0.32489417521E-01  0.80729590520E-01  0.51100000000E-03 0. -1.
         11    1    4    4    0    0  0.20231149117E-01  0.32022508866E-01  0.27222829339E-01  0.46648515806E-01  0.51100000000E-03 0.  1.
</event>
<event>
 8    1  0.1180500E+005  0.1043930E+01  0.7957747E-01            NaN
         13   -1    0    0    0    0  0.00000000000E+00  0.00000000000E+00  0.74505805969E-08  0.10566000000E+00  0.10566000000E+00 0. -1.
     999900   -1    0    0    0    0 -0.00000000000E+00 -0.00000000000E+00 -0.74505805969E-08  0.93827000000E+00  0.93827000000E+00 0.  1.
     999902    2    1    2    0    0 -0.11333201245E-01  0.18619727385E-01 -0.99806470318E-02  0.10199560764E+01  0.10196742856E+01 0.  0.
     999903    2    3    3    0    0  0.38475338287E-01 -0.83045514913E-01  0.86268648078E-01  0.12749843654E+00  0.20896470429E-01 0.  0.
         14    1    1    2    0    0  0.11333201245E-01 -0.18619727385E-01  0.99806470318E-02  0.23973923615E-01  0.00000000000E+00 0.  1.
     999901    1    3    3    0    0 -0.49808539532E-01  0.10166524230E+00 -0.96249295109E-01  0.89245763984E+00  0.88000000000E+00 0. -1.
        -11    1    4    4    0    0  0.30991347568E-01 -0.58742062627E-01  0.49701538681E-01  0.82955395328E-01  0.51100000000E-03 0. -1.
         11    1    4    4    0    0  0.74839907192E-02 -0.24303452286E-01  0.36567109397E-01  0.44543041215E-01  0.51100000000E-03 0.  1.
</event>
<event>
 8    1  0.1180500E+005  0.1043930E+01  0.7957747E-01            NaN
         13   -1    0    0    0    0  0.00000000000E+00  0.00000000000E+00  0.74505805969E-08  0.10566000000E+00  0.10566000000E+00 0. -1.
     999900   -1    0    0    0    0 -0.00000000000E+00 -0.00000000000E+00 -0.74505805969E-08  0.93827000000E+00  0.93827000000E+00 0. -1.
     999902    2    1    2    0    0 -0.18192622499E-01 -0.24923959347E-02 -0.16960513255E-01  0.10189331490E+01  0.10186264868E+01 0.  0.
     999903    2    3    3    0    0 -0.11227259805E+00  0.17734904348E-01 -0.64961995980E-01  0.13238685701E+00  0.19661024408E-01 0.  0.
         14    1    1    2    0    0  0.18192622499E-01  0.24923959347E-02  0.16960513255E-01  0.24996851017E-01  0.00000000000E+00 0. -1.
     999901    1    3    3    0    0  0.94079975552E-01 -0.20227300283E-01  0.48001482725E-01  0.88654629198E+00  0.88000000000E+00 0. -1.
        -11    1    4    4    0    0 -0.42408640068E-01  0.51124542804E-02 -0.13858637112E-01  0.44910498604E-01  0.51100000000E-03 0. -1.
         11    1    4    4    0    0 -0.69863957982E-01  0.12622450068E-01 -0.51103358867E-01  0.87476358401E-01  0.51100000000E-03 0.  1.
</event>
<event>
 8    1  0.1180500E+005  0.1043930E+01  0.7957747E-01            NaN
         13   -1    0    0    0    0  0.00000000000E+00  0.00000000000E+00  0.74505805969E-08  0.10566000000E+00  0.10566000000E+00 0. -1.
     999900   -1    0    0    0    0 -0.00000000000E+00 -0.00000000000E+00 -0.74505805969E-08  0.93827000000E+00  0.93827000000E+00 0.  1.
     999902    2    1    2    0    0 -0.54981832516E-03  0.16080278676E-02 -0.23980947478E-01  0.10198889123E+01  0.10196055216E+01 0.  0.
     999903    2    3    3    0    0  0.97321344477E-01  0.83344116118E-01  0.98189232043E-02  0.13005635288E+00  0.20013942340E-01 0.  0.
         14    1    1    2    0    0  0.54981832516E-03 -0.16080278676E-02  0.23980947478E-01  0.24041087657E-01  0.00000000000E+00 0. -1.
     999901    1    3    3    0    0 -0.97871162803E-01 -0.81736088250E-01 -0.33799870682E-01  0.88983255947E+00  0.88000000000E+00 0.  1.
        -11    1    4    4    0    0  0.44639601539E-01  0.47738415079E-01  0.11901359225E-01  0.66434582653E-01  0.51100000000E-03 0.  1.
         11    1    4    4    0    0  0.52681742938E-01  0.35605701039E-01 -0.20824360206E-02  0.63621770222E-01  0.51100000000E-03 0. -1.
</event>
<event>
 8    1  0.1180500E+005  0.1043930E+01  0.7957747E-01            NaN
         13   -1    0    0    0    0  0.00000000000E+00  0.00000000000E+00  0.74505805969E-08  0.10566000000E+00  0.10566000000E+00 0. -1.
     999900   -1    0    0    0    0 -0.00000000000E+00 -0.00000000000E+00 -0.74505805969E-08  0.93827000000E+00  0.93827000000E+00 0. -1.
     999902    2    1    2    0    0  0.19466188850E-01 -0.69686592908E-02  0.11543205185E-01  0.10202500442E+01  0.10199752018E+01 0.  0.
     999903    2    3    3    0    0  0.52520721479E-01 -0.10065431015E+00  0.66260849597E-01  0.13297126957E+00  0.20028529783E-01 0.  0.
         14    1    1    2    0    0 -0.19466188850E-01  0.69686592908E-02 -0.11543205185E-01  0.23679955798E-01  0.00000000000E+00 0.  1.
     999901    1    3    3    0    0 -0.33054532629E-01  0.93685650858E-01 -0.54717644413E-01  0.88727877463E+00  0.88000000000E+00 0. -1.
        -11    1    4    4    0    0  0.15487772347E-01 -0.36812088501E-01  0.33873587628E-01  0.52370621649E-01  0.51100000000E-03 0. -1.
         11    1    4    4    0    0  0.37032949132E-01 -0.63842221647E-01  0.32387261969E-01  0.80600647920E-01  0.51100000000E-03 0.  1.
</event>
<event>
 8    1  0.1180500E+005  0.1043930E+01  0.7957747E-01            NaN
         13   -1    0    0    0    0  0.00000000000E+00  0.00000000000E+00  0.74505805969E-08  0.10566000000E+00  0.10566000000E+00 0.  1.
     999900   -1    0    0    0    0 -0.00000000000E+00 -0.00000000000E+00 -0.74505805969E-08  0.93827000000E+00  0.93827000000E+00 0.  1.
     999902    2    1    2    0    0 -0.76925429415E-02  0.12484347581E-01 -0.18590312289E-01  0.10202522919E+01  0.10199775023E+01 0.  0.
     999903    2    3    3    0    0  0.10966771944E+00 -0.61835416989E-01 -0.21933037775E-01  0.12934936090E+00  0.19989285598E-01 0.  0.
         14    1    1    2    0    0  0.76925429415E-02 -0.12484347581E-01  0.18590312289E-01  0.23677708133E-01  0.00000000000E+00 0.  1.
     999901    1    3    3    0    0 -0.11736026238E+00  0.74319764570E-01  0.33427254861E-02  0.89090293097E+00  0.88000000000E+00 0. -1.
        -11    1    4    4    0    0  0.92051399176E-01 -0.56498874797E-01 -0.24513689478E-01  0.11075542892E+00  0.51100000000E-03 0.  1.
         11    1    4    4    0    0  0.17616320261E-01 -0.53365421919E-02  0.25806517029E-02  0.18593931976E-01  0.51100000000E-03 0. -1.
</event>
<event>
 8    1  0.1180500E+005  0.1043930E+01  0.7957747E-01            NaN
         13   -1    0    0    0    0  0.00000000000E+00  0.00000000000E+00  0.74505805969E-08  0.10566000000E+00  0.10566000000E+00 0. -1.
     999900   -1    0    0    0    0 -0.00000000000E+00 -0.00000000000E+00 -0.74505805969E-08  0.93827000000E+00  0.93827000000E+00 0.  1.
     999902    2    1    2    0    0  0.18106259536E-02  0.81731265082E-02 -0.21611754033E-01  0.10207535836E+01  0.10204904371E+01 0.  0.
     999903    2    3    3    0    0 -0.83293026868E-01 -0.84865465555E-01 -0.51888178901E-01  0.13125064758E+00  0.19861364829E-01 0.  0.
         14    1    1    2    0    0 -0.18106259536E-02 -0.81731265082E-02  0.21611754033E-01  0.23176416367E-01  0.00000000000E+00 0. -1.
     999901    1    3    3    0    0  0.85103652822E-01  0.93038592063E-01  0.30276424868E-01  0.88950293605E+00  0.88000000000E+00 0. -1.
        -11    1    4    4    0    0 -0.49613129660E-01 -0.38723384441E-01 -0.21276094805E-01  0.66437161802E-01  0.51100000000E-03 0.  1.
         11    1    4    4    0    0 -0.33679897209E-01 -0.46142081113E-01 -0.30612084096E-01  0.64813485781E-01  0.51100000000E-03 0. -1.
</event>
<event>
 8    1  0.1180500E+005  0.1043930E+01  0.7957747E-01            NaN
         13   -1    0    0    0    0  0.00000000000E+00  0.00000000000E+00  0.74505805969E-08  0.10566000000E+00  0.10566000000E+00 0.  1.
     999900   -1    0    0    0    0 -0.00000000000E+00 -0.00000000000E+00 -0.74505805969E-08  0.93827000000E+00  0.93827000000E+00 0. -1.
     999902    2    1    2    0    0 -0.20886062538E-01  0.27432787650E-02 -0.97834861797E-02  0.10207035111E+01  0.10204392131E+01 0.  0.
     999903    2    3    3    0    0 -0.51769936504E-01  0.10042113000E+00 -0.67006123970E-01  0.13291456848E+00  0.20296112655E-01 0.  0.
         14    1    1    2    0    0  0.20886062538E-01 -0.27432787650E-02  0.97834861797E-02  0.23226488941E-01  0.00000000000E+00 0. -1.
     999901    1    3    3    0    0  0.30883873966E-01 -0.97677851232E-01  0.57222637790E-01  0.88778894258E+00  0.88000000000E+00 0.  1.
        -11    1    4    4    0    0 -0.37252584866E-01  0.83783844314E-01 -0.60630095712E-01  0.10992614463E+00  0.51100000000E-03 0.  1.
         11    1    4    4    0    0 -0.14517351638E-01  0.16637285683E-01 -0.63760282581E-02  0.22988423844E-01  0.51100000000E-03 0. -1.
</event>
<event>
 8    1  0.1180500E+005  0.1043930E+01  0.7957747E-01            NaN
         13   -1    0    0    0    0  0.00000000000E+00  0.00000000000E+00  0.74505805969E-08  0.10566000000E+00  0.10566000000E+00 0.  1.
     999900   -1    0    0    0    0 -0.00000000000E+00 -0.00000000000E+00 -0.74505805969E-08  0.93827000000E+00  0.93827000000E+00 0.  1.
     999902    2    1    2    0    0 -0.14841331205E-01  0.21052417315E-01  0.40238473790E-02  0.10178596963E+01  0.10175257739E+01 0.  0.
     999903    2    3    3    0    0  0.54830307727E-01  0.98902215982E-01  0.60663071906E-01  0.12987167264E+00  0.19965772967E-01 0.  0.
         14    1    1    2    0    0  0.14841331205E-01 -0.21052417315E-01 -0.40238473790E-02  0.26070303689E-01  0.00000000000E+00 0. -1.
     999901    1    3    3    0    0 -0.69671638931E-01 -0.77849798668E-01 -0.56639224527E-01  0.88798802367E+00  0.88000000000E+00 0. -1.
        -11    1    4    4    0    0  0.69307044825E-02  0.21149218514E-01  0.19912092965E-01  0.29867652663E-01  0.51100000000E-03 0. -1.
         11    1    4    4    0    0  0.47899603244E-01  0.77752997468E-01  0.40750978941E-01  0.10000401998E+00  0.51100000000E-03 0.  1.
</event>
<event>
 8    1  0.1180500E+005  0.1043930E+01  0.7957747E-01            NaN
         13   -1    0    0    0    0  0.00000000000E+00  0.00000000000E+00  0.74505805969E-08  0.10566000000E+00  0.10566000000E+00 0.  1.
     999900   -1    0    0    0    0 -0.00000000000E+00 -0.00000000000E+00 -0.74505805969E-08  0.93827000000E+00  0.93827000000E+00 0.  1.
     999902    2    1    2    0    0 -0.16822845002E-01  0.11765543058E-01  0.10986468558E-01  0.10206461299E+01  0.10203805093E+01 0.  0.
     999903    2    3    3    0    0  0.23188516425E-01 -0.18812664490E-02 -0.12518239291E+00  0.12917032913E+00  0.21750769539E-01 0.  0.
         14    1    1    2    0    0  0.16822845002E-01 -0.11765543058E-01 -0.10986468558E-01  0.23283870142E-01  0.00000000000E+00 0. -1.
     999901    1    3    3    0    0 -0.40011361427E-01  0.13646809507E-01  0.13616886147E+00  0.89147580073E+00  0.88000000000E+00 0. -1.
        -11    1    4    4    0    0  0.10533335957E-01 -0.68960947922E-02 -0.24301889084E-01  0.27374262069E-01  0.51100000000E-03 0.  1.
         11    1    4    4    0    0  0.12655180468E-01  0.50148283432E-02 -0.10088050382E+00  0.10179606706E+00  0.51100000000E-03 0. -1.
</event>
<event>
 8    1  0.1180500E+005  0.1043930E+01  0.7957747E-01            NaN
         13   -1    0    0    0    0  0.00000000000E+00  0.00000000000E+00  0.74505805969E-08  0.10566000000E+00  0.10566000000E+00 0. -1.
     999900   -1    0    0    0    0 -0.00000000000E+00 -0.00000000000E+00 -0.74505805969E-08  0.93827000000E+00  0.93827000000E+00 0.  1.
     999902    2    1    2    0    0  0.13975724060E-01  0.15837064942E-01 -0.80464432890E-02  0.10213273732E+01  0.10210772373E+01 0.  0.
     999903    2    3    3    0    0  0.74210106514E-01 -0.10556762949E+00  0.79577256377E-02  0.13080875234E+00  0.19898240823E-01 0.  0.
         14    1    1    2    0    0 -0.13975724060E-01 -0.15837064942E-01  0.80464432890E-02  0.22602626807E-01  0.00000000000E+00 0. -1.
     999901    1    3    3    0    0 -0.60234382454E-01  0.12140469443E+00 -0.16004168927E-01  0.89051862085E+00  0.88000000000E+00 0. -1.
        -11    1    4    4    0    0  0.40754688663E-01 -0.48479528071E-01 -0.44200168615E-02  0.63490211529E-01  0.51100000000E-03 0.  1.
         11    1    4    4    0    0  0.33455417852E-01 -0.57088101416E-01  0.12377742499E-01  0.67318540813E-01  0.51100000000E-03 0. -1.
</event>
<event>
 8    1  0.1180500E+005  0.1043930E+01  0.7957747E-01            NaN
         13   -1    0    0    0    0  0.00000000000E+00  0.00000000000E+00  0.74505805969E-08  0.10566000000E+00  0.10566000000E+00 0. -1.
     999900   -1    0    0    0    0 -0.00000000000E+00 -0.00000000000E+00 -0.74505805969E-08  0.93827000000E+00  0.93827000000E+00 0.  1.
     999902    2    1    2    0    0 -0.20076984049E-02  0.14485136915E-01  0.19157443179E-01  0.10198290109E+01  0.10195441893E+01 0.  0.
     999903    2    3    3    0    0  0.49016955655E-01  0.55028736040E-01  0.10857933455E+00  0.13289971646E+00  0.21024723850E-01 0.  0.
         14    1    1    2    0    0  0.20076984049E-02 -0.14485136915E-01 -0.19157443179E-01  0.24100989056E-01  0.00000000000E+00 0.  1.
     999901    1    3    3    0    0 -0.51024654060E-01 -0.40543599125E-01 -0.89421891370E-01  0.88692929448E+00  0.88000000000E+00 0.  1.
        -11    1    4    4    0    0  0.21971245579E-01  0.27371605225E-01  0.33925866009E-01  0.48817680305E-01  0.51100000000E-03 0.  1.
         11    1    4    4    0    0  0.27045710076E-01  0.27657130815E-01  0.74653468540E-01  0.84082036158E-01  0.51100000000E-03 0. -1.
</event>
<event>
 8    1  0.1180500E+005  0.1043930E+01  0.7957747E-01            NaN
         13   -1    0    0    0    0  0.00000000000E+00  0.00000000000E+00  0.74505805969E-08  0.10566000000E+00  0.10566000000E+00 0.  1.
     999900   -1    0    0    0    0 -0.00000000000E+00 -0.00000000000E+00 -0.74505805969E-08  0.93827000000E+00  0.93827000000E+00 0. -1.
     999902    2    1    2    0    0 -0.50741936333E-02  0.11677835401E-01  0.18935305442E-01  0.10211119135E+01  0.10208569316E+01 0.  0.
     999903    2    3    3    0    0 -0.12195612191E+00  0.44145219429E-01 -0.15011509766E-01  0.13214177761E+00  0.20347183980E-01 0.  0.
         14    1    1    2    0    0  0.50741936333E-02 -0.11677835401E-01 -0.18935305442E-01  0.22818086529E-01  0.00000000000E+00 0. -1.
     999901    1    3    3    0    0  0.11688192828E+00 -0.32467384029E-01  0.33946815208E-01  0.88897013586E+00  0.88000000000E+00 0. -1.
        -11    1    4    4    0    0 -0.50132595655E-01  0.13074787280E-01  0.27824401331E-02  0.51886706425E-01  0.51100000000E-03 0. -1.
         11    1    4    4    0    0 -0.71823526254E-01  0.31070432149E-01 -0.17793949899E-01  0.80255071189E-01  0.51100000000E-03 0.  1.
</event>
<event>
 8    1  0.1180500E+005  0.1043930E+01  0.7957747E-01            NaN
         13   -1    0    0    0    0  0.00000000000E+00  0.00000000000E+00  0.74505805969E-08  0.10566000000E+00  0.10566000000E+00 0.  1.
     999900   -1    0    0    0    0 -0.00000000000E+00 -0.00000000000E+00 -0.74505805969E-08  0.93827000000E+00  0.93827000000E+00 0. -1.
     999902    2    1    2    0    0  0.12783674723E-01  0.21594506935E-01 -0.22537016176E-01  0.10102007521E+01  0.10096375079E+01 0.  0.
     999903    2    3    3    0    0  0.19778111208E-01  0.41062096057E-01  0.10919746040E+00  0.12015475240E+00  0.20876056917E-01 0.  0.
         14    1    1    2    0    0 -0.12783674723E-01 -0.21594506935E-01  0.22537016176E-01  0.33729247950E-01  0.00000000000E+00 0.  1.
     999901    1    3    3    0    0 -0.69944364854E-02 -0.19467589122E-01 -0.13173447657E+00  0.89004599965E+00  0.88000000000E+00 0. -1.
        -11    1    4    4    0    0  0.22360828016E-01  0.33830807931E-01  0.76741430529E-01  0.86798839137E-01  0.51100000000E-03 0. -1.
         11    1    4    4    0    0 -0.25827168075E-02  0.72312881254E-02  0.32456029868E-01  0.33355913267E-01  0.51100000000E-03 0.  1.
</event>
<event>
 8    1  0.1180500E+005  0.1043930E+01  0.7957747E-01            NaN
         13   -1    0    0    0    0  0.00000000000E+00  0.00000000000E+00  0.74505805969E-08  0.10566000000E+00  0.10566000000E+00 0.  1.
     999900   -1    0    0    0    0 -0.00000000000E+00 -0.00000000000E+00 -0.74505805969E-08  0.93827000000E+00  0.93827000000E+00 0. -1.
     999902    2    1    2    0    0 -0.32826020032E-01 -0.99746578528E-02 -0.10767902614E-01  0.10079718421E+01  0.10073302564E+01 0.  0.
     999903    2    3    3    0    0 -0.45659484986E-01 -0.11056642940E+00 -0.14336462009E-01  0.12214108124E+00  0.20079484696E-01 0.  0.
         14    1    1    2    0    0  0.32826020032E-01  0.99746578528E-02  0.10767902614E-01  0.35958157866E-01  0.00000000000E+00 0. -1.
     999901    1    3    3    0    0  0.12833464954E-01  0.10059177154E+00  0.35685593942E-02  0.88583076089E+00  0.88000000000E+00 0.  1.
        -11    1    4    4    0    0 -0.31272081454E-02 -0.12900290278E-01 -0.78215042955E-02  0.15415380971E-01  0.51100000000E-03 0.  1.
         11    1    4    4    0    0 -0.42532276841E-01 -0.97666139118E-01 -0.65149577131E-02  0.10672570027E+00  0.51100000000E-03 0. -1.
</event>
<event>
 8    1  0.1180500E+005  0.1043930E+01  0.7957747E-01            NaN
         13   -1    0    0    0    0  0.00000000000E+00  0.00000000000E+00  0.74505805969E-08  0.10566000000E+00  0.10566000000E+00 0.  1.
     999900   -1    0    0    0    0 -0.00000000000E+00 -0.00000000000E+00 -0.74505805969E-08  0.93827000000E+00  0.93827000000E+00 0.  1.
     999902    2    1    2    0    0 -0.12009397020E-01 -0.15236287298E-01 -0.12937190481E-01  0.10206117461E+01  0.10203453314E+01 0.  0.
     999903    2    3    3    0    0  0.74565575679E-01 -0.83574755635E-01 -0.67014072807E-01  0.13207942741E+00  0.20231765501E-01 0.  0.
         14    1    1    2    0    0  0.12009397020E-01  0.15236287298E-01  0.12937190481E-01  0.23318253900E-01  0.00000000000E+00 0. -1.
     999901    1    3    3    0    0 -0.86574972699E-01  0.68338468337E-01  0.54076882325E-01  0.88853231869E+00  0.88000000000E+00 0.  1.
        -11    1    4    4    0    0  0.44264603519E-01 -0.35391875934E-01 -0.37527587873E-01  0.67974414153E-01  0.51100000000E-03 0. -1.
         11    1    4    4    0    0  0.30300972160E-01 -0.48182879701E-01 -0.29486484934E-01  0.64105013258E-01  0.51100000000E-03 0.  1.
</event>
<event>
 8    1  0.1180500E+005  0.1043930E+01  0.7957747E-01            NaN
         13   -1    0    0    0    0  0.00000000000E+00  0.00000000000E+00  0.74505805969E-08  0.10566000000E+00  0.10566000000E+00 0. -1.
     999900   -1    0    0    0    0 -0.00000000000E+00 -0.00000000000E+00 -0.74505805969E-08  0.93827000000E+00  0.93827000000E+00 0. -1.
     999902    2    1    2    0    0  0.46544205669E-02 -0.39605241368E-02 -0.23048831461E-01  0.10200847067E+01  0.10198059672E+01 0.  0.
     999903    2    3    3    0    0  0.62894798868E-01 -0.56803101136E-01 -0.10083091986E+00  0.13316062148E+00  0.19558340685E-01 0.  0.
         14    1    1    2    0    0 -0.46544205669E-02  0.39605241368E-02  0.23048831461E-01  0.23845293329E-01  0.00000000000E+00 0. -1.
     999901    1    3    3    0    0 -0.58240378301E-01  0.52842576999E-01  0.77782088402E-01  0.88692408519E+00  0.88000000000E+00 0.  1.
        -11    1    4    4    0    0  0.56333931032E-01 -0.46683551530E-01 -0.75687831671E-01  0.10527000880E+00  0.51100000000E-03 0.  1.
         11    1    4    4    0    0  0.65608678353E-02 -0.10119549606E-01 -0.25143088192E-01  0.27890612683E-01  0.51100000000E-03 0. -1.
</event>
<event>
 8    1  0.1180500E+005  0.1043930E+01  0.7957747E-01            NaN
         13   -1    0    0    0    0  0.00000000000E+00  0.00000000000E+00  0.74505805969E-08  0.10566000000E+00  0.10566000000E+00 0. -1.
     999900   -1    0    0    0    0 -0.00000000000E+00 -0.00000000000E+00 -0.74505805969E-08  0.93827000000E+00  0.93827000000E+00 0.  1.
     999902    2    1    2    0    0 -0.89271192130E-03  0.19104291113E-01 -0.14682407108E-01  0.10198189247E+01  0.10195338617E+01 0.  0.
     999903    2    3    3    0    0 -0.12403732697E-01  0.52610040929E-01 -0.11972990410E+00  0.13286339285E+00  0.19893773703E-01 0.  0.
         14    1    1    2    0    0  0.89271192130E-03 -0.19104291113E-01  0.14682407108E-01  0.24111075297E-01  0.00000000000E+00 0. -1.
     999901    1    3    3    0    0  0.11511020776E-01 -0.33505749816E-01  0.10504749699E+00  0.88695553186E+00  0.88000000000E+00 0. -1.
        -11    1    4    4    0    0 -0.14515188477E-01  0.34558358695E-01 -0.63195957840E-01  0.73477622856E-01  0.51100000000E-03 0. -1.
         11    1    4    4    0    0  0.21114557797E-02  0.18051682234E-01 -0.56533946256E-01  0.59385769989E-01  0.51100000000E-03 0.  1.
</event>
<event>
 8    1  0.1180500E+005  0.1043930E+01  0.7957747E-01            NaN
         13   -1    0    0    0    0  0.00000000000E+00  0.00000000000E+00  0.74505805969E-08  0.10566000000E+00  0.10566000000E+00 0. -1.
     999900   -1    0    0    0    0 -0.00000000000E+00 -0.00000000000E+00 -0.74505805969E-08  0.93827000000E+00  0.93827000000E+00 0.  1.
     999902    2    1    2    0    0  0.68655609844E-02  0.89564169465E-02 -0.12272141203E-01  0.10272579041E+01  0.10271226036E+01 0.  0.
     999903    2    3    3    0    0  0.48667171111E-01 -0.11220410524E+00 -0.57424243808E-01  0.13682769396E+00  0.21587479729E-01 0.  0.
         14    1    1    2    0    0 -0.68655609844E-02 -0.89564169465E-02  0.12272141203E-01  0.16672095905E-01  0.00000000000E+00 0. -1.
     999901    1    3    3    0    0 -0.41801610127E-01  0.12116052219E+00  0.45152102605E-01  0.89043021013E+00  0.88000000000E+00 0. -1.
        -11    1    4    4    0    0  0.11091983836E-01 -0.41498347868E-01 -0.11292046851E-01  0.44417523843E-01  0.51100000000E-03 0.  1.
         11    1    4    4    0    0  0.37575187275E-01 -0.70705757375E-01 -0.46132196956E-01  0.92410170121E-01  0.51100000000E-03 0. -1.
</event>
<event>
 8    1  0.1180500E+005  0.1043930E+01  0.7957747E-01            NaN
         13   -1    0    0    0    0  0.00000000000E+00  0.00000000000E+00  0.74505805969E-08  0.10566000000E+00  0.10566000000E+00 0.  1.
     999900   -1    0    0    0    0 -0.00000000000E+00 -0.00000000000E+00 -0.74505805969E-08  0.93827000000E+00  0.93827000000E+00 0. -1.
     999902    2    1    2    0    0  0.39638663614E-02  0.13854667454E-01  0.15132630101E-01  0.10230335759E+01  0.10228201391E+01 0.  0.
     999903    2    3    3    0    0  0.12737432304E+00  0.36014314689E-01  0.89027986758E-02  0.13412413079E+00  0.19717342722E-01 0.  0.
         14    1    1    2    0    0 -0.39638663614E-02 -0.13854667454E-01 -0.15132630101E-01  0.20896424109E-01  0.00000000000E+00 0. -1.
     999901    1    3    3    0    0 -0.12341045668E+00 -0.22159647235E-01  0.62298314249E-02  0.88890944510E+00  0.88000000000E+00 0.  1.
        -11    1    4    4    0    0  0.16723991978E-01  0.41252493063E-02  0.79182267849E-02  0.18964942023E-01  0.51100000000E-03 0. -1.
         11    1    4    4    0    0  0.11065033106E+00  0.31889065382E-01  0.98457189091E-03  0.11515918877E+00  0.51100000000E-03 0.  1.
</event>
<event>
 8    1  0.1180500E+005  0.1043930E+01  0.7957747E-01            NaN
         13   -1    0    0    0    0  0.00000000000E+00  0.00000000000E+00  0.74505805969E-08  0.10566000000E+00  0.10566000000E+00 0.  1.
     999900   -1    0    0    0    0 -0.00000000000E+00 -0.00000000000E+00 -0.74505805969E-08  0.93827000000E+00  0.93827000000E+00 0. -1.
     999902    2    1    2    0    0  0.42875707410E-02 -0.94312259600E-02  0.21141290601E-01  0.10203867323E+01  0.10201150906E+01 0.  0.
     999903    2    3    3    0    0  0.45000694917E-01  0.45487775820E-01  0.11469386769E+00  0.13279125015E+00  0.19612050854E-01 0.  0.
         14    1    1    2    0    0 -0.42875707410E-02  0.94312259600E-02 -0.21141290601E-01  0.23543267705E-01  0.00000000000E+00 0. -1.
     999901    1    3    3    0    0 -0.40713124176E-01 -0.54919001780E-01 -0.93552577093E-01  0.88759548214E+00  0.88000000000E+00 0. -1.
        -11    1    4    4    0    0  0.13894951644E-01  0.25700431489E-01  0.61254400031E-01  0.67867109148E-01  0.51100000000E-03 0. -1.
         11    1    4    4    0    0  0.31105743274E-01  0.19787344332E-01  0.53439467662E-01  0.64924141006E-01  0.51100000000E-03 0.  1.
</event>
<event>
 8    1  0.1180500E+005  0.1043930E+01  0.7957747E-01            NaN
         13   -1    0    0    0    0  0.00000000000E+00  0.00000000000E+00  0.74505805969E-08  0.10566000000E+00  0.10566000000E+00 0.  1.
     999900   -1    0    0    0    0 -0.00000000000E+00 -0.00000000000E+00 -0.74505805969E-08  0.93827000000E+00  0.93827000000E+00 0.  1.
     999902    2    1    2    0    0  0.21914465774E-01  0.81341415515E-02  0.75907990587E-03  0.10205423051E+01  0.10202742829E+01 0.  0.
     999903    2    3    3    0    0  0.66346419047E-02 -0.93653066377E-01 -0.88177364769E-01  0.13009084665E+00  0.18261035301E-01 0.  0.
         14    1    1    2    0    0 -0.21914465774E-01 -0.81341415515E-02 -0.75907990587E-03  0.23387694869E-01  0.00000000000E+00 0.  1.
     999901    1    3    3    0    0  0.15279823870E-01  0.10178720793E+00  0.88936444674E-01  0.89045145848E+00  0.88000000000E+00 0.  1.
        -11    1    4    4    0    0  0.97056559080E-02 -0.31295160587E-01 -0.24539462455E-01  0.40939384111E-01  0.51100000000E-03 0. -1.
         11    1    4    4    0    0 -0.30710140033E-02 -0.62357905790E-01 -0.63637902314E-01  0.89151462542E-01  0.51100000000E-03 0.  1.
</event>
<event>
 8    1  0.1180500E+005  0.1043930E+01  0.7957747E-01            NaN
         13   -1    0    0    0    0  0.00000000000E+00  0.00000000000E+00  0.74505805969E-08  0.10566000000E+00  0.10566000000E+00 0. -1.
     999900   -1    0    0    0    0 -0.00000000000E+00 -0.00000000000E+00 -0.74505805969E-08  0.93827000000E+00  0.93827000000E+00 0.  1.
     999902    2    1    2    0    0 -0.36046020019E-02  0.83879947310E-02  0.19656411868E-01  0.10222568337E+01  0.10220270583E+01 0.  0.
     999903    2    3    3    0    0 -0.19443510777E-01  0.11566764443E+00  0.62616610396E-01  0.13456016649E+00  0.20701314628E-01 0.  0.
         14    1    1    2    0    0  0.36046020019E-02 -0.83879947310E-02 -0.19656411868E-01  0.21673166329E-01  0.00000000000E+00 0.  1.
     999901    1    3    3    0    0  0.15838908775E-01 -0.10727964970E+00 -0.42960198527E-01  0.88769666718E+00  0.88000000000E+00 0.  1.
        -11    1    4    4    0    0  0.40398594620E-02  0.29952258598E-01  0.15877179855E-01  0.34143875304E-01  0.51100000000E-03 0. -1.
         11    1    4    4    0    0 -0.23483370239E-01  0.85715385836E-01  0.46739430540E-01  0.10041629118E+00  0.51100000000E-03 0.  1.
</event>
<event>
 8    1  0.1180500E+005  0.1043930E+01  0.7957747E-01            NaN
         13   -1    0    0    0    0  0.00000000000E+00  0.00000000000E+00  0.74505805969E-08  0.10566000000E+00  0.10566000000E+00 0. -1.
     999900   -1    0    0    0    0 -0.00000000000E+00 -0.00000000000E+00 -0.74505805969E-08  0.93827000000E+00  0.93827000000E+00 0.  1.
     999902    2    1    2    0    0  0.54039238878E-02 -0.22846043093E-01 -0.30558084726E-03  0.10204515533E+01  0.10201814227E+01 0.  0.
     999903    2    3    3    0    0 -0.38995081139E-01 -0.10741480944E+00 -0.64591485135E-01  0.13295179255E+00  0.21108328953E-01 0.  0.
         14    1    1    2    0    0 -0.54039238878E-02  0.22846043093E-01  0.30558084726E-03  0.23478446670E-01  0.00000000000E+00 0. -1.
     999901    1    3    3    0    0  0.44399005027E-01  0.84568766346E-01  0.64285904288E-01  0.88749976078E+00  0.88000000000E+00 0. -1.
        -11    1    4    4    0    0 -0.23530635778E-01 -0.53971037232E-01 -0.21895438930E-01  0.62819065951E-01  0.51100000000E-03 0.  1.
         11    1    4    4    0    0 -0.15464445360E-01 -0.53443772207E-01 -0.42696046205E-01  0.70132726602E-01  0.51100000000E-03 0. -1.
</event>
<event>
 8    1  0.1180500E+005  0.1043930E+01  0.7957747E-01            NaN
         13   -1    0    0    0    0  0.00000000000E+00  0.00000000000E+00  0.74505805969E-08  0.10566000000E+00  0.10566000000E+00 0.  1.
     999900   -1    0    0    0    0 -0.00000000000E+00 -0.00000000000E+00 -0.74505805969E-08  0.93827000000E+00  0.93827000000E+00 0. -1.
     999902    2    1    2    0    0 -0.82458841625E-03  0.12818036125E-01 -0.58208180103E-02  0.10298280881E+01  0.10297315316E+01 0.  0.
     999903    2    3    3    0    0  0.10237617494E+00 -0.39503166052E-02 -0.92182173831E-01  0.13944061125E+00  0.21204827198E-01 0.  0.
         14    1    1    2    0    0  0.82458841625E-03 -0.12818036125E-01  0.58208180103E-02  0.14101911873E-01  0.00000000000E+00 0. -1.
     999901    1    3    3    0    0 -0.10320076335E+00  0.16768352730E-01  0.86361355821E-01  0.89038747688E+00  0.88000000000E+00 0.  1.
        -11    1    4    4    0    0  0.53366150573E-01 -0.37215550162E-02 -0.61953395064E-01  0.81855239781E-01  0.51100000000E-03 0. -1.
         11    1    4    4    0    0  0.49010024363E-01 -0.22876158907E-03 -0.30228778767E-01  0.57585371464E-01  0.51100000000E-03 0.  1.
</event>
<event>
 8    1  0.1180500E+005  0.1043930E+01  0.7957747E-01            NaN
         13   -1    0    0    0    0  0.00000000000E+00  0.00000000000E+00  0.74505805969E-08  0.10566000000E+00  0.10566000000E+00 0.  1.
     999900   -1    0    0    0    0 -0.00000000000E+00 -0.00000000000E+00 -0.74505805969E-08  0.93827000000E+00  0.93827000000E+00 0.  1.
     999902    2    1    2    0    0  0.10340252121E-01 -0.20768711136E-01  0.75231145229E-02  0.10195403008E+01  0.10192485308E+01 0.  0.
     999903    2    3    3    0    0  0.87153722355E-01  0.49787570649E-01  0.80692091996E-01  0.13036529136E+00  0.20231707008E-01 0.  0.
         14    1    1    2    0    0 -0.10340252121E-01  0.20768711136E-01 -0.75231145229E-02  0.24389699225E-01  0.00000000000E+00 0. -1.
     999901    1    3    3    0    0 -0.76813470234E-01 -0.70556281785E-01 -0.73168977473E-01  0.88917500942E+00  0.88000000000E+00 0.  1.
        -11    1    4    4    0    0  0.31330119524E-01  0.25837058007E-01  0.23443614138E-01  0.46893433663E-01  0.51100000000E-03 0.  1.
         11    1    4    4    0    0  0.55823602831E-01  0.23950512642E-01  0.57248477858E-01  0.83471857694E-01  0.51100000000E-03 0. -1.
</event>
<event>
 8    1  0.1180500E+005  0.1043930E+01  0.7957747E-01            NaN
         13   -1    0    0    0    0  0.00000000000E+00  0.00000000000E+00  0.74505805969E-08  0.10566000000E+00  0.10566000000E+00 0. -1.
     999900   -1    0    0    0    0 -0.00000000000E+00 -0.00000000000E+00 -0.74505805969E-08  0.93827000000E+00  0.93827000000E+00 0.  1.
     999902    2    1    2    0    0  0.15263205305E-01  0.13062853441E-01  0.13794504585E-01  0.10195601019E+01  0.10192688112E+01 0.  0.
     999903    2    3    3    0    0 -0.56532409658E-01 -0.10576175267E+00 -0.38455902253E-01  0.12714539878E+00  0.17482400970E-01 0.  0.
         14    1    1    2    0    0 -0.15263205305E-01 -0.13062853441E-01 -0.13794504585E-01  0.24369898091E-01  0.00000000000E+00 0.  1.
     999901    1    3    3    0    0  0.71795614962E-01  0.11882460611E+00  0.52250406838E-01  0.89241470313E+00  0.88000000000E+00 0. -1.
        -11    1    4    4    0    0 -0.26642400181E-01 -0.48258201277E-01 -0.26799418617E-01  0.61295525425E-01  0.51100000000E-03 0. -1.
         11    1    4    4    0    0 -0.29890009476E-01 -0.57503551392E-01 -0.11656483636E-01  0.65849873355E-01  0.51100000000E-03 0.  1.
</event>
<event>
 8    1  0.1180500E+005  0.1043930E+01  0.7957747E-01            NaN
         13   -1    0    0    0    0  0.00000000000E+00  0.00000000000E+00  0.74505805969E-08  0.10566000000E+00  0.10566000000E+00 0. -1.
     999900   -1    0    0    0    0 -0.00000000000E+00 -0.00000000000E+00 -0.74505805969E-08  0.93827000000E+00  0.93827000000E+00 0.  1.
     999902    2    1    2    0    0 -0.20848979032E-01  0.65986768105E-02  0.10252986750E-01  0.10197774391E+01  0.10194913825E+01 0.  0.
     999903    2    3    3    0    0  0.74600827377E-01 -0.10117601562E+00 -0.12424974470E-01  0.12779070161E+00  0.19344607666E-01 0.  0.
         14    1    1    2    0    0  0.20848979032E-01 -0.65986768105E-02 -0.10252986750E-01  0.24152560933E-01  0.00000000000E+00 0.  1.
     999901    1    3    3    0    0 -0.95449806409E-01  0.10777469243E+00  0.22677961220E-01  0.89198673746E+00  0.88000000000E+00 0.  1.
        -11    1    4    4    0    0  0.53737864638E-01 -0.78114762262E-01 -0.15050001240E-02  0.94827213001E-01  0.51100000000E-03 0. -1.
         11    1    4    4    0    0  0.20862962739E-01 -0.23061253357E-01 -0.10919974346E-01  0.32963488610E-01  0.51100000000E-03 0.  1.
</event>
<event>
 8    1  0.1180500E+005  0.1043930E+01  0.7957747E-01            NaN
         13   -1    0    0    0    0  0.00000000000E+00  0.00000000000E+00  0.74505805969E-08  0.10566000000E+00  0.10566000000E+00 0.  1.
     999900   -1    0    0    0    0 -0.00000000000E+00 -0.00000000000E+00 -0.74505805969E-08  0.93827000000E+00  0.93827000000E+00 0. -1.
     999902    2    1    2    0    0  0.46595935418E-03 -0.19815773636E-01 -0.11932036176E-01  0.10207944107E+01  0.10205322011E+01 0.  0.
     999903    2    3    3    0    0  0.11192403843E+00  0.53121081487E-01 -0.35496761336E-01  0.13045852778E+00  0.20262470937E-01 0.  0.
         14    1    1    2    0    0 -0.46595935418E-03  0.19815773636E-01  0.11932036176E-01  0.23135589256E-01  0.00000000000E+00 0.  1.
     999901    1    3    3    0    0 -0.11145807907E+00 -0.72936855124E-01  0.23564725160E-01  0.89033588297E+00  0.88000000000E+00 0. -1.
        -11    1    4    4    0    0  0.21810643415E-01  0.19755709264E-02 -0.54772677416E-02  0.22580270804E-01  0.51100000000E-03 0.  1.
         11    1    4    4    0    0  0.90113395012E-01  0.51145510561E-01 -0.30019493594E-01  0.10787825697E+00  0.51100000000E-03 0. -1.
</event>
<event>
 8    1  0.1180500E+005  0.1043930E+01  0.7957747E-01            NaN
         13   -1    0    0    0    0  0.00000000000E+00  0.00000000000E+00  0.74505805969E-08  0.10566000000E+00  0.10566000000E+00 0. -1.
     999900   -1    0    0    0    0 -0.00000000000E+00 -0.00000000000E+00 -0.74505805969E-08  0.93827000000E+00  0.93827000000E+00 0. -1.
     999902    2    1    2    0    0 -0.16647004998E-01  0.98625071302E-02  0.81906584250E-02  0.10229186053E+01  0.10227027889E+01 0.  0.
     999903    2    3    3    0    0  0.76033977736E-01  0.26112040036E-01  0.10474229655E+00  0.13265121248E+00  0.12743275859E-01 0.  0.
         14    1    1    2    0    0  0.16647004998E-01 -0.98625071302E-02 -0.81906584250E-02  0.21011394712E-01  0.00000000000E+00 0. -1.
     999901    1    3    3    0    0 -0.92680982734E-01 -0.16249532905E-01 -0.96551638125E-01  0.89026739281E+00  0.88000000000E+00 0. -1.
        -11    1    4    4    0    0  0.35851549798E-01  0.65083076124E-02  0.41969633026E-01  0.55582397468E-01  0.51100000000E-03 0. -1.
         11    1    4    4    0    0  0.40182427937E-01  0.19603732423E-01  0.62772663524E-01  0.77068815008E-01  0.51100000000E-03 0.  1.
</event>
<event>
 8    1  0.1180500E+005  0.1043930E+01  0.7957747E-01            NaN
         13   -1    0    0    0    0  0.00000000000E+00  0.00000000000E+00  0.74505805969E-08  0.10566000000E+00  0.10566000000E+00 0. -1.
     999900   -1    0    0    0    0 -0.00000000000E+00 -0.00000000000E+00 -0.74505805969E-08  0.93827000000E+00  0.93827000000E+00 0. -1.
     999902    2    1    2    0    0 -0.41065240034E-02 -0.21344646289E-01  0.11583365674E-01  0.10193001030E+01  0.10190024868E+01 0.  0.
     999903    2    3    3    0    0  0.13804307709E-02 -0.11678201846E+00  0.59858311415E-01  0.13280765012E+00  0.20369316580E-01 0.  0.
         14    1    1    2    0    0  0.41065240034E-02  0.21344646289E-01 -0.11583365674E-01  0.24629896974E-01  0.00000000000E+00 0.  1.
     999901    1    3    3    0    0 -0.54869547743E-02  0.95437372175E-01 -0.48274945741E-01  0.88649245291E+00  0.88000000000E+00 0. -1.
        -11    1    4    4    0    0  0.30181866830E-02 -0.30396595944E-01  0.25611124500E-01  0.39865440108E-01  0.51100000000E-03 0.  1.
         11    1    4    4    0    0 -0.16377559121E-02 -0.86385422521E-01  0.34247186915E-01  0.92942210008E-01  0.51100000000E-03 0. -1.
</event>
<event>
 8    1  0.1180500E+005  0.1043930E+01  0.7957747E-01            NaN
         13   -1    0    0    0    0  0.00000000000E+00  0.00000000000E+00  0.74505805969E-08  0.10566000000E+00  0.10566000000E+00 0. -1.
     999900   -1    0    0    0    0 -0.00000000000E+00 -0.00000000000E+00 -0.74505805969E-08  0.93827000000E+00  0.93827000000E+00 0.  1.
     999902    2    1    2    0    0 -0.91178120190E-02  0.10589477890E-02 -0.21424537932E-01  0.10206219179E+01  0.10203557382E+01 0.  0.
     999903    2    3    3    0    0 -0.12926414464E+00  0.47103938874E-02 -0.19785895402E-01  0.13244898458E+00  0.20490118567E-01 0.  0.
         14    1    1    2    0    0  0.91178120190E-02 -0.10589477890E-02  0.21424537932E-01  0.23308082119E-01  0.00000000000E+00 0. -1.
     999901    1    3    3    0    0  0.12014633262E+00 -0.36514460984E-02 -0.16386425306E-02  0.88817293330E+00  0.88000000000E+00 0.  1.
        -11    1    4    4    0    0 -0.67280505076E-01  0.88242945318E-02 -0.22359980571E-02  0.67895473675E-01  0.51100000000E-03 0.  1.
         11    1    4    4    0    0 -0.61983639565E-01 -0.41139006444E-02 -0.17549897345E-01  0.64553510905E-01  0.51100000000E-03 0. -1.
</event>
<event>
 8    1  0.1180500E+005  0.1043930E+01  0.7957747E-01            NaN
         13   -1    0    0    0    0  0.00000000000E+00  0.00000000000E+00  0.74505805969E-08  0.10566000000E+00  0.10566000000E+00 0.  1.
     999900   -1    0    0    0    0 -0.00000000000E+00 -0.00000000000E+00 -0.74505805969E-08  0.93827000000E+00  0.93827000000E+00 0. -1.
     999902    2    1    2    0    0 -0.14280288814E-02  0.12672132006E-01  0.19999866518E-01  0.10202104541E+01  0.10199346812E+01 0.  0.
     999903    2    3    3    0    0 -0.36295239036E-01 -0.97741667546E-01 -0.71880269428E-01  0.12788266185E+00  0.17788314071E-01 0.  0.
         14    1    1    2    0    0  0.14280288814E-02 -0.12672132006E-01 -0.19999866518E-01  0.23719545881E-01  0.00000000000E+00 0. -1.
     999901    1    3    3    0    0  0.34867210154E-01  0.11041379955E+00  0.91880135945E-01  0.89232779227E+00  0.88000000000E+00 0.  1.
        -11    1    4    4    0    0 -0.24560896118E-01 -0.49464149944E-01 -0.45911809533E-01  0.71819879722E-01  0.51100000000E-03 0. -1.
         11    1    4    4    0    0 -0.11734342918E-01 -0.48277517602E-01 -0.25968459895E-01  0.56062782128E-01  0.51100000000E-03 0.  1.
</event>
<event>
 8    1  0.1180500E+005  0.1043930E+01  0.7957747E-01            NaN
         13   -1    0    0    0    0  0.00000000000E+00  0.00000000000E+00  0.74505805969E-08  0.10566000000E+00  0.10566000000E+00 0.  1.
     999900   -1    0    0    0    0 -0.00000000000E+00 -0.00000000000E+00 -0.74505805969E-08  0.93827000000E+00  0.93827000000E+00 0.  1.
     999902    2    1    2    0    0  0.27095330021E-01  0.17957755785E-01 -0.34751513791E-02  0.10112387997E+01  0.10107102430E+01 0.  0.
     999903    2    3    3    0    0 -0.10797403157E+00  0.20776705146E-01  0.42345751884E-01  0.11975058657E+00  0.21377027673E-01 0.  0.
         14    1    1    2    0    0 -0.27095330021E-01 -0.17957755785E-01  0.34751513791E-02  0.32691200328E-01  0.00000000000E+00 0.  1.
     999901    1    3    3    0    0  0.13506936159E+00 -0.28189493602E-02 -0.45820903263E-01  0.89148821310E+00  0.88000000000E+00 0. -1.
        -11    1    4    4    0    0 -0.37577868917E-01  0.14655391558E-01  0.23223387509E-01  0.46545285287E-01  0.51100000000E-03 0.  1.
         11    1    4    4    0    0 -0.70396162652E-01  0.61213135874E-02  0.19122364375E-01  0.73205301287E-01  0.51100000000E-03 0. -1.
</event>
<event>
 8    1  0.1180500E+005  0.1043930E+01  0.7957747E-01            NaN
         13   -1    0    0    0    0  0.00000000000E+00  0.00000000000E+00  0.74505805969E-08  0.10566000000E+00  0.10566000000E+00 0.  1.
     999900   -1    0    0    0    0 -0.00000000000E+00 -0.00000000000E+00 -0.74505805969E-08  0.93827000000E+00  0.93827000000E+00 0.  1.
     999902    2    1    2    0    0  0.15382807641E-02 -0.14213276240E-01 -0.11027207470E-01  0.10258750053E+01  0.10257161126E+01 0.  0.
     999903    2    3    3    0    0  0.38315095776E-01  0.14583520014E-01 -0.12902051220E+00  0.13677196877E+00  0.19482126504E-01 0.  0.
         14    1    1    2    0    0 -0.15382807641E-02  0.14213276240E-01  0.11027207470E-01  0.18054994704E-01  0.00000000000E+00 0.  1.
     999901    1    3    3    0    0 -0.36776815012E-01 -0.28796796253E-01  0.11799330473E+00  0.88910303652E+00  0.88000000000E+00 0. -1.
        -11    1    4    4    0    0  0.29673056984E-01  0.93329304575E-02 -0.66260345299E-01  0.73200330476E-01  0.51100000000E-03 0.  1.
         11    1    4    4    0    0  0.86420387922E-02  0.52505895560E-02 -0.62760166900E-01  0.63571638295E-01  0.51100000000E-03 0. -1.
</event>
<event>
 8    1  0.1180500E+005  0.1043930E+01  0.7957747E-01            NaN
         13   -1    0    0    0    0  0.00000000000E+00  0.00000000000E+00  0.74505805969E-08  0.10566000000E+00  0.10566000000E+00 0.  1.
     999900   -1    0    0    0    0 -0.00000000000E+00 -0.00000000000E+00 -0.74505805969E-08  0.93827000000E+00  0.93827000000E+00 0.  1.
     999902    2    1    2    0    0  0.21196359148E-01  0.29397724887E-02 -0.95022233966E-02  0.10205158984E+01  0.10202472635E+01 0.  0.
     999903    2    3    3    0    0 -0.67799827799E-01 -0.35595133730E-01 -0.10345598449E+00  0.13021675234E+00  0.19734023117E-01 0.  0.
         14    1    1    2    0    0 -0.21196359148E-01 -0.29397724887E-02  0.95022233966E-02  0.23414101582E-01  0.00000000000E+00 0.  1.
     999901    1    3    3    0    0  0.88996186948E-01  0.38534906219E-01  0.93953761090E-01  0.89029914608E+00  0.88000000000E+00 0. -1.
        -11    1    4    4    0    0 -0.30362146410E-01 -0.13727533267E-01 -0.61130473980E-01  0.69623997833E-01  0.51100000000E-03 0.  1.
         11    1    4    4    0    0 -0.37437681389E-01 -0.21867600463E-01 -0.42325510506E-01  0.60592754505E-01  0.51100000000E-03 0. -1.
</event>
<event>
 8    1  0.1180500E+005  0.1043930E+01  0.7957747E-01            NaN
         13   -1    0    0    0    0  0.00000000000E+00  0.00000000000E+00  0.74505805969E-08  0.10566000000E+00  0.10566000000E+00 0. -1.
     999900   -1    0    0    0    0 -0.00000000000E+00 -0.00000000000E+00 -0.74505805969E-08  0.93827000000E+00  0.93827000000E+00 0. -1.
     999902    2    1    2    0    0  0.15034824634E-02 -0.13225638976E-01  0.19621663015E-01  0.10202195035E+01  0.10199439434E+01 0.  0.
     999903    2    3    3    0    0  0.78151434306E-01 -0.95290678363E-01 -0.40071052997E-01  0.13107789521E+00  0.19691756068E-01 0.  0.
         14    1    1    2    0    0 -0.15034824634E-02  0.13225638976E-01 -0.19621663015E-01  0.23710496522E-01  0.00000000000E+00 0.  1.
     999901    1    3    3    0    0 -0.76647951843E-01  0.82065039386E-01  0.59692716012E-01  0.88914160827E+00  0.88000000000E+00 0.  1.
        -11    1    4    4    0    0  0.23545317528E-01 -0.33577313922E-01 -0.42807482709E-02  0.41235954147E-01  0.51100000000E-03 0.  1.
         11    1    4    4    0    0  0.54606116779E-01 -0.61713364441E-01 -0.35790304726E-01  0.89841941061E-01  0.51100000000E-03 0. -1.
</event>
<event>
 8    1  0.1180500E+005  0.1043930E+01  0.7957747E-01            NaN
         13   -1    0    0    0    0  0.00000000000E+00  0.00000000000E+00  0.74505805969E-08  0.10566000000E+00  0.10566000000E+00 0. -1.
     999900   -1    0    0    0    0 -0.00000000000E+00 -0.00000000000E+00 -0.74505805969E-08  0.93827000000E+00  0.93827000000E+00 0.  1.
     999902    2    1    2    0    0  0.20869640168E-01  0.58704184827E-02  0.12016346392E-01  0.10191429817E+01  0.10188415092E+01 0.  0.
     999903    2    3    3    0    0 -0.67753026802E-01  0.28063500157E-01  0.10495753813E+00  0.12954499663E+00  0.19692350299E-01 0.  0.
         14    1    1    2    0    0 -0.20869640168E-01 -0.58704184827E-02 -0.12016346392E-01  0.24787018266E-01  0.00000000000E+00 0.  1.
     999901    1    3    3    0    0  0.88622666970E-01 -0.22193081674E-01 -0.92941191738E-01  0.88959798510E+00  0.88000000000E+00 0.  1.
        -11    1    4    4    0    0 -0.45334780623E-01  0.98688812036E-02  0.56213583310E-01  0.72889404031E-01  0.51100000000E-03 0. -1.
         11    1    4    4    0    0 -0.22418246178E-01  0.18194618953E-01  0.48743954820E-01  0.56655592602E-01  0.51100000000E-03 0.  1.
</event>
<event>
 8    1  0.1180500E+005  0.1043930E+01  0.7957747E-01            NaN
         13   -1    0    0    0    0  0.00000000000E+00  0.00000000000E+00  0.74505805969E-08  0.10566000000E+00  0.10566000000E+00 0. -1.
     999900   -1    0    0    0    0 -0.00000000000E+00 -0.00000000000E+00 -0.74505805969E-08  0.93827000000E+00  0.93827000000E+00 0. -1.
     999902    2    1    2    0    0  0.17033083822E-01 -0.22463135706E-01  0.13940963577E-01  0.10124805346E+01  0.10119919782E+01 0.  0.
     999903    2    3    3    0    0  0.64269806137E-02 -0.22532428266E-01  0.12202111450E+00  0.12580482539E+00  0.19715103448E-01 0.  0.
         14    1    1    2    0    0 -0.17033083822E-01  0.22463135706E-01 -0.13940963577E-01  0.31449465427E-01  0.00000000000E+00 0.  1.
     999901    1    3    3    0    0  0.10606103208E-01  0.69292560062E-04 -0.10808015093E+00  0.88667570918E+00  0.88000000000E+00 0. -1.
        -11    1    4    4    0    0 -0.23006145628E-02 -0.21517894112E-01  0.80376927022E-01  0.83240759925E-01  0.51100000000E-03 0.  1.
         11    1    4    4    0    0  0.87275951765E-02 -0.10145341535E-02  0.41644187481E-01  0.42564065467E-01  0.51100000000E-03 0. -1.
</event>
<event>
 8    1  0.1180500E+005  0.1043930E+01  0.7957747E-01            NaN
         13   -1    0    0    0    0  0.00000000000E+00  0.00000000000E+00  0.74505805969E-08  0.10566000000E+00  0.10566000000E+00 0. -1.
     999900   -1    0    0    0    0 -0.00000000000E+00 -0.00000000000E+00 -0.74505805969E-08  0.93827000000E+00  0.93827000000E+00 0.  1.
     999902    2    1    2    0    0 -0.20502971023E-01  0.15290470543E-01 -0.95024243756E-02  0.10166450888E+01  0.10162788841E+01 0.  0.
     999903    2    3    3    0    0 -0.25566676314E-01  0.10052952392E+00  0.73498655002E-01  0.12862452794E+00  0.19554456863E-01 0.  0.
         14    1    1    2    0    0  0.20502971023E-01 -0.15290470543E-01  0.95024243756E-02  0.27284911201E-01  0.00000000000E+00 0.  1.
     999901    1    3    3    0    0  0.50637052909E-02 -0.85239053377E-01 -0.83001079378E-01  0.88802056086E+00  0.88000000000E+00 0. -1.
        -11    1    4    4    0    0 -0.12458218629E-01  0.17445534934E-01  0.14848738417E-01  0.26082562261E-01  0.51100000000E-03 0.  1.
         11    1    4    4    0    0 -0.13108457686E-01  0.83083988986E-01  0.58649916585E-01  0.10254196568E+00  0.51100000000E-03 0. -1.
</event>
<event>
 8    1  0.1180500E+005  0.1043930E+01  0.7957747E-01            NaN
         13   -1    0    0    0    0  0.00000000000E+00  0.00000000000E+00  0.74505805969E-08  0.10566000000E+00  0.10566000000E+00 0. -1.
     999900   -1    0    0    0    0 -0.00000000000E+00 -0.00000000000E+00 -0.74505805969E-08  0.93827000000E+00  0.93827000000E+00 0. -1.
     999902    2    1    2    0    0  0.63956422419E-02  0.10856835247E-01  0.20089191330E-01  0.10202160649E+01  0.10199404239E+01 0.  0.
     999903    2    3    3    0    0 -0.77372791324E-01  0.14187474475E-02 -0.99854858218E-01  0.12808782129E+00  0.21140850774E-01 0.  0.
         14    1    1    2    0    0 -0.63956422419E-02 -0.10856835247E-01 -0.20089191330E-01  0.23713935134E-01  0.00000000000E+00 0.  1.
     999901    1    3    3    0    0  0.83768433566E-01  0.94380877992E-02  0.11994404955E+00  0.89212824358E+00  0.88000000000E+00 0.  1.
        -11    1    4    4    0    0 -0.28740028238E-01  0.49246553909E-02 -0.23325933083E-01  0.37344366765E-01  0.51100000000E-03 0. -1.
         11    1    4    4    0    0 -0.48632763086E-01 -0.35059079435E-02 -0.76528925135E-01  0.90743454526E-01  0.51100000000E-03 0.  1.
</event>
<event>
 8    1  0.1180500E+005  0.1043930E+01  0.7957747E-01            NaN
         13   -1    0    0    0    0  0.00000000000E+00  0.00000000000E+00  0.74505805969E-08  0.10566000000E+00  0.10566000000E+00 0. -1.
     999900   -1    0    0    0    0 -0.00000000000E+00 -0.00000000000E+00 -0.74505805969E-08  0.93827000000E+00  0.93827000000E+00 0. -1.
     999902    2    1    2    0    0 -0.11367436999E-01 -0.72663143064E-02 -0.16991716662E-01  0.10222335399E+01  0.10220032650E+01 0.  0.
     999903    2    3    3    0    0 -0.10501416499E+00 -0.81170207936E-01  0.94885500801E-02  0.13378956319E+00  0.13893780233E-01 0.  0.
         14    1    1    2    0    0  0.11367436999E-01  0.72663143064E-02  0.16991716662E-01  0.21696460141E-01  0.00000000000E+00 0. -1.
     999901    1    3    3    0    0  0.93646727996E-01  0.73903893630E-01 -0.26480266742E-01  0.88844397667E+00  0.88000000000E+00 0. -1.
        -11    1    4    4    0    0 -0.61722668363E-01 -0.53070372381E-01  0.11065132550E-01  0.82151387657E-01  0.51100000000E-03 0. -1.
         11    1    4    4    0    0 -0.43291496631E-01 -0.28099835555E-01 -0.15765824699E-02  0.51638175530E-01  0.51100000000E-03 0.  1.
</event>
<event>
 8    1  0.1180500E+005  0.1043930E+01  0.7957747E-01            NaN
         13   -1    0    0    0    0  0.00000000000E+00  0.00000000000E+00  0.74505805969E-08  0.10566000000E+00  0.10566000000E+00 0. -1.
     999900   -1    0    0    0    0 -0.00000000000E+00 -0.00000000000E+00 -0.74505805969E-08  0.93827000000E+00  0.93827000000E+00 0. -1.
     999902    2    1    2    0    0 -0.56592110613E-02 -0.23968571242E-02 -0.23129883891E-01  0.10199975299E+01  0.10197167244E+01 0.  0.
     999903    2    3    3    0    0 -0.16747418828E-02 -0.12885342362E+00  0.33334949647E-02  0.13055531731E+00  0.20677745302E-01 0.  0.
         14    1    1    2    0    0  0.56592110613E-02  0.23968571242E-02  0.23129883891E-01  0.23932470051E-01  0.00000000000E+00 0. -1.
     999901    1    3    3    0    0 -0.39844691785E-02  0.12645656649E+00 -0.26463378856E-01  0.88944221264E+00  0.88000000000E+00 0.  1.
        -11    1    4    4    0    0 -0.34958298463E-02 -0.12350397860E+00  0.70780947104E-02  0.12375707697E+00  0.51100000000E-03 0. -1.
         11    1    4    4    0    0  0.18210879635E-02 -0.53494450223E-02 -0.37445997457E-02  0.67982403366E-02  0.51100000000E-03 0.  1.
</event>
<event>
 8    1  0.1180500E+005  0.1043930E+01  0.7957747E-01            NaN
         13   -1    0    0    0    0  0.00000000000E+00  0.00000000000E+00  0.74505805969E-08  0.10566000000E+00  0.10566000000E+00 0.  1.
     999900   -1    0    0    0    0 -0.00000000000E+00 -0.00000000000E+00 -0.74505805969E-08  0.93827000000E+00  0.93827000000E+00 0. -1.
     999902    2    1    2    0    0  0.85462474145E-02  0.17838869324E-01 -0.14934339706E-01  0.10191449621E+01  0.10188435383E+01 0.  0.
     999903    2    3    3    0    0 -0.59495815944E-01 -0.59386367950E-01 -0.96234568045E-01  0.12942411438E+00  0.20567364501E-01 0.  0.
         14    1    1    2    0    0 -0.85462474145E-02 -0.17838869324E-01  0.14934339706E-01  0.24785037948E-01  0.00000000000E+00 0. -1.
     999901    1    3    3    0    0  0.68042063359E-01  0.77225237274E-01  0.81300228339E-01  0.88972084767E+00  0.88000000000E+00 0.  1.
        -11    1    4    4    0    0 -0.45580007214E-01 -0.51541625911E-01 -0.66628791621E-01  0.95779607709E-01  0.51100000000E-03 0. -1.
         11    1    4    4    0    0 -0.13915808730E-01 -0.78447420399E-02 -0.29605776424E-01  0.33644506669E-01  0.51100000000E-03 0.  1.
</event>
<event>
 8    1  0.1180500E+005  0.1043930E+01  0.7957747E-01            NaN
         13   -1    0    0    0    0  0.00000000000E+00  0.00000000000E+00  0.74505805969E-08  0.10566000000E+00  0.10566000000E+00 0. -1.
     999900   -1    0    0    0    0 -0.00000000000E+00 -0.00000000000E+00 -0.74505805969E-08  0.93827000000E+00  0.93827000000E+00 0.  1.
     999902    2    1    2    0    0  0.69932786129E-02  0.21265946489E-01 -0.57616004672E-02  0.10208141512E+01  0.10205523940E+01 0.  0.
     999903    2    3    3    0    0  0.88170226490E-01 -0.70564136831E-01 -0.62335424652E-01  0.13052034652E+00  0.19914051391E-01 0.  0.
         14    1    1    2    0    0 -0.69932786129E-02 -0.21265946489E-01  0.57616004672E-02  0.23115848801E-01  0.00000000000E+00 0.  1.
     999901    1    3    3    0    0 -0.81176947877E-01  0.91830083320E-01  0.56573824185E-01  0.89029380468E+00  0.88000000000E+00 0. -1.
        -11    1    4    4    0    0  0.62403278361E-01 -0.39397921467E-01 -0.45602006065E-01  0.86753498167E-01  0.51100000000E-03 0. -1.
         11    1    4    4    0    0  0.25766948129E-01 -0.31166215364E-01 -0.16733418587E-01  0.43766848352E-01  0.51100000000E-03 0.  1.
</event>
<event>
 8    1  0.1180500E+005  0.1043930E+01  0.7957747E-01            NaN
         13   -1    0    0    0    0  0.00000000000E+00  0.00000000000E+00  0.74505805969E-08  0.10566000000E+00  0.10566000000E+00 0.  1.
     999900   -1    0    0    0    0 -0.00000000000E+00 -0.00000000000E+00 -0.74505805969E-08  0.93827000000E+00  0.93827000000E+00 0. -1.
     999902    2    1    2    0    0 -0.13086249356E-01  0.11994854592E-01 -0.15757648397E-01  0.10201933207E+01  0.10199171446E+01 0.  0.
     999903    2    3    3    0    0 -0.97631736518E-01  0.15047065705E-01 -0.87006724145E-01  0.13326960014E+00  0.20790529379E-01 0.  0.
         14    1    1    2    0    0  0.13086249356E-01 -0.11994854592E-01  0.15757648397E-01  0.23736679251E-01  0.00000000000E+00 0.  1.
     999901    1    3    3    0    0  0.84545487162E-01 -0.30522111131E-02  0.71249075749E-01  0.88692372061E+00  0.88000000000E+00 0.  1.
        -11    1    4    4    0    0 -0.60161784081E-01  0.13425423693E-01 -0.41567310486E-01  0.74349073210E-01  0.51100000000E-03 0. -1.
         11    1    4    4    0    0 -0.37469952436E-01  0.16216420123E-02 -0.45439413659E-01  0.58920526925E-01  0.51100000000E-03 0.  1.
</event>
<event>
 8    1  0.1180500E+005  0.1043930E+01  0.7957747E-01            NaN
         13   -1    0    0    0    0  0.00000000000E+00  0.00000000000E+00  0.74505805969E-08  0.10566000000E+00  0.10566000000E+00 0.  1.
     999900   -1    0    0    0    0 -0.00000000000E+00 -0.00000000000E+00 -0.74505805969E-08  0.93827000000E+00  0.93827000000E+00 0.  1.
     999902    2    1    2    0    0 -0.22624773695E-01  0.18552609593E-03  0.11877079523E-01  0.10183765301E+01  0.10180558812E+01 0.  0.
     999903    2    3    3    0    0 -0.10605553085E+00  0.71594809713E-01 -0.19829600313E-01  0.13098411942E+00  0.19749280738E-01 0.  0.
         14    1    1    2    0    0  0.22624773695E-01 -0.18552609593E-03 -0.11877079523E-01  0.25553469876E-01  0.00000000000E+00 0. -1.
     999901    1    3    3    0    0  0.83430757158E-01 -0.71409283617E-01  0.31706679837E-01  0.88739241070E+00  0.88000000000E+00 0.  1.
        -11    1    4    4    0    0 -0.71670140802E-01  0.56537580674E-01 -0.19954585180E-01  0.93442783037E-01  0.51100000000E-03 0. -1.
         11    1    4    4    0    0 -0.34385390051E-01  0.15057229039E-01  0.12498486696E-03  0.37541336384E-01  0.51100000000E-03 0.  1.
</event>
<event>
 8    1  0.1180500E+005  0.1043930E+01  0.7957747E-01            NaN
         13   -1    0    0    0    0  0.00000000000E+00  0.00000000000E+00  0.74505805969E-08  0.10566000000E+00  0.10566000000E+00 0.  1.
     999900   -1    0    0    0    0 -0.00000000000E+00 -0.00000000000E+00 -0.74505805969E-08  0.93827000000E+00  0.93827000000E+00 0.  1.
     999902    2    1    2    0    0 -0.63707188594E-02  0.86800734821E-02 -0.21268772598E-01  0.10200911573E+01  0.10198125704E+01 0.  0.
     999903    2    3    3    0    0 -0.26842007291E-02 -0.24276016658E-01  0.12361211587E+00  0.12762817982E+00  0.20309287889E-01 0.  0.
         14    1    1    2    0    0  0.63707188594E-02 -0.86800734821E-02  0.21268772598E-01  0.23838842720E-01  0.00000000000E+00 0. -1.
     999901    1    3    3    0    0 -0.36865181303E-02  0.32956090141E-01 -0.14488088847E+00  0.89246297746E+00  0.88000000000E+00 0.  1.
        -11    1    4    4    0    0 -0.65468897502E-02 -0.28300609781E-03  0.40666700921E-01  0.41194460097E-01  0.51100000000E-03 0.  1.
         11    1    4    4    0    0  0.38626890210E-02 -0.23993010561E-01  0.82945414954E-01  0.86433719722E-01  0.51100000000E-03 0. -1.
</event>
<event>
 8    1  0.1180500E+005  0.1043930E+01  0.7957747E-01            NaN
         13   -1    0    0    0    0  0.00000000000E+00  0.00000000000E+00  0.74505805969E-08  0.10566000000E+00  0.10566000000E+00 0.  1.
     999900   -1    0    0    0    0 -0.00000000000E+00 -0.00000000000E+00 -0.74505805969E-08  0.93827000000E+00  0.93827000000E+00 0.  1.
     999902    2    1    2    0    0  0.47066613464E-02  0.34665113758E-02  0.21413306567E-01  0.10217331745E+01  0.10214920366E+01 0.  0.
     999903    2    3    3    0    0 -0.91939335002E-01  0.90669318553E-01 -0.14175946734E-01  0.13144593262E+00  0.20082556813E-01 0.  0.
         14    1    1    2    0    0 -0.47066613464E-02 -0.34665113758E-02 -0.21413306567E-01  0.22196825455E-01  0.00000000000E+00 0. -1.
     999901    1    3    3    0    0  0.96645996348E-01 -0.87202807177E-01  0.35589253301E-01  0.89028724193E+00  0.88000000000E+00 0.  1.
        -11    1    4    4    0    0 -0.46526988371E-01  0.45548632679E-01 -0.17230493572E-01  0.67354210080E-01  0.51100000000E-03 0.  1.
         11    1    4    4    0    0 -0.45412346631E-01  0.45120685875E-01  0.30545468379E-02  0.64091722537E-01  0.51100000000E-03 0. -1.
</event>
<event>
 8    1  0.1180500E+005  0.1043930E+01  0.7957747E-01            NaN
         13   -1    0    0    0    0  0.00000000000E+00  0.00000000000E+00  0.74505805969E-08  0.10566000000E+00  0.10566000000E+00 0.  1.
     999900   -1    0    0    0    0 -0.00000000000E+00 -0.00000000000E+00 -0.74505805969E-08  0.93827000000E+00  0.93827000000E+00 0.  1.
     999902    2    1    2    0    0  0.66548114350E-02 -0.24151893511E-01 -0.29741213337E-02  0.10187021211E+01  0.10183896925E+01 0.  0.
     999903    2    3    3    0    0  0.11305148528E+00  0.54382255328E-01 -0.20315909669E-01  0.12865234590E+00  0.20015541465E-01 0.  0.
         14    1    1    2    0    0 -0.66548114350E-02  0.24151893511E-01  0.29741213337E-02  0.25227878886E-01  0.00000000000E+00 0.  1.
     999901    1    3    3    0    0 -0.10639667385E+00 -0.78534148838E-01  0.17341788335E-01  0.89004977522E+00  0.88000000000E+00 0.  1.
        -11    1    4    4    0    0  0.71584563073E-01  0.36552459666E-01 -0.22470960837E-01  0.83460392881E-01  0.51100000000E-03 0.  1.
         11    1    4    4    0    0  0.41466922211E-01  0.17829795662E-01  0.21550511678E-02  0.45191953017E-01  0.51100000000E-03 0. -1.
</event>
<event>
 8    1  0.1180500E+005  0.1043930E+01  0.7957747E-01            NaN
         13   -1    0    0    0    0  0.00000000000E+00  0.00000000000E+00  0.74505805969E-08  0.10566000000E+00  0.10566000000E+00 0. -1.
     999900   -1    0    0    0    0 -0.00000000000E+00 -0.00000000000E+00 -0.74505805969E-08  0.93827000000E+00  0.93827000000E+00 0. -1.
     999902    2    1    2    0    0  0.11991114656E-01  0.89832549025E-03  0.19583183906E-01  0.10209496843E+01  0.10206910222E+01 0.  0.
     999903    2    3    3    0    0 -0.23140663691E-01  0.11636458242E+00 -0.49376167425E-01  0.13003886355E+00  0.19897079290E-01 0.  0.
         14    1    1    2    0    0 -0.11991114656E-01 -0.89832549025E-03 -0.19583183906E-01  0.22980315734E-01  0.00000000000E+00 0.  1.
     999901    1    3    3    0    0  0.35131778346E-01 -0.11546625693E+00  0.68959351331E-01  0.89091082072E+00  0.88000000000E+00 0.  1.
        -11    1    4    4    0    0 -0.15668745974E-01  0.99419592668E-01 -0.34898718734E-01  0.10652674170E+00  0.51100000000E-03 0. -1.
         11    1    4    4    0    0 -0.74719177166E-02  0.16944989754E-01 -0.14477448691E-01  0.23512121847E-01  0.51100000000E-03 0.  1.
</event>
<event>
 8    1  0.1180500E+005  0.1043930E+01  0.7957747E-01            NaN
         13   -1    0    0    0    0  0.00000000000E+00  0.00000000000E+00  0.74505805969E-08  0.10566000000E+00  0.10566000000E+00 0. -1.
     999900   -1    0    0    0    0 -0.00000000000E+00 -0.00000000000E+00 -0.74505805969E-08  0.93827000000E+00  0.93827000000E+00 0. -1.
     999902    2    1    2    0    0  0.14580406123E-03 -0.17378095846E-01  0.16972780599E-01  0.10196381340E+01  0.10193487281E+01 0.  0.
     999903    2    3    3    0    0  0.55999461967E-01  0.11340226491E+00  0.11272351308E-02  0.12808094838E+00  0.20185273126E-01 0.  0.
         14    1    1    2    0    0 -0.14580406123E-03  0.17378095846E-01 -0.16972780599E-01  0.24291866032E-01  0.00000000000E+00 0.  1.
     999901    1    3    3    0    0 -0.55853657906E-01 -0.13078036076E+00  0.15845545468E-01  0.89155718559E+00  0.88000000000E+00 0.  1.
        -11    1    4    4    0    0  0.36080601686E-01  0.74391316093E-01  0.10317771484E-01  0.83322237473E-01  0.51100000000E-03 0.  1.
         11    1    4    4    0    0  0.19918860281E-01  0.39010948820E-01 -0.91905363528E-02  0.44758710908E-01  0.51100000000E-03 0. -1.
</event>
<event>
 8    1  0.1180500E+005  0.1043930E+01  0.7957747E-01            NaN
         13   -1    0    0    0    0  0.00000000000E+00  0.00000000000E+00  0.74505805969E-08  0.10566000000E+00  0.10566000000E+00 0.  1.
     999900   -1    0    0    0    0 -0.00000000000E+00 -0.00000000000E+00 -0.74505805969E-08  0.93827000000E+00  0.93827000000E+00 0. -1.
     999902    2    1    2    0    0  0.13110720316E-01  0.22590833706E-01 -0.45495798267E-02  0.10174170705E+01  0.10170715608E+01 0.  0.
     999903    2    3    3    0    0 -0.55676565231E-01 -0.10981420493E+00  0.51015496236E-02  0.12480521239E+00  0.19780690351E-01 0.  0.
         14    1    1    2    0    0 -0.13110720316E-01 -0.22590833706E-01  0.45495798267E-02  0.26512929513E-01  0.00000000000E+00 0. -1.
     999901    1    3    3    0    0  0.68787285547E-01  0.13240503864E+00 -0.96511294503E-02  0.89261185809E+00  0.88000000000E+00 0.  1.
        -11    1    4    4    0    0 -0.19363297045E-01 -0.28858110765E-01  0.92942669747E-02  0.35977386634E-01  0.51100000000E-03 0.  1.
         11    1    4    4    0    0 -0.36313268186E-01 -0.80956094169E-01 -0.41927173511E-02  0.88827825760E-01  0.51100000000E-03 0. -1.
</event>
<event>
 8    1  0.1180500E+005  0.1043930E+01  0.7957747E-01            NaN
         13   -1    0    0    0    0  0.00000000000E+00  0.00000000000E+00  0.74505805969E-08  0.10566000000E+00  0.10566000000E+00 0. -1.
     999900   -1    0    0    0    0 -0.00000000000E+00 -0.00000000000E+00 -0.74505805969E-08  0.93827000000E+00  0.93827000000E+00 0. -1.
     999902    2    1    2    0    0 -0.18068621983E-01  0.43709884453E-02 -0.14763872669E-01  0.10201907377E+01  0.10199145006E+01 0.  0.
     999903    2    3    3    0    0  0.96268473617E-01  0.63044096922E-01 -0.56809486968E-01  0.12986307956E+00  0.19872706276E-01 0.  0.
         14    1    1    2    0    0  0.18068621983E-01 -0.43709884453E-02  0.14763872669E-01  0.23739262342E-01  0.00000000000E+00 0. -1.
     999901    1    3    3    0    0 -0.11433709560E+00 -0.58673108476E-01  0.42045614299E-01  0.89032765810E+00  0.88000000000E+00 0.  1.
        -11    1    4    4    0    0  0.55514534405E-01  0.42646033787E-01 -0.43348691447E-01  0.82340256856E-01  0.51100000000E-03 0.  1.
         11    1    4    4    0    0  0.40753939212E-01  0.20398063134E-01 -0.13460795521E-01  0.47522822706E-01  0.51100000000E-03 0. -1.
</event>
<event>
 8    1  0.1180500E+005  0.1043930E+01  0.7957747E-01            NaN
         13   -1    0    0    0    0  0.00000000000E+00  0.00000000000E+00  0.74505805969E-08  0.10566000000E+00  0.10566000000E+00 0. -1.
     999900   -1    0    0    0    0 -0.00000000000E+00 -0.00000000000E+00 -0.74505805969E-08  0.93827000000E+00  0.93827000000E+00 0.  1.
     999902    2    1    2    0    0  0.50055274642E-02  0.35094751131E-02  0.23774200629E-01  0.10193824067E+01  0.10190868004E+01 0.  0.
     999903    2    3    3    0    0 -0.99515939965E-02  0.91301238722E-01  0.92822026663E-01  0.13219656850E+00  0.20616829885E-01 0.  0.
         14    1    1    2    0    0 -0.50055274642E-02 -0.35094751131E-02 -0.23774200629E-01  0.24547593289E-01  0.00000000000E+00 0. -1.
     999901    1    3    3    0    0  0.14957121461E-01 -0.87791763608E-01 -0.69047826034E-01  0.88718583821E+00  0.88000000000E+00 0.  1.
        -11    1    4    4    0    0  0.14898322657E-03  0.32266079149E-01  0.45907988727E-01  0.56115297465E-01  0.51100000000E-03 0. -1.
         11    1    4    4    0    0 -0.10100577223E-01  0.59035159573E-01  0.46914037936E-01  0.76081271036E-01  0.51100000000E-03 0.  1.
</event>
<event>
 8    1  0.1180500E+005  0.1043930E+01  0.7957747E-01            NaN
         13   -1    0    0    0    0  0.00000000000E+00  0.00000000000E+00  0.74505805969E-08  0.10566000000E+00  0.10566000000E+00 0.  1.
     999900   -1    0    0    0    0 -0.00000000000E+00 -0.00000000000E+00 -0.74505805969E-08  0.93827000000E+00  0.93827000000E+00 0. -1.
     999902    2    1    2    0    0  0.90176184603E-02 -0.89227572324E-02 -0.20289487043E-01  0.10200010150E+01  0.10197202922E+01 0.  0.
     999903    2    3    3    0    0 -0.92854031708E-01 -0.45980478165E-01 -0.78376484814E-01  0.13144870527E+00  0.19995328680E-01 0.  0.
         14    1    1    2    0    0 -0.90176184603E-02  0.89227572324E-02  0.20289487043E-01  0.23928985013E-01  0.00000000000E+00 0.  1.
     999901    1    3    3    0    0  0.10187165017E+00  0.37057720933E-01  0.58086997772E-01  0.88855230971E+00  0.88000000000E+00 0. -1.
        -11    1    4    4    0    0 -0.30157096117E-01 -0.71439600439E-02 -0.30711268377E-01  0.43634043334E-01  0.51100000000E-03 0.  1.
         11    1    4    4    0    0 -0.62696935591E-01 -0.38836518122E-01 -0.47665216438E-01  0.87814661938E-01  0.51100000000E-03 0. -1.
</event>
<event>
 8    1  0.1180500E+005  0.1043930E+01  0.7957747E-01            NaN
         13   -1    0    0    0    0  0.00000000000E+00  0.00000000000E+00  0.74505805969E-08  0.10566000000E+00  0.10566000000E+00 0. -1.
     999900   -1    0    0    0    0 -0.00000000000E+00 -0.00000000000E+00 -0.74505805969E-08  0.93827000000E+00  0.93827000000E+00 0.  1.
     999902    2    1    2    0    0  0.55014805984E-02  0.14276801599E-01  0.17936288212E-01  0.10203545088E+01  0.10200821142E+01 0.  0.
     999903    2    3    3    0    0  0.17321503331E-01  0.60759078717E-01 -0.11150472723E+00  0.12959343445E+00  0.19221184461E-01 0.  0.
         14    1    1    2    0    0 -0.55014805984E-02 -0.14276801599E-01 -0.17936288212E-01  0.23575491246E-01  0.00000000000E+00 0.  1.
     999901    1    3    3    0    0 -0.11820022732E-01 -0.46482277118E-01  0.12944101544E+00  0.89076107431E+00  0.88000000000E+00 0.  1.
        -11    1    4    4    0    0  0.16846770999E-01  0.45424660681E-01 -0.68276709212E-01  0.83720867369E-01  0.51100000000E-03 0. -1.
         11    1    4    4    0    0  0.47473233135E-03  0.15334418036E-01 -0.43228018020E-01  0.45872567077E-01  0.51100000000E-03 0.  1.
</event>
<event>
 8    1  0.1180500E+005  0.1043930E+01  0.7957747E-01            NaN
         13   -1    0    0    0    0  0.00000000000E+00  0.00000000000E+00  0.74505805969E-08  0.10566000000E+00  0.10566000000E+00 0. -1.
     999900   -1    0    0    0    0 -0.00000000000E+00 -0.00000000000E+00 -0.74505805969E-08  0.93827000000E+00  0.93827000000E+00 0.  1.
     999902    2    1    2    0    0 -0.18809295603E-01 -0.68075977043E-02  0.21924213861E-01  0.10142516554E+01  0.10138173486E+01 0.  0.
     999903    2    3    3    0    0  0.11354171898E+00 -0.34604314216E-01 -0.27115161730E-01  0.12257104613E+00  0.14115553191E-01 0.  0.
         14    1    1    2    0    0  0.18809295603E-01  0.68075977043E-02 -0.21924213861E-01  0.29678344647E-01  0.00000000000E+00 0.  1.
     999901    1    3    3    0    0 -0.13235101458E+00  0.27796716511E-01  0.49039375591E-01  0.89168060923E+00  0.88000000000E+00 0. -1.
        -11    1    4    4    0    0  0.61933671742E-01 -0.12073249216E-01 -0.11604213747E-01  0.64159659754E-01  0.51100000000E-03 0.  1.
         11    1    4    4    0    0  0.51608047238E-01 -0.22531065000E-01 -0.15510947984E-01  0.58411386374E-01  0.51100000000E-03 0. -1.
</event>
<event>
 8    1  0.1180500E+005  0.1043930E+01  0.7957747E-01            NaN
         13   -1    0    0    0    0  0.00000000000E+00  0.00000000000E+00  0.74505805969E-08  0.10566000000E+00  0.10566000000E+00 0.  1.
     999900   -1    0    0    0    0 -0.00000000000E+00 -0.00000000000E+00 -0.74505805969E-08  0.93827000000E+00  0.93827000000E+00 0. -1.
     999902    2    1    2    0    0  0.59282711425E-02  0.14738152169E-01 -0.17667071169E-01  0.10201711505E+01  0.10198944520E+01 0.  0.
     999903    2    3    3    0    0 -0.18540421832E-01 -0.74741090078E-01  0.99595458470E-01  0.12755939130E+00  0.20546658415E-01 0.  0.
         14    1    1    2    0    0 -0.59282711425E-02 -0.14738152169E-01  0.17667071169E-01  0.23758849547E-01  0.00000000000E+00 0.  1.
     999901    1    3    3    0    0  0.24468692974E-01  0.89479242248E-01 -0.11726252964E+00  0.89261175916E+00  0.88000000000E+00 0. -1.
        -11    1    4    4    0    0 -0.10031532860E-02 -0.59389031962E-02  0.11078349718E-02  0.61453484045E-02  0.51100000000E-03 0.  1.
         11    1    4    4    0    0 -0.17537268546E-01 -0.68802186882E-01  0.98487623498E-01  0.12141404289E+00  0.51100000000E-03 0. -1.
</event>
<event>
 8    1  0.1180500E+005  0.1043930E+01  0.7957747E-01            NaN
         13   -1    0    0    0    0  0.00000000000E+00  0.00000000000E+00  0.74505805969E-08  0.10566000000E+00  0.10566000000E+00 0.  1.
     999900   -1    0    0    0    0 -0.00000000000E+00 -0.00000000000E+00 -0.74505805969E-08  0.93827000000E+00  0.93827000000E+00 0.  1.
     999902    2    1    2    0    0  0.15106075673E-01 -0.50627382230E-02  0.18189594547E-01  0.10197497148E+01  0.10194629933E+01 0.  0.
     999903    2    3    3    0    0 -0.16836191102E-01 -0.11686672564E+00 -0.49404448184E-01  0.12953098070E+00  0.19904435848E-01 0.  0.
         14    1    1    2    0    0 -0.15106075673E-01  0.50627382230E-02 -0.18189594547E-01  0.24180285158E-01  0.00000000000E+00 0. -1.
     999901    1    3    3    0    0  0.31942266774E-01  0.11180398742E+00  0.67594042731E-01  0.89021873414E+00  0.88000000000E+00 0. -1.
        -11    1    4    4    0    0 -0.68976772438E-04 -0.69284748372E-01 -0.28495053761E-01  0.74917356632E-01  0.51100000000E-03 0.  1.
         11    1    4    4    0    0 -0.16767214329E-01 -0.47581977272E-01 -0.20909394423E-01  0.54613624065E-01  0.51100000000E-03 0. -1.
</event>
<event>
 8    1  0.1180500E+005  0.1043930E+01  0.7957747E-01            NaN
         13   -1    0    0    0    0  0.00000000000E+00  0.00000000000E+00  0.74505805969E-08  0.10566000000E+00  0.10566000000E+00 0. -1.
     999900   -1    0    0    0    0 -0.00000000000E+00 -0.00000000000E+00 -0.74505805969E-08  0.93827000000E+00  0.93827000000E+00 0. -1.
     999902    2    1    2    0    0 -0.20353169447E-01  0.12468876642E-01  0.12427154875E-01  0.10170198055E+01  0.10166637232E+01 0.  0.
     999903    2    3    3    0    0  0.11946808225E+00 -0.26909904828E-01  0.16188947597E-01  0.12510342938E+00  0.19799504133E-01 0.  0.
         14    1    1    2    0    0  0.20353169447E-01 -0.12468876642E-01 -0.12427154875E-01  0.26910194528E-01  0.00000000000E+00 0. -1.
     999901    1    3    3    0    0 -0.13982125170E+00  0.39378781470E-01 -0.37617927220E-02  0.89191637609E+00  0.88000000000E+00 0.  1.
        -11    1    4    4    0    0  0.90556344544E-01 -0.23709581282E-01  0.20114988703E-01  0.95746904249E-01  0.51100000000E-03 0. -1.
         11    1    4    4    0    0  0.28911737707E-01 -0.32003235454E-02 -0.39260411059E-02  0.29356525131E-01  0.51100000000E-03 0.  1.
</event>
<event>
 8    1  0.1180500E+005  0.1043930E+01  0.7957747E-01            NaN
         13   -1    0    0    0    0  0.00000000000E+00  0.00000000000E+00  0.74505805969E-08  0.10566000000E+00  0.10566000000E+00 0. -1.
     999900   -1    0    0    0    0 -0.00000000000E+00 -0.00000000000E+00 -0.74505805969E-08  0.93827000000E+00  0.93827000000E+00 0.  1.
     999902    2    1    2    0    0 -0.67503986772E-02 -0.13886092388E-01  0.17921339931E-01  0.10202748553E+01  0.10200005954E+01 0.  0.
     999903    2    3    3    0    0  0.48343428564E-02  0.71509720042E-01 -0.10392296990E+00  0.12770962699E+00  0.19306843894E-01 0.  0.
         14    1    1    2    0    0  0.67503986772E-02  0.13886092388E-01 -0.17921339931E-01  0.23655144663E-01  0.00000000000E+00 0.  1.
     999901    1    3    3    0    0 -0.11584741534E-01 -0.85395812431E-01  0.12184430983E+00  0.89256522835E+00  0.88000000000E+00 0. -1.
        -11    1    4    4    0    0 -0.68968759061E-02  0.15354663834E-01 -0.22420772090E-01  0.28040769263E-01  0.51100000000E-03 0. -1.
         11    1    4    4    0    0  0.11731218762E-01  0.56155056208E-01 -0.81502197811E-01  0.99668857726E-01  0.51100000000E-03 0.  1.
</event>
<event>
 8    1  0.1180500E+005  0.1043930E+01  0.7957747E-01            NaN
         13   -1    0    0    0    0  0.00000000000E+00  0.00000000000E+00  0.74505805969E-08  0.10566000000E+00  0.10566000000E+00 0.  1.
     999900   -1    0    0    0    0 -0.00000000000E+00 -0.00000000000E+00 -0.74505805969E-08  0.93827000000E+00  0.93827000000E+00 0. -1.
     999902    2    1    2    0    0 -0.19395536843E-01  0.13051971957E-01 -0.53048748419E-03  0.10205457695E+01  0.10202778275E+01 0.  0.
     999903    2    3    3    0    0 -0.12250550560E+00 -0.21868912736E-01 -0.42366771707E-01  0.13285133524E+00  0.19201189649E-01 0.  0.
         14    1    1    2    0    0  0.19395536843E-01 -0.13051971957E-01  0.53048748419E-03  0.23384230549E-01  0.00000000000E+00 0. -1.
     999901    1    3    3    0    0  0.10310996876E+00  0.34920884693E-01  0.41836284223E-01  0.88769443421E+00  0.88000000000E+00 0. -1.
        -11    1    4    4    0    0 -0.84192539725E-01 -0.11888808178E-01 -0.37596093267E-01  0.92970182613E-01  0.51100000000E-03 0.  1.
         11    1    4    4    0    0 -0.38312965878E-01 -0.99801045583E-02 -0.47706784398E-02  0.39881152630E-01  0.51100000000E-03 0. -1.
</event>
<event>
 7    1  0.1180500E+005  0.1043930E+01  0.7957747E-01            NaN
         13   -1    0    0    0    0  0.00000000000E+00  0.00000000000E+00  0.74505805969E-08  0.10566000000E+00  0.10566000000E+00 0.  1.
     999900   -1    0    0    0    0 -0.00000000000E+00 -0.00000000000E+00 -0.74505805969E-08  0.93827000000E+00  0.93827000000E+00 0.  1.
     999902    2    1    2    0    0 -0.13099247982E-01  0.48018999138E-02  0.18553562797E-01  0.10207161414E+01  0.10204521341E+01 0.  0.
         14    1    1    2    0    0  0.13099247982E-01 -0.48018999138E-02 -0.18553562797E-01  0.23213858639E-01  0.00000000000E+00 0. -1.
     999901    1    3    3    0    0 -0.11691841564E+00  0.24092513563E-01 -0.28614697278E-01  0.88852077411E+00  0.88000000000E+00 0.  1.
        -11    1    3    3    0    0  0.53299493549E-01  0.14911020734E-01  0.44684363530E-01  0.71134576803E-01  0.51100000000E-03 0.  1.
         11    1    3    3    0    0  0.50519674112E-01 -0.34201634384E-01  0.24838965443E-02  0.61060790447E-01  0.51100000000E-03 0. -1.
</event>
<event>
 8    1  0.1180500E+005  0.1043930E+01  0.7957747E-01            NaN
         13   -1    0    0    0    0  0.00000000000E+00  0.00000000000E+00  0.74505805969E-08  0.10566000000E+00  0.10566000000E+00 0. -1.
     999900   -1    0    0    0    0 -0.00000000000E+00 -0.00000000000E+00 -0.74505805969E-08  0.93827000000E+00  0.93827000000E+00 0. -1.
     999902    2    1    2    0    0  0.77775990261E-02  0.18240821141E-01 -0.12735157595E-01  0.10203630137E+01  0.10200908180E+01 0.  0.
     999903    2    3    3    0    0 -0.80405284136E-01  0.60816725080E-01  0.79860191970E-01  0.13010303641E+00  0.19633289438E-01 0.  0.
         14    1    1    2    0    0 -0.77775990261E-02 -0.18240821141E-01  0.12735157595E-01  0.23566986262E-01  0.00000000000E+00 0. -1.
     999901    1    3    3    0    0  0.88182883162E-01 -0.42575903939E-01 -0.92595349565E-01  0.89025997733E+00  0.88000000000E+00 0.  1.
        -11    1    4    4    0    0 -0.21446441592E-01  0.13327144003E-01  0.31052815268E-01  0.40026254900E-01  0.51100000000E-03 0. -1.
         11    1    4    4    0    0 -0.58958842543E-01  0.47489581076E-01  0.48807376702E-01  0.90076781505E-01  0.51100000000E-03 0.  1.
</event>
<event>
 8    1  0.1180500E+005  0.1043930E+01  0.7957747E-01            NaN
         13   -1    0    0    0    0  0.00000000000E+00  0.00000000000E+00  0.74505805969E-08  0.10566000000E+00  0.10566000000E+00 0.  1.
     999900   -1    0    0    0    0 -0.00000000000E+00 -0.00000000000E+00 -0.74505805969E-08  0.93827000000E+00  0.93827000000E+00 0. -1.
     999902    2    1    2    0    0 -0.18502910594E-01  0.12114557342E-01  0.95133752590E-02  0.10198546078E+01  0.10195703980E+01 0.  0.
     999903    2    3    3    0    0  0.11800894737E+00  0.32634152942E-01  0.34188422789E-01  0.12875113507E+00  0.20418298916E-01 0.  0.
         14    1    1    2    0    0  0.18502910594E-01 -0.12114557342E-01 -0.95133752590E-02  0.24075392185E-01  0.00000000000E+00 0. -1.
     999901    1    3    3    0    0 -0.13651185797E+00 -0.20519595600E-01 -0.24675047530E-01  0.89110347275E+00  0.88000000000E+00 0. -1.
        -11    1    4    4    0    0  0.10791476163E+00  0.35192647853E-01  0.33270735990E-01  0.11828491550E+00  0.51100000000E-03 0.  1.
         11    1    4    4    0    0  0.10094185741E-01 -0.25584949108E-02  0.91768679936E-03  0.10466219568E-01  0.51100000000E-03 0. -1.
</event>
<event>
 8    1  0.1180500E+005  0.1043930E+01  0.7957747E-01            NaN
         13   -1    0    0    0    0  0.00000000000E+00  0.00000000000E+00  0.74505805969E-08  0.10566000000E+00  0.10566000000E+00 0. -1.
     999900   -1    0    0    0    0 -0.00000000000E+00 -0.00000000000E+00 -0.74505805969E-08  0.93827000000E+00  0.93827000000E+00 0. -1.
     999902    2    1    2    0    0  0.35552641065E-02  0.16368371271E-01 -0.16816431431E-01  0.10201948816E+01  0.10199187421E+01 0.  0.
     999903    2    3    3    0    0  0.12237003259E+00  0.26902858039E-01  0.32064503891E-01  0.13080336460E+00  0.19575472769E-01 0.  0.
         14    1    1    2    0    0 -0.35552641065E-02 -0.16368371271E-01  0.16816431431E-01  0.23735118433E-01  0.00000000000E+00 0. -1.
     999901    1    3    3    0    0 -0.11881476848E+00 -0.10534486768E-01 -0.48880935322E-01  0.88939151697E+00  0.88000000000E+00 0. -1.
        -11    1    4    4    0    0  0.12516235177E-01  0.60620553949E-02  0.91791245028E-02  0.16670995959E-01  0.51100000000E-03 0.  1.
         11    1    4    4    0    0  0.10985379741E+00  0.20840802644E-01  0.22885379388E-01  0.11413236864E+00  0.51100000000E-03 0. -1.
</event>
<event>
 8    1  0.1180500E+005  0.1043930E+01  0.7957747E-01            NaN
         13   -1    0    0    0    0  0.00000000000E+00  0.00000000000E+00  0.74505805969E-08  0.10566000000E+00  0.10566000000E+00 0.  1.
     999900   -1    0    0    0    0 -0.00000000000E+00 -0.00000000000E+00 -0.74505805969E-08  0.93827000000E+00  0.93827000000E+00 0. -1.
     999902    2    1    2    0    0  0.46064402961E-03  0.17064725491E-01  0.14925849715E-01  0.10212540648E+01  0.10210022854E+01 0.  0.
     999903    2    3    3    0    0  0.65335853201E-01  0.10705894765E+00  0.42140910583E-01  0.13387116414E+00  0.20377444858E-01 0.  0.
         14    1    1    2    0    0 -0.46064402961E-03 -0.17064725491E-01 -0.14925849715E-01  0.22675935233E-01  0.00000000000E+00 0. -1.
     999901    1    3    3    0    0 -0.64875209171E-01 -0.89994222155E-01 -0.27215060868E-01  0.88738290063E+00  0.88000000000E+00 0. -1.
        -11    1    4    4    0    0  0.22697795846E-01  0.51842849126E-01  0.25901130208E-01  0.62241470169E-01  0.51100000000E-03 0.  1.
         11    1    4    4    0    0  0.42638057355E-01  0.55216098520E-01  0.16239780375E-01  0.71629693971E-01  0.51100000000E-03 0. -1.
</event>
<event>
 8    1  0.1180500E+005  0.1043930E+01  0.7957747E-01            NaN
         13   -1    0    0    0    0  0.00000000000E+00  0.00000000000E+00  0.74505805969E-08  0.10566000000E+00  0.10566000000E+00 0.  1.
     999900   -1    0    0    0    0 -0.00000000000E+00 -0.00000000000E+00 -0.74505805969E-08  0.93827000000E+00  0.93827000000E+00 0.  1.
     999902    2    1    2    0    0 -0.77043513532E-02 -0.49765374622E-02 -0.21678136926E-01  0.10203914237E+01  0.10201198914E+01 0.  0.
     999903    2    3    3    0    0  0.24403280065E-01  0.65261935753E-02  0.12343898169E+00  0.12785448274E+00  0.21713481418E-01 0.  0.
         14    1    1    2    0    0  0.77043513532E-02  0.49765374622E-02  0.21678136926E-01  0.23538576327E-01  0.00000000000E+00 0.  1.
     999901    1    3    3    0    0 -0.32107631418E-01 -0.11502731038E-01 -0.14511711862E+00  0.89253694093E+00  0.88000000000E+00 0.  1.
        -11    1    4    4    0    0  0.29404523273E-02 -0.29566035406E-02  0.61092239253E-01  0.61236513473E-01  0.51100000000E-03 0.  1.
         11    1    4    4    0    0  0.21462827737E-01  0.94827971159E-02  0.62346742437E-01  0.66617969266E-01  0.51100000000E-03 0. -1.
</event>
<event>
 8    1  0.1180500E+005  0.1043930E+01  0.7957747E-01            NaN
         13   -1    0    0    0    0  0.00000000000E+00  0.00000000000E+00  0.74505805969E-08  0.10566000000E+00  0.10566000000E+00 0. -1.
     999900   -1    0    0    0    0 -0.00000000000E+00 -0.00000000000E+00 -0.74505805969E-08  0.93827000000E+00  0.93827000000E+00 0. -1.
     999902    2    1    2    0    0 -0.10835305716E-01  0.19912047937E-01  0.48542457346E-02  0.10207468767E+01  0.10204835761E+01 0.  0.
     999903    2    3    3    0    0  0.24663397168E-01 -0.11072192620E+00  0.57767556325E-01  0.12882467634E+00  0.19775706565E-01 0.  0.
         14    1    1    2    0    0  0.10835305716E-01 -0.19912047937E-01 -0.48542457346E-02  0.23183123272E-01  0.00000000000E+00 0.  1.
     999901    1    3    3    0    0 -0.35498702884E-01  0.13063397413E+00 -0.52913310591E-01  0.89192220039E+00  0.88000000000E+00 0.  1.
        -11    1    4    4    0    0  0.81994306538E-02 -0.50501987366E-01  0.36573440757E-01  0.62893235572E-01  0.51100000000E-03 0. -1.
         11    1    4    4    0    0  0.16463966514E-01 -0.60219938831E-01  0.21194115568E-01  0.65931440769E-01  0.51100000000E-03 0.  1.
</event>
<event>
 8    1  0.1180500E+005  0.1043930E+01  0.7957747E-01            NaN
         13   -1    0    0    0    0  0.00000000000E+00  0.00000000000E+00  0.74505805969E-08  0.10566000000E+00  0.10566000000E+00 0. -1.
     999900   -1    0    0    0    0 -0.00000000000E+00 -0.00000000000E+00 -0.74505805969E-08  0.93827000000E+00  0.93827000000E+00 0.  1.
     999902    2    1    2    0    0 -0.22035717616E-04  0.23671924509E-01 -0.30718931315E-02  0.10200595785E+01  0.10197802443E+01 0.  0.
     999903    2    3    3    0    0 -0.16464616327E-01 -0.11838548627E+00 -0.40090689594E-01  0.12774738105E+00  0.20637902542E-01 0.  0.
         14    1    1    2    0    0  0.22035717616E-04 -0.23671924509E-01  0.30718931315E-02  0.23870421507E-01  0.00000000000E+00 0. -1.
     999901    1    3    3    0    0  0.16442580610E-01  0.14205741078E+00  0.37018796462E-01  0.89231219744E+00  0.88000000000E+00 0.  1.
        -11    1    4    4    0    0 -0.67160514102E-02 -0.74025392557E-01 -0.34618743273E-01  0.81997454818E-01  0.51100000000E-03 0.  1.
         11    1    4    4    0    0 -0.97485649173E-02 -0.44360093718E-01 -0.54719463207E-02  0.45749926231E-01  0.51100000000E-03 0. -1.
</event>
<event>
 8    1  0.1180500E+005  0.1043930E+01  0.7957747E-01            NaN
         13   -1    0    0    0    0  0.00000000000E+00  0.00000000000E+00  0.74505805969E-08  0.10566000000E+00  0.10566000000E+00 0. -1.
     999900   -1    0    0    0    0 -0.00000000000E+00 -0.00000000000E+00 -0.74505805969E-08  0.93827000000E+00  0.93827000000E+00 0. -1.
     999902    2    1    2    0    0 -0.13502515706E-01  0.18249920953E-01  0.41536298466E-02  0.10208512178E+01  0.10205903090E+01 0.  0.
     999903    2    3    3    0    0 -0.11870492894E+00 -0.48860463458E-01  0.22545585982E-01  0.13185762084E+00  0.19998091957E-01 0.  0.
         14    1    1    2    0    0  0.13502515706E-01 -0.18249920953E-01 -0.41536298466E-02  0.23078782162E-01  0.00000000000E+00 0.  1.
     999901    1    3    3    0    0  0.10520241324E+00  0.67110384412E-01 -0.18391956135E-01  0.88899359699E+00  0.88000000000E+00 0. -1.
        -11    1    4    4    0    0 -0.27398283676E-01 -0.57181563835E-02  0.11517289792E-01  0.30269990849E-01  0.51100000000E-03 0. -1.
         11    1    4    4    0    0 -0.91306645269E-01 -0.43142307075E-01  0.11028296190E-01  0.10158762999E+00  0.51100000000E-03 0.  1.
</event>
<event>
 8    1  0.1180500E+005  0.1043930E+01  0.7957747E-01            NaN
         13   -1    0    0    0    0  0.00000000000E+00  0.00000000000E+00  0.74505805969E-08  0.10566000000E+00  0.10566000000E+00 0. -1.
     999900   -1    0    0    0    0 -0.00000000000E+00 -0.00000000000E+00 -0.74505805969E-08  0.93827000000E+00  0.93827000000E+00 0.  1.
     999902    2    1    2    0    0 -0.74267850199E-02 -0.19183877938E-01 -0.13373947799E-01  0.10193934805E+01  0.10190981441E+01 0.  0.
     999903    2    3    3    0    0  0.11259458291E+00  0.49677634173E-01  0.20517603585E-01  0.12793642947E+00  0.28308134694E-01 0.  0.
         14    1    1    2    0    0  0.74267850199E-02  0.19183877938E-01  0.13373947799E-01  0.24536519481E-01  0.00000000000E+00 0. -1.
     999901    1    3    3    0    0 -0.12002136793E+00 -0.68861512112E-01 -0.33891551384E-01  0.89145705105E+00  0.88000000000E+00 0. -1.
        -11    1    4    4    0    0  0.73585488825E-01  0.19016497891E-01  0.60208203426E-02  0.76242788224E-01  0.51100000000E-03 0.  1.
         11    1    4    4    0    0  0.39009094090E-01  0.30661136283E-01  0.14496783242E-01  0.51693641246E-01  0.51100000000E-03 0. -1.
</event>
<event>
 8    1  0.1180500E+005  0.1043930E+01  0.7957747E-01            NaN
         13   -1    0    0    0    0  0.00000000000E+00  0.00000000000E+00  0.74505805969E-08  0.10566000000E+00  0.10566000000E+00 0. -1.
     999900   -1    0    0    0    0 -0.00000000000E+00 -0.00000000000E+00 -0.74505805969E-08  0.93827000000E+00  0.93827000000E+00 0.  1.
     999902    2    1    2    0    0  0.12800652764E-01  0.10833820618E-01  0.17400850286E-01  0.10197635362E+01  0.10194771463E+01 0.  0.
     999903    2    3    3    0    0 -0.19133680873E-01  0.79328480003E-01  0.10233237176E+00  0.13245035400E+00  0.20299667018E-01 0.  0.
         14    1    1    2    0    0 -0.12800652764E-01 -0.10833820618E-01 -0.17400850286E-01  0.24166463768E-01  0.00000000000E+00 0.  1.
     999901    1    3    3    0    0  0.31934333637E-01 -0.68494659385E-01 -0.84931521471E-01  0.88731318224E+00  0.88000000000E+00 0. -1.
        -11    1    4    4    0    0 -0.41590018768E-03  0.20490247439E-02  0.11634025392E-01  0.11831447215E-01  0.51100000000E-03 0.  1.
         11    1    4    4    0    0 -0.18717780686E-01  0.77279455260E-01  0.90698346365E-01  0.12061890678E+00  0.51100000000E-03 0. -1.
</event>
<event>
 8    1  0.1180500E+005  0.1043930E+01  0.7957747E-01            NaN
         13   -1    0    0    0    0  0.00000000000E+00  0.00000000000E+00  0.74505805969E-08  0.10566000000E+00  0.10566000000E+00 0. -1.
     999900   -1    0    0    0    0 -0.00000000000E+00 -0.00000000000E+00 -0.74505805969E-08  0.93827000000E+00  0.93827000000E+00 0. -1.
     999902    2    1    2    0    0 -0.21552150799E-01 -0.10591110649E-01 -0.15968104039E-02  0.10198630801E+01  0.10195790727E+01 0.  0.
     999903    2    3    3    0    0 -0.13148209959E-01 -0.41159596252E-01  0.12125931442E+00  0.13076314989E+00  0.22982433451E-01 0.  0.
         14    1    1    2    0    0  0.21552150799E-01  0.10591110649E-01  0.15968104039E-02  0.24066919876E-01  0.00000000000E+00 0. -1.
     999901    1    3    3    0    0 -0.84039408401E-02  0.30568485602E-01 -0.12285612482E+00  0.88909993023E+00  0.88000000000E+00 0. -1.
        -11    1    4    4    0    0 -0.42515971022E-02 -0.38498151641E-01  0.86423844164E-01  0.94707580049E-01  0.51100000000E-03 0. -1.
         11    1    4    4    0    0 -0.88966128563E-02 -0.26614446106E-02  0.34835470255E-01  0.36055569842E-01  0.51100000000E-03 0.  1.
</event>
<event>
 8    1  0.1180500E+005  0.1043930E+01  0.7957747E-01            NaN
         13   -1    0    0    0    0  0.00000000000E+00  0.00000000000E+00  0.74505805969E-08  0.10566000000E+00  0.10566000000E+00 0. -1.
     999900   -1    0    0    0    0 -0.00000000000E+00 -0.00000000000E+00 -0.74505805969E-08  0.93827000000E+00  0.93827000000E+00 0.  1.
     999902    2    1    2    0    0 -0.17195070394E-01  0.33973678290E-02 -0.14379054404E-01  0.10212590988E+01  0.10210074325E+01 0.  0.
     999903    2    3    3    0    0 -0.88595580644E-01 -0.96569778997E-01 -0.54248060731E-02  0.13268066005E+00  0.19995747187E-01 0.  0.
         14    1    1    2    0    0  0.17195070394E-01 -0.33973678290E-02  0.14379054404E-01  0.22670901164E-01  0.00000000000E+00 0. -1.
     999901    1    3    3    0    0  0.71400510250E-01  0.99967146826E-01 -0.89542483312E-02  0.88857843878E+00  0.88000000000E+00 0.  1.
        -11    1    4    4    0    0 -0.58290436136E-01 -0.63664420027E-01 -0.13040542675E-01  0.87299772031E-01  0.51100000000E-03 0.  1.
         11    1    4    4    0    0 -0.30305144508E-01 -0.32905358970E-01  0.76157366017E-02  0.45380888021E-01  0.51100000000E-03 0. -1.
</event>
<event>
 7    1  0.1180500E+005  0.1043930E+01  0.7957747E-01            NaN
         13   -1    0    0    0    0  0.00000000000E+00  0.00000000000E+00  0.74505805969E-08  0.10566000000E+00  0.10566000000E+00 0. -1.
     999900   -1    0    0    0    0 -0.00000000000E+00 -0.00000000000E+00 -0.74505805969E-08  0.93827000000E+00  0.93827000000E+00 0. -1.
     999903    2    1    2    0    0 -0.35143661182E-01  0.17016321699E-01 -0.10885538026E+00  0.11730116801E+00  0.19632576989E-01 0.  0.
         14    1    1    2    0    0  0.31706482064E-01  0.21669285208E-01  0.13128568188E-01  0.40585936345E-01  0.00000000000E+00 0. -1.
     999901    1    1    2    0    0  0.34371791183E-02 -0.38685606907E-01  0.95726812069E-01  0.88604289565E+00  0.88000000000E+00 0.  1.
        -11    1    3    3    0    0 -0.31800341913E-01  0.66203691269E-02 -0.75268170180E-01  0.81979568165E-01  0.51100000000E-03 0. -1.
         11    1    3    3    0    0 -0.33433192692E-02  0.10395952572E-01 -0.33587210077E-01  0.35321599841E-01  0.51100000000E-03 0.  1.
</event>
<event>
 8    1  0.1180500E+005  0.1043930E+01  0.7957747E-01            NaN
         13   -1    0    0    0    0  0.00000000000E+00  0.00000000000E+00  0.74505805969E-08  0.10566000000E+00  0.10566000000E+00 0.  1.
     999900   -1    0    0    0    0 -0.00000000000E+00 -0.00000000000E+00 -0.74505805969E-08  0.93827000000E+00  0.93827000000E+00 0. -1.
     999902    2    1    2    0    0  0.63984800934E-02 -0.12010229250E-01 -0.23409457965E-01  0.10168525393E+01  0.10164919566E+01 0.  0.
     999903    2    3    3    0    0 -0.56161831164E-01  0.11081908576E+00 -0.60231807267E-02  0.12595236770E+00  0.19816638835E-01 0.  0.
         14    1    1    2    0    0 -0.63984800934E-02  0.12010229250E-01  0.23409457965E-01  0.27077460671E-01  0.00000000000E+00 0.  1.
     999901    1    3    3    0    0  0.62560311258E-01 -0.12282931501E+00 -0.17386277238E-01  0.89090017163E+00  0.88000000000E+00 0.  1.
        -11    1    4    4    0    0 -0.39263018726E-01  0.71052248573E-01  0.50734098067E-02  0.81338842350E-01  0.51100000000E-03 0. -1.
         11    1    4    4    0    0 -0.16898812438E-01  0.39766837189E-01 -0.11096590533E-01  0.44613525351E-01  0.51100000000E-03 0.  1.
</event>
<event>
 8    1  0.1180500E+005  0.1043930E+01  0.7957747E-01            NaN
         13   -1    0    0    0    0  0.00000000000E+00  0.00000000000E+00  0.74505805969E-08  0.10566000000E+00  0.10566000000E+00 0. -1.
     999900   -1    0    0    0    0 -0.00000000000E+00 -0.00000000000E+00 -0.74505805969E-08  0.93827000000E+00  0.93827000000E+00 0. -1.
     999902    2    1    2    0    0 -0.23487041709E-01 -0.10109985827E-02  0.68256548424E-02  0.10194503593E+01  0.10191564071E+01 0.  0.
     999903    2    3    3    0    0  0.65790997950E-01  0.12415754682E-01 -0.10659445134E+00  0.12758996293E+00  0.20837831170E-01 0.  0.
         14    1    1    2    0    0  0.23487041709E-01  0.10109985827E-02 -0.68256548424E-02  0.24479640733E-01  0.00000000000E+00 0. -1.
     999901    1    3    3    0    0 -0.89278039660E-01 -0.13426753265E-01  0.11342010618E+00  0.89186039634E+00  0.88000000000E+00 0.  1.
        -11    1    4    4    0    0  0.37336016049E-01  0.16518403924E-01 -0.70162659226E-01  0.81178172148E-01  0.51100000000E-03 0.  1.
         11    1    4    4    0    0  0.28454981901E-01 -0.41026492416E-02 -0.36431792116E-01  0.46411790782E-01  0.51100000000E-03 0. -1.
</event>
<event>
 8    1  0.1180500E+005  0.1043930E+01  0.7957747E-01            NaN
         13   -1    0    0    0    0  0.00000000000E+00  0.00000000000E+00  0.74505805969E-08  0.10566000000E+00  0.10566000000E+00 0.  1.
     999900   -1    0    0    0    0 -0.00000000000E+00 -0.00000000000E+00 -0.74505805969E-08  0.93827000000E+00  0.93827000000E+00 0.  1.
     999902    2    1    2    0    0  0.47850162392E-04 -0.25893212510E-01  0.65956128735E-02  0.10172099167E+01  0.10168589144E+01 0.  0.
     999903    2    3    3    0    0  0.37800772993E-01 -0.51808379409E-01 -0.10940328154E+00  0.12841712723E+00  0.20220631520E-01 0.  0.
         14    1    1    2    0    0 -0.47850162392E-04  0.25893212510E-01 -0.65956128735E-02  0.26720083325E-01  0.00000000000E+00 0.  1.
     999901    1    3    3    0    0 -0.37752922831E-01  0.25915166899E-01  0.11599889441E+00  0.88879278944E+00  0.88000000000E+00 0. -1.
        -11    1    4    4    0    0 -0.40890589774E-03  0.48291106054E-03 -0.83565537249E-02  0.83960418223E-02  0.51100000000E-03 0.  1.
         11    1    4    4    0    0  0.38209678891E-01 -0.52291290469E-01 -0.10104672782E+00  0.12002108541E+00  0.51100000000E-03 0. -1.
</event>
<event>
 8    1  0.1180500E+005  0.1043930E+01  0.7957747E-01            NaN
         13   -1    0    0    0    0  0.00000000000E+00  0.00000000000E+00  0.74505805969E-08  0.10566000000E+00  0.10566000000E+00 0. -1.
     999900   -1    0    0    0    0 -0.00000000000E+00 -0.00000000000E+00 -0.74505805969E-08  0.93827000000E+00  0.93827000000E+00 0. -1.
     999902    2    1    2    0    0 -0.11969852440E-01  0.10337005233E-01  0.17813504653E-01  0.10201087491E+01  0.10198305781E+01 0.  0.
     999903    2    3    3    0    0 -0.48247562225E-01 -0.69123073373E-01  0.99651342412E-01  0.13200548487E+00  0.19728949726E-01 0.  0.
         14    1    1    2    0    0  0.11969852440E-01 -0.10337005233E-01 -0.17813504653E-01  0.23821250862E-01  0.00000000000E+00 0.  1.
     999901    1    3    3    0    0  0.36277709786E-01  0.79460078606E-01 -0.81837837759E-01  0.88810326427E+00  0.88000000000E+00 0.  1.
        -11    1    4    4    0    0 -0.17739420144E-01 -0.19188612395E-01  0.44415264696E-01  0.51535101938E-01  0.51100000000E-03 0. -1.
         11    1    4    4    0    0 -0.30508142081E-01 -0.49934460977E-01  0.55236077716E-01  0.80470382929E-01  0.51100000000E-03 0.  1.
</event>
<event>
 8    1  0.1180500E+005  0.1043930E+01  0.7957747E-01            NaN
         13   -1    0    0    0    0  0.00000000000E+00  0.00000000000E+00  0.74505805969E-08  0.10566000000E+00  0.10566000000E+00 0.  1.
     999900   -1    0    0    0    0 -0.00000000000E+00 -0.00000000000E+00 -0.74505805969E-08  0.93827000000E+00  0.93827000000E+00 0. -1.
     999902    2    1    2    0    0  0.93462699852E-02 -0.20169416710E-01 -0.75965703546E-02  0.10204381713E+01  0.10201677291E+01 0.  0.
     999903    2    3    3    0    0 -0.49530522277E-01  0.10571732656E+00 -0.49540790837E-01  0.12854509117E+00  0.20979150036E-01 0.  0.
         14    1    1    2    0    0 -0.93462699852E-02  0.20169416710E-01  0.75965703546E-02  0.23491828669E-01  0.00000000000E+00 0.  1.
     999901    1    3    3    0    0  0.58876792262E-01 -0.12588674327E+00  0.41944220482E-01  0.89189308016E+00  0.88000000000E+00 0.  1.
        -11    1    4    4    0    0 -0.14569218510E-01  0.15717831666E-01 -0.40687831003E-02  0.21820368402E-01  0.51100000000E-03 0.  1.
         11    1    4    4    0    0 -0.34961303767E-01  0.89999494894E-01 -0.45472007737E-01  0.10672472277E+00  0.51100000000E-03 0. -1.
</event>
<event>
 8    1  0.1180500E+005  0.1043930E+01  0.7957747E-01            NaN
         13   -1    0    0    0    0  0.00000000000E+00  0.00000000000E+00  0.74505805969E-08  0.10566000000E+00  0.10566000000E+00 0. -1.
     999900   -1    0    0    0    0 -0.00000000000E+00 -0.00000000000E+00 -0.74505805969E-08  0.93827000000E+00  0.93827000000E+00 0. -1.
     999902    2    1    2    0    0  0.23563372960E-01  0.46115607422E-02  0.28520258513E-02  0.10197508129E+01  0.10194641177E+01 0.  0.
     999903    2    3    3    0    0 -0.83765747491E-01  0.91293753815E-01  0.27951263971E-01  0.12864850987E+00  0.20442993827E-01 0.  0.
         14    1    1    2    0    0 -0.23563372960E-01 -0.46115607422E-02 -0.28520258513E-02  0.24179187107E-01  0.00000000000E+00 0.  1.
     999901    1    3    3    0    0  0.10732912045E+00 -0.86682193073E-01 -0.25099238120E-01  0.89110230302E+00  0.88000000000E+00 0. -1.
        -11    1    4    4    0    0 -0.27123424168E-02  0.99004634650E-02  0.53146296363E-02  0.11570755696E-01  0.51100000000E-03 0.  1.
         11    1    4    4    0    0 -0.81053405074E-01  0.81393290350E-01  0.22636634335E-01  0.11707775418E+00  0.51100000000E-03 0. -1.
</event>
<event>
 8    1  0.1180500E+005  0.1043930E+01  0.7957747E-01            NaN
         13   -1    0    0    0    0  0.00000000000E+00  0.00000000000E+00  0.74505805969E-08  0.10566000000E+00  0.10566000000E+00 0. -1.
     999900   -1    0    0    0    0 -0.00000000000E+00 -0.00000000000E+00 -0.74505805969E-08  0.93827000000E+00  0.93827000000E+00 0.  1.
     999902    2    1    2    0    0  0.16101825968E-02 -0.59071197911E-02 -0.23018969374E-01  0.10201106863E+01  0.10198325611E+01 0.  0.
     999903    2    3    3    0    0  0.10305180352E+00  0.89753873524E-02  0.73550001039E-01  0.12891067651E+00  0.22541696427E-01 0.  0.
         14    1    1    2    0    0 -0.16101825968E-02  0.59071197911E-02  0.23018969374E-01  0.23819313661E-01  0.00000000000E+00 0. -1.
     999901    1    3    3    0    0 -0.10144162093E+00 -0.14882507143E-01 -0.96568970412E-01  0.89120000983E+00  0.88000000000E+00 0. -1.
        -11    1    4    4    0    0  0.73296043482E-01  0.99349003957E-02  0.63496146589E-01  0.97483506239E-01  0.51100000000E-03 0.  1.
         11    1    4    4    0    0  0.29755760041E-01 -0.95951304326E-03  0.10053854450E-01  0.31427170271E-01  0.51100000000E-03 0. -1.
</event>
<event>
 8    1  0.1180500E+005  0.1043930E+01  0.7957747E-01            NaN
         13   -1    0    0    0    0  0.00000000000E+00  0.00000000000E+00  0.74505805969E-08  0.10566000000E+00  0.10566000000E+00 0. -1.
     999900   -1    0    0    0    0 -0.00000000000E+00 -0.00000000000E+00 -0.74505805969E-08  0.93827000000E+00  0.93827000000E+00 0.  1.
     999902    2    1    2    0    0  0.16141904957E-01 -0.18632612968E-01 -0.27802078199E-02  0.10191214346E+01  0.10188194313E+01 0.  0.
     999903    2    3    3    0    0  0.34380444631E-01  0.31182258201E-02  0.12336852989E+00  0.12967258990E+00  0.20086017465E-01 0.  0.
         14    1    1    2    0    0 -0.16141904957E-01  0.18632612968E-01  0.27802078199E-02  0.24808565399E-01  0.00000000000E+00 0.  1.
     999901    1    3    3    0    0 -0.18238539674E-01 -0.21750838788E-01 -0.12614873771E+00  0.88944884470E+00  0.88000000000E+00 0.  1.
        -11    1    4    4    0    0  0.19982888388E-01  0.97687002665E-02  0.90208161889E-01  0.92911339058E-01  0.51100000000E-03 0.  1.
         11    1    4    4    0    0  0.14397556243E-01 -0.66504744464E-02  0.33160368003E-01  0.36761250839E-01  0.51100000000E-03 0. -1.
</event>
<event>
 8    1  0.1180500E+005  0.1043930E+01  0.7957747E-01            NaN
         13   -1    0    0    0    0  0.00000000000E+00  0.00000000000E+00  0.74505805969E-08  0.10566000000E+00  0.10566000000E+00 0. -1.
     999900   -1    0    0    0    0 -0.00000000000E+00 -0.00000000000E+00 -0.74505805969E-08  0.93827000000E+00  0.93827000000E+00 0. -1.
     999902    2    1    2    0    0  0.77152453156E-02  0.12040064390E-01  0.98998755843E-02  0.10265375966E+01  0.10263902481E+01 0.  0.
     999903    2    3    3    0    0  0.64042505633E-01 -0.68274799917E-01 -0.95422883257E-01  0.13484475639E+00  0.17739527761E-01 0.  0.
         14    1    1    2    0    0 -0.77152453156E-02 -0.12040064390E-01 -0.98998755843E-02  0.17392403439E-01  0.00000000000E+00 0.  1.
     999901    1    3    3    0    0 -0.56327260317E-01  0.80314864307E-01  0.10532275884E+00  0.89169284017E+00  0.88000000000E+00 0.  1.
        -11    1    4    4    0    0  0.34125277751E-01 -0.23574063556E-01 -0.40785257089E-01  0.58171895026E-01  0.51100000000E-03 0. -1.
         11    1    4    4    0    0  0.29917227882E-01 -0.44700736360E-01 -0.54637626168E-01  0.76672861363E-01  0.51100000000E-03 0.  1.
</event>
<event>
 8    1  0.1180500E+005  0.1043930E+01  0.7957747E-01            NaN
         13   -1    0    0    0    0  0.00000000000E+00  0.00000000000E+00  0.74505805969E-08  0.10566000000E+00  0.10566000000E+00 0.  1.
     999900   -1    0    0    0    0 -0.00000000000E+00 -0.00000000000E+00 -0.74505805969E-08  0.93827000000E+00  0.93827000000E+00 0.  1.
     999902    2    1    2    0    0 -0.18188983150E-02  0.18712355251E-02 -0.22364050347E-01  0.10214142131E+01  0.10211660169E+01 0.  0.
     999903    2    3    3    0    0  0.58715339959E-01  0.11558887359E+00  0.93095120651E-02  0.13147078241E+00  0.19738813752E-01 0.  0.
         14    1    1    2    0    0  0.18188983150E-02 -0.18712355251E-02  0.22364050347E-01  0.22515786937E-01  0.00000000000E+00 0.  1.
     999901    1    3    3    0    0 -0.60534238274E-01 -0.11371763806E+00 -0.31673562412E-01  0.88994343065E+00  0.88000000000E+00 0.  1.
        -11    1    4    4    0    0  0.42590150590E-01  0.93564396006E-01  0.56967170065E-03  0.10280468265E+00  0.51100000000E-03 0. -1.
         11    1    4    4    0    0  0.16125189369E-01  0.22024477582E-01  0.87398403645E-02  0.28666099762E-01  0.51100000000E-03 0.  1.
</event>
<event>
 8    1  0.1180500E+005  0.1043930E+01  0.7957747E-01            NaN
         13   -1    0    0    0    0  0.00000000000E+00  0.00000000000E+00  0.74505805969E-08  0.10566000000E+00  0.10566000000E+00 0.  1.
     999900   -1    0    0    0    0 -0.00000000000E+00 -0.00000000000E+00 -0.74505805969E-08  0.93827000000E+00  0.93827000000E+00 0. -1.
     999902    2    1    2    0    0  0.73002147607E-02 -0.22884424423E-01 -0.17745537407E-02  0.10198439240E+01  0.10195594589E+01 0.  0.
     999903    2    3    3    0    0  0.94925240001E-01  0.42583453837E-02 -0.87869075920E-01  0.13089671422E+00  0.19596953746E-01 0.  0.
         14    1    1    2    0    0 -0.73002147607E-02  0.22884424423E-01  0.17745537407E-02  0.24086076013E-01  0.00000000000E+00 0. -1.
     999901    1    3    3    0    0 -0.87625025240E-01 -0.27142769807E-01  0.86094522180E-01  0.88894720977E+00  0.88000000000E+00 0.  1.
        -11    1    4    4    0    0  0.42303013171E-01  0.58053966138E-02 -0.27479582818E-01  0.50780273198E-01  0.51100000000E-03 0. -1.
         11    1    4    4    0    0  0.52622226829E-01 -0.15470512301E-02 -0.60389493103E-01  0.80116441023E-01  0.51100000000E-03 0.  1.
</event>
<event>
 8    1  0.1180500E+005  0.1043930E+01  0.7957747E-01            NaN
         13   -1    0    0    0    0  0.00000000000E+00  0.00000000000E+00  0.74505805969E-08  0.10566000000E+00  0.10566000000E+00 0.  1.
     999900   -1    0    0    0    0 -0.00000000000E+00 -0.00000000000E+00 -0.74505805969E-08  0.93827000000E+00  0.93827000000E+00 0. -1.
     999902    2    1    2    0    0 -0.10827705785E-01 -0.17884888250E-01 -0.11836986748E-01  0.10199045407E+01  0.10196215226E+01 0.  0.
     999903    2    3    3    0    0  0.66272721333E-01 -0.62535441371E-01 -0.92950462580E-01  0.13169423691E+00  0.20020702333E-01 0.  0.
         14    1    1    2    0    0  0.10827705785E-01  0.17884888250E-01  0.11836986748E-01  0.24025459320E-01  0.00000000000E+00 0.  1.
     999901    1    3    3    0    0 -0.77100427118E-01  0.44650553121E-01  0.81113475832E-01  0.88821030377E+00  0.88000000000E+00 0.  1.
        -11    1    4    4    0    0  0.16237897579E-01 -0.15166869027E-01 -0.35974423731E-01  0.42286209545E-01  0.51100000000E-03 0.  1.
         11    1    4    4    0    0  0.50034823754E-01 -0.47368572343E-01 -0.56976038849E-01  0.89408027368E-01  0.51100000000E-03 0. -1.
</event>
<event>
 8    1  0.1180500E+005  0.1043930E+01  0.7957747E-01            NaN
         13   -1    0    0    0    0  0.00000000000E+00  0.00000000000E+00  0.74505805969E-08  0.10566000000E+00  0.10566000000E+00 0.  1.
     999900   -1    0    0    0    0 -0.00000000000E+00 -0.00000000000E+00 -0.74505805969E-08  0.93827000000E+00  0.93827000000E+00 0.  1.
     999902    2    1    2    0    0  0.19721335781E-01  0.10878562068E-01 -0.79511507844E-02  0.10200449629E+01  0.10197652825E+01 0.  0.
     999903    2    3    3    0    0  0.78995919050E-01  0.59305126143E-01 -0.86908225575E-01  0.13320065415E+00  0.20782718318E-01 0.  0.
         14    1    1    2    0    0 -0.19721335781E-01 -0.10878562068E-01  0.79511507844E-02  0.23885037083E-01  0.00000000000E+00 0.  1.
     999901    1    3    3    0    0 -0.59274583269E-01 -0.48426564075E-01  0.78957074791E-01  0.88684430877E+00  0.88000000000E+00 0. -1.
        -11    1    4    4    0    0  0.51253281567E-01  0.37638553621E-01 -0.68525609045E-01  0.93485719797E-01  0.51100000000E-03 0.  1.
         11    1    4    4    0    0  0.27742637483E-01  0.21666572521E-01 -0.18382616530E-01  0.39714934355E-01  0.51100000000E-03 0. -1.
</event>
<event>
 8    1  0.1180500E+005  0.1043930E+01  0.7957747E-01            NaN
         13   -1    0    0    0    0  0.00000000000E+00  0.00000000000E+00  0.74505805969E-08  0.10566000000E+00  0.10566000000E+00 0.  1.
     999900   -1    0    0    0    0 -0.00000000000E+00 -0.00000000000E+00 -0.74505805969E-08  0.93827000000E+00  0.93827000000E+00 0. -1.
     999902    2    1    2    0    0 -0.15863858920E-01 -0.98580594174E-02 -0.14756514447E-01  0.10201266794E+01  0.10198489319E+01 0.  0.
     999903    2    3    3    0    0  0.64827240642E-01 -0.20138715589E-01  0.10676715440E+00  0.12805899833E+00  0.19792493522E-01 0.  0.
         14    1    1    2    0    0  0.15863858920E-01  0.98580594174E-02  0.14756514447E-01  0.23803320649E-01  0.00000000000E+00 0.  1.
     999901    1    3    3    0    0 -0.80691099561E-01  0.10280656171E-01 -0.12152366884E+00  0.89206768102E+00  0.88000000000E+00 0. -1.
        -11    1    4    4    0    0  0.54533157604E-01 -0.23396402269E-01  0.83896070479E-01  0.10276219480E+00  0.51100000000E-03 0. -1.
         11    1    4    4    0    0  0.10294083038E-01  0.32576866810E-02  0.22871083916E-01  0.25296803526E-01  0.51100000000E-03 0.  1.
</event>
<event>
 8    1  0.1180500E+005  0.1043930E+01  0.7957747E-01            NaN
         13   -1    0    0    0    0  0.00000000000E+00  0.00000000000E+00  0.74505805969E-08  0.10566000000E+00  0.10566000000E+00 0. -1.
     999900   -1    0    0    0    0 -0.00000000000E+00 -0.00000000000E+00 -0.74505805969E-08  0.93827000000E+00  0.93827000000E+00 0.  1.
     999902    2    1    2    0    0  0.22104446654E-02 -0.66215290550E-02  0.22399296440E-01  0.10204681332E+01  0.10201983884E+01 0.  0.
     999903    2    3    3    0    0 -0.37891027662E-01  0.67680464524E-01  0.10550572034E+00  0.13252917583E+00  0.20399758960E-01 0.  0.
         14    1    1    2    0    0 -0.22104446654E-02  0.66215290550E-02 -0.22399296440E-01  0.23461866798E-01  0.00000000000E+00 0.  1.
     999901    1    3    3    0    0  0.40101472327E-01 -0.74301993579E-01 -0.83106423897E-01  0.88793895738E+00  0.88000000000E+00 0.  1.
        -11    1    4    4    0    0 -0.21546039183E-01  0.35303947639E-01  0.72595709132E-01  0.83552370576E-01  0.51100000000E-03 0. -1.
         11    1    4    4    0    0 -0.16344988479E-01  0.32376516885E-01  0.32910011205E-01  0.48976805250E-01  0.51100000000E-03 0.  1.
</event>
<event>
 8    1  0.1180500E+005  0.1043930E+01  0.7957747E-01            NaN
         13   -1    0    0    0    0  0.00000000000E+00  0.00000000000E+00  0.74505805969E-08  0.10566000000E+00  0.10566000000E+00 0.  1.
     999900   -1    0    0    0    0 -0.00000000000E+00 -0.00000000000E+00 -0.74505805969E-08  0.93827000000E+00  0.93827000000E+00 0. -1.
     999902    2    1    2    0    0  0.99700243835E-02  0.59923561578E-02  0.39334136704E-02  0.10316506897E+01  0.10315776093E+01 0.  0.
     999903    2    3    3    0    0 -0.58088278532E-01 -0.92849739001E-01  0.84265408697E-01  0.13988002310E+00  0.21689620186E-01 0.  0.
         14    1    1    2    0    0 -0.99700243835E-02 -0.59923561578E-02 -0.39334136704E-02  0.12279310308E-01  0.00000000000E+00 0. -1.
     999901    1    3    3    0    0  0.68058302916E-01  0.98842095159E-01 -0.80331995027E-01  0.89177066659E+00  0.88000000000E+00 0. -1.
        -11    1    4    4    0    0 -0.46756507914E-01 -0.87262588924E-01  0.75121040054E-01  0.12427534847E+00  0.51100000000E-03 0. -1.
         11    1    4    4    0    0 -0.11331770619E-01 -0.55871500776E-02  0.91443686432E-02  0.15604674628E-01  0.51100000000E-03 0.  1.
</event>
<event>
 8    1  0.1180500E+005  0.1043930E+01  0.7957747E-01            NaN
         13   -1    0    0    0    0  0.00000000000E+00  0.00000000000E+00  0.74505805969E-08  0.10566000000E+00  0.10566000000E+00 0.  1.
     999900   -1    0    0    0    0 -0.00000000000E+00 -0.00000000000E+00 -0.74505805969E-08  0.93827000000E+00  0.93827000000E+00 0.  1.
     999902    2    1    2    0    0 -0.44985067359E-02 -0.23373183610E-01 -0.14907109701E-02  0.10200812161E+01  0.10198023941E+01 0.  0.
     999903    2    3    3    0    0 -0.64210120532E-01  0.26864591179E-01  0.10806175198E+00  0.12986155051E+00  0.18494167231E-01 0.  0.
         14    1    1    2    0    0  0.44985067359E-02  0.23373183610E-01  0.14907109701E-02  0.23848783912E-01  0.00000000000E+00 0.  1.
     999901    1    3    3    0    0  0.59711613796E-01 -0.50237774789E-01 -0.10955246295E+00  0.89021966558E+00  0.88000000000E+00 0. -1.
        -11    1    4    4    0    0 -0.21318848622E-01  0.28876972848E-02  0.22108180008E-01  0.30852306987E-01  0.51100000000E-03 0.  1.
         11    1    4    4    0    0 -0.42891271910E-01  0.23976893894E-01  0.85953571977E-01  0.99009243525E-01  0.51100000000E-03 0. -1.
</event>
<event>
 8    1  0.1180500E+005  0.1043930E+01  0.7957747E-01            NaN
         13   -1    0    0    0    0  0.00000000000E+00  0.00000000000E+00  0.74505805969E-08  0.10566000000E+00  0.10566000000E+00 0.  1.
     999900   -1    0    0    0    0 -0.00000000000E+00 -0.00000000000E+00 -0.74505805969E-08  0.93827000000E+00  0.93827000000E+00 0. -1.
     999902    2    1    2    0    0  0.20711193975E-01  0.10067872463E-02 -0.11176495393E-01  0.10203740830E+01  0.10201021459E+01 0.  0.
     999903    2    3    3    0    0  0.11043719132E+00 -0.36021309870E-02 -0.72463489474E-01  0.13367904390E+00  0.20243045645E-01 0.  0.
         14    1    1    2    0    0 -0.20711193975E-01 -0.10067872463E-02  0.11176495393E-01  0.23555916999E-01  0.00000000000E+00 0.  1.
     999901    1    3    3    0    0 -0.89725997342E-01  0.46089182333E-02  0.61286994082E-01  0.88669503910E+00  0.88000000000E+00 0. -1.
        -11    1    4    4    0    0  0.23476494273E-01 -0.54116983036E-02 -0.24436633746E-01  0.34319709377E-01  0.51100000000E-03 0.  1.
         11    1    4    4    0    0  0.86960697044E-01  0.18095673166E-02 -0.48026855728E-01  0.99359334521E-01  0.51100000000E-03 0. -1.
</event>
<event>
 7    1  0.1180500E+005  0.1043930E+01  0.7957747E-01            NaN
         13   -1    0    0    0    0  0.00000000000E+00  0.00000000000E+00  0.74505805969E-08  0.10566000000E+00  0.10566000000E+00 0. -1.
     999900   -1    0    0    0    0 -0.00000000000E+00 -0.00000000000E+00 -0.74505805969E-08  0.93827000000E+00  0.93827000000E+00 0.  1.
     999902    2    1    2    0    0 -0.12101761654E-01  0.13456049988E-01  0.24217872522E-01  0.10136971823E+01  0.10132462456E+01 0.  0.
         14    1    1    2    0    0  0.12101761654E-01 -0.13456049988E-01 -0.24217872522E-01  0.30232817697E-01  0.00000000000E+00 0.  1.
     999901    1    3    3    0    0  0.44599870820E-01 -0.47378452341E-01  0.11571756519E+00  0.88995753894E+00  0.88000000000E+00 0. -1.
        -11    1    3    3    0    0 -0.18462078020E-01  0.17956597636E-01 -0.30996183147E-01  0.40302756906E-01  0.51100000000E-03 0. -1.
         11    1    3    3    0    0 -0.38239554454E-01  0.42877904693E-01 -0.60503509525E-01  0.83436886456E-01  0.51100000000E-03 0.  1.
</event>
<event>
 8    1  0.1180500E+005  0.1043930E+01  0.7957747E-01            NaN
         13   -1    0    0    0    0  0.00000000000E+00  0.00000000000E+00  0.74505805969E-08  0.10566000000E+00  0.10566000000E+00 0.  1.
     999900   -1    0    0    0    0 -0.00000000000E+00 -0.00000000000E+00 -0.74505805969E-08  0.93827000000E+00  0.93827000000E+00 0. -1.
     999902    2    1    2    0    0  0.77677147524E-03 -0.47103536344E-02  0.23406411883E-01  0.10200416990E+01  0.10197619413E+01 0.  0.
     999903    2    3    3    0    0 -0.12836336189E+00  0.60443187188E-02 -0.44583672599E-02  0.13011513862E+00  0.19909439843E-01 0.  0.
         14    1    1    2    0    0 -0.77677147524E-03  0.47103536344E-02 -0.23406411883E-01  0.23888300956E-01  0.00000000000E+00 0. -1.
     999901    1    3    3    0    0  0.12914013337E+00 -0.10754672353E-01  0.27864779143E-01  0.88992656042E+00  0.88000000000E+00 0.  1.
        -11    1    4    4    0    0 -0.42931300302E-01 -0.40553138185E-03  0.75691243741E-02  0.43598322974E-01  0.51100000000E-03 0. -1.
         11    1    4    4    0    0 -0.85432061592E-01  0.64498501006E-02 -0.12027491634E-01  0.86516815650E-01  0.51100000000E-03 0.  1.
</event>
<event>
 7    1  0.1180500E+005  0.1043930E+01  0.7957747E-01            NaN
         13   -1    0    0    0    0  0.00000000000E+00  0.00000000000E+00  0.74505805969E-08  0.10566000000E+00  0.10566000000E+00 0.  1.
     999900   -1    0    0    0    0 -0.00000000000E+00 -0.00000000000E+00 -0.74505805969E-08  0.93827000000E+00  0.93827000000E+00 0. -1.
     999903    2    1    2    0    0  0.53770981827E-01 -0.43003870027E-01  0.76305715200E-01  0.10494143790E+00  0.21201223854E-01 0.  0.
         14    1    1    2    0    0 -0.26676191208E-01 -0.33785122117E-01  0.24446869997E-01  0.49504576622E-01  0.00000000000E+00 0. -1.
     999901    1    1    2    0    0 -0.27094790618E-01  0.76788992144E-01 -0.10075258520E+00  0.88948398548E+00  0.88000000000E+00 0. -1.
        -11    1    3    3    0    0  0.39318001277E-01 -0.23136760667E-01  0.37727823674E-01  0.59201897932E-01  0.51100000000E-03 0. -1.
         11    1    3    3    0    0  0.14452980549E-01 -0.19867109360E-01  0.38577891526E-01  0.45739539970E-01  0.51100000000E-03 0.  1.
</event>
<event>
 8    1  0.1180500E+005  0.1043930E+01  0.7957747E-01            NaN
         13   -1    0    0    0    0  0.00000000000E+00  0.00000000000E+00  0.74505805969E-08  0.10566000000E+00  0.10566000000E+00 0.  1.
     999900   -1    0    0    0    0 -0.00000000000E+00 -0.00000000000E+00 -0.74505805969E-08  0.93827000000E+00  0.93827000000E+00 0.  1.
     999902    2    1    2    0    0 -0.84445985228E-02 -0.11990095278E-02 -0.17952207607E-01  0.10240546226E+01  0.10238617287E+01 0.  0.
     999903    2    3    3    0    0  0.47418996081E-01  0.90479781960E-01 -0.85396005497E-01  0.13496834566E+00  0.22109374514E-01 0.  0.
         14    1    1    2    0    0  0.84445985228E-02  0.11990095278E-02  0.17952207607E-01  0.19875377381E-01  0.00000000000E+00 0.  1.
     999901    1    3    3    0    0 -0.55863594604E-01 -0.91678791487E-01  0.67443797890E-01  0.88908627696E+00  0.88000000000E+00 0. -1.
        -11    1    4    4    0    0  0.25867989141E-01  0.34384254490E-01 -0.24991903383E-01  0.49762296719E-01  0.51100000000E-03 0. -1.
         11    1    4    4    0    0  0.21551006940E-01  0.56095527470E-01 -0.60404102114E-01  0.85206048937E-01  0.51100000000E-03 0.  1.
</event>
<event>
 8    1  0.1180500E+005  0.1043930E+01  0.7957747E-01            NaN
         13   -1    0    0    0    0  0.00000000000E+00  0.00000000000E+00  0.74505805969E-08  0.10566000000E+00  0.10566000000E+00 0. -1.
     999900   -1    0    0    0    0 -0.00000000000E+00 -0.00000000000E+00 -0.74505805969E-08  0.93827000000E+00  0.93827000000E+00 0.  1.
     999902    2    1    2    0    0 -0.11631696136E-01  0.15712377672E-01  0.13117898177E-01  0.10203873914E+01  0.10201157651E+01 0.  0.
     999903    2    3    3    0    0  0.46433102679E-01  0.20346839924E-01  0.12016239516E+00  0.13198910041E+00  0.20300110737E-01 0.  0.
         14    1    1    2    0    0  0.11631696136E-01 -0.15712377672E-01 -0.13117898177E-01  0.23542608600E-01  0.00000000000E+00 0.  1.
     999901    1    3    3    0    0 -0.58064798815E-01 -0.46344622513E-02 -0.10704449699E+00  0.88839829099E+00  0.88000000000E+00 0.  1.
        -11    1    4    4    0    0  0.93868208096E-02 -0.40485684767E-02  0.21413522264E-01  0.23734012900E-01  0.51100000000E-03 0.  1.
         11    1    4    4    0    0  0.37046281869E-01  0.24395408401E-01  0.98748872900E-01  0.10825508751E+00  0.51100000000E-03 0. -1.
</event>
<event>
 7    1  0.1180500E+005  0.1043930E+01  0.7957747E-01            NaN
         13   -1    0    0    0    0  0.00000000000E+00  0.00000000000E+00  0.74505805969E-08  0.10566000000E+00  0.10566000000E+00 0. -1.
     999900   -1    0    0    0    0 -0.00000000000E+00 -0.00000000000E+00 -0.74505805969E-08  0.93827000000E+00  0.93827000000E+00 0.  1.
     999902    2    1    2    0    0  0.15033135740E-01  0.12667635625E-01 -0.94511398719E-02  0.10221174301E+01  0.10218846572E+01 0.  0.
         14    1    1    2    0    0 -0.15033135740E-01 -0.12667635625E-01  0.94511398719E-02  0.21812569940E-01  0.00000000000E+00 0. -1.
     999901    1    3    3    0    0  0.13801503713E+00  0.22205998379E-01  0.95477705216E-02  0.89108496607E+00  0.88000000000E+00 0. -1.
        -11    1    3    3    0    0 -0.76398545304E-01 -0.22405514401E-01 -0.22022588096E-01  0.82607507574E-01  0.51100000000E-03 0.  1.
         11    1    3    3    0    0 -0.46583356087E-01  0.12867151647E-01  0.30236777023E-02  0.48424956414E-01  0.51100000000E-03 0. -1.
</event>
<event>
 8    1  0.1180500E+005  0.1043930E+01  0.7957747E-01            NaN
         13   -1    0    0    0    0  0.00000000000E+00  0.00000000000E+00  0.74505805969E-08  0.10566000000E+00  0.10566000000E+00 0.  1.
     999900   -1    0    0    0    0 -0.00000000000E+00 -0.00000000000E+00 -0.74505805969E-08  0.93827000000E+00  0.93827000000E+00 0. -1.
     999902    2    1    2    0    0 -0.14914718760E-01  0.14190476152E-01  0.12749035798E-01  0.10197152036E+01  0.10194276532E+01 0.  0.
     999903    2    3    3    0    0 -0.78432017814E-03  0.17755932448E-01  0.12932525731E+00  0.13190756903E+00  0.18939279174E-01 0.  0.
         14    1    1    2    0    0  0.14914718760E-01 -0.14190476152E-01 -0.12749035798E-01  0.24214796363E-01  0.00000000000E+00 0. -1.
     999901    1    3    3    0    0 -0.14130398582E-01 -0.35654562963E-02 -0.11657622151E+00  0.88780763461E+00  0.88000000000E+00 0. -1.
        -11    1    4    4    0    0 -0.44870025836E-02  0.10860471966E-01  0.29262492771E-01  0.31537876398E-01  0.51100000000E-03 0.  1.
         11    1    4    4    0    0  0.37026824055E-02  0.68954604817E-02  0.10006276453E+00  0.10036969263E+00  0.51100000000E-03 0. -1.
</event>
<event>
 8    1  0.1561280E+005  0.1043930E+01  0.7957747E-01            NaN
         13   -1    0    0    0    0  0.00000000000E+00  0.00000000000E+00  0.74505805969E-08  0.10566000000E+00  0.10566000000E+00 0. -1.
     999900   -1    0    0    0    0 -0.00000000000E+00 -0.00000000000E+00 -0.74505805969E-08  0.93827000000E+00  0.93827000000E+00 0. -1.
     999902    2    1    2    0    0  0.24005324670E-01  0.77005704421E-02 -0.59441558884E-03  0.10187127891E+01  0.10184006279E+01 0.  0.
     999903    2    3    3    0    0 -0.18309156508E-01  0.93407824850E-01  0.85322239962E-01  0.12937712663E+00  0.19957687914E-01 0.  0.
         14    1    1    2    0    0 -0.24005324670E-01 -0.77005704421E-02  0.59441558884E-03  0.25217210939E-01  0.00000000000E+00 0. -1.
     999901    1    3    3    0    0  0.42314481178E-01 -0.85707254408E-01 -0.85916655551E-01  0.88933566243E+00  0.88000000000E+00 0. -1.
        -11    1    4    4    0    0 -0.19473445498E-01  0.47629985161E-01  0.45160937097E-01  0.68466064050E-01  0.51100000000E-03 0. -1.
         11    1    4    4    0    0  0.11642889905E-02  0.45777839689E-01  0.40161302865E-01  0.60911062577E-01  0.51100000000E-03 0.  1.
</event>
<event>
 8    1  0.1180500E+005  0.1043930E+01  0.7957747E-01            NaN
         13   -1    0    0    0    0  0.00000000000E+00  0.00000000000E+00  0.74505805969E-08  0.10566000000E+00  0.10566000000E+00 0.  1.
     999900   -1    0    0    0    0 -0.00000000000E+00 -0.00000000000E+00 -0.74505805969E-08  0.93827000000E+00  0.93827000000E+00 0. -1.
     999902    2    1    2    0    0  0.20507833324E-02 -0.29592992625E-01 -0.88577417780E-02  0.10129717941E+01  0.10124986149E+01 0.  0.
     999903    2    3    3    0    0  0.89126232567E-01  0.72390386614E-01  0.37892106801E-01  0.12158619185E+00  0.12788154135E-01 0.  0.
         14    1    1    2    0    0 -0.20507833324E-02  0.29592992625E-01  0.88577417780E-02  0.30958205927E-01  0.00000000000E+00 0.  1.
     999901    1    3    3    0    0 -0.87075449234E-01 -0.10198337924E+00 -0.46749848579E-01  0.89138560222E+00  0.88000000000E+00 0.  1.
        -11    1    4    4    0    0  0.57005284798E-01  0.48400858031E-01  0.30764082446E-01  0.80863684326E-01  0.51100000000E-03 0. -1.
         11    1    4    4    0    0  0.32120947769E-01  0.23989528583E-01  0.71280243551E-02  0.40722507529E-01  0.51100000000E-03 0.  1.
</event>
<event>
 8    1  0.1180500E+005  0.1043930E+01  0.7957747E-01            NaN
         13   -1    0    0    0    0  0.00000000000E+00  0.00000000000E+00  0.74505805969E-08  0.10566000000E+00  0.10566000000E+00 0.  1.
     999900   -1    0    0    0    0 -0.00000000000E+00 -0.00000000000E+00 -0.74505805969E-08  0.93827000000E+00  0.93827000000E+00 0.  1.
     999902    2    1    2    0    0  0.88411858442E-02  0.16074827182E-01  0.18250575660E-01  0.10180524007E+01  0.10177234597E+01 0.  0.
     999903    2    3    3    0    0 -0.23728008414E-02  0.35968388041E-01  0.12577375042E+00  0.13121377927E+00  0.99329983036E-02 0.  0.
         14    1    1    2    0    0 -0.88411858442E-02 -0.16074827182E-01 -0.18250575660E-01  0.25877599347E-01  0.00000000000E+00 0. -1.
     999901    1    3    3    0    0  0.11213986686E-01 -0.19893560859E-01 -0.10752317476E+00  0.88683862138E+00  0.88000000000E+00 0.  1.
        -11    1    4    4    0    0 -0.32818054436E-02  0.10388013640E-01  0.25724624555E-01  0.27940982514E-01  0.51100000000E-03 0.  1.
         11    1    4    4    0    0  0.90900460217E-03  0.25580374401E-01  0.10004912586E+00  0.10327279676E+00  0.51100000000E-03 0. -1.
</event>
<event>
 8    1  0.1180500E+005  0.1043930E+01  0.7957747E-01            NaN
         13   -1    0    0    0    0  0.00000000000E+00  0.00000000000E+00  0.74505805969E-08  0.10566000000E+00  0.10566000000E+00 0.  1.
     999900   -1    0    0    0    0 -0.00000000000E+00 -0.00000000000E+00 -0.74505805969E-08  0.93827000000E+00  0.93827000000E+00 0.  1.
     999902    2    1    2    0    0  0.16083375178E-01  0.28922877541E-02  0.16721572977E-01  0.10205494250E+01  0.10202815678E+01 0.  0.
     999903    2    3    3    0    0 -0.72816286622E-01  0.19025092822E-01 -0.10167442866E+00  0.12803554247E+00  0.19779912468E-01 0.  0.
         14    1    1    2    0    0 -0.16083375178E-01 -0.28922877541E-02 -0.16721572977E-01  0.23380575022E-01  0.00000000000E+00 0. -1.
     999901    1    3    3    0    0  0.88899661800E-01 -0.16132805068E-01  0.11839600164E+00  0.89251388251E+00  0.88000000000E+00 0. -1.
        -11    1    4    4    0    0 -0.35137056760E-01 -0.32824372095E-03 -0.51843936116E-01  0.62632063152E-01  0.51100000000E-03 0.  1.
         11    1    4    4    0    0 -0.37679229862E-01  0.19353336543E-01 -0.49830492545E-01  0.65403479316E-01  0.51100000000E-03 0. -1.
</event>
<event>
 8    1  0.1180500E+005  0.1043930E+01  0.7957747E-01            NaN
         13   -1    0    0    0    0  0.00000000000E+00  0.00000000000E+00  0.74505805969E-08  0.10566000000E+00  0.10566000000E+00 0.  1.
     999900   -1    0    0    0    0 -0.00000000000E+00 -0.00000000000E+00 -0.74505805969E-08  0.93827000000E+00  0.93827000000E+00 0. -1.
     999902    2    1    2    0    0  0.18100360827E-01 -0.11911800865E-01 -0.95854780358E-02  0.10202362149E+01  0.10199610477E+01 0.  0.
     999903    2    3    3    0    0 -0.48472933805E-02 -0.12029213718E+00 -0.50728125794E-01  0.13233666565E+00  0.21117665803E-01 0.  0.
         14    1    1    2    0    0 -0.18100360827E-01  0.11911800865E-01  0.95854780358E-02  0.23693785073E-01  0.00000000000E+00 0. -1.
     999901    1    3    3    0    0  0.22947654208E-01  0.10838033632E+00  0.41142647758E-01  0.88789954927E+00  0.88000000000E+00 0. -1.
        -11    1    4    4    0    0 -0.81974230535E-02 -0.22583266880E-01 -0.56948079843E-02  0.24696024916E-01  0.51100000000E-03 0. -1.
         11    1    4    4    0    0  0.33501296730E-02 -0.97708870302E-01 -0.45033317809E-01  0.10764064074E+00  0.51100000000E-03 0.  1.
</event>
<event>
 8    1  0.1180500E+005  0.1043930E+01  0.7957747E-01            NaN
         13   -1    0    0    0    0  0.00000000000E+00  0.00000000000E+00  0.74505805969E-08  0.10566000000E+00  0.10566000000E+00 0. -1.
     999900   -1    0    0    0    0 -0.00000000000E+00 -0.00000000000E+00 -0.74505805969E-08  0.93827000000E+00  0.93827000000E+00 0.  1.
     999902    2    1    2    0    0  0.26932794851E-02 -0.12654414670E-01 -0.19582502781E-01  0.10204595424E+01  0.10201895977E+01 0.  0.
     999903    2    3    3    0    0  0.37483060754E-02 -0.64775863390E-01  0.11025119471E+00  0.12940704815E+00  0.19516554519E-01 0.  0.
         14    1    1    2    0    0 -0.26932794851E-02  0.12654414670E-01  0.19582502781E-01  0.23470457605E-01  0.00000000000E+00 0. -1.
     999901    1    3    3    0    0 -0.10550265904E-02  0.52121448720E-01 -0.12983369749E+00  0.89105249425E+00  0.88000000000E+00 0.  1.
        -11    1    4    4    0    0  0.14080269227E-02 -0.44901203549E-01  0.91702360625E-01  0.10211603540E+00  0.51100000000E-03 0.  1.
         11    1    4    4    0    0  0.23402791527E-02 -0.19874659841E-01  0.18548834082E-01  0.27291012753E-01  0.51100000000E-03 0. -1.
</event>
<event>
 8    1  0.1180500E+005  0.1043930E+01  0.7957747E-01            NaN
         13   -1    0    0    0    0  0.00000000000E+00  0.00000000000E+00  0.74505805969E-08  0.10566000000E+00  0.10566000000E+00 0.  1.
     999900   -1    0    0    0    0 -0.00000000000E+00 -0.00000000000E+00 -0.74505805969E-08  0.93827000000E+00  0.93827000000E+00 0.  1.
     999902    2    1    2    0    0  0.10026984535E-01 -0.37346217534E-02 -0.20868021468E-01  0.10204787284E+01  0.10202092300E+01 0.  0.
     999903    2    3    3    0    0 -0.36581687078E-01  0.10379299765E+00 -0.68800797784E-01  0.13141624004E+00  0.20626977018E-01 0.  0.
         14    1    1    2    0    0 -0.10026984535E-01  0.37346217534E-02  0.20868021468E-01  0.23451271575E-01  0.00000000000E+00 0.  1.
     999901    1    3    3    0    0  0.46608671613E-01 -0.10752761940E+00  0.47932776316E-01  0.88906248838E+00  0.88000000000E+00 0. -1.
        -11    1    4    4    0    0 -0.76741708198E-02  0.41586070328E-01 -0.17552378466E-01  0.45789095360E-01  0.51100000000E-03 0.  1.
         11    1    4    4    0    0 -0.28907516259E-01  0.62206927321E-01 -0.51248419318E-01  0.85627144683E-01  0.51100000000E-03 0. -1.
</event>
<event>
 8    1  0.1180500E+005  0.1043930E+01  0.7957747E-01            NaN
         13   -1    0    0    0    0  0.00000000000E+00  0.00000000000E+00  0.74505805969E-08  0.10566000000E+00  0.10566000000E+00 0. -1.
     999900   -1    0    0    0    0 -0.00000000000E+00 -0.00000000000E+00 -0.74505805969E-08  0.93827000000E+00  0.93827000000E+00 0.  1.
     999902    2    1    2    0    0 -0.93315780951E-03 -0.17072390358E-01  0.14714486870E-01  0.10213722204E+01  0.10211230872E+01 0.  0.
     999903    2    3    3    0    0 -0.59301464927E-01  0.11296118525E+00  0.13004379351E-01  0.12990235860E+00  0.20703037728E-01 0.  0.
         14    1    1    2    0    0  0.93315780951E-03  0.17072390358E-01 -0.14714486870E-01  0.22557779587E-01  0.00000000000E+00 0. -1.
     999901    1    3    3    0    0  0.58368307117E-01 -0.13003357561E+00  0.17101075190E-02  0.89146986182E+00  0.88000000000E+00 0.  1.
        -11    1    4    4    0    0 -0.33917166475E-01  0.81734185886E-01  0.14267976588E-01  0.89636418943E-01  0.51100000000E-03 0. -1.
         11    1    4    4    0    0 -0.25384298452E-01  0.31226999363E-01 -0.12635972366E-02  0.40265939653E-01  0.51100000000E-03 0.  1.
</event>
<event>
 8    1  0.1180500E+005  0.1043930E+01  0.7957747E-01            NaN
         13   -1    0    0    0    0  0.00000000000E+00  0.00000000000E+00  0.74505805969E-08  0.10566000000E+00  0.10566000000E+00 0. -1.
     999900   -1    0    0    0    0 -0.00000000000E+00 -0.00000000000E+00 -0.74505805969E-08  0.93827000000E+00  0.93827000000E+00 0.  1.
     999902    2    1    2    0    0 -0.42974307570E-02  0.20975168457E-01 -0.10519204060E-01  0.10200746179E+01  0.10197956397E+01 0.  0.
     999903    2    3    3    0    0  0.87145551934E-01  0.97098612880E-01  0.24241898657E-02  0.13197319949E+00  0.19711946655E-01 0.  0.
         14    1    1    2    0    0  0.42974307570E-02 -0.20975168457E-01  0.10519204060E-01  0.23855382138E-01  0.00000000000E+00 0. -1.
     999901    1    3    3    0    0 -0.91442982691E-01 -0.76123444423E-01 -0.12943393925E-01  0.88810141838E+00  0.88000000000E+00 0. -1.
        -11    1    4    4    0    0  0.62000342505E-01  0.79805721062E-01 -0.23058201368E-02  0.10108696015E+00  0.51100000000E-03 0. -1.
         11    1    4    4    0    0  0.25145209429E-01  0.17292891818E-01  0.47300100026E-02  0.30886239335E-01  0.51100000000E-03 0.  1.
</event>
<event>
 8    1  0.1180500E+005  0.1043930E+01  0.7957747E-01            NaN
         13   -1    0    0    0    0  0.00000000000E+00  0.00000000000E+00  0.74505805969E-08  0.10566000000E+00  0.10566000000E+00 0.  1.
     999900   -1    0    0    0    0 -0.00000000000E+00 -0.00000000000E+00 -0.74505805969E-08  0.93827000000E+00  0.93827000000E+00 0.  1.
     999902    2    1    2    0    0 -0.17059691583E-01  0.14994082279E-01  0.37032629004E-02  0.10209176178E+01  0.10206582251E+01 0.  0.
     999903    2    3    3    0    0  0.54389430250E-01 -0.40053991993E-01 -0.10840093172E+00  0.12923234932E+00  0.19690244193E-01 0.  0.
         14    1    1    2    0    0  0.17059691583E-01 -0.14994082279E-01 -0.37032629004E-02  0.23012382242E-01  0.00000000000E+00 0. -1.
     999901    1    3    3    0    0 -0.71449121833E-01  0.55048074273E-01  0.11210419462E+00  0.89168526843E+00  0.88000000000E+00 0. -1.
        -11    1    4    4    0    0  0.53359737471E-01 -0.40889794006E-01 -0.98653125574E-01  0.11938147739E+00  0.51100000000E-03 0. -1.
         11    1    4    4    0    0  0.10296927786E-02  0.83580201280E-03 -0.97478061468E-02  0.98508719360E-02  0.51100000000E-03 0.  1.
</event>
<event>
 8    1  0.1180500E+005  0.1043930E+01  0.7957747E-01            NaN
         13   -1    0    0    0    0  0.00000000000E+00  0.00000000000E+00  0.74505805969E-08  0.10566000000E+00  0.10566000000E+00 0. -1.
     999900   -1    0    0    0    0 -0.00000000000E+00 -0.00000000000E+00 -0.74505805969E-08  0.93827000000E+00  0.93827000000E+00 0. -1.
     999902    2    1    2    0    0 -0.16993610418E-01  0.15744260414E-01 -0.58338442060E-02  0.10200407081E+01  0.10197609268E+01 0.  0.
     999903    2    3    3    0    0  0.27004667529E-01 -0.12031160381E+00 -0.28257873049E-01  0.12821679959E+00  0.20902302005E-01 0.  0.
         14    1    1    2    0    0  0.16993610418E-01 -0.15744260414E-01  0.58338442060E-02  0.23889291937E-01  0.00000000000E+00 0. -1.
     999901    1    3    3    0    0 -0.43998277947E-01  0.13605586422E+00  0.22424028843E-01  0.89182390847E+00  0.88000000000E+00 0.  1.
        -11    1    4    4    0    0  0.28910637346E-01 -0.86756823072E-01 -0.21047684857E-01  0.93839423806E-01  0.51100000000E-03 0. -1.
         11    1    4    4    0    0 -0.19059698173E-02 -0.33554780736E-01 -0.72101881921E-02  0.34377375786E-01  0.51100000000E-03 0.  1.
</event>
<event>
 8    1  0.1180500E+005  0.1043930E+01  0.7957747E-01            NaN
         13   -1    0    0    0    0  0.00000000000E+00  0.00000000000E+00  0.74505805969E-08  0.10566000000E+00  0.10566000000E+00 0.  1.
     999900   -1    0    0    0    0 -0.00000000000E+00 -0.00000000000E+00 -0.74505805969E-08  0.93827000000E+00  0.93827000000E+00 0. -1.
     999902    2    1    2    0    0  0.33143679660E-02 -0.78395138530E-02  0.17129824335E-01  0.10248021696E+01  0.10246236446E+01 0.  0.
     999903    2    3    3    0    0 -0.40415121733E-01  0.12493645717E+00  0.10882650549E-01  0.13374619276E+00  0.22958911149E-01 0.  0.
         14    1    1    2    0    0 -0.33143679660E-02  0.78395138530E-02 -0.17129824335E-01  0.19127830358E-01  0.00000000000E+00 0. -1.
     999901    1    3    3    0    0  0.43729489699E-01 -0.13277597102E+00  0.62471737853E-02  0.89105597688E+00  0.88000000000E+00 0.  1.
        -11    1    4    4    0    0 -0.29884109112E-01  0.55732312913E-01  0.31766844674E-02  0.63320637435E-01  0.51100000000E-03 0. -1.
         11    1    4    4    0    0 -0.10531012622E-01  0.69204144256E-01  0.77059660821E-02  0.70425555328E-01  0.51100000000E-03 0.  1.
</event>
<event>
 8    1  0.1180500E+005  0.1043930E+01  0.7957747E-01            NaN
         13   -1    0    0    0    0  0.00000000000E+00  0.00000000000E+00  0.74505805969E-08  0.10566000000E+00  0.10566000000E+00 0.  1.
     999900   -1    0    0    0    0 -0.00000000000E+00 -0.00000000000E+00 -0.74505805969E-08  0.93827000000E+00  0.93827000000E+00 0. -1.
     999902    2    1    2    0    0 -0.13441938991E-01  0.18261801509E-01  0.80849067728E-02  0.10198562625E+01  0.10195720923E+01 0.  0.
     999903    2    3    3    0    0  0.10878898887E+00  0.53679715895E-01  0.41908776002E-01  0.13005916065E+00  0.21035298088E-01 0.  0.
         14    1    1    2    0    0  0.13441938991E-01 -0.18261801509E-01 -0.80849067728E-02  0.24073737469E-01  0.00000000000E+00 0. -1.
     999901    1    3    3    0    0 -0.12223092786E+00 -0.35417914386E-01 -0.33823869229E-01  0.88979710188E+00  0.88000000000E+00 0. -1.
        -11    1    4    4    0    0  0.24206377017E-01  0.48136138824E-02  0.14382641492E-01  0.28569932870E-01  0.51100000000E-03 0.  1.
         11    1    4    4    0    0  0.84582611852E-01  0.48866102013E-01  0.27526134509E-01  0.10148922778E+00  0.51100000000E-03 0. -1.
</event>
<event>
 8    1  0.1355519E+005  0.1043930E+01  0.7957747E-01            NaN
         13   -1    0    0    0    0  0.00000000000E+00  0.00000000000E+00  0.74505805969E-08  0.10566000000E+00  0.10566000000E+00 0. -1.
     999900   -1    0    0    0    0 -0.00000000000E+00 -0.00000000000E+00 -0.74505805969E-08  0.93827000000E+00  0.93827000000E+00 0.  1.
     999902    2    1    2    0    0  0.16887265349E-01  0.97719503313E-02 -0.14866209447E-01  0.10194009371E+01  0.10191057823E+01 0.  0.
     999903    2    3    3    0    0  0.51749304463E-02  0.12916340157E+00  0.63595902843E-02  0.13100798799E+00  0.20314633133E-01 0.  0.
         14    1    1    2    0    0 -0.16887265349E-01 -0.97719503313E-02  0.14866209447E-01  0.24529062917E-01  0.00000000000E+00 0. -1.
     999901    1    3    3    0    0  0.11712334903E-01 -0.11939145124E+00 -0.21225799731E-01  0.88839294909E+00  0.88000000000E+00 0.  1.
        -11    1    4    4    0    0 -0.78347916153E-02  0.47587152278E-01  0.32795368828E-02  0.48341881478E-01  0.51100000000E-03 0. -1.
         11    1    4    4    0    0  0.13009722062E-01  0.81576249292E-01  0.30800534015E-02  0.82666106516E-01  0.51100000000E-03 0.  1.
</event>
<event>
 8    1  0.1180500E+005  0.1043930E+01  0.7957747E-01            NaN
         13   -1    0    0    0    0  0.00000000000E+00  0.00000000000E+00  0.74505805969E-08  0.10566000000E+00  0.10566000000E+00 0.  1.
     999900   -1    0    0    0    0 -0.00000000000E+00 -0.00000000000E+00 -0.74505805969E-08  0.93827000000E+00  0.93827000000E+00 0. -1.
     999902    2    1    2    0    0 -0.10036708366E-02 -0.10871771532E-01 -0.20392754469E-01  0.10207984802E+01  0.10205363639E+01 0.  0.
     999903    2    3    3    0    0 -0.10541038438E+00  0.59666719720E-01 -0.46768857646E-01  0.13143233551E+00  0.20387893344E-01 0.  0.
         14    1    1    2    0    0  0.10036708366E-02  0.10871771532E-01  0.20392754469E-01  0.23131519756E-01  0.00000000000E+00 0.  1.
     999901    1    3    3    0    0  0.10440671354E+00 -0.70538491252E-01  0.26376103177E-01  0.88936614473E+00  0.88000000000E+00 0.  1.
        -11    1    4    4    0    0 -0.83696564901E-01  0.41309049581E-01 -0.28340370125E-01  0.97544811514E-01  0.51100000000E-03 0. -1.
         11    1    4    4    0    0 -0.21713819478E-01  0.18357670139E-01 -0.18428487520E-01  0.33887523996E-01  0.51100000000E-03 0.  1.
</event>
<event>
 8    1  0.1180500E+005  0.1043930E+01  0.7957747E-01            NaN
         13   -1    0    0    0    0  0.00000000000E+00  0.00000000000E+00  0.74505805969E-08  0.10566000000E+00  0.10566000000E+00 0. -1.
     999900   -1    0    0    0    0 -0.00000000000E+00 -0.00000000000E+00 -0.74505805969E-08  0.93827000000E+00  0.93827000000E+00 0. -1.
     999902    2    1    2    0    0 -0.15369320659E-01  0.17999200388E-01  0.32096350367E-02  0.10200450887E+01  0.10197654112E+01 0.  0.
     999903    2    3    3    0    0 -0.11486252027E+00  0.25576998524E-01  0.55906803945E-01  0.13283975088E+00  0.25947008900E-01 0.  0.
         14    1    1    2    0    0  0.15369320659E-01 -0.17999200388E-01 -0.32096350367E-02  0.23884911329E-01  0.00000000000E+00 0.  1.
     999901    1    3    3    0    0  0.99493199610E-01 -0.75777981360E-02 -0.52697168908E-01  0.88720533779E+00  0.88000000000E+00 0. -1.
        -11    1    4    4    0    0 -0.56789572260E-01  0.19775968487E-01  0.16303187683E-01  0.62307298903E-01  0.51100000000E-03 0. -1.
         11    1    4    4    0    0 -0.58072948009E-01  0.58010300373E-02  0.39603616262E-01  0.70532451978E-01  0.51100000000E-03 0.  1.
</event>
<event>
 8    1  0.1180500E+005  0.1043930E+01  0.7957747E-01            NaN
         13   -1    0    0    0    0  0.00000000000E+00  0.00000000000E+00  0.74505805969E-08  0.10566000000E+00  0.10566000000E+00 0.  1.
     999900   -1    0    0    0    0 -0.00000000000E+00 -0.00000000000E+00 -0.74505805969E-08  0.93827000000E+00  0.93827000000E+00 0.  1.
     999902    2    1    2    0    0  0.19466801988E-01 -0.76582807702E-02  0.11476233424E-01  0.10200697909E+01  0.10197906985E+01 0.  0.
     999903    2    3    3    0    0 -0.10960191330E+00 -0.58968053738E-01 -0.27032177302E-01  0.12834431535E+00  0.15865494408E-01 0.  0.
         14    1    1    2    0    0 -0.19466801988E-01  0.76582807702E-02 -0.11476233424E-01  0.23860209085E-01  0.00000000000E+00 0. -1.
     999901    1    3    3    0    0  0.12906871529E+00  0.51309772968E-01  0.38508410726E-01  0.89172547556E+00  0.88000000000E+00 0.  1.
        -11    1    4    4    0    0 -0.35395612130E-01 -0.17448718763E-01 -0.16049091216E-01  0.42604478571E-01  0.51100000000E-03 0. -1.
         11    1    4    4    0    0 -0.74206301172E-01 -0.41519334975E-01 -0.10983086087E-01  0.85739836782E-01  0.51100000000E-03 0.  1.
</event>
<event>
 8    1  0.1180500E+005  0.1043930E+01  0.7957747E-01            NaN
         13   -1    0    0    0    0  0.00000000000E+00  0.00000000000E+00  0.74505805969E-08  0.10566000000E+00  0.10566000000E+00 0. -1.
     999900   -1    0    0    0    0 -0.00000000000E+00 -0.00000000000E+00 -0.74505805969E-08  0.93827000000E+00  0.93827000000E+00 0.  1.
     999902    2    1    2    0    0  0.52235406053E-02 -0.58530197194E-02  0.22226070628E-01  0.10203600736E+01  0.10200878091E+01 0.  0.
     999903    2    3    3    0    0  0.37041959446E-01  0.97497799878E-02 -0.12066976072E+00  0.12812967858E+00  0.19719493130E-01 0.  0.
         14    1    1    2    0    0 -0.52235406053E-02  0.58530197194E-02 -0.22226070628E-01  0.23569926428E-01  0.00000000000E+00 0.  1.
     999901    1    3    3    0    0 -0.31818418840E-01 -0.15602799707E-01  0.14289583135E+00  0.89223039500E+00  0.88000000000E+00 0. -1.
        -11    1    4    4    0    0  0.25861453535E-01  0.52455781926E-02 -0.51016669738E-01  0.57439468849E-01  0.51100000000E-03 0. -1.
         11    1    4    4    0    0  0.11180505910E-01  0.45042017953E-02 -0.69653090987E-01  0.70690209727E-01  0.51100000000E-03 0.  1.
</event>
<event>
 8    1  0.1180500E+005  0.1043930E+01  0.7957747E-01            NaN
         13   -1    0    0    0    0  0.00000000000E+00  0.00000000000E+00  0.74505805969E-08  0.10566000000E+00  0.10566000000E+00 0.  1.
     999900   -1    0    0    0    0 -0.00000000000E+00 -0.00000000000E+00 -0.74505805969E-08  0.93827000000E+00  0.93827000000E+00 0. -1.
     999902    2    1    2    0    0  0.21145364356E-01  0.96235821740E-02 -0.43907973535E-02  0.10202864201E+01  0.10200124314E+01 0.  0.
     999903    2    3    3    0    0  0.13127130798E+00 -0.12000379108E-01 -0.78319584009E-02  0.13315217959E+00  0.17087947773E-01 0.  0.
         14    1    1    2    0    0 -0.21145364356E-01 -0.96235821740E-02  0.43907973535E-02  0.23643579868E-01  0.00000000000E+00 0.  1.
     999901    1    3    3    0    0 -0.11012594362E+00  0.21623961282E-01  0.34411610474E-02  0.88713424055E+00  0.88000000000E+00 0.  1.
        -11    1    4    4    0    0  0.17632986967E-01 -0.75136601260E-02 -0.32444357783E-03  0.19176644714E-01  0.51100000000E-03 0. -1.
         11    1    4    4    0    0  0.11363832101E+00 -0.44867189819E-02 -0.75075148231E-02  0.11397553487E+00  0.51100000000E-03 0.  1.
</event>
<event>
 8    1  0.1180500E+005  0.1043930E+01  0.7957747E-01            NaN
         13   -1    0    0    0    0  0.00000000000E+00  0.00000000000E+00  0.74505805969E-08  0.10566000000E+00  0.10566000000E+00 0.  1.
     999900   -1    0    0    0    0 -0.00000000000E+00 -0.00000000000E+00 -0.74505805969E-08  0.93827000000E+00  0.93827000000E+00 0.  1.
     999902    2    1    2    0    0 -0.51033094383E-02 -0.34290171231E-02  0.22286611489E-01  0.10208108526E+01  0.10205490198E+01 0.  0.
     999903    2    3    3    0    0 -0.20682227017E-01 -0.68688155278E-01  0.11117988849E+00  0.13379142073E+00  0.19833291871E-01 0.  0.
         14    1    1    2    0    0  0.51033094383E-02  0.34290171231E-02 -0.22286611489E-01  0.23119147417E-01  0.00000000000E+00 0. -1.
     999901    1    3    3    0    0  0.15578917578E-01  0.65259138155E-01 -0.88893277003E-01  0.88701943185E+00  0.88000000000E+00 0.  1.
        -11    1    4    4    0    0 -0.19315831069E-01 -0.32557748135E-01  0.49877332333E-01  0.62618828599E-01  0.51100000000E-03 0. -1.
         11    1    4    4    0    0 -0.13663959480E-02 -0.36130407142E-01  0.61302556159E-01  0.71172592132E-01  0.51100000000E-03 0.  1.
</event>
<event>
 8    1  0.1180500E+005  0.1043930E+01  0.7957747E-01            NaN
         13   -1    0    0    0    0  0.00000000000E+00  0.00000000000E+00  0.74505805969E-08  0.10566000000E+00  0.10566000000E+00 0. -1.
     999900   -1    0    0    0    0 -0.00000000000E+00 -0.00000000000E+00 -0.74505805969E-08  0.93827000000E+00  0.93827000000E+00 0.  1.
     999902    2    1    2    0    0 -0.21866095881E-01  0.13096226943E-01  0.96213393078E-02  0.10166865149E+01  0.10163214364E+01 0.  0.
     999903    2    3    3    0    0 -0.11461027761E+00  0.25260355832E-01 -0.51281705678E-01  0.12963599203E+00  0.20051827360E-01 0.  0.
         14    1    1    2    0    0  0.21866095881E-01 -0.13096226943E-01 -0.96213393078E-02  0.27243485080E-01  0.00000000000E+00 0. -1.
     999901    1    3    3    0    0  0.92744181732E-01 -0.12164128889E-01  0.60903044986E-01  0.88705052289E+00  0.88000000000E+00 0. -1.
        -11    1    4    4    0    0 -0.81116530753E-01  0.12564091958E-01 -0.43800023127E-01  0.93040051134E-01  0.51100000000E-03 0. -1.
         11    1    4    4    0    0 -0.33493746859E-01  0.12696263875E-01 -0.74816825509E-02  0.36595940893E-01  0.51100000000E-03 0.  1.
</event>
<event>
 8    1  0.1180500E+005  0.1043930E+01  0.7957747E-01            NaN
         13   -1    0    0    0    0  0.00000000000E+00  0.00000000000E+00  0.74505805969E-08  0.10566000000E+00  0.10566000000E+00 0. -1.
     999900   -1    0    0    0    0 -0.00000000000E+00 -0.00000000000E+00 -0.74505805969E-08  0.93827000000E+00  0.93827000000E+00 0. -1.
     999902    2    1    2    0    0  0.21786410158E-01  0.26167219420E-02  0.82126338942E-02  0.10205004832E+01  0.10202314904E+01 0.  0.
     999903    2    3    3    0    0  0.17694877821E-02  0.10461415498E+00 -0.75474529999E-01  0.13043998250E+00  0.19259591064E-01 0.  0.
         14    1    1    2    0    0 -0.21786410158E-01 -0.26167219420E-02 -0.82126338942E-02  0.23429516785E-01  0.00000000000E+00 0.  1.
     999901    1    3    3    0    0  0.20016922376E-01 -0.10199743304E+00  0.83687163893E-01  0.89006050071E+00  0.88000000000E+00 0.  1.
        -11    1    4    4    0    0  0.80022301946E-02  0.45237677392E-01 -0.40500166160E-01  0.61245471048E-01  0.51100000000E-03 0.  1.
         11    1    4    4    0    0 -0.62327424125E-02  0.59376477586E-01 -0.34974363839E-01  0.69194511455E-01  0.51100000000E-03 0. -1.
</event>
<event>
 8    1  0.1180500E+005  0.1043930E+01  0.7957747E-01            NaN
         13   -1    0    0    0    0  0.00000000000E+00  0.00000000000E+00  0.74505805969E-08  0.10566000000E+00  0.10566000000E+00 0.  1.
     999900   -1    0    0    0    0 -0.00000000000E+00 -0.00000000000E+00 -0.74505805969E-08  0.93827000000E+00  0.93827000000E+00 0. -1.
     999902    2    1    2    0    0  0.10135814428E-01 -0.59846265735E-02 -0.20208900683E-01  0.10205430345E+01  0.10202750291E+01 0.  0.
     999903    2    3    3    0    0  0.11665468768E+00  0.28105126377E-01 -0.52289966521E-01  0.13288455488E+00  0.22931420390E-01 0.  0.
         14    1    1    2    0    0 -0.10135814428E-01  0.59846265735E-02  0.20208900683E-01  0.23386965518E-01  0.00000000000E+00 0.  1.
     999901    1    3    3    0    0 -0.10651887325E+00 -0.34089752950E-01  0.32081065838E-01  0.88765847960E+00  0.88000000000E+00 0.  1.
        -11    1    4    4    0    0  0.48395022612E-01  0.18017125825E-01 -0.12138273955E-01  0.53049918494E-01  0.51100000000E-03 0. -1.
         11    1    4    4    0    0  0.68259665071E-01  0.10088000552E-01 -0.40151692566E-01  0.79834636391E-01  0.51100000000E-03 0.  1.
</event>
<event>
 8    1  0.1180500E+005  0.1043930E+01  0.7957747E-01            NaN
         13   -1    0    0    0    0  0.00000000000E+00  0.00000000000E+00  0.74505805969E-08  0.10566000000E+00  0.10566000000E+00 0. -1.
     999900   -1    0    0    0    0 -0.00000000000E+00 -0.00000000000E+00 -0.74505805969E-08  0.93827000000E+00  0.93827000000E+00 0. -1.
     999902    2    1    2    0    0 -0.21016013533E-01 -0.36720814014E-02 -0.97466221748E-02  0.10204746456E+01  0.10202050523E+01 0.  0.
     999903    2    3    3    0    0  0.10255931612E+00 -0.43461235640E-01 -0.62743962711E-01  0.12937265536E+00  0.19828937699E-01 0.  0.
         14    1    1    2    0    0  0.21016013533E-01  0.36720814014E-02  0.97466221748E-02  0.23455354409E-01  0.00000000000E+00 0. -1.
     999901    1    3    3    0    0 -0.12357532966E+00  0.39789154239E-01  0.52997340537E-01  0.89110199023E+00  0.88000000000E+00 0. -1.
        -11    1    4    4    0    0  0.58907663441E-01 -0.21691048081E-01 -0.45891529015E-01  0.77761866845E-01  0.51100000000E-03 0. -1.
         11    1    4    4    0    0  0.43651652683E-01 -0.21770187560E-01 -0.16852433696E-01  0.51610788512E-01  0.51100000000E-03 0.  1.
</event>
<event>
 8    1  0.1180500E+005  0.1043930E+01  0.7957747E-01            NaN
         13   -1    0    0    0    0  0.00000000000E+00  0.00000000000E+00  0.74505805969E-08  0.10566000000E+00  0.10566000000E+00 0. -1.
     999900   -1    0    0    0    0 -0.00000000000E+00 -0.00000000000E+00 -0.74505805969E-08  0.93827000000E+00  0.93827000000E+00 0.  1.
     999902    2    1    2    0    0 -0.26582739845E-02  0.49766955584E-02 -0.23023039457E-01  0.10202256910E+01  0.10199502764E+01 0.  0.
     999903    2    3    3    0    0  0.57690797219E-01  0.11539979524E+00  0.64092146201E-02  0.13078680669E+00  0.20463869358E-01 0.  0.
         14    1    1    2    0    0  0.26582739845E-02 -0.49766955584E-02  0.23023039457E-01  0.23704308999E-01  0.00000000000E+00 0. -1.
     999901    1    3    3    0    0 -0.60349071203E-01 -0.11042309968E+00 -0.29432254077E-01  0.88943888431E+00  0.88000000000E+00 0.  1.
        -11    1    4    4    0    0  0.34999267300E-01  0.61360637285E-01  0.12919804898E-01  0.71814058507E-01  0.51100000000E-03 0.  1.
         11    1    4    4    0    0  0.22691529919E-01  0.54039157950E-01 -0.65105902780E-02  0.58972748188E-01  0.51100000000E-03 0. -1.
</event>
<event>
 8    1  0.1180500E+005  0.1043930E+01  0.7957747E-01            NaN
         13   -1    0    0    0    0  0.00000000000E+00  0.00000000000E+00  0.74505805969E-08  0.10566000000E+00  0.10566000000E+00 0.  1.
     999900   -1    0    0    0    0 -0.00000000000E+00 -0.00000000000E+00 -0.74505805969E-08  0.93827000000E+00  0.93827000000E+00 0. -1.
     999902    2    1    2    0    0 -0.10985587685E-01 -0.19560404892E-01  0.59372831010E-03  0.10214879616E+01  0.10212414066E+01 0.  0.
     999903    2    3    3    0    0  0.99027010225E-01 -0.64248708084E-01  0.55039761784E-01  0.13184523174E+00  0.20482785748E-01 0.  0.
         14    1    1    2    0    0  0.10985587685E-01  0.19560404892E-01 -0.59372831010E-03  0.22442038447E-01  0.00000000000E+00 0. -1.
     999901    1    3    3    0    0 -0.11001259791E+00  0.44688303192E-01 -0.54446033474E-01  0.88964272981E+00  0.88000000000E+00 0. -1.
        -11    1    4    4    0    0  0.47353920425E-01 -0.40850359083E-01  0.35093871668E-01  0.71714618917E-01  0.51100000000E-03 0.  1.
         11    1    4    4    0    0  0.51673089800E-01 -0.23398349001E-01  0.19945890116E-01  0.60130612827E-01  0.51100000000E-03 0. -1.
</event>
<event>
 8    1  0.1180500E+005  0.1043930E+01  0.7957747E-01            NaN
         13   -1    0    0    0    0  0.00000000000E+00  0.00000000000E+00  0.74505805969E-08  0.10566000000E+00  0.10566000000E+00 0. -1.
     999900   -1    0    0    0    0 -0.00000000000E+00 -0.00000000000E+00 -0.74505805969E-08  0.93827000000E+00  0.93827000000E+00 0.  1.
     999902    2    1    2    0    0  0.16692385187E-01 -0.11882046069E-01 -0.11251238634E-01  0.10205546045E+01  0.10202868674E+01 0.  0.
     999903    2    3    3    0    0 -0.10503627737E+00 -0.40109399267E-02 -0.73659753537E-01  0.12995107640E+00  0.20317868090E-01 0.  0.
         14    1    1    2    0    0 -0.16692385187E-01  0.11882046069E-01  0.11251238634E-01  0.23375395458E-01  0.00000000000E+00 0. -1.
     999901    1    3    3    0    0  0.12172866256E+00 -0.78711061427E-02  0.62408514903E-01  0.89060352814E+00  0.88000000000E+00 0. -1.
        -11    1    4    4    0    0 -0.60522427062E-01 -0.39449361971E-02 -0.30271004366E-01  0.67787325699E-01  0.51100000000E-03 0. -1.
         11    1    4    4    0    0 -0.44513850311E-01 -0.66003729571E-04 -0.43388749171E-01  0.62163750704E-01  0.51100000000E-03 0.  1.
</event>
<event>
 8    1  0.1180500E+005  0.1043930E+01  0.7957747E-01            NaN
         13   -1    0    0    0    0  0.00000000000E+00  0.00000000000E+00  0.74505805969E-08  0.10566000000E+00  0.10566000000E+00 0. -1.
     999900   -1    0    0    0    0 -0.00000000000E+00 -0.00000000000E+00 -0.74505805969E-08  0.93827000000E+00  0.93827000000E+00 0. -1.
     999902    2    1    2    0    0 -0.19092895686E-01 -0.25975846500E-01  0.97719826654E-03  0.10116772763E+01  0.10111630300E+01 0.  0.
     999903    2    3    3    0    0 -0.10833223341E-01  0.22060775103E-02 -0.12015769818E+00  0.12289377843E+00  0.23297700265E-01 0.  0.
         14    1    1    2    0    0  0.19092895686E-01  0.25975846500E-01 -0.97719826654E-03  0.32252723660E-01  0.00000000000E+00 0.  1.
     999901    1    3    3    0    0 -0.82596723448E-02 -0.28181924010E-01  0.12113489645E+00  0.88878349791E+00  0.88000000000E+00 0.  1.
        -11    1    4    4    0    0 -0.22549532151E-04 -0.71034426768E-02 -0.13300627158E-01  0.15087319515E-01  0.51100000000E-03 0. -1.
         11    1    4    4    0    0 -0.10810673809E-01  0.93095201871E-02 -0.10685707102E+00  0.10780645891E+00  0.51100000000E-03 0.  1.
</event>
<event>
 8    1  0.1180500E+005  0.1043930E+01  0.7957747E-01            NaN
         13   -1    0    0    0    0  0.00000000000E+00  0.00000000000E+00  0.74505805969E-08  0.10566000000E+00  0.10566000000E+00 0. -1.
     999900   -1    0    0    0    0 -0.00000000000E+00 -0.00000000000E+00 -0.74505805969E-08  0.93827000000E+00  0.93827000000E+00 0. -1.
     999902    2    1    2    0    0 -0.17192927554E-01  0.86671347122E-02  0.15125625939E-02  0.10246166930E+01  0.10244346557E+01 0.  0.
     999903    2    3    3    0    0 -0.84514616659E-01  0.57607973118E-01  0.88079922773E-01  0.13646055619E+00  0.20050227041E-01 0.  0.
         14    1    1    2    0    0  0.17192927554E-01 -0.86671347122E-02 -0.15125625939E-02  0.19313307008E-01  0.00000000000E+00 0.  1.
     999901    1    3    3    0    0  0.67321689105E-01 -0.48940838406E-01 -0.86567360179E-01  0.88815613680E+00  0.88000000000E+00 0. -1.
        -11    1    4    4    0    0 -0.10017921531E-01  0.14814426305E-01  0.20062187014E-01  0.26880819320E-01  0.51100000000E-03 0. -1.
         11    1    4    4    0    0 -0.74496695128E-01  0.42793546814E-01  0.68017735759E-01  0.10957973687E+00  0.51100000000E-03 0.  1.
</event>
<event>
 8    1  0.1180500E+005  0.1043930E+01  0.7957747E-01            NaN
         13   -1    0    0    0    0  0.00000000000E+00  0.00000000000E+00  0.74505805969E-08  0.10566000000E+00  0.10566000000E+00 0.  1.
     999900   -1    0    0    0    0 -0.00000000000E+00 -0.00000000000E+00 -0.74505805969E-08  0.93827000000E+00  0.93827000000E+00 0. -1.
     999902    2    1    2    0    0 -0.19988618291E-01  0.78165077606E-02  0.75144786598E-02  0.10211899463E+01  0.10209367249E+01 0.  0.
     999903    2    3    3    0    0  0.65812220463E-01  0.10863523165E+00 -0.23277811334E-01  0.13075501649E+00  0.20546433236E-01 0.  0.
         14    1    1    2    0    0  0.19988618291E-01 -0.78165077606E-02 -0.75144786598E-02  0.22740053744E-01  0.00000000000E+00 0. -1.
     999901    1    3    3    0    0 -0.85800838754E-01 -0.10081872389E+00  0.30792289994E-01  0.89043492976E+00  0.88000000000E+00 0. -1.
        -11    1    4    4    0    0  0.69627462839E-02  0.24477306534E-01 -0.93703638968E-02  0.27123480816E-01  0.51100000000E-03 0. -1.
         11    1    4    4    0    0  0.58849474179E-01  0.84157925120E-01 -0.13907447438E-01  0.10363153568E+00  0.51100000000E-03 0.  1.
</event>
<event>
 8    1  0.1180500E+005  0.1043930E+01  0.7957747E-01            NaN
         13   -1    0    0    0    0  0.00000000000E+00  0.00000000000E+00  0.74505805969E-08  0.10566000000E+00  0.10566000000E+00 0. -1.
     999900   -1    0    0    0    0 -0.00000000000E+00 -0.00000000000E+00 -0.74505805969E-08  0.93827000000E+00  0.93827000000E+00 0.  1.
     999902    2    1    2    0    0  0.53874428850E-02  0.22708353862E-01 -0.34581123432E-02  0.10203365175E+01  0.10200637022E+01 0.  0.
     999903    2    3    3    0    0  0.12753575499E-01 -0.11916161881E+00 -0.40584339638E-01  0.12817077851E+00  0.20457633144E-01 0.  0.
         14    1    1    2    0    0 -0.53874428850E-02 -0.22708353862E-01  0.34581123432E-02  0.23593482510E-01  0.00000000000E+00 0. -1.
     999901    1    3    3    0    0 -0.73661326136E-02  0.14186997268E+00  0.37126227295E-01  0.89216573898E+00  0.88000000000E+00 0.  1.
        -11    1    4    4    0    0 -0.21050263736E-02 -0.66695131286E-01 -0.17749446744E-01  0.69050529715E-01  0.51100000000E-03 0.  1.
         11    1    4    4    0    0  0.14858601872E-01 -0.52466487528E-01 -0.22834892894E-01  0.59120248795E-01  0.51100000000E-03 0. -1.
</event>
<event>
 8    1  0.1180500E+005  0.1043930E+01  0.7957747E-01            NaN
         13   -1    0    0    0    0  0.00000000000E+00  0.00000000000E+00  0.74505805969E-08  0.10566000000E+00  0.10566000000E+00 0. -1.
     999900   -1    0    0    0    0 -0.00000000000E+00 -0.00000000000E+00 -0.74505805969E-08  0.93827000000E+00  0.93827000000E+00 0.  1.
     999902    2    1    2    0    0 -0.17157438118E-01 -0.74229475893E-02 -0.13912081939E-01  0.10206271277E+01  0.10203610684E+01 0.  0.
     999903    2    3    3    0    0  0.41687005485E-01 -0.29217375415E-01  0.11658487734E+00  0.12879355465E+00  0.20106830768E-01 0.  0.
         14    1    1    2    0    0  0.17157438118E-01  0.74229475893E-02  0.13912081939E-01  0.23302872303E-01  0.00000000000E+00 0. -1.
     999901    1    3    3    0    0 -0.58844443602E-01  0.21794427826E-01 -0.13049695928E+00  0.89183357304E+00  0.88000000000E+00 0.  1.
        -11    1    4    4    0    0  0.24060398769E-01 -0.84423248260E-02  0.39345417676E-01  0.46888150427E-01  0.51100000000E-03 0.  1.
         11    1    4    4    0    0  0.17626606715E-01 -0.20775050589E-01  0.77239459664E-01  0.81905404226E-01  0.51100000000E-03 0. -1.
</event>
<event>
 8    1  0.1180500E+005  0.1043930E+01  0.7957747E-01            NaN
         13   -1    0    0    0    0  0.00000000000E+00  0.00000000000E+00  0.74505805969E-08  0.10566000000E+00  0.10566000000E+00 0. -1.
     999900   -1    0    0    0    0 -0.00000000000E+00 -0.00000000000E+00 -0.74505805969E-08  0.93827000000E+00  0.93827000000E+00 0.  1.
     999902    2    1    2    0    0  0.18392541062E-01 -0.16117090369E-02 -0.13323337193E-01  0.10211617219E+01  0.10209078645E+01 0.  0.
     999903    2    3    3    0    0  0.11773406286E+00  0.16101322847E-01 -0.58983823962E-01  0.13421901266E+00  0.20373750694E-01 0.  0.
         14    1    1    2    0    0 -0.18392541062E-01  0.16117090369E-02  0.13323337193E-01  0.22768278080E-01  0.00000000000E+00 0.  1.
     999901    1    3    3    0    0 -0.99341521793E-01 -0.17713031884E-01  0.45660486769E-01  0.88694270926E+00  0.88000000000E+00 0.  1.
        -11    1    4    4    0    0  0.49416796308E-01  0.16727661694E-01 -0.23308415300E-01  0.57143484037E-01  0.51100000000E-03 0.  1.
         11    1    4    4    0    0  0.68317266548E-01 -0.62633884676E-03 -0.35675408662E-01  0.77075528627E-01  0.51100000000E-03 0. -1.
</event>
<event>
 7    1  0.1180500E+005  0.1043930E+01  0.7957747E-01            NaN
         13   -1    0    0    0    0  0.00000000000E+00  0.00000000000E+00  0.74505805969E-08  0.10566000000E+00  0.10566000000E+00 0.  1.
     999900   -1    0    0    0    0 -0.00000000000E+00 -0.00000000000E+00 -0.74505805969E-08  0.93827000000E+00  0.93827000000E+00 0.  1.
     999903    2    1    2    0    0 -0.21038944606E-01  0.62889567178E-01 -0.84070904248E-01  0.10870453354E+00  0.18735629748E-01 0.  0.
         14    1    1    2    0    0 -0.45359284939E-01 -0.14065028780E-01  0.72834843160E-02  0.48045175705E-01  0.00000000000E+00 0. -1.
     999901    1    1    2    0    0  0.66398229545E-01 -0.48824538398E-01  0.76787419932E-01  0.88718029075E+00  0.88000000000E+00 0.  1.
        -11    1    3    3    0    0 -0.24234020645E-01  0.55049657439E-01 -0.70186603828E-01  0.92434695968E-01  0.51100000000E-03 0. -1.
         11    1    3    3    0    0  0.31950760389E-02  0.78399097387E-02 -0.13884300421E-01  0.16269837577E-01  0.51100000000E-03 0.  1.
</event>
<event>
 8    1  0.1180500E+005  0.1043930E+01  0.7957747E-01            NaN
         13   -1    0    0    0    0  0.00000000000E+00  0.00000000000E+00  0.74505805969E-08  0.10566000000E+00  0.10566000000E+00 0.  1.
     999900   -1    0    0    0    0 -0.00000000000E+00 -0.00000000000E+00 -0.74505805969E-08  0.93827000000E+00  0.93827000000E+00 0.  1.
     999902    2    1    2    0    0 -0.10293929875E-01  0.11828277786E-01 -0.17181080337E-01  0.10206692462E+01  0.10204041588E+01 0.  0.
     999903    2    3    3    0    0  0.70913541969E-01  0.52645354071E-02  0.10518748106E+00  0.12847431173E+00  0.19616239088E-01 0.  0.
         14    1    1    2    0    0  0.10293929875E-01 -0.11828277786E-01  0.17181080337E-01  0.23260753840E-01  0.00000000000E+00 0.  1.
     999901    1    3    3    0    0 -0.81207471844E-01  0.65637423793E-02 -0.12236856140E+00  0.89219493443E+00  0.88000000000E+00 0.  1.
        -11    1    4    4    0    0  0.19886610221E-01  0.79730074025E-02  0.21088802369E-01  0.30067338085E-01  0.51100000000E-03 0. -1.
         11    1    4    4    0    0  0.51026931748E-01 -0.27084719954E-02  0.84098678691E-01  0.98406973649E-01  0.51100000000E-03 0.  1.
</event>
<event>
 8    1  0.1180500E+005  0.1043930E+01  0.7957747E-01            NaN
         13   -1    0    0    0    0  0.00000000000E+00  0.00000000000E+00  0.74505805969E-08  0.10566000000E+00  0.10566000000E+00 0. -1.
     999900   -1    0    0    0    0 -0.00000000000E+00 -0.00000000000E+00 -0.74505805969E-08  0.93827000000E+00  0.93827000000E+00 0.  1.
     999902    2    1    2    0    0  0.16347988012E-01 -0.28781190601E-01  0.18510730092E-02  0.10107782261E+01  0.10102344194E+01 0.  0.
     999903    2    3    3    0    0  0.45868627298E-01 -0.10025013300E+00  0.56853575239E-01  0.12567678943E+00  0.20206589165E-01 0.  0.
         14    1    1    2    0    0 -0.16347988012E-01  0.28781190601E-01 -0.18510730092E-02  0.33151773945E-01  0.00000000000E+00 0. -1.
     999901    1    3    3    0    0 -0.29520639287E-01  0.71468942401E-01 -0.55002502230E-01  0.88510143663E+00  0.88000000000E+00 0.  1.
        -11    1    4    4    0    0  0.28539562744E-01 -0.44209011463E-01  0.34376345840E-01  0.62856484236E-01  0.51100000000E-03 0.  1.
         11    1    4    4    0    0  0.17329064554E-01 -0.56041121539E-01  0.22477229399E-01  0.62820305190E-01  0.51100000000E-03 0. -1.
</event>
<event>
 8    1  0.1180500E+005  0.1043930E+01  0.7957747E-01            NaN
         13   -1    0    0    0    0  0.00000000000E+00  0.00000000000E+00  0.74505805969E-08  0.10566000000E+00  0.10566000000E+00 0. -1.
     999900   -1    0    0    0    0 -0.00000000000E+00 -0.00000000000E+00 -0.74505805969E-08  0.93827000000E+00  0.93827000000E+00 0.  1.
     999902    2    1    2    0    0  0.12444808319E-02 -0.10423773611E-01  0.20399084726E-01  0.10209881943E+01  0.10207304084E+01 0.  0.
     999903    2    3    3    0    0 -0.17964686963E-01  0.11106753358E+00  0.64726847817E-01  0.13132866373E+00  0.19973134331E-01 0.  0.
         14    1    1    2    0    0 -0.12444808319E-02  0.10423773611E-01 -0.20399084726E-01  0.22941805650E-01  0.00000000000E+00 0.  1.
     999901    1    3    3    0    0  0.19209167795E-01 -0.12149130719E+00 -0.44327763091E-01  0.88965953062E+00  0.88000000000E+00 0.  1.
        -11    1    4    4    0    0 -0.10302848566E-01  0.71678768036E-01  0.30474099181E-01  0.78567972595E-01  0.51100000000E-03 0.  1.
         11    1    4    4    0    0 -0.76618383966E-02  0.39388765541E-01  0.34252748636E-01  0.52760691131E-01  0.51100000000E-03 0. -1.
</event>
<event>
 8    1  0.1180500E+005  0.1043930E+01  0.7957747E-01            NaN
         13   -1    0    0    0    0  0.00000000000E+00  0.00000000000E+00  0.74505805969E-08  0.10566000000E+00  0.10566000000E+00 0. -1.
     999900   -1    0    0    0    0 -0.00000000000E+00 -0.00000000000E+00 -0.74505805969E-08  0.93827000000E+00  0.93827000000E+00 0. -1.
     999902    2    1    2    0    0  0.78987321776E-02  0.19709720745E-01  0.85345057370E-02  0.10210454889E+01  0.10207890034E+01 0.  0.
     999903    2    3    3    0    0  0.68634664531E-01  0.59813305687E-01 -0.93303939041E-01  0.13218767130E+00  0.21899924445E-01 0.  0.
         14    1    1    2    0    0 -0.78987321776E-02 -0.19709720745E-01 -0.85345057370E-02  0.22884511138E-01  0.00000000000E+00 0. -1.
     999901    1    3    3    0    0 -0.60735932354E-01 -0.40103584942E-01  0.10183844478E+00  0.88885781756E+00  0.88000000000E+00 0.  1.
        -11    1    4    4    0    0  0.60002487149E-01  0.47611896069E-01 -0.66245501905E-01  0.10127151009E+00  0.51100000000E-03 0. -1.
         11    1    4    4    0    0  0.86321773829E-02  0.12201409618E-01 -0.27058437136E-01  0.30916161216E-01  0.51100000000E-03 0.  1.
</event>
<event>
 8    1  0.1180500E+005  0.1043930E+01  0.7957747E-01            NaN
         13   -1    0    0    0    0  0.00000000000E+00  0.00000000000E+00  0.74505805969E-08  0.10566000000E+00  0.10566000000E+00 0. -1.
     999900   -1    0    0    0    0 -0.00000000000E+00 -0.00000000000E+00 -0.74505805969E-08  0.93827000000E+00  0.93827000000E+00 0.  1.
     999902    2    1    2    0    0  0.67452230059E-02  0.97618709512E-02 -0.16985993808E-01  0.10232100545E+01  0.10230002441E+01 0.  0.
     999903    2    3    3    0    0  0.36611401157E-01  0.74470790705E-01 -0.10569719969E+00  0.13588322011E+00  0.20150883930E-01 0.  0.
         14    1    1    2    0    0 -0.67452230059E-02 -0.97618709512E-02  0.16985993808E-01  0.20719945548E-01  0.00000000000E+00 0. -1.
     999901    1    3    3    0    0 -0.29866178151E-01 -0.64708919754E-01  0.88711205880E-01  0.88732683434E+00  0.88000000000E+00 0. -1.
        -11    1    4    4    0    0  0.27868526237E-01  0.50365487998E-01 -0.57933276841E-01  0.81669228124E-01  0.51100000000E-03 0.  1.
         11    1    4    4    0    0  0.87428749200E-02  0.24105302706E-01 -0.47763922847E-01  0.54213991987E-01  0.51100000000E-03 0. -1.
</event>
<event>
 8    1  0.1180500E+005  0.1043930E+01  0.7957747E-01            NaN
         13   -1    0    0    0    0  0.00000000000E+00  0.00000000000E+00  0.74505805969E-08  0.10566000000E+00  0.10566000000E+00 0. -1.
     999900   -1    0    0    0    0 -0.00000000000E+00 -0.00000000000E+00 -0.74505805969E-08  0.93827000000E+00  0.93827000000E+00 0.  1.
     999902    2    1    2    0    0  0.14015077302E-01 -0.94453963440E-02 -0.17182533736E-01  0.10198286023E+01  0.10195437709E+01 0.  0.
     999903    2    3    3    0    0  0.85077838435E-01 -0.97814645877E-01 -0.13765536772E-01  0.13254583109E+00  0.23936662153E-01 0.  0.
         14    1    1    2    0    0 -0.14015077302E-01  0.94453963440E-02  0.17182533736E-01  0.24101397667E-01  0.00000000000E+00 0.  1.
     999901    1    3    3    0    0 -0.71062761133E-01  0.88369249533E-01 -0.34169969645E-02  0.88728277125E+00  0.88000000000E+00 0.  1.
        -11    1    4    4    0    0  0.28332925407E-01 -0.47418573344E-01  0.89556505133E-03  0.55247976595E-01  0.51100000000E-03 0.  1.
         11    1    4    4    0    0  0.56744913029E-01 -0.50396072533E-01 -0.14661101823E-01  0.77297854492E-01  0.51100000000E-03 0. -1.
</event>
<event>
 8    1  0.1180500E+005  0.1043930E+01  0.7957747E-01            NaN
         13   -1    0    0    0    0  0.00000000000E+00  0.00000000000E+00  0.74505805969E-08  0.10566000000E+00  0.10566000000E+00 0.  1.
     999900   -1    0    0    0    0 -0.00000000000E+00 -0.00000000000E+00 -0.74505805969E-08  0.93827000000E+00  0.93827000000E+00 0.  1.
     999902    2    1    2    0    0  0.20251143414E-01 -0.11335518712E-01 -0.55598700624E-02  0.10200654877E+01  0.10197862934E+01 0.  0.
     999903    2    3    3    0    0 -0.71658806854E-01 -0.55955399554E-01 -0.90760001541E-01  0.13006692860E+00  0.20347891711E-01 0.  0.
         14    1    1    2    0    0 -0.20251143414E-01  0.11335518712E-01  0.55598700624E-02  0.23864512339E-01  0.00000000000E+00 0. -1.
     999901    1    3    3    0    0  0.91909950268E-01  0.44619880842E-01  0.85200131478E-01  0.88999855906E+00  0.88000000000E+00 0. -1.
        -11    1    4    4    0    0 -0.92532956256E-02 -0.14562032433E-01 -0.25152913608E-01  0.30505842923E-01  0.51100000000E-03 0. -1.
         11    1    4    4    0    0 -0.62405511228E-01 -0.41393367121E-01 -0.65607087933E-01  0.99561085678E-01  0.51100000000E-03 0.  1.
</event>
<event>
 8    1  0.1180500E+005  0.1043930E+01  0.7957747E-01            NaN
         13   -1    0    0    0    0  0.00000000000E+00  0.00000000000E+00  0.74505805969E-08  0.10566000000E+00  0.10566000000E+00 0.  1.
     999900   -1    0    0    0    0 -0.00000000000E+00 -0.00000000000E+00 -0.74505805969E-08  0.93827000000E+00  0.93827000000E+00 0. -1.
     999902    2    1    2    0    0 -0.50524745737E-02 -0.59324653820E-02  0.20937519864E-01  0.10215894230E+01  0.10213451168E+01 0.  0.
     999903    2    3    3    0    0 -0.29452432430E-01 -0.60787928783E-01 -0.10923734918E+00  0.12998975026E+00  0.20047908984E-01 0.  0.
         14    1    1    2    0    0  0.50524745737E-02  0.59324653820E-02 -0.20937519864E-01  0.22340577049E-01  0.00000000000E+00 0. -1.
     999901    1    3    3    0    0  0.24399957857E-01  0.54855463401E-01  0.13017486905E+00  0.89159967269E+00  0.88000000000E+00 0.  1.
        -11    1    4    4    0    0  0.17950707077E-03 -0.10984013098E-01 -0.28967017907E-01  0.30984351114E-01  0.51100000000E-03 0. -1.
         11    1    4    4    0    0 -0.29631939501E-01 -0.49803915685E-01 -0.80270331277E-01  0.99005399148E-01  0.51100000000E-03 0.  1.
</event>
<event>
 8    1  0.1180500E+005  0.1043930E+01  0.7957747E-01            NaN
         13   -1    0    0    0    0  0.00000000000E+00  0.00000000000E+00  0.74505805969E-08  0.10566000000E+00  0.10566000000E+00 0. -1.
     999900   -1    0    0    0    0 -0.00000000000E+00 -0.00000000000E+00 -0.74505805969E-08  0.93827000000E+00  0.93827000000E+00 0. -1.
     999902    2    1    2    0    0 -0.13808481346E-01  0.10575753297E-02 -0.19454065847E-01  0.10200500230E+01  0.10197704625E+01 0.  0.
     999903    2    3    3    0    0  0.89125625046E-01  0.75831798645E-02 -0.93504619579E-01  0.13093726398E+00  0.20014283889E-01 0.  0.
         14    1    1    2    0    0  0.13808481346E-01 -0.10575753297E-02  0.19454065847E-01  0.23879976982E-01  0.00000000000E+00 0. -1.
     999901    1    3    3    0    0 -0.10293410639E+00 -0.65256045349E-02  0.74050553732E-01  0.88911275904E+00  0.88000000000E+00 0.  1.
        -11    1    4    4    0    0  0.27924469243E-01  0.58615330351E-02 -0.42793551718E-01  0.51436200692E-01  0.51100000000E-03 0. -1.
         11    1    4    4    0    0  0.61201155804E-01  0.17216468295E-02 -0.50711067861E-01  0.79501063289E-01  0.51100000000E-03 0.  1.
</event>
<event>
 8    1  0.1180500E+005  0.1043930E+01  0.7957747E-01            NaN
         13   -1    0    0    0    0  0.00000000000E+00  0.00000000000E+00  0.74505805969E-08  0.10566000000E+00  0.10566000000E+00 0. -1.
     999900   -1    0    0    0    0 -0.00000000000E+00 -0.00000000000E+00 -0.74505805969E-08  0.93827000000E+00  0.93827000000E+00 0. -1.
     999902    2    1    2    0    0  0.19927381290E-01 -0.39900837865E-02  0.10624859385E-01  0.10209972956E+01  0.10207397164E+01 0.  0.
     999903    2    3    3    0    0  0.10794575907E+00  0.27298435310E-01 -0.69064920842E-01  0.13247230028E+00  0.19530887842E-01 0.  0.
         14    1    1    2    0    0 -0.19927381290E-01  0.39900837865E-02 -0.10624859385E-01  0.22932704390E-01  0.00000000000E+00 0.  1.
     999901    1    3    3    0    0 -0.88018377775E-01 -0.31288519097E-01  0.79689780227E-01  0.88852499533E+00  0.88000000000E+00 0. -1.
        -11    1    4    4    0    0  0.50187649170E-01  0.19819255678E-01 -0.25181848551E-01  0.59548212755E-01  0.51100000000E-03 0.  1.
         11    1    4    4    0    0  0.57758109895E-01  0.74791796326E-02 -0.43883072291E-01  0.72924087525E-01  0.51100000000E-03 0. -1.
</event>
<event>
 8    1  0.1180500E+005  0.1043930E+01  0.7957747E-01            NaN
         13   -1    0    0    0    0  0.00000000000E+00  0.00000000000E+00  0.74505805969E-08  0.10566000000E+00  0.10566000000E+00 0.  1.
     999900   -1    0    0    0    0 -0.00000000000E+00 -0.00000000000E+00 -0.74505805969E-08  0.93827000000E+00  0.93827000000E+00 0.  1.
     999902    2    1    2    0    0 -0.25806799827E-01 -0.22561325917E-02 -0.61722880813E-02  0.10172996002E+01  0.10169509813E+01 0.  0.
     999903    2    3    3    0    0 -0.67390185356E-01  0.41518673084E-01  0.99395247407E-01  0.12893598317E+00  0.21905142161E-01 0.  0.
         14    1    1    2    0    0  0.25806799827E-01  0.22561325917E-02  0.61722880813E-02  0.26630399767E-01  0.00000000000E+00 0. -1.
     999901    1    3    3    0    0  0.41583385529E-01 -0.43774805676E-01 -0.10556753549E+00  0.88836361706E+00  0.88000000000E+00 0. -1.
        -11    1    4    4    0    0 -0.21327213008E-01  0.19920776655E-01  0.50750404672E-01  0.58545299150E-01  0.51100000000E-03 0.  1.
         11    1    4    4    0    0 -0.46062972348E-01  0.21597896428E-01  0.48644842736E-01  0.70390684024E-01  0.51100000000E-03 0. -1.
</event>
<event>
 7    1  0.1180500E+005  0.1043930E+01  0.7957747E-01            NaN
         13   -1    0    0    0    0  0.00000000000E+00  0.00000000000E+00  0.74505805969E-08  0.10566000000E+00  0.10566000000E+00 0. -1.
     999900   -1    0    0    0    0 -0.00000000000E+00 -0.00000000000E+00 -0.74505805969E-08  0.93827000000E+00  0.93827000000E+00 0. -1.
     999902    2    1    2    0    0 -0.43670899198E-02  0.34714023005E-02 -0.23187464062E-01  0.10200808785E+01  0.10198020484E+01 0.  0.
         14    1    1    2    0    0  0.43670899198E-02 -0.34714023005E-02  0.23187464062E-01  0.23849121534E-01  0.00000000000E+00 0. -1.
     999901    1    3    3    0    0 -0.11000836062E+00 -0.48614915288E-01 -0.13463018119E-01  0.88828289540E+00  0.88000000000E+00 0. -1.
        -11    1    3    3    0    0  0.69125271966E-01  0.49857245282E-01  0.16460380536E-01  0.86805837245E-01  0.51100000000E-03 0.  1.
         11    1    3    3    0    0  0.36515998739E-01  0.22290723058E-02 -0.26184826479E-01  0.44992145825E-01  0.51100000000E-03 0. -1.
</event>
<event>
 8    1  0.1180500E+005  0.1043930E+01  0.7957747E-01            NaN
         13   -1    0    0    0    0  0.00000000000E+00  0.00000000000E+00  0.74505805969E-08  0.10566000000E+00  0.10566000000E+00 0.  1.
     999900   -1    0    0    0    0 -0.00000000000E+00 -0.00000000000E+00 -0.74505805969E-08  0.93827000000E+00  0.93827000000E+00 0. -1.
     999902    2    1    2    0    0 -0.13073151357E-01  0.13399880478E-01 -0.14276697092E-01  0.10203866748E+01  0.10201150317E+01 0.  0.
     999903    2    3    3    0    0  0.15269283788E-01 -0.62043024800E-01  0.10958037378E+00  0.12806638496E+00  0.17625342157E-01 0.  0.
         14    1    1    2    0    0  0.13073151357E-01 -0.13399880478E-01  0.14276697092E-01  0.23543325234E-01  0.00000000000E+00 0.  1.
     999901    1    3    3    0    0 -0.28342435145E-01  0.75442905278E-01 -0.12385707087E+00  0.89232028980E+00  0.88000000000E+00 0. -1.
        -11    1    4    4    0    0 -0.34699548075E-02 -0.16938956786E-01  0.32397635981E-01  0.36726513332E-01  0.51100000000E-03 0.  1.
         11    1    4    4    0    0  0.18739238595E-01 -0.45104068014E-01  0.77182737799E-01  0.91339871632E-01  0.51100000000E-03 0. -1.
</event>
<event>
 8    1  0.1180500E+005  0.1043930E+01  0.7957747E-01            NaN
         13   -1    0    0    0    0  0.00000000000E+00  0.00000000000E+00  0.74505805969E-08  0.10566000000E+00  0.10566000000E+00 0.  1.
     999900   -1    0    0    0    0 -0.00000000000E+00 -0.00000000000E+00 -0.74505805969E-08  0.93827000000E+00  0.93827000000E+00 0. -1.
     999902    2    1    2    0    0  0.81194189516E-02 -0.20867859051E-01 -0.78564287854E-02  0.10201999351E+01  0.10199239146E+01 0.  0.
     999903    2    3    3    0    0 -0.10118490068E+00  0.69873402454E-01  0.29614250116E-01  0.12801976128E+00  0.19783300367E-01 0.  0.
         14    1    1    2    0    0 -0.81194189516E-02  0.20867859051E-01  0.78564287854E-02  0.23730064871E-01  0.00000000000E+00 0.  1.
     999901    1    3    3    0    0  0.10930431963E+00 -0.90741261506E-01 -0.37470678901E-01  0.89218017385E+00  0.88000000000E+00 0. -1.
        -11    1    4    4    0    0 -0.58409319962E-01  0.40128480229E-01  0.69735797882E-02  0.71209799325E-01  0.51100000000E-03 0.  1.
         11    1    4    4    0    0 -0.42775580714E-01  0.29744922226E-01  0.22640670328E-01  0.56809961957E-01  0.51100000000E-03 0. -1.
</event>
<event>
 8    1  0.1180500E+005  0.1043930E+01  0.7957747E-01            NaN
         13   -1    0    0    0    0  0.00000000000E+00  0.00000000000E+00  0.74505805969E-08  0.10566000000E+00  0.10566000000E+00 0.  1.
     999900   -1    0    0    0    0 -0.00000000000E+00 -0.00000000000E+00 -0.74505805969E-08  0.93827000000E+00  0.93827000000E+00 0. -1.
     999902    2    1    2    0    0 -0.16684690901E-01  0.70713833060E-02  0.13940645244E-01  0.10210668208E+01  0.10208108187E+01 0.  0.
     999903    2    3    3    0    0 -0.31189524785E-03  0.12934270542E+00  0.19969843605E-01  0.13244164906E+00  0.20306723774E-01 0.  0.
         14    1    1    2    0    0  0.16684690901E-01 -0.70713833060E-02 -0.13940645244E-01  0.22863179178E-01  0.00000000000E+00 0. -1.
     999901    1    3    3    0    0 -0.16372795653E-01 -0.12227132211E+00 -0.60291983607E-02  0.88862517176E+00  0.88000000000E+00 0.  1.
        -11    1    4    4    0    0  0.80267993751E-02  0.56795716843E-01  0.14752635216E-01  0.59229083454E-01  0.51100000000E-03 0. -1.
         11    1    4    4    0    0 -0.83386946229E-02  0.72546988572E-01  0.52172083887E-02  0.73212565611E-01  0.51100000000E-03 0.  1.
</event>
<event>
 8    1  0.1180500E+005  0.1043930E+01  0.7957747E-01            NaN
         13   -1    0    0    0    0  0.00000000000E+00  0.00000000000E+00  0.74505805969E-08  0.10566000000E+00  0.10566000000E+00 0. -1.
     999900   -1    0    0    0    0 -0.00000000000E+00 -0.00000000000E+00 -0.74505805969E-08  0.93827000000E+00  0.93827000000E+00 0. -1.
     999902    2    1    2    0    0 -0.14831136024E-01  0.11238857596E-01  0.13991563732E-01  0.10206482825E+01  0.10203827116E+01 0.  0.
     999903    2    3    3    0    0 -0.85829004821E-01  0.49368741144E-01  0.88154830438E-01  0.13385925709E+00  0.18523927992E-01 0.  0.
         14    1    1    2    0    0  0.14831136024E-01 -0.11238857596E-01 -0.13991563732E-01  0.23281717537E-01  0.00000000000E+00 0.  1.
     999901    1    3    3    0    0  0.70997868797E-01 -0.38129883548E-01 -0.74163266706E-01  0.88678902537E+00  0.88000000000E+00 0. -1.
        -11    1    4    4    0    0 -0.17138806110E-01  0.19440763853E-02  0.15518467039E-01  0.23207801449E-01  0.51100000000E-03 0. -1.
         11    1    4    4    0    0 -0.68690198711E-01  0.47424664759E-01  0.72636363400E-01  0.11065145564E+00  0.51100000000E-03 0.  1.
</event>
<event>
 8    1  0.1180500E+005  0.1043930E+01  0.7957747E-01            NaN
         13   -1    0    0    0    0  0.00000000000E+00  0.00000000000E+00  0.74505805969E-08  0.10566000000E+00  0.10566000000E+00 0. -1.
     999900   -1    0    0    0    0 -0.00000000000E+00 -0.00000000000E+00 -0.74505805969E-08  0.93827000000E+00  0.93827000000E+00 0. -1.
     999902    2    1    2    0    0  0.33626570999E-01 -0.31603295084E-02 -0.98380885399E-02  0.10087515699E+01  0.10081379904E+01 0.  0.
     999903    2    3    3    0    0  0.82112200906E-01  0.81435115639E-01 -0.36568166725E-01  0.12296280119E+00  0.20212077154E-01 0.  0.
         14    1    1    2    0    0 -0.33626570999E-01  0.31603295084E-02  0.98380885399E-02  0.35178430123E-01  0.00000000000E+00 0. -1.
     999901    1    3    3    0    0 -0.48485629906E-01 -0.84595445147E-01  0.26730078185E-01  0.88578876868E+00  0.88000000000E+00 0.  1.
        -11    1    4    4    0    0  0.68247969882E-01  0.71173301025E-01 -0.37931469879E-01  0.10565264644E+00  0.51100000000E-03 0.  1.
         11    1    4    4    0    0  0.13864231024E-01  0.10261814614E-01  0.13633031535E-02  0.17310154752E-01  0.51100000000E-03 0. -1.
</event>
<event>
 8    1  0.1180500E+005  0.1043930E+01  0.7957747E-01            NaN
         13   -1    0    0    0    0  0.00000000000E+00  0.00000000000E+00  0.74505805969E-08  0.10566000000E+00  0.10566000000E+00 0.  1.
     999900   -1    0    0    0    0 -0.00000000000E+00 -0.00000000000E+00 -0.74505805969E-08  0.93827000000E+00  0.93827000000E+00 0.  1.
     999902    2    1    2    0    0 -0.12677649057E-01 -0.19403442758E-01 -0.26508292031E-02  0.10206009779E+01  0.10203343142E+01 0.  0.
     999903    2    3    3    0    0 -0.12714167997E-01  0.11547770291E+00  0.51558504397E-01  0.12867520933E+00  0.20056923573E-01 0.  0.
         14    1    1    2    0    0  0.12677649057E-01  0.19403442758E-01  0.26508292031E-02  0.23329022095E-01  0.00000000000E+00 0. -1.
     999901    1    3    3    0    0  0.36518939910E-04 -0.13488114567E+00 -0.54209333600E-01  0.89192576857E+00  0.88000000000E+00 0. -1.
        -11    1    4    4    0    0 -0.15200749488E-01  0.48588079355E-01  0.24006885753E-01  0.56289039119E-01  0.51100000000E-03 0. -1.
         11    1    4    4    0    0  0.24865814914E-02  0.66889623560E-01  0.27551618644E-01  0.72386170215E-01  0.51100000000E-03 0.  1.
</event>
<event>
 8    1  0.1180500E+005  0.1043930E+01  0.7957747E-01            NaN
         13   -1    0    0    0    0  0.00000000000E+00  0.00000000000E+00  0.74505805969E-08  0.10566000000E+00  0.10566000000E+00 0.  1.
     999900   -1    0    0    0    0 -0.00000000000E+00 -0.00000000000E+00 -0.74505805969E-08  0.93827000000E+00  0.93827000000E+00 0. -1.
     999902    2    1    2    0    0 -0.22597410312E-01 -0.68415589213E-02  0.12957408454E-02  0.10202840950E+01  0.10200100517E+01 0.  0.
     999903    2    3    3    0    0 -0.64648848469E-01  0.11149846201E+00  0.54999504256E-02  0.13135757415E+00  0.24762515901E-01 0.  0.
         14    1    1    2    0    0  0.22597410312E-01  0.68415589213E-02 -0.12957408454E-02  0.23645905050E-01  0.00000000000E+00 0. -1.
     999901    1    3    3    0    0  0.42051438158E-01 -0.11834002093E+00 -0.42042095802E-02  0.88892652080E+00  0.88000000000E+00 0. -1.
        -11    1    4    4    0    0 -0.41999460617E-01  0.74659253650E-01  0.15285305270E-01  0.87016438251E-01  0.51100000000E-03 0. -1.
         11    1    4    4    0    0 -0.22649387852E-01  0.36839208356E-01 -0.97853548442E-02  0.44341135899E-01  0.51100000000E-03 0.  1.
</event>
<event>
 8    1  0.1180500E+005  0.1043930E+01  0.7957747E-01            NaN
         13   -1    0    0    0    0  0.00000000000E+00  0.00000000000E+00  0.74505805969E-08  0.10566000000E+00  0.10566000000E+00 0.  1.
     999900   -1    0    0    0    0 -0.00000000000E+00 -0.00000000000E+00 -0.74505805969E-08  0.93827000000E+00  0.93827000000E+00 0. -1.
     999902    2    1    2    0    0 -0.88696580450E-02 -0.53074869245E-03  0.21024318870E-01  0.10211051339E+01  0.10208499988E+01 0.  0.
     999903    2    3    3    0    0 -0.84604692934E-01  0.85196760651E-01 -0.48620915614E-01  0.13097286281E+00  0.19324990711E-01 0.  0.
         14    1    1    2    0    0  0.88696580450E-02  0.53074869245E-03 -0.21024318870E-01  0.22824866089E-01  0.00000000000E+00 0. -1.
     999901    1    3    3    0    0  0.75735034889E-01 -0.85727509343E-01  0.69645234484E-01  0.89013227110E+00  0.88000000000E+00 0.  1.
        -11    1    4    4    0    0 -0.48327966977E-01  0.57943221093E-01 -0.23092889277E-01  0.78908503464E-01  0.51100000000E-03 0. -1.
         11    1    4    4    0    0 -0.36276725957E-01  0.27253539558E-01 -0.25528026337E-01  0.52064359347E-01  0.51100000000E-03 0.  1.
</event>
<event>
 8    1  0.1180500E+005  0.1043930E+01  0.7957747E-01            NaN
         13   -1    0    0    0    0  0.00000000000E+00  0.00000000000E+00  0.74505805969E-08  0.10566000000E+00  0.10566000000E+00 0. -1.
     999900   -1    0    0    0    0 -0.00000000000E+00 -0.00000000000E+00 -0.74505805969E-08  0.93827000000E+00  0.93827000000E+00 0. -1.
     999902    2    1    2    0    0  0.88401261563E-02  0.85551669309E-02 -0.19449764053E-01  0.10209162642E+01  0.10206568407E+01 0.  0.
     999903    2    3    3    0    0  0.11886235857E+00  0.15168027103E-01 -0.54957595535E-01  0.13332997118E+00  0.19955314470E-01 0.  0.
         14    1    1    2    0    0 -0.88401261563E-02 -0.85551669309E-02  0.19449764053E-01  0.23013735754E-01  0.00000000000E+00 0. -1.
     999901    1    3    3    0    0 -0.11002223242E+00 -0.66128601720E-02  0.35507831483E-01  0.88758629307E+00  0.88000000000E+00 0. -1.
        -11    1    4    4    0    0  0.72236201562E-01  0.17673900598E-01 -0.28378084455E-01  0.79599072714E-01  0.51100000000E-03 0.  1.
         11    1    4    4    0    0  0.46626157010E-01 -0.25058734952E-02 -0.26579511080E-01  0.53730898464E-01  0.51100000000E-03 0. -1.
</event>
<event>
 8    1  0.1180500E+005  0.1043930E+01  0.7957747E-01            NaN
         13   -1    0    0    0    0  0.00000000000E+00  0.00000000000E+00  0.74505805969E-08  0.10566000000E+00  0.10566000000E+00 0. -1.
     999900   -1    0    0    0    0 -0.00000000000E+00 -0.00000000000E+00 -0.74505805969E-08  0.93827000000E+00  0.93827000000E+00 0.  1.
     999902    2    1    2    0    0  0.16233571828E-01  0.85983665936E-02  0.14818229439E-01  0.10203282906E+01  0.10200552828E+01 0.  0.
     999903    2    3    3    0    0 -0.51811826322E-02  0.59462526199E-01 -0.11319688863E+00  0.12935487636E+00  0.18881519223E-01 0.  0.
         14    1    1    2    0    0 -0.16233571828E-01 -0.85983665936E-02 -0.14818229439E-01  0.23601709389E-01  0.00000000000E+00 0.  1.
     999901    1    3    3    0    0  0.21414754461E-01 -0.50864159605E-01  0.12801511807E+00  0.89097341425E+00  0.88000000000E+00 0. -1.
        -11    1    4    4    0    0 -0.31338436129E-02  0.89844492756E-02 -0.34862425494E-01  0.36141266399E-01  0.51100000000E-03 0.  1.
         11    1    4    4    0    0 -0.20473390193E-02  0.50478076923E-01 -0.78334463136E-01  0.93213609965E-01  0.51100000000E-03 0. -1.
</event>
<event>
 8    1  0.1180500E+005  0.1043930E+01  0.7957747E-01            NaN
         13   -1    0    0    0    0  0.00000000000E+00  0.00000000000E+00  0.74505805969E-08  0.10566000000E+00  0.10566000000E+00 0.  1.
     999900   -1    0    0    0    0 -0.00000000000E+00 -0.00000000000E+00 -0.74505805969E-08  0.93827000000E+00  0.93827000000E+00 0.  1.
     999902    2    1    2    0    0 -0.58857742839E-02  0.11897236399E-01 -0.20179627205E-01  0.10197762440E+01  0.10194901588E+01 0.  0.
     999903    2    3    3    0    0  0.98380341253E-01 -0.62565223113E-02  0.79015803469E-01  0.12790141242E+00  0.19935859289E-01 0.  0.
         14    1    1    2    0    0  0.58857742839E-02 -0.11897236399E-01  0.20179627205E-01  0.24153755960E-01  0.00000000000E+00 0.  1.
     999901    1    3    3    0    0 -0.10426611554E+00  0.18153758710E-01 -0.99195430673E-01  0.89187483162E+00  0.88000000000E+00 0.  1.
        -11    1    4    4    0    0  0.51523224010E-01  0.65699278897E-02  0.42804785861E-01  0.67307632394E-01  0.51100000000E-03 0. -1.
         11    1    4    4    0    0  0.46857117243E-01 -0.12826450201E-01  0.36211017608E-01  0.60593780030E-01  0.51100000000E-03 0.  1.
</event>
<event>
 8    1  0.1180500E+005  0.1043930E+01  0.7957747E-01            NaN
         13   -1    0    0    0    0  0.00000000000E+00  0.00000000000E+00  0.74505805969E-08  0.10566000000E+00  0.10566000000E+00 0. -1.
     999900   -1    0    0    0    0 -0.00000000000E+00 -0.00000000000E+00 -0.74505805969E-08  0.93827000000E+00  0.93827000000E+00 0.  1.
     999902    2    1    2    0    0 -0.78864540231E-02 -0.30860194643E-02  0.24008178926E-01  0.10184719496E+01  0.10181537211E+01 0.  0.
     999903    2    3    3    0    0  0.34991538789E-01  0.99680823178E-01  0.72823805714E-01  0.13011250007E+00  0.21570389391E-01 0.  0.
         14    1    1    2    0    0  0.78864540231E-02  0.30860194643E-02 -0.24008178926E-01  0.25458050368E-01  0.00000000000E+00 0.  1.
     999901    1    3    3    0    0 -0.42877992812E-01 -0.10276684264E+00 -0.48815626789E-01  0.88835944957E+00  0.88000000000E+00 0. -1.
        -11    1    4    4    0    0  0.14827339645E-01  0.20585039343E-01  0.24401350214E-01  0.35203421126E-01  0.51100000000E-03 0. -1.
         11    1    4    4    0    0  0.20164199144E-01  0.79095783835E-01  0.48422455501E-01  0.94909078941E-01  0.51100000000E-03 0.  1.
</event>
<event>
 8    1  0.1180500E+005  0.1043930E+01  0.7957747E-01            NaN
         13   -1    0    0    0    0  0.00000000000E+00  0.00000000000E+00  0.74505805969E-08  0.10566000000E+00  0.10566000000E+00 0.  1.
     999900   -1    0    0    0    0 -0.00000000000E+00 -0.00000000000E+00 -0.74505805969E-08  0.93827000000E+00  0.93827000000E+00 0.  1.
     999902    2    1    2    0    0  0.12828372901E-01  0.19178480962E-01  0.25841212529E-02  0.10207123566E+01  0.10204482622E+01 0.  0.
     999903    2    3    3    0    0 -0.43159066890E-01 -0.11860672672E+00  0.11024986440E-01  0.12819311025E+00  0.19536184663E-01 0.  0.
         14    1    1    2    0    0 -0.12828372901E-01 -0.19178480962E-01 -0.25841212529E-02  0.23217643420E-01  0.00000000000E+00 0. -1.
     999901    1    3    3    0    0  0.55987439791E-01  0.13778520768E+00 -0.84408651876E-02  0.89251924633E+00  0.88000000000E+00 0.  1.
        -11    1    4    4    0    0 -0.46072927105E-02 -0.38855096527E-01  0.28445232551E-02  0.39233889762E-01  0.51100000000E-03 0. -1.
         11    1    4    4    0    0 -0.38551774179E-01 -0.79751630191E-01  0.81804631854E-02  0.88959220485E-01  0.51100000000E-03 0.  1.
</event>
<event>
 8    1  0.1180500E+005  0.1043930E+01  0.7957747E-01            NaN
         13   -1    0    0    0    0  0.00000000000E+00  0.00000000000E+00  0.74505805969E-08  0.10566000000E+00  0.10566000000E+00 0.  1.
     999900   -1    0    0    0    0 -0.00000000000E+00 -0.00000000000E+00 -0.74505805969E-08  0.93827000000E+00  0.93827000000E+00 0.  1.
     999902    2    1    2    0    0  0.66168977080E-02 -0.20437518767E-01 -0.10233782722E-01  0.10201349203E+01  0.10198573674E+01 0.  0.
     999903    2    3    3    0    0  0.11134774637E+00  0.60740402540E-01  0.18911573965E-01  0.12973733643E+00  0.19657357666E-01 0.  0.
         14    1    1    2    0    0 -0.66168977080E-02  0.20437518767E-01  0.10233782722E-01  0.23795079690E-01  0.00000000000E+00 0.  1.
     999901    1    3    3    0    0 -0.10473084866E+00 -0.81177921307E-01 -0.29145356687E-01  0.89039758388E+00  0.88000000000E+00 0.  1.
        -11    1    4    4    0    0  0.31075879427E-01  0.74432820079E-02  0.60595856867E-02  0.32528332710E-01  0.51100000000E-03 0.  1.
         11    1    4    4    0    0  0.80271866945E-01  0.53297120532E-01  0.12851988278E-01  0.97209003717E-01  0.51100000000E-03 0. -1.
</event>
<event>
 8    1  0.1180500E+005  0.1043930E+01  0.7957747E-01            NaN
         13   -1    0    0    0    0  0.00000000000E+00  0.00000000000E+00  0.74505805969E-08  0.10566000000E+00  0.10566000000E+00 0.  1.
     999900   -1    0    0    0    0 -0.00000000000E+00 -0.00000000000E+00 -0.74505805969E-08  0.93827000000E+00  0.93827000000E+00 0. -1.
     999902    2    1    2    0    0 -0.53651382123E-02 -0.97709902322E-02  0.20591444144E-01  0.10205149508E+01  0.10202462939E+01 0.  0.
     999903    2    3    3    0    0  0.16076700027E-01 -0.10101342710E+00  0.81383040805E-01  0.13345207085E+00  0.26908793087E-01 0.  0.
         14    1    1    2    0    0  0.53651382123E-02  0.97709902322E-02 -0.20591444144E-01  0.23415049222E-01  0.00000000000E+00 0. -1.
     999901    1    3    3    0    0 -0.21441838239E-01  0.91242436873E-01 -0.60791596662E-01  0.88706287992E+00  0.88000000000E+00 0. -1.
        -11    1    4    4    0    0  0.42538248466E-02 -0.37196349263E-01  0.46715755537E-01  0.59868909800E-01  0.51100000000E-03 0. -1.
         11    1    4    4    0    0  0.11822875180E-01 -0.63817077842E-01  0.34667285269E-01  0.73583161054E-01  0.51100000000E-03 0.  1.
</event>
<event>
 8    1  0.1180500E+005  0.1043930E+01  0.7957747E-01            NaN
         13   -1    0    0    0    0  0.00000000000E+00  0.00000000000E+00  0.74505805969E-08  0.10566000000E+00  0.10566000000E+00 0. -1.
     999900   -1    0    0    0    0 -0.00000000000E+00 -0.00000000000E+00 -0.74505805969E-08  0.93827000000E+00  0.93827000000E+00 0. -1.
     999902    2    1    2    0    0 -0.91140301329E-02 -0.18809898865E-01  0.10501573758E-01  0.10205385295E+01  0.10202704197E+01 0.  0.
     999903    2    3    3    0    0 -0.88835707842E-01  0.58221069430E-01 -0.71871502552E-01  0.12976659479E+00  0.19808592356E-01 0.  0.
         14    1    1    2    0    0  0.91140301329E-02  0.18809898865E-01 -0.10501573758E-01  0.23391470496E-01  0.00000000000E+00 0.  1.
     999901    1    3    3    0    0  0.79721677709E-01 -0.77030968294E-01  0.82373076310E-01  0.89077193471E+00  0.88000000000E+00 0. -1.
        -11    1    4    4    0    0 -0.43475142757E-01  0.18270038661E-01 -0.37320375241E-01  0.60141116381E-01  0.51100000000E-03 0.  1.
         11    1    4    4    0    0 -0.45360565085E-01  0.39951030768E-01 -0.34551127311E-01  0.69625478409E-01  0.51100000000E-03 0. -1.
</event>
<event>
 8    1  0.1180500E+005  0.1043930E+01  0.7957747E-01            NaN
         13   -1    0    0    0    0  0.00000000000E+00  0.00000000000E+00  0.74505805969E-08  0.10566000000E+00  0.10566000000E+00 0. -1.
     999900   -1    0    0    0    0 -0.00000000000E+00 -0.00000000000E+00 -0.74505805969E-08  0.93827000000E+00  0.93827000000E+00 0. -1.
     999902    2    1    2    0    0  0.81916660667E-02  0.15261147255E-01 -0.16831730542E-01  0.10197781230E+01  0.10194920829E+01 0.  0.
     999903    2    3    3    0    0 -0.11768690768E+00  0.33987291834E-01 -0.39428996253E-01  0.13033632041E+00  0.20677679458E-01 0.  0.
         14    1    1    2    0    0 -0.81916660667E-02 -0.15261147255E-01  0.16831730542E-01  0.24151876977E-01  0.00000000000E+00 0. -1.
     999901    1    3    3    0    0  0.12587857374E+00 -0.18726144579E-01  0.22597265711E-01  0.88944180261E+00  0.88000000000E+00 0.  1.
        -11    1    4    4    0    0 -0.30830825729E-01  0.16296908186E-01 -0.17510849065E-01  0.39025888684E-01  0.51100000000E-03 0. -1.
         11    1    4    4    0    0 -0.86856081947E-01  0.17690383648E-01 -0.21918147187E-01  0.91310431726E-01  0.51100000000E-03 0.  1.
</event>
<event>
 8    1  0.1180500E+005  0.1043930E+01  0.7957747E-01            NaN
         13   -1    0    0    0    0  0.00000000000E+00  0.00000000000E+00  0.74505805969E-08  0.10566000000E+00  0.10566000000E+00 0. -1.
     999900   -1    0    0    0    0 -0.00000000000E+00 -0.00000000000E+00 -0.74505805969E-08  0.93827000000E+00  0.93827000000E+00 0. -1.
     999902    2    1    2    0    0  0.18713099735E-01  0.91595966033E-02  0.10035350740E-01  0.10208045470E+01  0.10205425697E+01 0.  0.
     999903    2    3    3    0    0 -0.11066325417E+00  0.23396468359E-01  0.60312443126E-01  0.12981144070E+00  0.20485819124E-01 0.  0.
         14    1    1    2    0    0 -0.18713099735E-01 -0.91595966033E-02 -0.10035350740E-01  0.23125452992E-01  0.00000000000E+00 0.  1.
     999901    1    3    3    0    0  0.12937635391E+00 -0.14236871756E-01 -0.50277092387E-01  0.89099310631E+00  0.88000000000E+00 0. -1.
        -11    1    4    4    0    0 -0.10054083549E+00  0.24282059163E-01  0.48552843652E-01  0.11426161974E+00  0.51100000000E-03 0. -1.
         11    1    4    4    0    0 -0.10122418681E-01 -0.88559080341E-03  0.11759599475E-01  0.15549820958E-01  0.51100000000E-03 0.  1.
</event>
<event>
 8    1  0.1180500E+005  0.1043930E+01  0.7957747E-01            NaN
         13   -1    0    0    0    0  0.00000000000E+00  0.00000000000E+00  0.74505805969E-08  0.10566000000E+00  0.10566000000E+00 0.  1.
     999900   -1    0    0    0    0 -0.00000000000E+00 -0.00000000000E+00 -0.74505805969E-08  0.93827000000E+00  0.93827000000E+00 0.  1.
     999902    2    1    2    0    0  0.14037162691E-02 -0.31522684292E-01  0.67666558360E-03  0.10123688226E+01  0.10118767341E+01 0.  0.
     999903    2    3    3    0    0 -0.32704714001E-01 -0.12162374220E+00 -0.32803337156E-04  0.12711061787E+00  0.17180661044E-01 0.  0.
         14    1    1    2    0    0 -0.14037162691E-02  0.31522684292E-01 -0.67666558360E-03  0.31561177428E-01  0.00000000000E+00 0.  1.
     999901    1    3    3    0    0  0.34108430270E-01  0.90101057908E-01  0.70946892076E-03  0.88525820471E+00  0.88000000000E+00 0.  1.
        -11    1    4    4    0    0 -0.64353836192E-02 -0.32914154675E-01 -0.72322025709E-02  0.34312120530E-01  0.51100000000E-03 0. -1.
         11    1    4    4    0    0 -0.26269330382E-01 -0.88709587525E-01  0.71993992338E-02  0.92798497337E-01  0.51100000000E-03 0.  1.
</event>
<event>
 8    1  0.1180500E+005  0.1043930E+01  0.7957747E-01            NaN
         13   -1    0    0    0    0  0.00000000000E+00  0.00000000000E+00  0.74505805969E-08  0.10566000000E+00  0.10566000000E+00 0. -1.
     999900   -1    0    0    0    0 -0.00000000000E+00 -0.00000000000E+00 -0.74505805969E-08  0.93827000000E+00  0.93827000000E+00 0. -1.
     999902    2    1    2    0    0 -0.22356063689E-02 -0.23685943672E-01  0.31235669760E-02  0.10199346143E+01  0.10196523128E+01 0.  0.
     999903    2    3    3    0    0 -0.61559430155E-01 -0.10188145894E+00 -0.54861349060E-01  0.13258118689E+00  0.19965179169E-01 0.  0.
         14    1    1    2    0    0  0.22356063689E-02  0.23685943672E-01 -0.31235669760E-02  0.23995385684E-01  0.00000000000E+00 0.  1.
     999901    1    3    3    0    0  0.59323823786E-01  0.78195515271E-01  0.57984916036E-01  0.88735342743E+00  0.88000000000E+00 0.  1.
        -11    1    4    4    0    0 -0.45333632609E-01 -0.67466109883E-01 -0.27872980563E-01  0.85930078522E-01  0.51100000000E-03 0. -1.
         11    1    4    4    0    0 -0.16225797546E-01 -0.34415349059E-01 -0.26988368497E-01  0.46651108368E-01  0.51100000000E-03 0.  1.
</event>
<event>
 8    1  0.1180500E+005  0.1043930E+01  0.7957747E-01            NaN
         13   -1    0    0    0    0  0.00000000000E+00  0.00000000000E+00  0.74505805969E-08  0.10566000000E+00  0.10566000000E+00 0.  1.
     999900   -1    0    0    0    0 -0.00000000000E+00 -0.00000000000E+00 -0.74505805969E-08  0.93827000000E+00  0.93827000000E+00 0.  1.
     999902    2    1    2    0    0 -0.12631765767E-01 -0.19356438813E-01  0.48566947766E-02  0.10203117716E+01  0.10200383770E+01 0.  0.
     999903    2    3    3    0    0 -0.50863542339E-01  0.10027224873E-01  0.11937018320E+00  0.13158323739E+00  0.19423247592E-01 0.  0.
         14    1    1    2    0    0  0.12631765767E-01  0.19356438813E-01 -0.48566947766E-02  0.23618228428E-01  0.00000000000E+00 0. -1.
     999901    1    3    3    0    0  0.38231776572E-01 -0.29383663686E-01 -0.11451348843E+00  0.88872853418E+00  0.88000000000E+00 0.  1.
        -11    1    4    4    0    0 -0.46643664545E-01  0.28290188605E-02  0.96176061127E-01  0.10692862407E+00  0.51100000000E-03 0. -1.
         11    1    4    4    0    0 -0.42198777940E-02  0.71982060125E-02  0.23194122077E-01  0.24654613327E-01  0.51100000000E-03 0.  1.
</event>
<event>
 8    1  0.1180500E+005  0.1043930E+01  0.7957747E-01            NaN
         13   -1    0    0    0    0  0.00000000000E+00  0.00000000000E+00  0.74505805969E-08  0.10566000000E+00  0.10566000000E+00 0.  1.
     999900   -1    0    0    0    0 -0.00000000000E+00 -0.00000000000E+00 -0.74505805969E-08  0.93827000000E+00  0.93827000000E+00 0.  1.
     999902    2    1    2    0    0  0.39250720272E-02  0.12335054053E-01  0.19761559070E-01  0.10203063050E+01  0.10200327823E+01 0.  0.
     999903    2    3    3    0    0  0.74890853005E-01  0.10098333114E+00 -0.32647498877E-01  0.13146359199E+00  0.20261880595E-01 0.  0.
         14    1    1    2    0    0 -0.39250720272E-02 -0.12335054053E-01 -0.19761559070E-01  0.23623695007E-01  0.00000000000E+00 0. -1.
     999901    1    3    3    0    0 -0.70965780978E-01 -0.88648277084E-01  0.52409057947E-01  0.88884271300E+00  0.88000000000E+00 0. -1.
        -11    1    4    4    0    0  0.43814371615E-01  0.42341843544E-01 -0.17346806276E-01  0.63353797705E-01  0.51100000000E-03 0. -1.
         11    1    4    4    0    0  0.31076481390E-01  0.58641487593E-01 -0.15300692601E-01  0.68109794287E-01  0.51100000000E-03 0.  1.
</event>
<event>
 8    1  0.1180500E+005  0.1043930E+01  0.7957747E-01            NaN
         13   -1    0    0    0    0  0.00000000000E+00  0.00000000000E+00  0.74505805969E-08  0.10566000000E+00  0.10566000000E+00 0.  1.
     999900   -1    0    0    0    0 -0.00000000000E+00 -0.00000000000E+00 -0.74505805969E-08  0.93827000000E+00  0.93827000000E+00 0.  1.
     999902    2    1    2    0    0 -0.42726603175E-02 -0.30418372775E-01 -0.16245417869E-01  0.10091816672E+01  0.10085832593E+01 0.  0.
     999903    2    3    3    0    0  0.10526877240E+00  0.49508556550E-01  0.90294988700E-02  0.11843677618E+00  0.20325513253E-01 0.  0.
         14    1    1    2    0    0  0.42726603175E-02  0.30418372775E-01  0.16245417869E-01  0.34748332768E-01  0.00000000000E+00 0.  1.
     999901    1    3    3    0    0 -0.10954143272E+00 -0.79926929325E-01 -0.25274916739E-01  0.89074489105E+00  0.88000000000E+00 0. -1.
        -11    1    4    4    0    0  0.86141910597E-01  0.42711659343E-01 -0.15546167022E-03  0.96150922484E-01  0.51100000000E-03 0.  1.
         11    1    4    4    0    0  0.19126861801E-01  0.67968972073E-02  0.91849605402E-02  0.22285853700E-01  0.51100000000E-03 0. -1.
</event>
<event>
 8    1  0.1180500E+005  0.1043930E+01  0.7957747E-01            NaN
         13   -1    0    0    0    0  0.00000000000E+00  0.00000000000E+00  0.74505805969E-08  0.10566000000E+00  0.10566000000E+00 0. -1.
     999900   -1    0    0    0    0 -0.00000000000E+00 -0.00000000000E+00 -0.74505805969E-08  0.93827000000E+00  0.93827000000E+00 0. -1.
     999902    2    1    2    0    0  0.83536219179E-02 -0.17796829859E-01  0.92140953384E-02  0.10222180285E+01  0.10219874207E+01 0.  0.
     999903    2    3    3    0    0 -0.85450337656E-01  0.26695332133E-01 -0.92593780288E-01  0.13028553173E+00  0.19654787373E-01 0.  0.
         14    1    1    2    0    0 -0.83536219179E-02  0.17796829859E-01 -0.92140953384E-02  0.21711971470E-01  0.00000000000E+00 0.  1.
     999901    1    3    3    0    0  0.93803959574E-01 -0.44492161993E-01  0.10180787563E+00  0.89193249680E+00  0.88000000000E+00 0.  1.
        -11    1    4    4    0    0 -0.35438526708E-01  0.27250647309E-02 -0.28767982648E-01  0.45729346153E-01  0.51100000000E-03 0. -1.
         11    1    4    4    0    0 -0.50011810948E-01  0.23970267402E-01 -0.63825797641E-01  0.84556185576E-01  0.51100000000E-03 0.  1.
</event>
<event>
 7    1  0.1180500E+005  0.1043930E+01  0.7957747E-01            NaN
         13   -1    0    0    0    0  0.00000000000E+00  0.00000000000E+00  0.74505805969E-08  0.10566000000E+00  0.10566000000E+00 0. -1.
     999900   -1    0    0    0    0 -0.00000000000E+00 -0.00000000000E+00 -0.74505805969E-08  0.93827000000E+00  0.93827000000E+00 0.  1.
     999903    2    1    2    0    0  0.83182703367E-01  0.93601507736E-02 -0.53643975778E-01  0.10147812739E+00  0.20326328726E-01 0.  0.
         14    1    1    2    0    0  0.22088605537E-01 -0.34035431375E-01  0.38158319479E-01  0.55698962548E-01  0.00000000000E+00 0. -1.
     999901    1    1    2    0    0 -0.10527130890E+00  0.24675280602E-01  0.15485656298E-01  0.88675291006E+00  0.88000000000E+00 0. -1.
        -11    1    3    3    0    0  0.25017769164E-01 -0.37959601172E-02 -0.85585757718E-02  0.26717193479E-01  0.51100000000E-03 0. -1.
         11    1    3    3    0    0  0.58164934203E-01  0.13156110891E-01 -0.45085400006E-01  0.74760933912E-01  0.51100000000E-03 0.  1.
</event>
<event>
 8    1  0.1180500E+005  0.1043930E+01  0.7957747E-01            NaN
         13   -1    0    0    0    0  0.00000000000E+00  0.00000000000E+00  0.74505805969E-08  0.10566000000E+00  0.10566000000E+00 0.  1.
     999900   -1    0    0    0    0 -0.00000000000E+00 -0.00000000000E+00 -0.74505805969E-08  0.93827000000E+00  0.93827000000E+00 0. -1.
     999902    2    1    2    0    0 -0.14980072091E-01  0.13000020101E-01  0.19993010348E-01  0.10157675508E+01  0.10153770697E+01 0.  0.
     999903    2    3    3    0    0 -0.68271421798E-01  0.46309761271E-01  0.98347040938E-01  0.13005379290E+00  0.20887019017E-01 0.  0.
         14    1    1    2    0    0  0.14980072091E-01 -0.13000020101E-01 -0.19993010348E-01  0.28162449206E-01  0.00000000000E+00 0. -1.
     999901    1    3    3    0    0  0.53291349707E-01 -0.33309741170E-01 -0.78354030590E-01  0.88571375789E+00  0.88000000000E+00 0. -1.
        -11    1    4    4    0    0 -0.42689545493E-01  0.40126557058E-01  0.71748354911E-01  0.92631665370E-01  0.51100000000E-03 0.  1.
         11    1    4    4    0    0 -0.25581876305E-01  0.61832042129E-02  0.26598686027E-01  0.37422127532E-01  0.51100000000E-03 0. -1.
</event>
<event>
 8    1  0.1180500E+005  0.1043930E+01  0.7957747E-01            NaN
         13   -1    0    0    0    0  0.00000000000E+00  0.00000000000E+00  0.74505805969E-08  0.10566000000E+00  0.10566000000E+00 0.  1.
     999900   -1    0    0    0    0 -0.00000000000E+00 -0.00000000000E+00 -0.74505805969E-08  0.93827000000E+00  0.93827000000E+00 0. -1.
     999902    2    1    2    0    0 -0.10064936940E-01 -0.59968849718E-02 -0.16903939175E-01  0.10233628236E+01  0.10231561269E+01 0.  0.
     999903    2    3    3    0    0  0.89339662230E-01 -0.94819777296E-01 -0.20911046322E-01  0.13331403987E+00  0.19052452690E-01 0.  0.
         14    1    1    2    0    0  0.10064936940E-01  0.59968849718E-02  0.16903939175E-01  0.20567176389E-01  0.00000000000E+00 0.  1.
     999901    1    3    3    0    0 -0.99404599170E-01  0.88822892324E-01  0.40071071472E-02  0.89004878374E+00  0.88000000000E+00 0.  1.
        -11    1    4    4    0    0  0.33289361629E-01 -0.22921026218E-01 -0.43269852100E-02  0.40651432478E-01  0.51100000000E-03 0.  1.
         11    1    4    4    0    0  0.56050300601E-01 -0.71898751078E-01 -0.16584061112E-01  0.92662607389E-01  0.51100000000E-03 0. -1.
</event>
<event>
 8    1  0.1180500E+005  0.1043930E+01  0.7957747E-01            NaN
         13   -1    0    0    0    0  0.00000000000E+00  0.00000000000E+00  0.74505805969E-08  0.10566000000E+00  0.10566000000E+00 0. -1.
     999900   -1    0    0    0    0 -0.00000000000E+00 -0.00000000000E+00 -0.74505805969E-08  0.93827000000E+00  0.93827000000E+00 0.  1.
     999902    2    1    2    0    0 -0.55673665172E-02  0.20081039120E-01 -0.11605470722E-01  0.10200777328E+01  0.10197988283E+01 0.  0.
     999903    2    3    3    0    0  0.10801344048E-01  0.91455301533E-01  0.91072716340E-01  0.13108671473E+00  0.20217465385E-01 0.  0.
         14    1    1    2    0    0  0.55673665172E-02 -0.20081039120E-01  0.11605470722E-01  0.23852267246E-01  0.00000000000E+00 0. -1.
     999901    1    3    3    0    0 -0.16368710565E-01 -0.71374262413E-01 -0.10267818706E+00  0.88899101802E+00  0.88000000000E+00 0. -1.
        -11    1    4    4    0    0 -0.30483736206E-02  0.49986762450E-02  0.10816786570E-01  0.12310294010E-01  0.51100000000E-03 0. -1.
         11    1    4    4    0    0  0.13849717669E-01  0.86456625288E-01  0.80255929770E-01  0.11877642072E+00  0.51100000000E-03 0.  1.
</event>
<event>
 8    1  0.1180500E+005  0.1043930E+01  0.7957747E-01            NaN
         13   -1    0    0    0    0  0.00000000000E+00  0.00000000000E+00  0.74505805969E-08  0.10566000000E+00  0.10566000000E+00 0.  1.
     999900   -1    0    0    0    0 -0.00000000000E+00 -0.00000000000E+00 -0.74505805969E-08  0.93827000000E+00  0.93827000000E+00 0.  1.
     999902    2    1    2    0    0 -0.79781122129E-02 -0.22737350003E-01 -0.17422672654E-02  0.10197706777E+01  0.10194844590E+01 0.  0.
     999903    2    3    3    0    0  0.10378290753E+00  0.68510621282E-01  0.21089028510E-01  0.12772920675E+00  0.20134696642E-01 0.  0.
         14    1    1    2    0    0  0.79781122129E-02  0.22737350003E-01  0.17422672654E-02  0.24159322318E-01  0.00000000000E+00 0. -1.
     999901    1    3    3    0    0 -0.11176101975E+00 -0.91247971285E-01 -0.22831295776E-01  0.89204147093E+00  0.88000000000E+00 0.  1.
        -11    1    4    4    0    0  0.58862213532E-01  0.31454513351E-01  0.19263955820E-01  0.69465874405E-01  0.51100000000E-03 0. -1.
         11    1    4    4    0    0  0.44920694000E-01  0.37056107931E-01  0.18250726906E-02  0.58263332344E-01  0.51100000000E-03 0.  1.
</event>
<event>
 8    1  0.1180500E+005  0.1043930E+01  0.7957747E-01            NaN
         13   -1    0    0    0    0  0.00000000000E+00  0.00000000000E+00  0.74505805969E-08  0.10566000000E+00  0.10566000000E+00 0.  1.
     999900   -1    0    0    0    0 -0.00000000000E+00 -0.00000000000E+00 -0.74505805969E-08  0.93827000000E+00  0.93827000000E+00 0.  1.
     999902    2    1    2    0    0 -0.12222464957E-01 -0.87331602120E-02 -0.71205719399E-02  0.10273059427E+01  0.10271714271E+01 0.  0.
     999903    2    3    3    0    0  0.60299510924E-01 -0.42148286862E-01  0.11236804992E+00  0.13564819532E+00  0.19009080668E-01 0.  0.
         14    1    1    2    0    0  0.12222464957E-01  0.87331602120E-02  0.71205719399E-02  0.16624057316E-01  0.00000000000E+00 0.  1.
     999901    1    3    3    0    0 -0.72521975881E-01  0.33415126650E-01 -0.11948862186E+00  0.89165774736E+00  0.88000000000E+00 0.  1.
        -11    1    4    4    0    0  0.47005610146E-01 -0.22254278891E-01  0.74801626946E-01  0.91106118504E-01  0.51100000000E-03 0.  1.
         11    1    4    4    0    0  0.13293900778E-01 -0.19894007971E-01  0.37566422976E-01  0.44542076818E-01  0.51100000000E-03 0. -1.
</event>
<event>
 8    1  0.1180500E+005  0.1043930E+01  0.7957747E-01            NaN
         13   -1    0    0    0    0  0.00000000000E+00  0.00000000000E+00  0.74505805969E-08  0.10566000000E+00  0.10566000000E+00 0.  1.
     999900   -1    0    0    0    0 -0.00000000000E+00 -0.00000000000E+00 -0.74505805969E-08  0.93827000000E+00  0.93827000000E+00 0.  1.
     999902    2    1    2    0    0 -0.17638825507E-01  0.60224196575E-02 -0.15316405309E-01  0.10198055316E+01  0.10195201481E+01 0.  0.
     999903    2    3    3    0    0 -0.10317279705E+00  0.56070241876E-01  0.55651523479E-01  0.13140399417E+00  0.19529965283E-01 0.  0.
         14    1    1    2    0    0  0.17638825507E-01 -0.60224196575E-02  0.15316405309E-01  0.24124468396E-01  0.00000000000E+00 0. -1.
     999901    1    3    3    0    0  0.85533971541E-01 -0.50047822219E-01 -0.70967928789E-01  0.88840153743E+00  0.88000000000E+00 0.  1.
        -11    1    4    4    0    0 -0.94581018212E-01  0.56902149047E-01  0.51147700073E-01  0.12165431318E+00  0.51100000000E-03 0. -1.
         11    1    4    4    0    0 -0.85917788355E-02 -0.83190717143E-03  0.45038234058E-02  0.97496809882E-02  0.51100000000E-03 0.  1.
</event>
<event>
 8    1  0.1180500E+005  0.1043930E+01  0.7957747E-01            NaN
         13   -1    0    0    0    0  0.00000000000E+00  0.00000000000E+00  0.74505805969E-08  0.10566000000E+00  0.10566000000E+00 0. -1.
     999900   -1    0    0    0    0 -0.00000000000E+00 -0.00000000000E+00 -0.74505805969E-08  0.93827000000E+00  0.93827000000E+00 0.  1.
     999902    2    1    2    0    0 -0.10354960513E-01 -0.38616481598E-02  0.26192553527E-01  0.10155013631E+01  0.10151033598E+01 0.  0.
     999903    2    3    3    0    0  0.98288293989E-01 -0.73828804099E-01 -0.13766791595E-01  0.12516687042E+00  0.19129554343E-01 0.  0.
         14    1    1    2    0    0  0.10354960513E-01  0.38616481598E-02 -0.26192553527E-01  0.28428636865E-01  0.00000000000E+00 0.  1.
     999901    1    3    3    0    0 -0.10864325450E+00  0.69967155940E-01  0.39959345122E-01  0.89033449272E+00  0.88000000000E+00 0. -1.
        -11    1    4    4    0    0  0.50548462832E-01 -0.45228783089E-01 -0.15124593150E-01  0.69496793835E-01  0.51100000000E-03 0.  1.
         11    1    4    4    0    0  0.47739831157E-01 -0.28600021010E-01  0.13578015544E-02  0.55670076583E-01  0.51100000000E-03 0. -1.
</event>
<event>
 8    1  0.1180500E+005  0.1043930E+01  0.7957747E-01            NaN
         13   -1    0    0    0    0  0.00000000000E+00  0.00000000000E+00  0.74505805969E-08  0.10566000000E+00  0.10566000000E+00 0. -1.
     999900   -1    0    0    0    0 -0.00000000000E+00 -0.00000000000E+00 -0.74505805969E-08  0.93827000000E+00  0.93827000000E+00 0.  1.
     999902    2    1    2    0    0 -0.11334669556E-02 -0.19489761487E-02 -0.18879654492E-01  0.10249161995E+01  0.10247398164E+01 0.  0.
     999903    2    3    3    0    0  0.11031206205E+00 -0.71811380369E-01 -0.23210161309E-01  0.13512992475E+00  0.19893707310E-01 0.  0.
         14    1    1    2    0    0  0.11334669556E-02  0.19489761487E-02  0.18879654492E-01  0.19013800491E-01  0.00000000000E+00 0. -1.
     999901    1    3    3    0    0 -0.11144552901E+00  0.69862404220E-01  0.43305068172E-02  0.88978627476E+00  0.88000000000E+00 0. -1.
        -11    1    4    4    0    0  0.58926886467E-01 -0.27157629783E-01 -0.80421236953E-02  0.65382349902E-01  0.51100000000E-03 0.  1.
         11    1    4    4    0    0  0.51385175585E-01 -0.44653750586E-01 -0.15168037614E-01  0.69747574849E-01  0.51100000000E-03 0. -1.
</event>
<event>
 8    1  0.1180500E+005  0.1043930E+01  0.7957747E-01            NaN
         13   -1    0    0    0    0  0.00000000000E+00  0.00000000000E+00  0.74505805969E-08  0.10566000000E+00  0.10566000000E+00 0. -1.
     999900   -1    0    0    0    0 -0.00000000000E+00 -0.00000000000E+00 -0.74505805969E-08  0.93827000000E+00  0.93827000000E+00 0.  1.
     999902    2    1    2    0    0 -0.21533526190E-01  0.70461719794E-02 -0.16311052511E-02  0.10212143271E+01  0.10209616546E+01 0.  0.
     999903    2    3    3    0    0 -0.58792946413E-01  0.73243382020E-01 -0.92306346073E-01  0.13329972858E+00  0.20667669364E-01 0.  0.
         14    1    1    2    0    0  0.21533526190E-01 -0.70461719794E-02  0.16311052511E-02  0.22715672873E-01  0.00000000000E+00 0. -1.
     999901    1    3    3    0    0  0.37259420224E-01 -0.66197210041E-01  0.90675240822E-01  0.88791459855E+00  0.88000000000E+00 0. -1.
        -11    1    4    4    0    0 -0.29281763849E-01  0.21798725424E-01 -0.29734466241E-01  0.47085090293E-01  0.51100000000E-03 0.  1.
         11    1    4    4    0    0 -0.29511182564E-01  0.51444656596E-01 -0.62571879832E-01  0.86214638289E-01  0.51100000000E-03 0. -1.
</event>
<event>
 8    1  0.1180500E+005  0.1043930E+01  0.7957747E-01            NaN
         13   -1    0    0    0    0  0.00000000000E+00  0.00000000000E+00  0.74505805969E-08  0.10566000000E+00  0.10566000000E+00 0.  1.
     999900   -1    0    0    0    0 -0.00000000000E+00 -0.00000000000E+00 -0.74505805969E-08  0.93827000000E+00  0.93827000000E+00 0. -1.
     999902    2    1    2    0    0 -0.23556107274E-01  0.11899899034E-02  0.68692432684E-03  0.10203338535E+01  0.10200609758E+01 0.  0.
     999903    2    3    3    0    0 -0.11958052720E+00 -0.51306999585E-01 -0.18130937501E-01  0.13335542361E+00  0.22869792697E-01 0.  0.
         14    1    1    2    0    0  0.23556107274E-01 -0.11899899034E-02 -0.68692432684E-03  0.23596146527E-01  0.00000000000E+00 0. -1.
     999901    1    3    3    0    0  0.96024419928E-01  0.52496989488E-01  0.18817861828E-01  0.88697842987E+00  0.88000000000E+00 0. -1.
        -11    1    4    4    0    0 -0.52094026336E-01 -0.14202450433E-01  0.96935575128E-03  0.54006462112E-01  0.51100000000E-03 0.  1.
         11    1    4    4    0    0 -0.67486500865E-01 -0.37104549151E-01 -0.19100293252E-01  0.79348961494E-01  0.51100000000E-03 0. -1.
</event>
<event>
 8    1  0.1180500E+005  0.1043930E+01  0.7957747E-01            NaN
         13   -1    0    0    0    0  0.00000000000E+00  0.00000000000E+00  0.74505805969E-08  0.10566000000E+00  0.10566000000E+00 0. -1.
     999900   -1    0    0    0    0 -0.00000000000E+00 -0.00000000000E+00 -0.74505805969E-08  0.93827000000E+00  0.93827000000E+00 0.  1.
     999902    2    1    2    0    0  0.13843630612E-01  0.14211498769E-01  0.13224931365E-01  0.10200865184E+01  0.10198078218E+01 0.  0.
     999903    2    3    3    0    0 -0.21243949080E-01 -0.71980495264E-01  0.10484282530E+00  0.13044949321E+00  0.19813005568E-01 0.  0.
         14    1    1    2    0    0 -0.13843630612E-01 -0.14211498769E-01 -0.13224931365E-01  0.23843481612E-01  0.00000000000E+00 0.  1.
     999901    1    3    3    0    0  0.35087579692E-01  0.86191994032E-01 -0.91617893937E-01  0.88963702518E+00  0.88000000000E+00 0. -1.
        -11    1    4    4    0    0 -0.13813503054E-01 -0.24953320925E-01  0.27482948980E-01  0.39611295074E-01  0.51100000000E-03 0. -1.
         11    1    4    4    0    0 -0.74304460264E-02 -0.47027174339E-01  0.77359876321E-01  0.90838198132E-01  0.51100000000E-03 0.  1.
</event>
<event>
 8    1  0.1180500E+005  0.1043930E+01  0.7957747E-01            NaN
         13   -1    0    0    0    0  0.00000000000E+00  0.00000000000E+00  0.74505805969E-08  0.10566000000E+00  0.10566000000E+00 0.  1.
     999900   -1    0    0    0    0 -0.00000000000E+00 -0.00000000000E+00 -0.74505805969E-08  0.93827000000E+00  0.93827000000E+00 0.  1.
     999902    2    1    2    0    0  0.22615794023E-01 -0.40027002229E-02  0.28888814164E-02  0.10207817520E+01  0.10205192521E+01 0.  0.
     999903    2    3    3    0    0  0.83415168971E-01  0.97705068661E-01 -0.25439861751E-01  0.13238794749E+00  0.19365206409E-01 0.  0.
         14    1    1    2    0    0 -0.22615794023E-01  0.40027002229E-02 -0.28888814164E-02  0.23148247972E-01  0.00000000000E+00 0. -1.
     999901    1    3    3    0    0 -0.60799374948E-01 -0.10170776888E+00  0.28328743167E-01  0.88839380453E+00  0.88000000000E+00 0. -1.
        -11    1    4    4    0    0  0.49463080486E-01  0.70311334186E-01 -0.12436716544E-01  0.86863186020E-01  0.51100000000E-03 0. -1.
         11    1    4    4    0    0  0.33952088484E-01  0.27393734475E-01 -0.13003145208E-01  0.45524761474E-01  0.51100000000E-03 0.  1.
</event>
<event>
 8    1  0.1180500E+005  0.1043930E+01  0.7957747E-01            NaN
         13   -1    0    0    0    0  0.00000000000E+00  0.00000000000E+00  0.74505805969E-08  0.10566000000E+00  0.10566000000E+00 0.  1.
     999900   -1    0    0    0    0 -0.00000000000E+00 -0.00000000000E+00 -0.74505805969E-08  0.93827000000E+00  0.93827000000E+00 0. -1.
     999902    2    1    2    0    0  0.17062483326E-01  0.15152507352E-01  0.64736093162E-02  0.10202100836E+01  0.10199343019E+01 0.  0.
     999903    2    3    3    0    0  0.57357121368E-01  0.40836350720E-01  0.11063465272E+00  0.13277961273E+00  0.20807504992E-01 0.  0.
         14    1    1    2    0    0 -0.17062483326E-01 -0.15152507352E-01 -0.64736093162E-02  0.23719916397E-01  0.00000000000E+00 0. -1.
     999901    1    3    3    0    0 -0.40294638041E-01 -0.25683843369E-01 -0.10416104340E+00  0.88743047087E+00  0.88000000000E+00 0. -1.
        -11    1    4    4    0    0  0.22976816501E-02 -0.18721242059E-02  0.94832887014E-02  0.99487725676E-02  0.51100000000E-03 0. -1.
         11    1    4    4    0    0  0.55059439718E-01  0.42708474926E-01  0.10115136402E+00  0.12283084017E+00  0.51100000000E-03 0.  1.
</event>
<event>
 8    1  0.1180500E+005  0.1043930E+01  0.7957747E-01            NaN
         13   -1    0    0    0    0  0.00000000000E+00  0.00000000000E+00  0.74505805969E-08  0.10566000000E+00  0.10566000000E+00 0. -1.
     999900   -1    0    0    0    0 -0.00000000000E+00 -0.00000000000E+00 -0.74505805969E-08  0.93827000000E+00  0.93827000000E+00 0. -1.
     999902    2    1    2    0    0  0.15987012838E-01 -0.22079879525E-02  0.17191080304E-01  0.10203504955E+01  0.10200780071E+01 0.  0.
     999903    2    3    3    0    0  0.10441246360E+00 -0.73279555176E-01  0.31503415008E-01  0.13295257409E+00  0.20299409798E-01 0.  0.
         14    1    1    2    0    0 -0.15987012838E-01  0.22079879525E-02 -0.17191080304E-01  0.23579504497E-01  0.00000000000E+00 0.  1.
     999901    1    3    3    0    0 -0.88425450758E-01  0.71071567223E-01 -0.14312334704E-01  0.88739792142E+00  0.88000000000E+00 0. -1.
        -11    1    4    4    0    0  0.30210348331E-01 -0.31346184706E-01  0.57593129390E-02  0.43916730848E-01  0.51100000000E-03 0.  1.
         11    1    4    4    0    0  0.74202115266E-01 -0.41933370470E-01  0.25744102069E-01  0.89035843239E-01  0.51100000000E-03 0. -1.
</event>
<event>
 8    1  0.1180500E+005  0.1043930E+01  0.7957747E-01            NaN
         13   -1    0    0    0    0  0.00000000000E+00  0.00000000000E+00  0.74505805969E-08  0.10566000000E+00  0.10566000000E+00 0. -1.
     999900   -1    0    0    0    0 -0.00000000000E+00 -0.00000000000E+00 -0.74505805969E-08  0.93827000000E+00  0.93827000000E+00 0.  1.
     999902    2    1    2    0    0 -0.20683750023E-01  0.76628827381E-02 -0.58595011524E-02  0.10211074007E+01  0.10208523168E+01 0.  0.
     999903    2    3    3    0    0  0.11602539717E+00  0.47311291048E-01 -0.21698803212E-01  0.12952887316E+00  0.24630060329E-01 0.  0.
         14    1    1    2    0    0  0.20683750023E-01 -0.76628827381E-02  0.58595011524E-02  0.22822599339E-01  0.00000000000E+00 0.  1.
     999901    1    3    3    0    0 -0.13670914720E+00 -0.39648408310E-01  0.15839302060E-01  0.89157852750E+00  0.88000000000E+00 0. -1.
        -11    1    4    4    0    0  0.54649002180E-01  0.12841165173E-01 -0.98183680752E-03  0.56148322208E-01  0.51100000000E-03 0. -1.
         11    1    4    4    0    0  0.61376394993E-01  0.34470125875E-01 -0.20716966405E-01  0.73380550953E-01  0.51100000000E-03 0.  1.
</event>
<event>
 8    1  0.1180500E+005  0.1043930E+01  0.7957747E-01            NaN
         13   -1    0    0    0    0  0.00000000000E+00  0.00000000000E+00  0.74505805969E-08  0.10566000000E+00  0.10566000000E+00 0. -1.
     999900   -1    0    0    0    0 -0.00000000000E+00 -0.00000000000E+00 -0.74505805969E-08  0.93827000000E+00  0.93827000000E+00 0. -1.
     999902    2    1    2    0    0  0.73574975489E-02 -0.15601442910E-01 -0.16132605224E-01  0.10203122367E+01  0.10200388530E+01 0.  0.
     999903    2    3    3    0    0 -0.11045551300E-01  0.99994961201E-01  0.75938260322E-01  0.12779991460E+00  0.21099818065E-01 0.  0.
         14    1    1    2    0    0 -0.73574975489E-02  0.15601442910E-01  0.16132605224E-01  0.23617763280E-01  0.00000000000E+00 0. -1.
     999901    1    3    3    0    0  0.18403048849E-01 -0.11559640411E+00 -0.92070865545E-01  0.89251232212E+00  0.88000000000E+00 0. -1.
        -11    1    4    4    0    0 -0.50507888262E-02  0.59035694518E-01  0.31654265754E-01  0.67178697192E-01  0.51100000000E-03 0. -1.
         11    1    4    4    0    0 -0.59947624743E-02  0.40959266683E-01  0.44283994568E-01  0.60621217410E-01  0.51100000000E-03 0.  1.
</event>
<event>
 8    1  0.1180500E+005  0.1043930E+01  0.7957747E-01            NaN
         13   -1    0    0    0    0  0.00000000000E+00  0.00000000000E+00  0.74505805969E-08  0.10566000000E+00  0.10566000000E+00 0.  1.
     999900   -1    0    0    0    0 -0.00000000000E+00 -0.00000000000E+00 -0.74505805969E-08  0.93827000000E+00  0.93827000000E+00 0. -1.
     999902    2    1    2    0    0  0.17058439001E-01 -0.10341283238E-01  0.13988445714E-01  0.10195659056E+01  0.10192747553E+01 0.  0.
     999903    2    3    3    0    0  0.11718774491E+00 -0.58288781312E-01  0.74338910907E-02  0.13256658058E+00  0.19699897623E-01 0.  0.
         14    1    1    2    0    0 -0.17058439001E-01  0.10341283238E-01 -0.13988445714E-01  0.24364094353E-01  0.00000000000E+00 0.  1.
     999901    1    3    3    0    0 -0.10012930591E+00  0.47947498074E-01  0.65545546233E-02  0.88699932506E+00  0.88000000000E+00 0.  1.
        -11    1    4    4    0    0  0.25737691488E-01 -0.97640060073E-02  0.91847373438E-02  0.29023871167E-01  0.51100000000E-03 0.  1.
         11    1    4    4    0    0  0.91450053426E-01 -0.48524775304E-01 -0.17508462531E-02  0.10354270942E+00  0.51100000000E-03 0. -1.
</event>
<event>
 8    1  0.1180500E+005  0.1043930E+01  0.7957747E-01            NaN
         13   -1    0    0    0    0  0.00000000000E+00  0.00000000000E+00  0.74505805969E-08  0.10566000000E+00  0.10566000000E+00 0. -1.
     999900   -1    0    0    0    0 -0.00000000000E+00 -0.00000000000E+00 -0.74505805969E-08  0.93827000000E+00  0.93827000000E+00 0. -1.
     999902    2    1    2    0    0 -0.51547011915E-02  0.12267110448E-02  0.23110343740E-01  0.10202200073E+01  0.10199444591E+01 0.  0.
     999903    2    3    3    0    0 -0.12980335334E-01  0.89114464928E-01 -0.89654336173E-01  0.12864759252E+00  0.20060560829E-01 0.  0.
         14    1    1    2    0    0  0.51547011915E-02 -0.12267110448E-02 -0.23110343740E-01  0.23709992664E-01  0.00000000000E+00 0.  1.
     999901    1    3    3    0    0  0.78256341426E-02 -0.87887753883E-01  0.11276467991E+00  0.89157241482E+00  0.88000000000E+00 0.  1.
        -11    1    4    4    0    0 -0.17888191323E-01  0.70505637021E-01 -0.66741315564E-01  0.98720294594E-01  0.51100000000E-03 0. -1.
         11    1    4    4    0    0  0.49078559887E-02  0.18608827907E-01 -0.22913020609E-01  0.29927297921E-01  0.51100000000E-03 0.  1.
</event>
<event>
 8    1  0.1180500E+005  0.1043930E+01  0.7957747E-01            NaN
         13   -1    0    0    0    0  0.00000000000E+00  0.00000000000E+00  0.74505805969E-08  0.10566000000E+00  0.10566000000E+00 0.  1.
     999900   -1    0    0    0    0 -0.00000000000E+00 -0.00000000000E+00 -0.74505805969E-08  0.93827000000E+00  0.93827000000E+00 0. -1.
     999902    2    1    2    0    0 -0.18851155187E-01  0.57948083909E-02 -0.13572401793E-01  0.10199893244E+01  0.10197083240E+01 0.  0.
     999903    2    3    3    0    0  0.89658793634E-01  0.90698527673E-01 -0.79951072723E-02  0.12925134009E+00  0.19418160991E-01 0.  0.
         14    1    1    2    0    0  0.18851155187E-01 -0.57948083909E-02  0.13572401793E-01  0.23940675567E-01  0.00000000000E+00 0. -1.
     999901    1    3    3    0    0 -0.10850994882E+00 -0.84903719283E-01 -0.55772945202E-02  0.89073798435E+00  0.88000000000E+00 0.  1.
        -11    1    4    4    0    0  0.14235725150E-01  0.10652975907E-01 -0.74038492701E-02  0.19267067012E-01  0.51100000000E-03 0. -1.
         11    1    4    4    0    0  0.75423068484E-01  0.80045551766E-01 -0.59125800219E-03  0.10998427308E+00  0.51100000000E-03 0.  1.
</event>
<event>
 8    1  0.1180500E+005  0.1043930E+01  0.7957747E-01            NaN
         13   -1    0    0    0    0  0.00000000000E+00  0.00000000000E+00  0.74505805969E-08  0.10566000000E+00  0.10566000000E+00 0.  1.
     999900   -1    0    0    0    0 -0.00000000000E+00 -0.00000000000E+00 -0.74505805969E-08  0.93827000000E+00  0.93827000000E+00 0. -1.
     999902    2    1    2    0    0  0.98248749744E-03  0.57132322609E-03  0.23295259693E-01  0.10206070324E+01  0.10203405088E+01 0.  0.
     999903    2    3    3    0    0 -0.76168059647E-01  0.24239467002E-01 -0.98735098868E-01  0.12852867468E+00  0.19541632396E-01 0.  0.
         14    1    1    2    0    0 -0.98248749744E-03 -0.57132322609E-03 -0.23295259693E-01  0.23322967566E-01  0.00000000000E+00 0. -1.
     999901    1    3    3    0    0  0.77150547144E-01 -0.23668143776E-01  0.12203035856E+00  0.89207835775E+00  0.88000000000E+00 0.  1.
        -11    1    4    4    0    0 -0.31715474234E-02 -0.27387255586E-02 -0.75348505155E-02  0.86368063562E-02  0.51100000000E-03 0.  1.
         11    1    4    4    0    0 -0.72996512223E-01  0.26978192560E-01 -0.91200248353E-01  0.11989186833E+00  0.51100000000E-03 0. -1.
</event>
<event>
 8    1  0.1180500E+005  0.1043930E+01  0.7957747E-01            NaN
         13   -1    0    0    0    0  0.00000000000E+00  0.00000000000E+00  0.74505805969E-08  0.10566000000E+00  0.10566000000E+00 0. -1.
     999900   -1    0    0    0    0 -0.00000000000E+00 -0.00000000000E+00 -0.74505805969E-08  0.93827000000E+00  0.93827000000E+00 0.  1.
     999902    2    1    2    0    0  0.20819915443E-01  0.60952942664E-03  0.80362598406E-02  0.10216046360E+01  0.10213606662E+01 0.  0.
     999903    2    3    3    0    0  0.20072831261E-02 -0.11121675283E+00 -0.66446764220E-01  0.13120767206E+00  0.20666045511E-01 0.  0.
         14    1    1    2    0    0 -0.20819915443E-01 -0.60952942664E-03 -0.80362598406E-02  0.22325363993E-01  0.00000000000E+00 0.  1.
     999901    1    3    3    0    0  0.18812632317E-01  0.11182628225E+00  0.74483024060E-01  0.89039696395E+00  0.88000000000E+00 0.  1.
        -11    1    4    4    0    0 -0.41384298241E-02 -0.42610426446E-01 -0.35823508414E-01  0.55824366718E-01  0.51100000000E-03 0.  1.
         11    1    4    4    0    0  0.61457129503E-02 -0.68606326379E-01 -0.30623255806E-01  0.75383305341E-01  0.51100000000E-03 0. -1.
</event>
<event>
 8    1  0.1180500E+005  0.1043930E+01  0.7957747E-01            NaN
         13   -1    0    0    0    0  0.00000000000E+00  0.00000000000E+00  0.74505805969E-08  0.10566000000E+00  0.10566000000E+00 0. -1.
     999900   -1    0    0    0    0 -0.00000000000E+00 -0.00000000000E+00 -0.74505805969E-08  0.93827000000E+00  0.93827000000E+00 0. -1.
     999902    2    1    2    0    0  0.18763492032E-01  0.18045109430E-01  0.25195864098E-01  0.10077011969E+01  0.10070497386E+01 0.  0.
     999903    2    3    3    0    0  0.61679843299E-01  0.68748718211E-01 -0.73049779779E-01  0.11974574998E+00  0.21725215465E-01 0.  0.
         14    1    1    2    0    0 -0.18763492032E-01 -0.18045109430E-01 -0.25195864098E-01  0.36228803116E-01  0.00000000000E+00 0. -1.
     999901    1    3    3    0    0 -0.42916351267E-01 -0.50703608781E-01  0.98245643877E-01  0.88795544691E+00  0.88000000000E+00 0.  1.
        -11    1    4    4    0    0  0.94618625094E-02  0.43192480852E-02 -0.15975891752E-01  0.19070211966E-01  0.51100000000E-03 0. -1.
         11    1    4    4    0    0  0.52217980790E-01  0.64429470125E-01 -0.57073888027E-01  0.10067553801E+00  0.51100000000E-03 0.  1.
</event>
<event>
 8    1  0.1180500E+005  0.1043930E+01  0.7957747E-01            NaN
         13   -1    0    0    0    0  0.00000000000E+00  0.00000000000E+00  0.74505805969E-08  0.10566000000E+00  0.10566000000E+00 0. -1.
     999900   -1    0    0    0    0 -0.00000000000E+00 -0.00000000000E+00 -0.74505805969E-08  0.93827000000E+00  0.93827000000E+00 0. -1.
     999902    2    1    2    0    0  0.22350562115E-01 -0.23720728999E-02 -0.76927353731E-02  0.10201738948E+01  0.10198972611E+01 0.  0.
     999903    2    3    3    0    0  0.11332582969E+00  0.20783291220E-02 -0.67392575864E-01  0.13346065122E+00  0.20565092186E-01 0.  0.
         14    1    1    2    0    0 -0.22350562115E-01  0.23720728999E-02  0.76927353731E-02  0.23756105199E-01  0.00000000000E+00 0.  1.
     999901    1    3    3    0    0 -0.90975267570E-01 -0.44504020218E-02  0.59699840491E-01  0.88671324358E+00  0.88000000000E+00 0. -1.
        -11    1    4    4    0    0  0.37958082691E-01  0.71091935445E-02 -0.14533539269E-01  0.41265500835E-01  0.51100000000E-03 0.  1.
         11    1    4    4    0    0  0.75367746994E-01 -0.50308644225E-02 -0.52859036595E-01  0.92195150385E-01  0.51100000000E-03 0. -1.
</event>
<event>
 8    1  0.1180500E+005  0.1043930E+01  0.7957747E-01            NaN
         13   -1    0    0    0    0  0.00000000000E+00  0.00000000000E+00  0.74505805969E-08  0.10566000000E+00  0.10566000000E+00 0. -1.
     999900   -1    0    0    0    0 -0.00000000000E+00 -0.00000000000E+00 -0.74505805969E-08  0.93827000000E+00  0.93827000000E+00 0. -1.
     999902    2    1    2    0    0 -0.10495353948E-01 -0.14834499722E-01  0.14721172454E-01  0.10205435134E+01  0.10202755192E+01 0.  0.
     999903    2    3    3    0    0  0.83714209717E-02  0.12442610530E+00 -0.23728217471E-01  0.12856379005E+00  0.20339209408E-01 0.  0.
         14    1    1    2    0    0  0.10495353948E-01  0.14834499722E-01 -0.14721172454E-01  0.23386486587E-01  0.00000000000E+00 0.  1.
     999901    1    3    3    0    0 -0.18866774919E-01 -0.13926060502E+00  0.38449389925E-01  0.89197972336E+00  0.88000000000E+00 0.  1.
        -11    1    4    4    0    0  0.22933441968E-02  0.51987672774E-02 -0.52612117360E-02  0.77606751472E-02  0.51100000000E-03 0.  1.
         11    1    4    4    0    0  0.60780767749E-02  0.11922733802E+00 -0.18467005735E-01  0.12080311490E+00  0.51100000000E-03 0. -1.
</event>
<event>
 8    1  0.1180500E+005  0.1043930E+01  0.7957747E-01            NaN
         13   -1    0    0    0    0  0.00000000000E+00  0.00000000000E+00  0.74505805969E-08  0.10566000000E+00  0.10566000000E+00 0. -1.
     999900   -1    0    0    0    0 -0.00000000000E+00 -0.00000000000E+00 -0.74505805969E-08  0.93827000000E+00  0.93827000000E+00 0.  1.
     999902    2    1    2    0    0  0.15470138673E-01  0.15969428782E-01 -0.58926932006E-02  0.10209284418E+01  0.10206692959E+01 0.  0.
     999903    2    3    3    0    0 -0.26464151968E-01  0.80315327729E-01 -0.10017962775E+00  0.13256539357E+00  0.19665262485E-01 0.  0.
         14    1    1    2    0    0 -0.15470138673E-01 -0.15969428782E-01  0.58926932006E-02  0.23001558194E-01  0.00000000000E+00 0. -1.
     999901    1    3    3    0    0  0.41934290641E-01 -0.64345898946E-01  0.94286934551E-01  0.88836304824E+00  0.88000000000E+00 0. -1.
        -11    1    4    4    0    0 -0.46325650902E-02  0.38591860633E-01 -0.36158882424E-01  0.53089719020E-01  0.51100000000E-03 0. -1.
         11    1    4    4    0    0 -0.21831586878E-01  0.41723467096E-01 -0.64020745327E-01  0.79475674551E-01  0.51100000000E-03 0.  1.
</event>
<event>
 8    1  0.1180500E+005  0.1043930E+01  0.7957747E-01            NaN
         13   -1    0    0    0    0  0.00000000000E+00  0.00000000000E+00  0.74505805969E-08  0.10566000000E+00  0.10566000000E+00 0.  1.
     999900   -1    0    0    0    0 -0.00000000000E+00 -0.00000000000E+00 -0.74505805969E-08  0.93827000000E+00  0.93827000000E+00 0. -1.
     999902    2    1    2    0    0  0.22704851449E-01 -0.42862981483E-03  0.69236573908E-02  0.10201890852E+01  0.10199128093E+01 0.  0.
     999903    2    3    3    0    0 -0.10925736499E+00 -0.47901920057E-01 -0.41183025982E-01  0.12778671362E+00  0.20040878206E-01 0.  0.
         14    1    1    2    0    0 -0.22704851449E-01  0.42862981483E-03 -0.69236573908E-02  0.23740914778E-01  0.00000000000E+00 0. -1.
     999901    1    3    3    0    0  0.13196221644E+00  0.47473290242E-01  0.48106683373E-01  0.89240237160E+00  0.88000000000E+00 0.  1.
        -11    1    4    4    0    0 -0.76171203232E-01 -0.42475788481E-01 -0.33174421334E-01  0.93311564989E-01  0.51100000000E-03 0. -1.
         11    1    4    4    0    0 -0.33086161758E-01 -0.54261315759E-02 -0.80086046481E-02  0.34475148631E-01  0.51100000000E-03 0.  1.
</event>
<event>
 8    1  0.1180500E+005  0.1043930E+01  0.7957747E-01            NaN
         13   -1    0    0    0    0  0.00000000000E+00  0.00000000000E+00  0.74505805969E-08  0.10566000000E+00  0.10566000000E+00 0.  1.
     999900   -1    0    0    0    0 -0.00000000000E+00 -0.00000000000E+00 -0.74505805969E-08  0.93827000000E+00  0.93827000000E+00 0. -1.
     999902    2    1    2    0    0 -0.15533674254E-01  0.18569401498E-01 -0.80152987477E-02  0.10184277899E+01  0.10181084424E+01 0.  0.
     999903    2    3    3    0    0  0.12486232001E+00 -0.91934280199E-02 -0.55139349971E-02  0.12686283613E+00  0.19714401709E-01 0.  0.
         14    1    1    2    0    0  0.15533674254E-01 -0.18569401498E-01  0.80152987477E-02  0.25502210137E-01  0.00000000000E+00 0.  1.
     999901    1    3    3    0    0 -0.14039599426E+00  0.27762829518E-01 -0.25013637505E-02  0.89156495374E+00  0.88000000000E+00 0.  1.
        -11    1    4    4    0    0  0.88357928950E-01 -0.13581213272E-01  0.15948254304E-02  0.89411283132E-01  0.51100000000E-03 0. -1.
         11    1    4    4    0    0  0.36504391059E-01  0.43877852525E-02 -0.71087604276E-02  0.37451552996E-01  0.51100000000E-03 0.  1.
</event>
<event>
 8    1  0.1180500E+005  0.1043930E+01  0.7957747E-01            NaN
         13   -1    0    0    0    0  0.00000000000E+00  0.00000000000E+00  0.74505805969E-08  0.10566000000E+00  0.10566000000E+00 0.  1.
     999900   -1    0    0    0    0 -0.00000000000E+00 -0.00000000000E+00 -0.74505805969E-08  0.93827000000E+00  0.93827000000E+00 0. -1.
     999902    2    1    2    0    0  0.20053659438E-01  0.11987070634E-01 -0.55585169001E-02  0.10199146668E+01  0.10196318901E+01 0.  0.
     999903    2    3    3    0    0  0.35301427553E-01 -0.10012561284E+00  0.70967436902E-01  0.12937664411E+00  0.20751139870E-01 0.  0.
         14    1    1    2    0    0 -0.20053659438E-01 -0.11987070634E-01  0.55585169001E-02  0.24015333214E-01  0.00000000000E+00 0.  1.
     999901    1    3    3    0    0 -0.15247768115E-01  0.11211268348E+00 -0.76525953802E-01  0.89053802268E+00  0.88000000000E+00 0. -1.
        -11    1    4    4    0    0  0.96391280177E-02 -0.20667221484E-01  0.25816844061E-01  0.34450216125E-01  0.51100000000E-03 0. -1.
         11    1    4    4    0    0  0.25662299535E-01 -0.79458391359E-01  0.45150592841E-01  0.94926427984E-01  0.51100000000E-03 0.  1.
</event>
<event>
 8    1  0.1180500E+005  0.1043930E+01  0.7957747E-01            NaN
         13   -1    0    0    0    0  0.00000000000E+00  0.00000000000E+00  0.74505805969E-08  0.10566000000E+00  0.10566000000E+00 0.  1.
     999900   -1    0    0    0    0 -0.00000000000E+00 -0.00000000000E+00 -0.74505805969E-08  0.93827000000E+00  0.93827000000E+00 0. -1.
     999902    2    1    2    0    0  0.78063395993E-02  0.43567034213E-02  0.22043142787E-01  0.10201430299E+01  0.10198656684E+01 0.  0.
     999903    2    3    3    0    0  0.40947428037E-01  0.10858312059E+00  0.60846704258E-01  0.13252419607E+00  0.19833183942E-01 0.  0.
         14    1    1    2    0    0 -0.78063395993E-02 -0.43567034213E-02 -0.22043142787E-01  0.23786970100E-01  0.00000000000E+00 0. -1.
     999901    1    3    3    0    0 -0.33141088438E-01 -0.10422641717E+00 -0.38803561471E-01  0.88761883383E+00  0.88000000000E+00 0. -1.
        -11    1    4    4    0    0  0.41652524458E-01  0.92814146581E-01  0.49930527065E-01  0.11332571312E+00  0.51100000000E-03 0. -1.
         11    1    4    4    0    0 -0.70509642099E-03  0.15768974012E-01  0.10916177193E-01  0.19198482957E-01  0.51100000000E-03 0.  1.
</event>
<event>
 8    1  0.1180500E+005  0.1043930E+01  0.7957747E-01            NaN
         13   -1    0    0    0    0  0.00000000000E+00  0.00000000000E+00  0.74505805969E-08  0.10566000000E+00  0.10566000000E+00 0.  1.
     999900   -1    0    0    0    0 -0.00000000000E+00 -0.00000000000E+00 -0.74505805969E-08  0.93827000000E+00  0.93827000000E+00 0.  1.
     999902    2    1    2    0    0  0.20076491711E-01  0.66505230292E-02 -0.10453723089E-01  0.10203381518E+01  0.10200653747E+01 0.  0.
     999903    2    3    3    0    0 -0.99242035997E-01  0.42292319776E-01 -0.69043415914E-01  0.12964179452E+00  0.20059401403E-01 0.  0.
         14    1    1    2    0    0 -0.20076491711E-01 -0.66505230292E-02  0.10453723089E-01  0.23591848219E-01  0.00000000000E+00 0.  1.
     999901    1    3    3    0    0  0.11931852771E+00 -0.35641796747E-01  0.58589692825E-01  0.89069635726E+00  0.88000000000E+00 0. -1.
        -11    1    4    4    0    0 -0.15448587867E-01  0.23135537497E-02 -0.17450377383E-01  0.23426228673E-01  0.51100000000E-03 0.  1.
         11    1    4    4    0    0 -0.83793448130E-01  0.39978766027E-01 -0.51593038532E-01  0.10621556585E+00  0.51100000000E-03 0. -1.
</event>
<event>
 7    1  0.1180500E+005  0.1043930E+01  0.7957747E-01            NaN
         13   -1    0    0    0    0  0.00000000000E+00  0.00000000000E+00  0.74505805969E-08  0.10566000000E+00  0.10566000000E+00 0.  1.
     999900   -1    0    0    0    0 -0.00000000000E+00 -0.00000000000E+00 -0.74505805969E-08  0.93827000000E+00  0.93827000000E+00 0.  1.
     999902    2    1    2    0    0 -0.16823836050E-01  0.74389487586E-02  0.15350066342E-01  0.10199716204E+01  0.10196901992E+01 0.  0.
         14    1    1    2    0    0  0.16823836050E-01 -0.74389487586E-02 -0.15350066342E-01  0.23958379636E-01  0.00000000000E+00 0. -1.
     999901    1    3    3    0    0  0.62040247647E-01  0.52169180960E-01  0.10179675938E+00  0.88956910692E+00  0.88000000000E+00 0. -1.
        -11    1    3    3    0    0 -0.35445518251E-01 -0.40766103830E-01 -0.47156605727E-01  0.71709598871E-01  0.51100000000E-03 0.  1.
         11    1    3    3    0    0 -0.43418565446E-01 -0.39641283717E-02 -0.39290087309E-01  0.58692914572E-01  0.51100000000E-03 0. -1.
</event>
<event>
 8    1  0.1180500E+005  0.1043930E+01  0.7957747E-01            NaN
         13   -1    0    0    0    0  0.00000000000E+00  0.00000000000E+00  0.74505805969E-08  0.10566000000E+00  0.10566000000E+00 0. -1.
     999900   -1    0    0    0    0 -0.00000000000E+00 -0.00000000000E+00 -0.74505805969E-08  0.93827000000E+00  0.93827000000E+00 0.  1.
     999902    2    1    2    0    0  0.23018728116E-01 -0.18366992408E-03 -0.46385386202E-02  0.10204478447E+01  0.10201776277E+01 0.  0.
     999903    2    3    3    0    0  0.74168315275E-01  0.48008836259E-01  0.95938740694E-01  0.13193527467E+00  0.19922032707E-01 0.  0.
         14    1    1    2    0    0 -0.23018728116E-01  0.18366992408E-03  0.46385386202E-02  0.23482155336E-01  0.00000000000E+00 0.  1.
     999901    1    3    3    0    0 -0.51149587160E-01 -0.48192506183E-01 -0.10057727931E+00  0.88851256999E+00  0.88000000000E+00 0.  1.
        -11    1    4    4    0    0  0.91757123184E-02  0.14885481555E-01  0.15883157495E-01  0.23628522398E-01  0.51100000000E-03 0. -1.
         11    1    4    4    0    0  0.64992602957E-01  0.33123354703E-01  0.80055583199E-01  0.10830675227E+00  0.51100000000E-03 0.  1.
</event>
<event>
 8    1  0.1180500E+005  0.1043930E+01  0.7957747E-01            NaN
         13   -1    0    0    0    0  0.00000000000E+00  0.00000000000E+00  0.74505805969E-08  0.10566000000E+00  0.10566000000E+00 0.  1.
     999900   -1    0    0    0    0 -0.00000000000E+00 -0.00000000000E+00 -0.74505805969E-08  0.93827000000E+00  0.93827000000E+00 0.  1.
     999902    2    1    2    0    0 -0.26547361831E-02 -0.17865816368E-01 -0.16524169205E-01  0.10194497388E+01  0.10191557716E+01 0.  0.
     999903    2    3    3    0    0 -0.23603891162E-01  0.10420107823E+00 -0.69781003916E-01  0.12918265290E+00  0.20093803054E-01 0.  0.
         14    1    1    2    0    0  0.26547361831E-02  0.17865816368E-01  0.16524169205E-01  0.24480261163E-01  0.00000000000E+00 0.  1.
     999901    1    3    3    0    0  0.20949154979E-01 -0.12206689460E+00  0.53256834712E-01  0.89026708593E+00  0.88000000000E+00 0.  1.
        -11    1    4    4    0    0 -0.12215390691E-02  0.45672623240E-01 -0.24287419052E-01  0.51745729452E-01  0.51100000000E-03 0.  1.
         11    1    4    4    0    0 -0.22382352093E-01  0.58528454992E-01 -0.45493584864E-01  0.77436923453E-01  0.51100000000E-03 0. -1.
</event>
<event>
 8    1  0.1180500E+005  0.1043930E+01  0.7957747E-01            NaN
         13   -1    0    0    0    0  0.00000000000E+00  0.00000000000E+00  0.74505805969E-08  0.10566000000E+00  0.10566000000E+00 0. -1.
     999900   -1    0    0    0    0 -0.00000000000E+00 -0.00000000000E+00 -0.74505805969E-08  0.93827000000E+00  0.93827000000E+00 0. -1.
     999902    2    1    2    0    0 -0.11646460779E-01 -0.19892137791E-01 -0.10804091801E-01  0.10184728675E+01  0.10181546623E+01 0.  0.
     999903    2    3    3    0    0  0.27147555792E-01  0.36978147922E-01  0.11627078053E+00  0.12668408743E+00  0.20629842274E-01 0.  0.
         14    1    1    2    0    0  0.11646460779E-01  0.19892137791E-01  0.10804091801E-01  0.25457132482E-01  0.00000000000E+00 0.  1.
     999901    1    3    3    0    0 -0.38794016571E-01 -0.56870285713E-01 -0.12707487233E+00  0.89178878009E+00  0.88000000000E+00 0. -1.
        -11    1    4    4    0    0  0.13565848470E-01  0.14160669972E-01  0.75646161172E-01  0.78148318215E-01  0.51100000000E-03 0.  1.
         11    1    4    4    0    0  0.13581707322E-01  0.22817477950E-01  0.40624619360E-01  0.48535769211E-01  0.51100000000E-03 0. -1.
</event>
<event>
 8    1  0.1180500E+005  0.1043930E+01  0.7957747E-01            NaN
         13   -1    0    0    0    0  0.00000000000E+00  0.00000000000E+00  0.74505805969E-08  0.10566000000E+00  0.10566000000E+00 0.  1.
     999900   -1    0    0    0    0 -0.00000000000E+00 -0.00000000000E+00 -0.74505805969E-08  0.93827000000E+00  0.93827000000E+00 0. -1.
     999902    2    1    2    0    0 -0.20956168145E-02 -0.14750370696E-01 -0.18391634407E-01  0.10202610908E+01  0.10199865078E+01 0.  0.
     999903    2    3    3    0    0  0.77391040062E-01  0.39374196078E-01  0.91861181277E-01  0.12818302209E+00  0.21276985866E-01 0.  0.
         14    1    1    2    0    0  0.20956168145E-02  0.14750370696E-01  0.18391634407E-01  0.23668909178E-01  0.00000000000E+00 0. -1.
     999901    1    3    3    0    0 -0.79486656876E-01 -0.54124566774E-01 -0.11025281568E+00  0.89207806873E+00  0.88000000000E+00 0. -1.
        -11    1    4    4    0    0  0.52874863222E-01  0.35194948233E-01  0.56915649659E-01  0.85288263196E-01  0.51100000000E-03 0. -1.
         11    1    4    4    0    0  0.24516176840E-01  0.41792478448E-02  0.34945531618E-01  0.42894758892E-01  0.51100000000E-03 0.  1.
</event>
<event>
 8    1  0.1180500E+005  0.1043930E+01  0.7957747E-01            NaN
         13   -1    0    0    0    0  0.00000000000E+00  0.00000000000E+00  0.74505805969E-08  0.10566000000E+00  0.10566000000E+00 0. -1.
     999900   -1    0    0    0    0 -0.00000000000E+00 -0.00000000000E+00 -0.74505805969E-08  0.93827000000E+00  0.93827000000E+00 0. -1.
     999902    2    1    2    0    0  0.17463290049E-01  0.66519969284E-02  0.88152978580E-02  0.10232678356E+01  0.10230592057E+01 0.  0.
     999903    2    3    3    0    0 -0.83000147091E-01 -0.25641464837E-01  0.98036414426E-01  0.13248381152E+00  0.19857306565E-01 0.  0.
         14    1    1    2    0    0 -0.17463290049E-01 -0.66519969284E-02 -0.88152978580E-02  0.20662164427E-01  0.00000000000E+00 0.  1.
     999901    1    3    3    0    0  0.10046343714E+00  0.32293461766E-01 -0.89221116568E-01  0.89078402406E+00  0.88000000000E+00 0.  1.
        -11    1    4    4    0    0 -0.55443691788E-01 -0.16372173619E-01  0.50520417727E-01  0.76776459650E-01  0.51100000000E-03 0. -1.
         11    1    4    4    0    0 -0.27556455303E-01 -0.92692912183E-02  0.47515996699E-01  0.55707351866E-01  0.51100000000E-03 0.  1.
</event>
<event>
 8    1  0.1180500E+005  0.1043930E+01  0.7957747E-01            NaN
         13   -1    0    0    0    0  0.00000000000E+00  0.00000000000E+00  0.74505805969E-08  0.10566000000E+00  0.10566000000E+00 0. -1.
     999900   -1    0    0    0    0 -0.00000000000E+00 -0.00000000000E+00 -0.74505805969E-08  0.93827000000E+00  0.93827000000E+00 0.  1.
     999902    2    1    2    0    0  0.13320053730E-01 -0.15286716885E-01 -0.94112556097E-02  0.10215764930E+01  0.10213319009E+01 0.  0.
     999903    2    3    3    0    0 -0.60840717091E-01  0.97862251508E-01  0.55819044148E-01  0.12885173080E+00  0.14435709704E-01 0.  0.
         14    1    1    2    0    0 -0.13320053730E-01  0.15286716885E-01  0.94112556097E-02  0.22353507033E-01  0.00000000000E+00 0. -1.
     999901    1    3    3    0    0  0.74160770821E-01 -0.11314896839E+00 -0.65230299758E-01  0.89272476217E+00  0.88000000000E+00 0.  1.
        -11    1    4    4    0    0 -0.24604541733E-01  0.53173812606E-01  0.27564589812E-01  0.64752649007E-01  0.51100000000E-03 0. -1.
         11    1    4    4    0    0 -0.36236175358E-01  0.44688438901E-01  0.28254454337E-01  0.64099081794E-01  0.51100000000E-03 0.  1.
</event>
<event>
 8    1  0.1180500E+005  0.1043930E+01  0.7957747E-01            NaN
         13   -1    0    0    0    0  0.00000000000E+00  0.00000000000E+00  0.74505805969E-08  0.10566000000E+00  0.10566000000E+00 0.  1.
     999900   -1    0    0    0    0 -0.00000000000E+00 -0.00000000000E+00 -0.74505805969E-08  0.93827000000E+00  0.93827000000E+00 0. -1.
     999902    2    1    2    0    0 -0.15317769537E-01  0.65355166370E-02  0.15798132497E-01  0.10209750870E+01  0.10207170030E+01 0.  0.
     999903    2    3    3    0    0  0.10753459128E+00 -0.17719621347E-01 -0.65042974134E-01  0.12844144683E+00  0.19721649996E-01 0.  0.
         14    1    1    2    0    0  0.15317769537E-01 -0.65355166370E-02 -0.15798132497E-01  0.22954913019E-01  0.00000000000E+00 0.  1.
     999901    1    3    3    0    0 -0.12285236081E+00  0.24255137984E-01  0.80841106631E-01  0.89253364015E+00  0.88000000000E+00 0.  1.
        -11    1    4    4    0    0  0.57637759760E-01 -0.99766572650E-02 -0.46210383988E-01  0.74547338984E-01  0.51100000000E-03 0. -1.
         11    1    4    4    0    0  0.49896831516E-01 -0.77429640824E-02 -0.18832590146E-01  0.53894107848E-01  0.51100000000E-03 0.  1.
</event>
<event>
 8    1  0.1180500E+005  0.1043930E+01  0.7957747E-01            NaN
         13   -1    0    0    0    0  0.00000000000E+00  0.00000000000E+00  0.74505805969E-08  0.10566000000E+00  0.10566000000E+00 0.  1.
     999900   -1    0    0    0    0 -0.00000000000E+00 -0.00000000000E+00 -0.74505805969E-08  0.93827000000E+00  0.93827000000E+00 0. -1.
     999902    2    1    2    0    0  0.20387708578E-01 -0.11899361653E-01 -0.66624605437E-02  0.10194016114E+01  0.10191064730E+01 0.  0.
     999903    2    3    3    0    0 -0.11720755684E+00 -0.60673740527E-02  0.44066750231E-01  0.12724695998E+00  0.21805640137E-01 0.  0.
         14    1    1    2    0    0 -0.20387708578E-01  0.11899361653E-01  0.66624605437E-02  0.24528388641E-01  0.00000000000E+00 0.  1.
     999901    1    3    3    0    0  0.13759526541E+00 -0.58319876008E-02 -0.50729210775E-01  0.89215465137E+00  0.88000000000E+00 0.  1.
        -11    1    4    4    0    0 -0.23837869029E-01 -0.90611541074E-03  0.18808204149E-01  0.30382144580E-01  0.51100000000E-03 0.  1.
         11    1    4    4    0    0 -0.93369687808E-01 -0.51612586420E-02  0.25258546082E-01  0.96864815404E-01  0.51100000000E-03 0. -1.
</event>
<event>
 8    1  0.1180500E+005  0.1043930E+01  0.7957747E-01            NaN
         13   -1    0    0    0    0  0.00000000000E+00  0.00000000000E+00  0.74505805969E-08  0.10566000000E+00  0.10566000000E+00 0.  1.
     999900   -1    0    0    0    0 -0.00000000000E+00 -0.00000000000E+00 -0.74505805969E-08  0.93827000000E+00  0.93827000000E+00 0. -1.
     999902    2    1    2    0    0 -0.11047502303E-01  0.19765788286E-01  0.92681062974E-02  0.10194630532E+01  0.10191694095E+01 0.  0.
     999903    2    3    3    0    0  0.12093819973E+00 -0.88742075091E-02  0.38004521892E-01  0.12869582403E+00  0.20334004166E-01 0.  0.
         14    1    1    2    0    0  0.11047502303E-01 -0.19765788286E-01 -0.92681062974E-02  0.24466946848E-01  0.00000000000E+00 0.  1.
     999901    1    3    3    0    0 -0.13198570203E+00  0.28639995795E-01 -0.28736415594E-01  0.89076722912E+00  0.88000000000E+00 0. -1.
        -11    1    4    4    0    0  0.61546545193E-01 -0.14691136719E-01  0.19348915565E-01  0.66169844928E-01  0.51100000000E-03 0. -1.
         11    1    4    4    0    0  0.59391654536E-01  0.58169292099E-02  0.18655606327E-01  0.62525979100E-01  0.51100000000E-03 0.  1.
</event>
<event>
 8    1  0.1180500E+005  0.1043930E+01  0.7957747E-01            NaN
         13   -1    0    0    0    0  0.00000000000E+00  0.00000000000E+00  0.74505805969E-08  0.10566000000E+00  0.10566000000E+00 0.  1.
     999900   -1    0    0    0    0 -0.00000000000E+00 -0.00000000000E+00 -0.74505805969E-08  0.93827000000E+00  0.93827000000E+00 0. -1.
     999902    2    1    2    0    0  0.15251755571E-01 -0.92843652250E-02 -0.15751864299E-01  0.10201195671E+01  0.10198416517E+01 0.  0.
     999903    2    3    3    0    0  0.76238493826E-01  0.63873432773E-01 -0.85774408731E-01  0.13221495377E+00  0.15212542630E-01 0.  0.
         14    1    1    2    0    0 -0.15251755571E-01  0.92843652250E-02  0.15751864299E-01  0.23810432892E-01  0.00000000000E+00 0.  1.
     999901    1    3    3    0    0 -0.60986738255E-01 -0.73157797998E-01  0.70022544432E-01  0.88790461333E+00  0.88000000000E+00 0. -1.
        -11    1    4    4    0    0  0.65395898387E-01  0.52739313433E-01 -0.64776512203E-01  0.10608636275E+00  0.51100000000E-03 0.  1.
         11    1    4    4    0    0  0.10842595438E-01  0.11134119341E-01 -0.20997896528E-01  0.26128591024E-01  0.51100000000E-03 0. -1.
</event>
<event>
 8    1  0.1180500E+005  0.1043930E+01  0.7957747E-01            NaN
         13   -1    0    0    0    0  0.00000000000E+00  0.00000000000E+00  0.74505805969E-08  0.10566000000E+00  0.10566000000E+00 0. -1.
     999900   -1    0    0    0    0 -0.00000000000E+00 -0.00000000000E+00 -0.74505805969E-08  0.93827000000E+00  0.93827000000E+00 0. -1.
     999902    2    1    2    0    0  0.70169985851E-02  0.21303822795E-01 -0.92210717119E-02  0.10196788289E+01  0.10193904036E+01 0.  0.
     999903    2    3    3    0    0  0.50971837441E-01 -0.10854551517E+00  0.39384309815E-01  0.12773972700E+00  0.19648331250E-01 0.  0.
         14    1    1    2    0    0 -0.70169985851E-02 -0.21303822795E-01  0.92210717119E-02  0.24251171071E-01  0.00000000000E+00 0. -1.
     999901    1    3    3    0    0 -0.43954838856E-01  0.12984933796E+00 -0.48605381527E-01  0.89193910192E+00  0.88000000000E+00 0.  1.
        -11    1    4    4    0    0 -0.94057102987E-03 -0.83233537363E-02  0.49077091201E-02  0.97216058904E-02  0.51100000000E-03 0.  1.
         11    1    4    4    0    0  0.51912408471E-01 -0.10022216143E+00  0.34476600695E-01  0.11801812111E+00  0.51100000000E-03 0. -1.
</event>
<event>
 8    1  0.1180500E+005  0.1043930E+01  0.7957747E-01            NaN
         13   -1    0    0    0    0  0.00000000000E+00  0.00000000000E+00  0.74505805969E-08  0.10566000000E+00  0.10566000000E+00 0. -1.
     999900   -1    0    0    0    0 -0.00000000000E+00 -0.00000000000E+00 -0.74505805969E-08  0.93827000000E+00  0.93827000000E+00 0. -1.
     999902    2    1    2    0    0 -0.55243398342E-02 -0.98531606660E-02 -0.18884586633E-01  0.10219247570E+01  0.10216878086E+01 0.  0.
     999903    2    3    3    0    0  0.22140469610E-01  0.12173392108E+00  0.34857087731E-01  0.13009031650E+00  0.19978136710E-01 0.  0.
         14    1    1    2    0    0  0.55243398342E-02  0.98531606660E-02  0.18884586633E-01  0.22005242966E-01  0.00000000000E+00 0. -1.
     999901    1    3    3    0    0 -0.27664809444E-01 -0.13158708174E+00 -0.53741674364E-01  0.89183444054E+00  0.88000000000E+00 0. -1.
        -11    1    4    4    0    0  0.19297843390E-01  0.90776793397E-01  0.34454954204E-01  0.98996151285E-01  0.51100000000E-03 0. -1.
         11    1    4    4    0    0  0.28426262196E-02  0.30957127678E-01  0.40213352716E-03  0.31094165213E-01  0.51100000000E-03 0.  1.
</event>
<event>
 8    1  0.1180500E+005  0.1043930E+01  0.7957747E-01            NaN
         13   -1    0    0    0    0  0.00000000000E+00  0.00000000000E+00  0.74505805969E-08  0.10566000000E+00  0.10566000000E+00 0. -1.
     999900   -1    0    0    0    0 -0.00000000000E+00 -0.00000000000E+00 -0.74505805969E-08  0.93827000000E+00  0.93827000000E+00 0.  1.
     999902    2    1    2    0    0 -0.14963170456E-01 -0.97252140414E-03 -0.17382422249E-01  0.10209737183E+01  0.10207156031E+01 0.  0.
     999903    2    3    3    0    0 -0.10613607404E-01  0.31519681537E-01 -0.12772014743E+00  0.13347776022E+00  0.19943355447E-01 0.  0.
         14    1    1    2    0    0  0.14963170456E-01  0.97252140414E-03  0.17382422249E-01  0.22956281738E-01  0.00000000000E+00 0.  1.
     999901    1    3    3    0    0 -0.43495630519E-02 -0.32492202941E-01  0.11033772518E+00  0.88749595805E+00  0.88000000000E+00 0. -1.
        -11    1    4    4    0    0 -0.10501945128E-01  0.84609044847E-02 -0.27439490449E-01  0.30578824589E-01  0.51100000000E-03 0. -1.
         11    1    4    4    0    0 -0.11166227661E-03  0.23058777052E-01 -0.10028065698E+00  0.10289893563E+00  0.51100000000E-03 0.  1.
</event>
<event>
 8    1  0.1180500E+005  0.1043930E+01  0.7957747E-01            NaN
         13   -1    0    0    0    0  0.00000000000E+00  0.00000000000E+00  0.74505805969E-08  0.10566000000E+00  0.10566000000E+00 0. -1.
     999900   -1    0    0    0    0 -0.00000000000E+00 -0.00000000000E+00 -0.74505805969E-08  0.93827000000E+00  0.93827000000E+00 0. -1.
     999902    2    1    2    0    0  0.10165374985E-01  0.21441672895E-01 -0.25324585859E-02  0.10200659364E+01  0.10197867527E+01 0.  0.
     999903    2    3    3    0    0 -0.19645116915E-01 -0.42147338930E-01  0.11859393849E+00  0.12899700981E+00  0.20331687007E-01 0.  0.
         14    1    1    2    0    0 -0.10165374985E-01 -0.21441672895E-01  0.25324585859E-02  0.23864063602E-01  0.00000000000E+00 0. -1.
     999901    1    3    3    0    0  0.29810491900E-01  0.63589011825E-01 -0.12112639708E+00  0.89106892658E+00  0.88000000000E+00 0. -1.
        -11    1    4    4    0    0 -0.19168026001E-01 -0.38179140531E-01  0.11718200938E+00  0.12472748067E+00  0.51100000000E-03 0. -1.
         11    1    4    4    0    0 -0.47709091400E-03 -0.39681983985E-02  0.14119291168E-02  0.42695291428E-02  0.51100000000E-03 0.  1.
</event>
<event>
 8    1  0.1180500E+005  0.1043930E+01  0.7957747E-01            NaN
         13   -1    0    0    0    0  0.00000000000E+00  0.00000000000E+00  0.74505805969E-08  0.10566000000E+00  0.10566000000E+00 0.  1.
     999900   -1    0    0    0    0 -0.00000000000E+00 -0.00000000000E+00 -0.74505805969E-08  0.93827000000E+00  0.93827000000E+00 0.  1.
     999902    2    1    2    0    0 -0.22413538158E-01  0.22290991366E-02  0.70815311459E-02  0.10203189081E+01  0.10200456807E+01 0.  0.
     999903    2    3    3    0    0  0.87437458825E-02  0.11076083523E+00  0.66768043618E-01  0.13109880385E+00  0.19608901274E-01 0.  0.
         14    1    1    2    0    0  0.22413538158E-01 -0.22290991366E-02 -0.70815311459E-02  0.23611091866E-01  0.00000000000E+00 0. -1.
     999901    1    3    3    0    0 -0.31157284041E-01 -0.10853173610E+00 -0.59686512472E-01  0.88922010428E+00  0.88000000000E+00 0. -1.
        -11    1    4    4    0    0  0.13918135115E-01  0.63159122708E-01  0.42749173409E-01  0.77527686761E-01  0.51100000000E-03 0. -1.
         11    1    4    4    0    0 -0.51743892325E-02  0.47601712525E-01  0.24018870209E-01  0.53571117091E-01  0.51100000000E-03 0.  1.
</event>
<event>
 8    1  0.1180500E+005  0.1043930E+01  0.7957747E-01            NaN
         13   -1    0    0    0    0  0.00000000000E+00  0.00000000000E+00  0.74505805969E-08  0.10566000000E+00  0.10566000000E+00 0. -1.
     999900   -1    0    0    0    0 -0.00000000000E+00 -0.00000000000E+00 -0.74505805969E-08  0.93827000000E+00  0.93827000000E+00 0.  1.
     999902    2    1    2    0    0 -0.68781838973E-02  0.21631521873E-01  0.12069909670E-01  0.10182217353E+01  0.10178971399E+01 0.  0.
     999903    2    3    3    0    0 -0.12585127255E+00  0.84681239904E-02  0.24103481398E-01  0.13003668834E+00  0.20452642214E-01 0.  0.
         14    1    1    2    0    0  0.68781838973E-02 -0.21631521873E-01 -0.12069909670E-01  0.25708264658E-01  0.00000000000E+00 0.  1.
     999901    1    3    3    0    0  0.11897308865E+00  0.13163397883E-01 -0.12033571729E-01  0.88818504700E+00  0.88000000000E+00 0.  1.
        -11    1    4    4    0    0 -0.69690429233E-01  0.45683849139E-02  0.23646892028E-01  0.73736440726E-01  0.51100000000E-03 0.  1.
         11    1    4    4    0    0 -0.56160843315E-01  0.38997390765E-02  0.45658937031E-03  0.56300247615E-01  0.51100000000E-03 0. -1.
</event>
<event>
 8    1  0.1180500E+005  0.1043930E+01  0.7957747E-01            NaN
         13   -1    0    0    0    0  0.00000000000E+00  0.00000000000E+00  0.74505805969E-08  0.10566000000E+00  0.10566000000E+00 0.  1.
     999900   -1    0    0    0    0 -0.00000000000E+00 -0.00000000000E+00 -0.74505805969E-08  0.93827000000E+00  0.93827000000E+00 0. -1.
     999902    2    1    2    0    0 -0.42090302372E-02 -0.39940305489E-02 -0.23229213700E-01  0.10199870556E+01  0.10197060013E+01 0.  0.
     999903    2    3    3    0    0 -0.70609561834E-01  0.31389129909E-01 -0.10617309575E+00  0.13289028177E+00  0.20398848742E-01 0.  0.
         14    1    1    2    0    0  0.42090302372E-02  0.39940305489E-02  0.23229213700E-01  0.23942944361E-01  0.00000000000E+00 0.  1.
     999901    1    3    3    0    0  0.66400531597E-01 -0.35383160458E-01  0.82943882046E-01  0.88709677387E+00  0.88000000000E+00 0.  1.
        -11    1    4    4    0    0 -0.37204196293E-01  0.13643452528E-01 -0.70598284345E-01  0.80960946710E-01  0.51100000000E-03 0. -1.
         11    1    4    4    0    0 -0.33405365541E-01  0.17745677381E-01 -0.35574811400E-01  0.51929335060E-01  0.51100000000E-03 0.  1.
</event>
<event>
 8    1  0.1180500E+005  0.1043930E+01  0.7957747E-01            NaN
         13   -1    0    0    0    0  0.00000000000E+00  0.00000000000E+00  0.74505805969E-08  0.10566000000E+00  0.10566000000E+00 0. -1.
     999900   -1    0    0    0    0 -0.00000000000E+00 -0.00000000000E+00 -0.74505805969E-08  0.93827000000E+00  0.93827000000E+00 0.  1.
     999902    2    1    2    0    0 -0.12905026611E-01 -0.19544216289E-01  0.49369792501E-02  0.10199948822E+01  0.10197140137E+01 0.  0.
     999903    2    3    3    0    0  0.12448076227E+00  0.21864600115E-01 -0.95702885449E-02  0.12825500647E+00  0.19601922071E-01 0.  0.
         14    1    1    2    0    0  0.12905026611E-01  0.19544216289E-01 -0.49369792501E-02  0.23935117846E-01  0.00000000000E+00 0.  1.
     999901    1    3    3    0    0 -0.13738578888E+00 -0.41408816404E-01  0.14507267795E-01  0.89173987568E+00  0.88000000000E+00 0. -1.
        -11    1    4    4    0    0  0.25873549063E-01  0.78718987081E-03 -0.90221032590E-02  0.27417506765E-01  0.51100000000E-03 0. -1.
         11    1    4    4    0    0  0.98607213207E-01  0.21077410244E-01 -0.54818528592E-03  0.10083749971E+00  0.51100000000E-03 0.  1.
</event>
<event>
 8    1  0.1180500E+005  0.1043930E+01  0.7957747E-01            NaN
         13   -1    0    0    0    0  0.00000000000E+00  0.00000000000E+00  0.74505805969E-08  0.10566000000E+00  0.10566000000E+00 0. -1.
     999900   -1    0    0    0    0 -0.00000000000E+00 -0.00000000000E+00 -0.74505805969E-08  0.93827000000E+00  0.93827000000E+00 0. -1.
     999902    2    1    2    0    0  0.30698792454E-04  0.23219421142E-01  0.27336393089E-02  0.10205501958E+01  0.10202823565E+01 0.  0.
     999903    2    3    3    0    0  0.43918223443E-02  0.12711958393E+00  0.39173010727E-01  0.13367811313E+00  0.12515447975E-01 0.  0.
         14    1    1    2    0    0 -0.30698792454E-04 -0.23219421142E-01 -0.27336393089E-02  0.23379804201E-01  0.00000000000E+00 0.  1.
     999901    1    3    3    0    0 -0.43611235518E-02 -0.10390016279E+00 -0.36439371418E-01  0.88687208267E+00  0.88000000000E+00 0.  1.
        -11    1    4    4    0    0  0.63511312370E-02  0.92406755385E-01  0.23644262680E-01  0.95596326224E-01  0.51100000000E-03 0.  1.
         11    1    4    4    0    0 -0.19593088927E-02  0.34712828548E-01  0.15528748047E-01  0.38081786907E-01  0.51100000000E-03 0. -1.
</event>
<event>
 8    1  0.1180500E+005  0.1043930E+01  0.7957747E-01            NaN
         13   -1    0    0    0    0  0.00000000000E+00  0.00000000000E+00  0.74505805969E-08  0.10566000000E+00  0.10566000000E+00 0. -1.
     999900   -1    0    0    0    0 -0.00000000000E+00 -0.00000000000E+00 -0.74505805969E-08  0.93827000000E+00  0.93827000000E+00 0. -1.
     999902    2    1    2    0    0  0.22012977249E-02  0.12694247716E-01 -0.19596386418E-01  0.10204777507E+01  0.10202082296E+01 0.  0.
     999903    2    3    3    0    0  0.18024840579E-01  0.12253340757E+00 -0.46681086965E-01  0.13309474063E+00  0.13991256347E-01 0.  0.
         14    1    1    2    0    0 -0.22012977249E-02 -0.12694247716E-01  0.19596386418E-01  0.23452249303E-01  0.00000000000E+00 0. -1.
     999901    1    3    3    0    0 -0.15823542854E-01 -0.10983915986E+00  0.27084700547E-01  0.88738301006E+00  0.88000000000E+00 0.  1.
        -11    1    4    4    0    0  0.10044417965E-01  0.27845036808E-01 -0.11758979842E-01  0.31855472607E-01  0.51100000000E-03 0. -1.
         11    1    4    4    0    0  0.79804226144E-02  0.94688370766E-01 -0.34922107123E-01  0.10123926803E+00  0.51100000000E-03 0.  1.
</event>
<event>
 8    1  0.1180500E+005  0.1043930E+01  0.7957747E-01            NaN
         13   -1    0    0    0    0  0.00000000000E+00  0.00000000000E+00  0.74505805969E-08  0.10566000000E+00  0.10566000000E+00 0.  1.
     999900   -1    0    0    0    0 -0.00000000000E+00 -0.00000000000E+00 -0.74505805969E-08  0.93827000000E+00  0.93827000000E+00 0.  1.
     999902    2    1    2    0    0 -0.23254892486E-01  0.34378676528E-02  0.94015445655E-02  0.10186120617E+01  0.10182973703E+01 0.  0.
     999903    2    3    3    0    0  0.25212349243E-01  0.21647349818E-01  0.12365062867E+00  0.12971751681E+00  0.20805909928E-01 0.  0.
         14    1    1    2    0    0  0.23254892486E-01 -0.34378676528E-02 -0.94015445655E-02  0.25317938280E-01  0.00000000000E+00 0. -1.
     999901    1    3    3    0    0 -0.48467241728E-01 -0.18209482166E-01 -0.11424908410E+00  0.88889454491E+00  0.88000000000E+00 0. -1.
        -11    1    4    4    0    0  0.28643781350E-01  0.16745960340E-01  0.10607966006E+00  0.11114876876E+00  0.51100000000E-03 0.  1.
         11    1    4    4    0    0 -0.34314321078E-02  0.49013894788E-02  0.17570968607E-01  0.18568748044E-01  0.51100000000E-03 0. -1.
</event>
<event>
 8    1  0.1180500E+005  0.1043930E+01  0.7957747E-01            NaN
         13   -1    0    0    0    0  0.00000000000E+00  0.00000000000E+00  0.74505805969E-08  0.10566000000E+00  0.10566000000E+00 0. -1.
     999900   -1    0    0    0    0 -0.00000000000E+00 -0.00000000000E+00 -0.74505805969E-08  0.93827000000E+00  0.93827000000E+00 0. -1.
     999902    2    1    2    0    0 -0.18772686162E-01 -0.58845645505E-02  0.12762405986E-01  0.10204796087E+01  0.10202101308E+01 0.  0.
     999903    2    3    3    0    0  0.18574068137E-01  0.10928028726E+00  0.66279235949E-01  0.13057974116E+00  0.19260178982E-01 0.  0.
         14    1    1    2    0    0  0.18772686162E-01  0.58845645505E-02 -0.12762405986E-01  0.23450391302E-01  0.00000000000E+00 0. -1.
     999901    1    3    3    0    0 -0.37346754299E-01 -0.11516485181E+00 -0.53516829963E-01  0.88989986753E+00  0.88000000000E+00 0. -1.
        -11    1    4    4    0    0  0.15229394057E-01  0.35988632112E-01  0.25023877041E-01  0.46406590349E-01  0.51100000000E-03 0.  1.
         11    1    4    4    0    0  0.33446740802E-02  0.73291655144E-01  0.41255358908E-01  0.84173150815E-01  0.51100000000E-03 0. -1.
</event>
<event>
 8    1  0.1180500E+005  0.1043930E+01  0.7957747E-01            NaN
         13   -1    0    0    0    0  0.00000000000E+00  0.00000000000E+00  0.74505805969E-08  0.10566000000E+00  0.10566000000E+00 0. -1.
     999900   -1    0    0    0    0 -0.00000000000E+00 -0.00000000000E+00 -0.74505805969E-08  0.93827000000E+00  0.93827000000E+00 0. -1.
     999902    2    1    2    0    0 -0.11626532394E-01  0.14315088848E-01  0.14937396632E-01  0.10201976625E+01  0.10199215885E+01 0.  0.
     999903    2    3    3    0    0  0.22192783469E-01 -0.12425887293E+00  0.13572664951E-01  0.12871106615E+00  0.21202221024E-01 0.  0.
         14    1    1    2    0    0  0.11626532394E-01 -0.14315088848E-01 -0.14937396632E-01  0.23732337482E-01  0.00000000000E+00 0.  1.
     999901    1    3    3    0    0 -0.33819315863E-01  0.13857396178E+00  0.13647316804E-02  0.89148659637E+00  0.88000000000E+00 0.  1.
        -11    1    4    4    0    0  0.68786080608E-02 -0.15714079762E-01  0.80381396945E-02  0.18950471297E-01  0.51100000000E-03 0.  1.
         11    1    4    4    0    0  0.15314175408E-01 -0.10854479317E+00  0.55345252569E-02  0.10976059486E+00  0.51100000000E-03 0. -1.
</event>
<event>
 8    1  0.1180500E+005  0.1043930E+01  0.7957747E-01            NaN
         13   -1    0    0    0    0  0.00000000000E+00  0.00000000000E+00  0.74505805969E-08  0.10566000000E+00  0.10566000000E+00 0. -1.
     999900   -1    0    0    0    0 -0.00000000000E+00 -0.00000000000E+00 -0.74505805969E-08  0.93827000000E+00  0.93827000000E+00 0. -1.
     999902    2    1    2    0    0 -0.13095919499E-01 -0.19427064127E-01 -0.35745264773E-02  0.10202299754E+01  0.10199546615E+01 0.  0.
     999903    2    3    3    0    0  0.94518014151E-01  0.22795467581E-01  0.81661903118E-01  0.12858612840E+00  0.20308561128E-01 0.  0.
         14    1    1    2    0    0  0.13095919499E-01  0.19427064127E-01  0.35745264773E-02  0.23700024634E-01  0.00000000000E+00 0. -1.
     999901    1    3    3    0    0 -0.10761393365E+00 -0.42222531708E-01 -0.85236429596E-01  0.89164384696E+00  0.88000000000E+00 0. -1.
        -11    1    4    4    0    0  0.83620119878E-02  0.51192437456E-02  0.16214551627E-01  0.18955281757E-01  0.51100000000E-03 0.  1.
         11    1    4    4    0    0  0.86156002163E-01  0.17676223835E-01  0.65447351491E-01  0.10963084664E+00  0.51100000000E-03 0. -1.
</event>
<event>
 8    1  0.1180500E+005  0.1043930E+01  0.7957747E-01            NaN
         13   -1    0    0    0    0  0.00000000000E+00  0.00000000000E+00  0.74505805969E-08  0.10566000000E+00  0.10566000000E+00 0.  1.
     999900   -1    0    0    0    0 -0.00000000000E+00 -0.00000000000E+00 -0.74505805969E-08  0.93827000000E+00  0.93827000000E+00 0. -1.
     999902    2    1    2    0    0  0.12161280791E-01  0.11792913062E-01  0.17663030323E-01  0.10194565003E+01  0.10191626974E+01 0.  0.
     999903    2    3    3    0    0 -0.32181170190E-02  0.19517625311E-01  0.12918259080E+00  0.13225144538E+00  0.20273358484E-01 0.  0.
         14    1    1    2    0    0 -0.12161280791E-01 -0.11792913062E-01 -0.17663030323E-01  0.24473499732E-01  0.00000000000E+00 0. -1.
     999901    1    3    3    0    0  0.15379397810E-01 -0.77247122496E-02 -0.11151956047E+00  0.88720505489E+00  0.88000000000E+00 0. -1.
        -11    1    4    4    0    0 -0.78112312115E-02  0.25018516870E-03  0.24881335532E-01  0.26084859680E-01  0.51100000000E-03 0. -1.
         11    1    4    4    0    0  0.45931141925E-02  0.19267440143E-01  0.10430125527E+00  0.10616658570E+00  0.51100000000E-03 0.  1.
</event>
<event>
 8    1  0.1180500E+005  0.1043930E+01  0.7957747E-01            NaN
         13   -1    0    0    0    0  0.00000000000E+00  0.00000000000E+00  0.74505805969E-08  0.10566000000E+00  0.10566000000E+00 0.  1.
     999900   -1    0    0    0    0 -0.00000000000E+00 -0.00000000000E+00 -0.74505805969E-08  0.93827000000E+00  0.93827000000E+00 0. -1.
     999902    2    1    2    0    0  0.52833009231E-02 -0.20393736428E-01  0.11197899902E-01  0.10200718627E+01  0.10197928193E+01 0.  0.
     999903    2    3    3    0    0 -0.11485683508E+00  0.47687757107E-01 -0.25596181843E-01  0.12854365421E+00  0.20052226115E-01 0.  0.
         14    1    1    2    0    0 -0.52833009231E-02  0.20393736428E-01 -0.11197899902E-01  0.23858137319E-01  0.00000000000E+00 0. -1.
     999901    1    3    3    0    0  0.12014013600E+00 -0.68081493534E-01  0.36794081746E-01  0.89152820847E+00  0.88000000000E+00 0. -1.
        -11    1    4    4    0    0 -0.55816015545E-01  0.18865863976E-01 -0.27564819889E-02  0.58984809305E-01  0.51100000000E-03 0. -1.
         11    1    4    4    0    0 -0.59040819532E-01  0.28821893131E-01 -0.22839699854E-01  0.69558844909E-01  0.51100000000E-03 0.  1.
</event>
<event>
 8    1  0.1180500E+005  0.1043930E+01  0.7957747E-01            NaN
         13   -1    0    0    0    0  0.00000000000E+00  0.00000000000E+00  0.74505805969E-08  0.10566000000E+00  0.10566000000E+00 0. -1.
     999900   -1    0    0    0    0 -0.00000000000E+00 -0.00000000000E+00 -0.74505805969E-08  0.93827000000E+00  0.93827000000E+00 0. -1.
     999902    2    1    2    0    0  0.80281977668E-02  0.30320618507E-02  0.22313520844E-01  0.10200231271E+01  0.10197429290E+01 0.  0.
     999903    2    3    3    0    0  0.23738028687E-01  0.37981870834E-01 -0.11827787676E+00  0.12803981505E+00  0.19960500706E-01 0.  0.
         14    1    1    2    0    0 -0.80281977668E-02 -0.30320618507E-02 -0.22313520844E-01  0.23906872880E-01  0.00000000000E+00 0.  1.
     999901    1    3    3    0    0 -0.15709830920E-01 -0.34949808983E-01  0.14059139760E+00  0.89198331207E+00  0.88000000000E+00 0.  1.
        -11    1    4    4    0    0  0.16359408485E-01  0.81324633351E-02 -0.45180771943E-01  0.48737362262E-01  0.51100000000E-03 0.  1.
         11    1    4    4    0    0  0.73786202016E-02  0.29849407499E-01 -0.73097104817E-01  0.79302452785E-01  0.51100000000E-03 0. -1.
</event>
<event>
 8    1  0.1180500E+005  0.1043930E+01  0.7957747E-01            NaN
         13   -1    0    0    0    0  0.00000000000E+00  0.00000000000E+00  0.74505805969E-08  0.10566000000E+00  0.10566000000E+00 0.  1.
     999900   -1    0    0    0    0 -0.00000000000E+00 -0.00000000000E+00 -0.74505805969E-08  0.93827000000E+00  0.93827000000E+00 0.  1.
     999902    2    1    2    0    0  0.15595711377E-01  0.66192882977E-03 -0.18167823986E-01  0.10199772509E+01  0.10196959635E+01 0.  0.
     999903    2    3    3    0    0 -0.12058682420E+00  0.38446072619E-01 -0.54255051570E-02  0.12860993532E+00  0.22176489502E-01 0.  0.
         14    1    1    2    0    0 -0.15595711377E-01 -0.66192882977E-03  0.18167823986E-01  0.23952749143E-01  0.00000000000E+00 0.  1.
     999901    1    3    3    0    0  0.13618253558E+00 -0.37784143789E-01 -0.12742318829E-01  0.89136731554E+00  0.88000000000E+00 0.  1.
        -11    1    4    4    0    0 -0.48387148603E-01  0.25042891514E-01  0.36928201052E-02  0.54610993460E-01  0.51100000000E-03 0.  1.
         11    1    4    4    0    0 -0.72199675596E-01  0.13403181105E-01 -0.91183252622E-02  0.73998941861E-01  0.51100000000E-03 0. -1.
</event>
<event>
 8    1  0.1180500E+005  0.1043930E+01  0.7957747E-01            NaN
         13   -1    0    0    0    0  0.00000000000E+00  0.00000000000E+00  0.74505805969E-08  0.10566000000E+00  0.10566000000E+00 0. -1.
     999900   -1    0    0    0    0 -0.00000000000E+00 -0.00000000000E+00 -0.74505805969E-08  0.93827000000E+00  0.93827000000E+00 0. -1.
     999902    2    1    2    0    0 -0.11022819839E-01  0.17365196978E-01 -0.13025881639E-01  0.10195840308E+01  0.10192933188E+01 0.  0.
     999903    2    3    3    0    0 -0.11271578672E+00 -0.59060015568E-01 -0.21273536295E-01  0.13039884401E+00  0.18930429384E-01 0.  0.
         14    1    1    2    0    0  0.11022819839E-01 -0.17365196978E-01  0.13025881639E-01  0.24345969189E-01  0.00000000000E+00 0. -1.
     999901    1    3    3    0    0  0.10169296688E+00  0.76425212546E-01  0.82476546564E-02  0.88918518680E+00  0.88000000000E+00 0.  1.
        -11    1    4    4    0    0 -0.79683250048E-01 -0.51027531622E-01 -0.16889220744E-01  0.96118344867E-01  0.51100000000E-03 0.  1.
         11    1    4    4    0    0 -0.33032536672E-01 -0.80324839461E-02 -0.43843155517E-02  0.34280499139E-01  0.51100000000E-03 0. -1.
</event>
<event>
 8    1  0.1180500E+005  0.1043930E+01  0.7957747E-01            NaN
         13   -1    0    0    0    0  0.00000000000E+00  0.00000000000E+00  0.74505805969E-08  0.10566000000E+00  0.10566000000E+00 0. -1.
     999900   -1    0    0    0    0 -0.00000000000E+00 -0.00000000000E+00 -0.74505805969E-08  0.93827000000E+00  0.93827000000E+00 0. -1.
     999902    2    1    2    0    0 -0.51698817636E-02  0.21158320806E-01 -0.88419213430E-02  0.10204229417E+01  0.10201521446E+01 0.  0.
     999903    2    3    3    0    0  0.11612084231E-01  0.16146693246E-01  0.12722933616E+00  0.12979275026E+00  0.16226454799E-01 0.  0.
         14    1    1    2    0    0  0.51698817636E-02 -0.21158320806E-01  0.88419213430E-02  0.23507058298E-01  0.00000000000E+00 0. -1.
     999901    1    3    3    0    0 -0.16781965995E-01  0.50116275606E-02 -0.13607125751E+00  0.89063019144E+00  0.88000000000E+00 0. -1.
        -11    1    4    4    0    0  0.12922742699E-01  0.16610619040E-01  0.86081416766E-01  0.88618177465E-01  0.51100000000E-03 0.  1.
         11    1    4    4    0    0 -0.13106584679E-02 -0.46392579397E-03  0.41147919399E-01  0.41174572792E-01  0.51100000000E-03 0. -1.
</event>
<event>
 8    1  0.1180500E+005  0.1043930E+01  0.7957747E-01            NaN
         13   -1    0    0    0    0  0.00000000000E+00  0.00000000000E+00  0.74505805969E-08  0.10566000000E+00  0.10566000000E+00 0.  1.
     999900   -1    0    0    0    0 -0.00000000000E+00 -0.00000000000E+00 -0.74505805969E-08  0.93827000000E+00  0.93827000000E+00 0. -1.
     999902    2    1    2    0    0 -0.11578684965E-03 -0.23287210263E-01  0.80875333981E-02  0.10192781083E+01  0.10189799538E+01 0.  0.
     999903    2    3    3    0    0 -0.78040545846E-01 -0.73791882462E-01  0.73911994004E-01  0.13194736410E+00  0.20286826287E-01 0.  0.
         14    1    1    2    0    0  0.11578684965E-03  0.23287210263E-01 -0.80875333981E-02  0.24651891710E-01  0.00000000000E+00 0. -1.
     999901    1    3    3    0    0  0.77924758997E-01  0.50504672200E-01 -0.65824460606E-01  0.88733074419E+00  0.88000000000E+00 0. -1.
        -11    1    4    4    0    0 -0.32953843413E-01 -0.26293666194E-01  0.18030115216E-01  0.45854758240E-01  0.51100000000E-03 0.  1.
         11    1    4    4    0    0 -0.45086702433E-01 -0.47498216269E-01  0.55881878789E-01  0.86092605855E-01  0.51100000000E-03 0. -1.
</event>
<event>
 8    1  0.1180500E+005  0.1043930E+01  0.7957747E-01            NaN
         13   -1    0    0    0    0  0.00000000000E+00  0.00000000000E+00  0.74505805969E-08  0.10566000000E+00  0.10566000000E+00 0. -1.
     999900   -1    0    0    0    0 -0.00000000000E+00 -0.00000000000E+00 -0.74505805969E-08  0.93827000000E+00  0.93827000000E+00 0. -1.
     999902    2    1    2    0    0  0.71784800785E-02 -0.10269208470E-01  0.27488829442E-01  0.10137203498E+01  0.10132701144E+01 0.  0.
     999903    2    3    3    0    0  0.10020024128E+00  0.17420362058E-01  0.73724731065E-01  0.12717789796E+00  0.19882766212E-01 0.  0.
         14    1    1    2    0    0 -0.71784800785E-02  0.10269208470E-01 -0.27488829442E-01  0.30209650162E-01  0.00000000000E+00 0.  1.
     999901    1    3    3    0    0 -0.93021761206E-01 -0.27689570528E-01 -0.46235901623E-01  0.88654245187E+00  0.88000000000E+00 0. -1.
        -11    1    4    4    0    0  0.59250397408E-01  0.37759579458E-02  0.33482935529E-01  0.68163300566E-01  0.51100000000E-03 0. -1.
         11    1    4    4    0    0  0.40949843877E-01  0.13644404112E-01  0.40241795536E-01  0.59014597398E-01  0.51100000000E-03 0.  1.
</event>
<event>
 8    1  0.1180500E+005  0.1043930E+01  0.7957747E-01            NaN
         13   -1    0    0    0    0  0.00000000000E+00  0.00000000000E+00  0.74505805969E-08  0.10566000000E+00  0.10566000000E+00 0. -1.
     999900   -1    0    0    0    0 -0.00000000000E+00 -0.00000000000E+00 -0.74505805969E-08  0.93827000000E+00  0.93827000000E+00 0.  1.
     999902    2    1    2    0    0 -0.18649920405E-01  0.40316740081E-02  0.14982732391E-01  0.10196698228E+01  0.10193811806E+01 0.  0.
     999903    2    3    3    0    0  0.63230565023E-01 -0.95328633278E-01  0.59230235235E-01  0.12920099908E+00  0.99511166286E-02 0.  0.
         14    1    1    2    0    0  0.18649920405E-01 -0.40316740081E-02 -0.14982732391E-01  0.24260177170E-01  0.00000000000E+00 0.  1.
     999901    1    3    3    0    0 -0.81880485427E-01  0.99360307287E-01 -0.44247502844E-01  0.89046882375E+00  0.88000000000E+00 0.  1.
        -11    1    4    4    0    0  0.48782986057E-01 -0.76447041745E-01  0.42682241012E-01  0.10022956021E+00  0.51100000000E-03 0.  1.
         11    1    4    4    0    0  0.14447578966E-01 -0.18881591534E-01  0.16547994224E-01  0.28971438878E-01  0.51100000000E-03 0. -1.
</event>
<event>
 8    1  0.1180500E+005  0.1043930E+01  0.7957747E-01            NaN
         13   -1    0    0    0    0  0.00000000000E+00  0.00000000000E+00  0.74505805969E-08  0.10566000000E+00  0.10566000000E+00 0. -1.
     999900   -1    0    0    0    0 -0.00000000000E+00 -0.00000000000E+00 -0.74505805969E-08  0.93827000000E+00  0.93827000000E+00 0. -1.
     999902    2    1    2    0    0  0.21128935402E-01 -0.55240449229E-02  0.74068722201E-02  0.10208690213E+01  0.10206085194E+01 0.  0.
     999903    2    3    3    0    0 -0.39616683750E-01 -0.27695125968E-01 -0.11824315077E+00  0.12959492463E+00  0.21838043670E-01 0.  0.
         14    1    1    2    0    0 -0.21128935402E-01  0.55240449229E-02 -0.74068722201E-02  0.23060978722E-01  0.00000000000E+00 0. -1.
     999901    1    3    3    0    0  0.60745619152E-01  0.22171081045E-01  0.12565002299E+00  0.89127409665E+00  0.88000000000E+00 0.  1.
        -11    1    4    4    0    0 -0.32132253714E-01 -0.98734196972E-02 -0.71455114397E-01  0.78968732038E-01  0.51100000000E-03 0.  1.
         11    1    4    4    0    0 -0.74844300354E-02 -0.17821706271E-01 -0.46788036374E-01  0.50626192590E-01  0.51100000000E-03 0. -1.
</event>
<event>
 8    1  0.1180500E+005  0.1043930E+01  0.7957747E-01            NaN
         13   -1    0    0    0    0  0.00000000000E+00  0.00000000000E+00  0.74505805969E-08  0.10566000000E+00  0.10566000000E+00 0. -1.
     999900   -1    0    0    0    0 -0.00000000000E+00 -0.00000000000E+00 -0.74505805969E-08  0.93827000000E+00  0.93827000000E+00 0.  1.
     999902    2    1    2    0    0 -0.22461337229E-01 -0.59766953746E-02  0.61272325410E-02  0.10198930381E+01  0.10196097458E+01 0.  0.
     999903    2    3    3    0    0 -0.12816377608E+00 -0.20536340419E-01 -0.18457470647E-01  0.13310704563E+00  0.23002447640E-01 0.  0.
         14    1    1    2    0    0  0.22461337229E-01  0.59766953746E-02 -0.61272325410E-02  0.24036961878E-01  0.00000000000E+00 0.  1.
     999901    1    3    3    0    0  0.10570243885E+00  0.14559645044E-01  0.24584703188E-01  0.88678599249E+00  0.88000000000E+00 0.  1.
        -11    1    4    4    0    0 -0.27293908673E-01  0.47569638223E-02 -0.16055041127E-02  0.27756529320E-01  0.51100000000E-03 0.  1.
         11    1    4    4    0    0 -0.10086986741E+00 -0.25293304241E-01 -0.16851966534E-01  0.10535051631E+00  0.51100000000E-03 0. -1.
</event>
<event>
 8    1  0.1180500E+005  0.1043930E+01  0.7957747E-01            NaN
         13   -1    0    0    0    0  0.00000000000E+00  0.00000000000E+00  0.74505805969E-08  0.10566000000E+00  0.10566000000E+00 0. -1.
     999900   -1    0    0    0    0 -0.00000000000E+00 -0.00000000000E+00 -0.74505805969E-08  0.93827000000E+00  0.93827000000E+00 0.  1.
     999902    2    1    2    0    0 -0.62166735157E-02  0.11189775923E-01 -0.21593079584E-01  0.10188278248E+01  0.10185185405E+01 0.  0.
     999903    2    3    3    0    0  0.52651758279E-02  0.12277225788E+00 -0.42510944680E-01  0.13146091069E+00  0.19340145827E-01 0.  0.
         14    1    1    2    0    0  0.62166735157E-02 -0.11189775923E-01  0.21593079584E-01  0.25102175219E-01  0.00000000000E+00 0. -1.
     999901    1    3    3    0    0 -0.11481849344E-01 -0.11158248196E+00  0.20917865096E-01  0.88736691409E+00  0.88000000000E+00 0.  1.
        -11    1    4    4    0    0  0.83772800175E-02  0.61282268921E-01 -0.29506802916E-01  0.68531801697E-01  0.51100000000E-03 0.  1.
         11    1    4    4    0    0 -0.31121041896E-02  0.61489988958E-01 -0.13004141764E-01  0.62929108992E-01  0.51100000000E-03 0. -1.
</event>
<event>
 8    1  0.1180500E+005  0.1043930E+01  0.7957747E-01            NaN
         13   -1    0    0    0    0  0.00000000000E+00  0.00000000000E+00  0.74505805969E-08  0.10566000000E+00  0.10566000000E+00 0.  1.
     999900   -1    0    0    0    0 -0.00000000000E+00 -0.00000000000E+00 -0.74505805969E-08  0.93827000000E+00  0.93827000000E+00 0.  1.
     999902    2    1    2    0    0 -0.83698777569E-02  0.10040968661E-01 -0.18700826807E-01  0.10211134089E+01  0.10208584608E+01 0.  0.
     999903    2    3    3    0    0 -0.11405927755E+00 -0.34281018122E-01  0.50601271069E-01  0.13098000964E+00  0.20262460162E-01 0.  0.
         14    1    1    2    0    0  0.83698777569E-02 -0.10040968661E-01  0.18700826807E-01  0.22816591082E-01  0.00000000000E+00 0.  1.
     999901    1    3    3    0    0  0.10568939980E+00  0.44321986783E-01 -0.69302097876E-01  0.89013339928E+00  0.88000000000E+00 0.  1.
        -11    1    4    4    0    0 -0.70218487273E-02 -0.37186732998E-02  0.93143284246E-02  0.12253682127E-01  0.51100000000E-03 0.  1.
         11    1    4    4    0    0 -0.10703742883E+00 -0.30562344823E-01  0.41286942645E-01  0.11872632751E+00  0.51100000000E-03 0. -1.
</event>
<event>
 8    1  0.1180500E+005  0.1043930E+01  0.7957747E-01            NaN
         13   -1    0    0    0    0  0.00000000000E+00  0.00000000000E+00  0.74505805969E-08  0.10566000000E+00  0.10566000000E+00 0.  1.
     999900   -1    0    0    0    0 -0.00000000000E+00 -0.00000000000E+00 -0.74505805969E-08  0.93827000000E+00  0.93827000000E+00 0.  1.
     999902    2    1    2    0    0 -0.21143806926E-01 -0.63544800017E-02  0.23992350034E-02  0.10217219763E+01  0.10214805924E+01 0.  0.
     999903    2    3    3    0    0 -0.53100394880E-01  0.11181068050E+00 -0.42098288828E-01  0.13213541038E+00  0.19136889571E-01 0.  0.
         14    1    1    2    0    0  0.21143806926E-01  0.63544800017E-02 -0.23992350034E-02  0.22208023686E-01  0.00000000000E+00 0. -1.
     999901    1    3    3    0    0  0.31956587954E-01 -0.11816516050E+00  0.44497523832E-01  0.88958656594E+00  0.88000000000E+00 0. -1.
        -11    1    4    4    0    0 -0.16258962439E-01  0.46971237576E-01 -0.88810211050E-02  0.50495392621E-01  0.51100000000E-03 0.  1.
         11    1    4    4    0    0 -0.36841432441E-01  0.64839442925E-01 -0.33217267723E-01  0.81640017756E-01  0.51100000000E-03 0. -1.
</event>
<event>
 8    1  0.1180500E+005  0.1043930E+01  0.7957747E-01            NaN
         13   -1    0    0    0    0  0.00000000000E+00  0.00000000000E+00  0.74505805969E-08  0.10566000000E+00  0.10566000000E+00 0.  1.
     999900   -1    0    0    0    0 -0.00000000000E+00 -0.00000000000E+00 -0.74505805969E-08  0.93827000000E+00  0.93827000000E+00 0.  1.
     999902    2    1    2    0    0  0.83467816364E-02  0.19885907065E-01 -0.90632209110E-02  0.10205364103E+01  0.10202682514E+01 0.  0.
     999903    2    3    3    0    0  0.62441149954E-01  0.11607019666E+00 -0.10477663596E-01  0.13364317050E+00  0.19481473920E-01 0.  0.
         14    1    1    2    0    0 -0.83467816364E-02 -0.19885907065E-01  0.90632209110E-02  0.23393589651E-01  0.00000000000E+00 0.  1.
     999901    1    3    3    0    0 -0.54094368317E-01 -0.96184289593E-01  0.14144426845E-02  0.88689323985E+00  0.88000000000E+00 0. -1.
        -11    1    4    4    0    0  0.14157148734E-01  0.12464394180E-01 -0.12390496133E-03  0.18869617272E-01  0.51100000000E-03 0. -1.
         11    1    4    4    0    0  0.48284001220E-01  0.10360580248E+00 -0.10353758634E-01  0.11477355322E+00  0.51100000000E-03 0.  1.
</event>
<event>
 8    1  0.1180500E+005  0.1043930E+01  0.7957747E-01            NaN
         13   -1    0    0    0    0  0.00000000000E+00  0.00000000000E+00  0.74505805969E-08  0.10566000000E+00  0.10566000000E+00 0.  1.
     999900   -1    0    0    0    0 -0.00000000000E+00 -0.00000000000E+00 -0.74505805969E-08  0.93827000000E+00  0.93827000000E+00 0.  1.
     999902    2    1    2    0    0  0.19201664479E-01  0.53374616827E-02  0.14143276877E-01  0.10194918189E+01  0.10191988737E+01 0.  0.
     999903    2    3    3    0    0 -0.92204319254E-01 -0.83134634861E-01  0.22065216879E-01  0.12803157735E+00  0.22185738681E-01 0.  0.
         14    1    1    2    0    0 -0.19201664479E-01 -0.53374616827E-02 -0.14143276877E-01  0.24438181127E-01  0.00000000000E+00 0. -1.
     999901    1    3    3    0    0  0.11140598373E+00  0.88472096544E-01 -0.79219400016E-02  0.89146024152E+00  0.88000000000E+00 0.  1.
        -11    1    4    4    0    0 -0.89757039611E-01 -0.73121370163E-01  0.19592696651E-01  0.11741889038E+00  0.51100000000E-03 0.  1.
         11    1    4    4    0    0 -0.24472796434E-02 -0.10013264699E-01  0.24725202278E-02  0.10612686976E-01  0.51100000000E-03 0. -1.
</event>
<event>
 8    1  0.1180500E+005  0.1043930E+01  0.7957747E-01            NaN
         13   -1    0    0    0    0  0.00000000000E+00  0.00000000000E+00  0.74505805969E-08  0.10566000000E+00  0.10566000000E+00 0. -1.
     999900   -1    0    0    0    0 -0.00000000000E+00 -0.00000000000E+00 -0.74505805969E-08  0.93827000000E+00  0.93827000000E+00 0.  1.
     999902    2    1    2    0    0 -0.10380729610E-01 -0.15640382513E-01  0.14156231204E-01  0.10204187262E+01  0.10201478309E+01 0.  0.
     999903    2    3    3    0    0 -0.14576042219E-01  0.84470363449E-01  0.97308819626E-01  0.13083786140E+00  0.17373436384E-01 0.  0.
         14    1    1    2    0    0  0.10380729610E-01  0.15640382513E-01 -0.14156231204E-01  0.23511273770E-01  0.00000000000E+00 0.  1.
     999901    1    3    3    0    0  0.41953126095E-02 -0.10011074596E+00 -0.83152588422E-01  0.88958086483E+00  0.88000000000E+00 0. -1.
        -11    1    4    4    0    0 -0.10291904223E-02  0.52506900035E-01  0.53963341588E-01  0.75301641021E-01  0.51100000000E-03 0. -1.
         11    1    4    4    0    0 -0.13546851797E-01  0.31963463414E-01  0.43345478038E-01  0.55536220383E-01  0.51100000000E-03 0.  1.
</event>
<event>
 8    1  0.1180500E+005  0.1043930E+01  0.7957747E-01            NaN
         13   -1    0    0    0    0  0.00000000000E+00  0.00000000000E+00  0.74505805969E-08  0.10566000000E+00  0.10566000000E+00 0. -1.
     999900   -1    0    0    0    0 -0.00000000000E+00 -0.00000000000E+00 -0.74505805969E-08  0.93827000000E+00  0.93827000000E+00 0. -1.
     999902    2    1    2    0    0 -0.17827564218E-01 -0.24068994204E-01 -0.18002919370E-01  0.10089837036E+01  0.10083783370E+01 0.  0.
     999903    2    3    3    0    0  0.76365320298E-02  0.11818645810E-01  0.11555816865E+00  0.11781878778E+00  0.18154321896E-01 0.  0.
         14    1    1    2    0    0  0.17827564218E-01  0.24068994204E-01  0.18002919370E-01  0.34946296425E-01  0.00000000000E+00 0. -1.
     999901    1    3    3    0    0 -0.25464096248E-01 -0.35887640014E-01 -0.13356108802E+00  0.89116491579E+00  0.88000000000E+00 0. -1.
        -11    1    4    4    0    0 -0.10205179553E-02  0.13357642997E-01  0.83644259081E-01  0.84711813117E-01  0.51100000000E-03 0.  1.
         11    1    4    4    0    0  0.86570499851E-02 -0.15389971877E-02  0.31913909567E-01  0.33106974668E-01  0.51100000000E-03 0. -1.
</event>
<event>
 8    1  0.1180500E+005  0.1043930E+01  0.7957747E-01            NaN
         13   -1    0    0    0    0  0.00000000000E+00  0.00000000000E+00  0.74505805969E-08  0.10566000000E+00  0.10566000000E+00 0. -1.
     999900   -1    0    0    0    0 -0.00000000000E+00 -0.00000000000E+00 -0.74505805969E-08  0.93827000000E+00  0.93827000000E+00 0.  1.
     999902    2    1    2    0    0  0.23293973407E-01 -0.91461356925E-03  0.60151719524E-02  0.10198545351E+01  0.10195703236E+01 0.  0.
     999903    2    3    3    0    0  0.59562719803E-01 -0.11406422294E+00  0.19383015632E-01  0.13176841582E+00  0.20708683420E-01 0.  0.
         14    1    1    2    0    0 -0.23293973407E-01  0.91461356925E-03 -0.60151719524E-02  0.24075464869E-01  0.00000000000E+00 0.  1.
     999901    1    3    3    0    0 -0.36268746396E-01  0.11314960937E+00 -0.13367843679E-01  0.88808611931E+00  0.88000000000E+00 0. -1.
        -11    1    4    4    0    0  0.43436562680E-03 -0.50884624879E-02 -0.27517978653E-02  0.58236274331E-02  0.51100000000E-03 0. -1.
         11    1    4    4    0    0  0.59128354176E-01 -0.10897576045E+00  0.22134813497E-01  0.12594478839E+00  0.51100000000E-03 0.  1.
</event>
<event>
 8    1  0.1180500E+005  0.1043930E+01  0.7957747E-01            NaN
         13   -1    0    0    0    0  0.00000000000E+00  0.00000000000E+00  0.74505805969E-08  0.10566000000E+00  0.10566000000E+00 0.  1.
     999900   -1    0    0    0    0 -0.00000000000E+00 -0.00000000000E+00 -0.74505805969E-08  0.93827000000E+00  0.93827000000E+00 0.  1.
     999902    2    1    2    0    0  0.24585657233E-01  0.26381607634E-03  0.18289123038E-01  0.10132866294E+01  0.10128231717E+01 0.  0.
     999903    2    3    3    0    0 -0.56142371196E-02 -0.17266804609E-03 -0.12012493580E+00  0.12195578408E+00  0.20289494734E-01 0.  0.
         14    1    1    2    0    0 -0.24585657233E-01 -0.26381607634E-03 -0.18289123038E-01  0.30643370604E-01  0.00000000000E+00 0. -1.
     999901    1    3    3    0    0  0.30199894352E-01  0.43648412243E-03  0.13841405883E+00  0.89133084532E+00  0.88000000000E+00 0. -1.
        -11    1    4    4    0    0 -0.69122801151E-02 -0.76252302393E-02 -0.98551835193E-01  0.99089096744E-01  0.51100000000E-03 0. -1.
         11    1    4    4    0    0  0.12980429956E-02  0.74525621932E-02 -0.21573100604E-01  0.22866687331E-01  0.51100000000E-03 0.  1.
</event>
<event>
 8    1  0.1180500E+005  0.1043930E+01  0.7957747E-01            NaN
         13   -1    0    0    0    0  0.00000000000E+00  0.00000000000E+00  0.74505805969E-08  0.10566000000E+00  0.10566000000E+00 0. -1.
     999900   -1    0    0    0    0 -0.00000000000E+00 -0.00000000000E+00 -0.74505805969E-08  0.93827000000E+00  0.93827000000E+00 0. -1.
     999902    2    1    2    0    0 -0.21232523525E-01 -0.11009821143E-01 -0.29158526032E-02  0.10198356352E+01  0.10195509720E+01 0.  0.
     999903    2    3    3    0    0  0.58954280260E-01  0.65884244003E-01  0.90602701490E-01  0.12793410440E+00  0.18491749028E-01 0.  0.
         14    1    1    2    0    0  0.21232523525E-01  0.11009821143E-01  0.29158526032E-02  0.24094364761E-01  0.00000000000E+00 0.  1.
     999901    1    3    3    0    0 -0.80186803784E-01 -0.76894065146E-01 -0.93518554094E-01  0.89190153084E+00  0.88000000000E+00 0. -1.
        -11    1    4    4    0    0  0.29481781523E-01  0.31685968269E-01  0.57403956194E-01  0.71893333034E-01  0.51100000000E-03 0. -1.
         11    1    4    4    0    0  0.29472498736E-01  0.34198275733E-01  0.33198745296E-01  0.56040771365E-01  0.51100000000E-03 0.  1.
</event>
<event>
 8    1  0.1180500E+005  0.1043930E+01  0.7957747E-01            NaN
         13   -1    0    0    0    0  0.00000000000E+00  0.00000000000E+00  0.74505805969E-08  0.10566000000E+00  0.10566000000E+00 0. -1.
     999900   -1    0    0    0    0 -0.00000000000E+00 -0.00000000000E+00 -0.74505805969E-08  0.93827000000E+00  0.93827000000E+00 0. -1.
     999902    2    1    2    0    0  0.35411556419E-02 -0.19198600409E-01  0.16453810335E-01  0.10183985700E+01  0.10180784810E+01 0.  0.
     999903    2    3    3    0    0 -0.76433289344E-01  0.79078395120E-01 -0.58592328086E-01  0.12616194079E+00  0.19706194404E-01 0.  0.
         14    1    1    2    0    0 -0.35411556419E-02  0.19198600409E-01 -0.16453810335E-01  0.25531429953E-01  0.00000000000E+00 0.  1.
     999901    1    3    3    0    0  0.79974444986E-01 -0.98276995529E-01  0.75046138421E-01  0.89223662926E+00  0.88000000000E+00 0.  1.
        -11    1    4    4    0    0 -0.48224843347E-01  0.62485541445E-01 -0.43400528765E-01  0.90077441258E-01  0.51100000000E-03 0. -1.
         11    1    4    4    0    0 -0.28208445997E-01  0.16592853675E-01 -0.15191799321E-01  0.36084499529E-01  0.51100000000E-03 0.  1.
</event>
<event>
 8    1  0.1180500E+005  0.1043930E+01  0.7957747E-01            NaN
         13   -1    0    0    0    0  0.00000000000E+00  0.00000000000E+00  0.74505805969E-08  0.10566000000E+00  0.10566000000E+00 0.  1.
     999900   -1    0    0    0    0 -0.00000000000E+00 -0.00000000000E+00 -0.74505805969E-08  0.93827000000E+00  0.93827000000E+00 0.  1.
     999902    2    1    2    0    0  0.91758892382E-02 -0.81328442365E-02 -0.22140366826E-01  0.10186211885E+01  0.10183067267E+01 0.  0.
     999903    2    3    3    0    0 -0.11201709242E+00  0.50595009867E-01 -0.31144668117E-01  0.12833034997E+00  0.19773830038E-01 0.  0.
         14    1    1    2    0    0 -0.91758892382E-02  0.81328442365E-02  0.22140366826E-01  0.25308811546E-01  0.00000000000E+00 0.  1.
     999901    1    3    3    0    0  0.12119298165E+00 -0.58727854103E-01  0.90043012914E-02  0.89029083849E+00  0.88000000000E+00 0. -1.
        -11    1    4    4    0    0 -0.12162930174E-01 -0.62208083814E-03 -0.16998487545E-02  0.12307496162E-01  0.51100000000E-03 0.  1.
         11    1    4    4    0    0 -0.99854162241E-01  0.51217090705E-01 -0.29444819363E-01  0.11602285381E+00  0.51100000000E-03 0. -1.
</event>
<event>
 8    1  0.1180500E+005  0.1043930E+01  0.7957747E-01            NaN
         13   -1    0    0    0    0  0.00000000000E+00  0.00000000000E+00  0.74505805969E-08  0.10566000000E+00  0.10566000000E+00 0. -1.
     999900   -1    0    0    0    0 -0.00000000000E+00 -0.00000000000E+00 -0.74505805969E-08  0.93827000000E+00  0.93827000000E+00 0. -1.
     999902    2    1    2    0    0 -0.20734315891E-01  0.52521874099E-02 -0.65632531044E-02  0.10215564974E+01  0.10213114626E+01 0.  0.
     999903    2    3    3    0    0 -0.34991126202E-01  0.99462265018E-01  0.77565111250E-01  0.13242412419E+00  0.20066915805E-01 0.  0.
         14    1    1    2    0    0  0.20734315891E-01 -0.52521874099E-02  0.65632531044E-02  0.22373502617E-01  0.00000000000E+00 0. -1.
     999901    1    3    3    0    0  0.14256810312E-01 -0.94210077608E-01 -0.84128364355E-01  0.88913237319E+00  0.88000000000E+00 0. -1.
        -11    1    4    4    0    0 -0.32651832281E-01  0.64589527606E-01  0.52335880183E-01  0.89315478520E-01  0.51100000000E-03 0. -1.
         11    1    4    4    0    0 -0.23392939218E-02  0.34872737412E-01  0.25229231067E-01  0.43108645675E-01  0.51100000000E-03 0.  1.
</event>
<event>
 8    1  0.1180500E+005  0.1043930E+01  0.7957747E-01            NaN
         13   -1    0    0    0    0  0.00000000000E+00  0.00000000000E+00  0.74505805969E-08  0.10566000000E+00  0.10566000000E+00 0.  1.
     999900   -1    0    0    0    0 -0.00000000000E+00 -0.00000000000E+00 -0.74505805969E-08  0.93827000000E+00  0.93827000000E+00 0. -1.
     999902    2    1    2    0    0  0.12075062414E-01  0.15919555835E-01 -0.12619585186E-01  0.10202975367E+01  0.10200238086E+01 0.  0.
     999903    2    3    3    0    0  0.26710125866E-01  0.11938183649E-01  0.12458810357E+00  0.12953607244E+00  0.20036153810E-01 0.  0.
         14    1    1    2    0    0 -0.12075062414E-01 -0.15919555835E-01  0.12619585186E-01  0.23632463277E-01  0.00000000000E+00 0. -1.
     999901    1    3    3    0    0 -0.14635063452E-01  0.39813721863E-02 -0.13720768875E+00  0.89076146429E+00  0.88000000000E+00 0. -1.
        -11    1    4    4    0    0  0.21970479467E-01  0.16388378928E-01  0.11259741921E+00  0.11588667251E+00  0.51100000000E-03 0. -1.
         11    1    4    4    0    0  0.47396463992E-02 -0.44501952791E-02  0.11990684359E-01  0.13649399928E-01  0.51100000000E-03 0.  1.
</event>
<event>
 8    1  0.1180500E+005  0.1043930E+01  0.7957747E-01            NaN
         13   -1    0    0    0    0  0.00000000000E+00  0.00000000000E+00  0.74505805969E-08  0.10566000000E+00  0.10566000000E+00 0.  1.
     999900   -1    0    0    0    0 -0.00000000000E+00 -0.00000000000E+00 -0.74505805969E-08  0.93827000000E+00  0.93827000000E+00 0.  1.
     999902    2    1    2    0    0 -0.62858737676E-03  0.23675413886E-01  0.50287611370E-02  0.10197182511E+01  0.10194307740E+01 0.  0.
     999903    2    3    3    0    0 -0.11573077396E+00  0.92784980862E-02 -0.56182361352E-01  0.12999774105E+00  0.16225054177E-01 0.  0.
         14    1    1    2    0    0  0.62858737676E-03 -0.23675413886E-01 -0.50287611370E-02  0.24211748870E-01  0.00000000000E+00 0. -1.
     999901    1    3    3    0    0  0.11510218658E+00  0.14396915800E-01  0.61211122489E-01  0.88972051008E+00  0.88000000000E+00 0.  1.
        -11    1    4    4    0    0 -0.52843400173E-01  0.41978296730E-02 -0.16753764475E-01  0.55596730667E-01  0.51100000000E-03 0.  1.
         11    1    4    4    0    0 -0.62887373787E-01  0.50806684132E-02 -0.39428596877E-01  0.74401010383E-01  0.51100000000E-03 0. -1.
</event>
<event>
 8    1  0.1180500E+005  0.1043930E+01  0.7957747E-01            NaN
         13   -1    0    0    0    0  0.00000000000E+00  0.00000000000E+00  0.74505805969E-08  0.10566000000E+00  0.10566000000E+00 0. -1.
     999900   -1    0    0    0    0 -0.00000000000E+00 -0.00000000000E+00 -0.74505805969E-08  0.93827000000E+00  0.93827000000E+00 0.  1.
     999902    2    1    2    0    0 -0.89506540156E-02  0.16113096297E-01  0.15986643971E-01  0.10195308429E+01  0.10192388439E+01 0.  0.
     999903    2    3    3    0    0  0.10755382436E+00  0.60868922918E-01 -0.32571420555E-01  0.12939924417E+00  0.20258727620E-01 0.  0.
         14    1    1    2    0    0  0.89506540156E-02 -0.16113096297E-01 -0.15986643971E-01  0.24399157056E-01  0.00000000000E+00 0.  1.
     999901    1    3    3    0    0 -0.11650447837E+00 -0.44755826621E-01  0.48558064526E-01  0.89013159877E+00  0.88000000000E+00 0.  1.
        -11    1    4    4    0    0  0.36690897584E-01  0.11419610962E-01 -0.14780786701E-01  0.41174776946E-01  0.51100000000E-03 0.  1.
         11    1    4    4    0    0  0.70862926774E-01  0.49449311955E-01 -0.17790633853E-01  0.88224467229E-01  0.51100000000E-03 0. -1.
</event>
<event>
 8    1  0.1180500E+005  0.1043930E+01  0.7957747E-01            NaN
         13   -1    0    0    0    0  0.00000000000E+00  0.00000000000E+00  0.74505805969E-08  0.10566000000E+00  0.10566000000E+00 0. -1.
     999900   -1    0    0    0    0 -0.00000000000E+00 -0.00000000000E+00 -0.74505805969E-08  0.93827000000E+00  0.93827000000E+00 0. -1.
     999902    2    1    2    0    0  0.35604835562E-02 -0.16329650640E-01 -0.17911167272E-01  0.10194321543E+01  0.10191377594E+01 0.  0.
     999903    2    3    3    0    0  0.23928817056E-01  0.91315507286E-01 -0.87186728033E-01  0.12993709954E+00  0.19261727237E-01 0.  0.
         14    1    1    2    0    0 -0.35604835562E-02  0.16329650640E-01  0.17911167272E-01  0.24497845747E-01  0.00000000000E+00 0. -1.
     999901    1    3    3    0    0 -0.20368333500E-01 -0.10764515793E+00  0.69275560760E-01  0.88949505471E+00  0.88000000000E+00 0.  1.
        -11    1    4    4    0    0  0.22695252619E-01  0.56118373524E-01 -0.61877009724E-01  0.86564263942E-01  0.51100000000E-03 0.  1.
         11    1    4    4    0    0  0.12335644373E-02  0.35197133761E-01 -0.25309718309E-01  0.43372835602E-01  0.51100000000E-03 0. -1.
</event>
<event>
 8    1  0.1180500E+005  0.1043930E+01  0.7957747E-01            NaN
         13   -1    0    0    0    0  0.00000000000E+00  0.00000000000E+00  0.74505805969E-08  0.10566000000E+00  0.10566000000E+00 0. -1.
     999900   -1    0    0    0    0 -0.00000000000E+00 -0.00000000000E+00 -0.74505805969E-08  0.93827000000E+00  0.93827000000E+00 0. -1.
     999902    2    1    2    0    0 -0.18416139235E-01  0.14955984495E-01 -0.23231773575E-02  0.10200923657E+01  0.10198138074E+01 0.  0.
     999903    2    3    3    0    0  0.11439479717E+00 -0.30786843171E-01  0.44026440207E-01  0.12774745582E+00  0.18630236207E-01 0.  0.
         14    1    1    2    0    0  0.18416139235E-01 -0.14955984495E-01  0.23231773575E-02  0.23837634312E-01  0.00000000000E+00 0. -1.
     999901    1    3    3    0    0 -0.13281093640E+00  0.45742827666E-01 -0.46349617564E-01  0.89234490986E+00  0.88000000000E+00 0.  1.
        -11    1    4    4    0    0  0.84002328342E-01 -0.29889203365E-01  0.37007497535E-01  0.96537928502E-01  0.51100000000E-03 0.  1.
         11    1    4    4    0    0  0.30392468824E-01 -0.89763980639E-03  0.70189426723E-02  0.31209527322E-01  0.51100000000E-03 0. -1.
</event>
<event>
 8    1  0.1180500E+005  0.1043930E+01  0.7957747E-01            NaN
         13   -1    0    0    0    0  0.00000000000E+00  0.00000000000E+00  0.74505805969E-08  0.10566000000E+00  0.10566000000E+00 0. -1.
     999900   -1    0    0    0    0 -0.00000000000E+00 -0.00000000000E+00 -0.74505805969E-08  0.93827000000E+00  0.93827000000E+00 0.  1.
     999902    2    1    2    0    0 -0.37826115658E-02  0.23504124343E-01  0.45908604253E-03  0.10201190199E+01  0.10198410916E+01 0.  0.
     999903    2    3    3    0    0  0.30475170661E-01  0.12215648637E+00 -0.34594195646E-01  0.13325115113E+00  0.26611420779E-01 0.  0.
         14    1    1    2    0    0  0.37826115658E-02 -0.23504124343E-01 -0.45908604253E-03  0.23810980059E-01  0.00000000000E+00 0.  1.
     999901    1    3    3    0    0 -0.34257782227E-01 -0.98652362025E-01  0.35053281688E-01  0.88686786881E+00  0.88000000000E+00 0.  1.
        -11    1    4    4    0    0  0.13388539880E-03  0.61209012278E-02 -0.85327702377E-02  0.10514401841E-01  0.51100000000E-03 0.  1.
         11    1    4    4    0    0  0.30341285262E-01  0.11603558514E+00 -0.26061425408E-01  0.12273674929E+00  0.51100000000E-03 0. -1.
</event>
<event>
 8    1  0.1180500E+005  0.1043930E+01  0.7957747E-01            NaN
         13   -1    0    0    0    0  0.00000000000E+00  0.00000000000E+00  0.74505805969E-08  0.10566000000E+00  0.10566000000E+00 0.  1.
     999900   -1    0    0    0    0 -0.00000000000E+00 -0.00000000000E+00 -0.74505805969E-08  0.93827000000E+00  0.93827000000E+00 0. -1.
     999902    2    1    2    0    0 -0.99628156886E-02  0.12029444692E-01  0.16702485224E-01  0.10210621569E+01  0.10208060491E+01 0.  0.
     999903    2    3    3    0    0  0.31021718610E-01 -0.11566925419E+00  0.47380288239E-01  0.13037263896E+00  0.20258575595E-01 0.  0.
         14    1    1    2    0    0  0.99628156886E-02 -0.12029444692E-01 -0.16702485224E-01  0.22867843114E-01  0.00000000000E+00 0. -1.
     999901    1    3    3    0    0 -0.40984534298E-01  0.12769869888E+00 -0.30677803015E-01  0.89068951793E+00  0.88000000000E+00 0. -1.
        -11    1    4    4    0    0  0.19652626131E-01 -0.76327515501E-01  0.41254196800E-01  0.88962268468E-01  0.51100000000E-03 0.  1.
         11    1    4    4    0    0  0.11369092478E-01 -0.39341738689E-01  0.61260914391E-02  0.41410370490E-01  0.51100000000E-03 0. -1.
</event>
<event>
 8    1  0.1180500E+005  0.1043930E+01  0.7957747E-01            NaN
         13   -1    0    0    0    0  0.00000000000E+00  0.00000000000E+00  0.74505805969E-08  0.10566000000E+00  0.10566000000E+00 0.  1.
     999900   -1    0    0    0    0 -0.00000000000E+00 -0.00000000000E+00 -0.74505805969E-08  0.93827000000E+00  0.93827000000E+00 0. -1.
     999902    2    1    2    0    0  0.88879574027E-02  0.20400635839E-01 -0.90757643304E-02  0.10198977045E+01  0.10196145234E+01 0.  0.
     999903    2    3    3    0    0 -0.80337905990E-01 -0.84363537510E-01 -0.49856361334E-01  0.12827006707E+00  0.19903962932E-01 0.  0.
         14    1    1    2    0    0 -0.88879574027E-02 -0.20400635839E-01  0.90757643304E-02  0.24032295513E-01  0.00000000000E+00 0. -1.
     999901    1    3    3    0    0  0.89225863393E-01  0.10476417335E+00  0.40780597004E-01  0.89162763742E+00  0.88000000000E+00 0.  1.
        -11    1    4    4    0    0 -0.51763280196E-01 -0.56807251901E-01 -0.42729601241E-01  0.87935095317E-01  0.51100000000E-03 0. -1.
         11    1    4    4    0    0 -0.28574625794E-01 -0.27556285609E-01 -0.71267600931E-02  0.40334971752E-01  0.51100000000E-03 0.  1.
</event>
<event>
 8    1  0.1180500E+005  0.1043930E+01  0.7957747E-01            NaN
         13   -1    0    0    0    0  0.00000000000E+00  0.00000000000E+00  0.74505805969E-08  0.10566000000E+00  0.10566000000E+00 0. -1.
     999900   -1    0    0    0    0 -0.00000000000E+00 -0.00000000000E+00 -0.74505805969E-08  0.93827000000E+00  0.93827000000E+00 0.  1.
     999902    2    1    2    0    0 -0.10980725524E-01  0.10440812241E-01 -0.19292071692E-01  0.10193989804E+01  0.10191037780E+01 0.  0.
     999903    2    3    3    0    0 -0.84911372058E-01  0.89941421471E-01  0.37065361538E-01  0.13093837482E+00  0.21716734847E-01 0.  0.
         14    1    1    2    0    0  0.10980725524E-01 -0.10440812241E-01  0.19292071692E-01  0.24531019617E-01  0.00000000000E+00 0. -1.
     999901    1    3    3    0    0  0.73930646534E-01 -0.79500609229E-01 -0.56357433230E-01  0.88846060557E+00  0.88000000000E+00 0. -1.
        -11    1    4    4    0    0 -0.77273411606E-01  0.71103515753E-01  0.33983827251E-01  0.11037233226E+00  0.51100000000E-03 0. -1.
         11    1    4    4    0    0 -0.76379604523E-02  0.18837905717E-01  0.30815342875E-02  0.20566042552E-01  0.51100000000E-03 0.  1.
</event>
<event>
 8    1  0.1180500E+005  0.1043930E+01  0.7957747E-01            NaN
         13   -1    0    0    0    0  0.00000000000E+00  0.00000000000E+00  0.74505805969E-08  0.10566000000E+00  0.10566000000E+00 0. -1.
     999900   -1    0    0    0    0 -0.00000000000E+00 -0.00000000000E+00 -0.74505805969E-08  0.93827000000E+00  0.93827000000E+00 0. -1.
     999902    2    1    2    0    0  0.22147810753E-01  0.42812404635E-02  0.23179970806E-02  0.10212534118E+01  0.10210016178E+01 0.  0.
     999903    2    3    3    0    0 -0.44658226090E-01 -0.11965428550E+00  0.12555917338E-01  0.13000267484E+00  0.20773521810E-01 0.  0.
         14    1    1    2    0    0 -0.22147810753E-01 -0.42812404635E-02 -0.23179970806E-02  0.22676588181E-01  0.00000000000E+00 0.  1.
     999901    1    3    3    0    0  0.66806036843E-01  0.12393552597E+00 -0.10237920257E-01  0.89125073698E+00  0.88000000000E+00 0. -1.
        -11    1    4    4    0    0 -0.26566300525E-01 -0.45105866424E-01  0.96582181804E-02  0.53233915964E-01  0.51100000000E-03 0. -1.
         11    1    4    4    0    0 -0.18091925565E-01 -0.74548419079E-01  0.28976991571E-02  0.76768758875E-01  0.51100000000E-03 0.  1.
</event>
<event>
 8    1  0.1180500E+005  0.1043930E+01  0.7957747E-01            NaN
         13   -1    0    0    0    0  0.00000000000E+00  0.00000000000E+00  0.74505805969E-08  0.10566000000E+00  0.10566000000E+00 0. -1.
     999900   -1    0    0    0    0 -0.00000000000E+00 -0.00000000000E+00 -0.74505805969E-08  0.93827000000E+00  0.93827000000E+00 0. -1.
     999902    2    1    2    0    0 -0.17770165191E-01 -0.96036391404E-02  0.11738182582E-01  0.10205677744E+01  0.10203003423E+01 0.  0.
     999903    2    3    3    0    0 -0.14979820087E-01  0.11851061042E+00 -0.45553623329E-01  0.12944298065E+00  0.20277890692E-01 0.  0.
         14    1    1    2    0    0  0.17770165191E-01  0.96036391404E-02 -0.11738182582E-01  0.23362225621E-01  0.00000000000E+00 0. -1.
     999901    1    3    3    0    0 -0.27903451036E-02 -0.12811424956E+00  0.57291805911E-01  0.89112479372E+00  0.88000000000E+00 0.  1.
        -11    1    4    4    0    0 -0.78526184142E-02  0.10859240816E+00 -0.39696304299E-01  0.11588801674E+00  0.51100000000E-03 0. -1.
         11    1    4    4    0    0 -0.71272016728E-02  0.99182022528E-02 -0.58573190302E-02  0.13554963919E-01  0.51100000000E-03 0.  1.
</event>
<event>
 8    1  0.1180500E+005  0.1043930E+01  0.7957747E-01            NaN
         13   -1    0    0    0    0  0.00000000000E+00  0.00000000000E+00  0.74505805969E-08  0.10566000000E+00  0.10566000000E+00 0. -1.
     999900   -1    0    0    0    0 -0.00000000000E+00 -0.00000000000E+00 -0.74505805969E-08  0.93827000000E+00  0.93827000000E+00 0. -1.
     999902    2    1    2    0    0 -0.11724300978E-01 -0.21485051154E-01  0.24109160929E-03  0.10194529744E+01  0.10191590858E+01 0.  0.
     999903    2    3    3    0    0  0.66869748354E-01 -0.16452173111E-01 -0.10784999936E+00  0.12934846459E+00  0.18898827613E-01 0.  0.
         14    1    1    2    0    0  0.11724300978E-01  0.21485051154E-01 -0.24109160929E-03  0.24477025588E-01  0.00000000000E+00 0.  1.
     999901    1    3    3    0    0 -0.78594049332E-01 -0.50328780424E-02  0.10809109097E+00  0.89010450982E+00  0.88000000000E+00 0.  1.
        -11    1    4    4    0    0  0.12220139264E-01 -0.71031571813E-02 -0.11694297278E-01  0.18352230257E-01  0.51100000000E-03 0. -1.
         11    1    4    4    0    0  0.54649609091E-01 -0.93490159298E-02 -0.96155702084E-01  0.11099623434E+00  0.51100000000E-03 0.  1.
</event>
<event>
 8    1  0.1180500E+005  0.1043930E+01  0.7957747E-01            NaN
         13   -1    0    0    0    0  0.00000000000E+00  0.00000000000E+00  0.74505805969E-08  0.10566000000E+00  0.10566000000E+00 0. -1.
     999900   -1    0    0    0    0 -0.00000000000E+00 -0.00000000000E+00 -0.74505805969E-08  0.93827000000E+00  0.93827000000E+00 0.  1.
     999902    2    1    2    0    0  0.23509999514E-01  0.64801593112E-02  0.47602468503E-03  0.10195386257E+01  0.10192468151E+01 0.  0.
     999903    2    3    3    0    0 -0.84424393605E-01  0.79777620183E-01 -0.50334588882E-01  0.12846956582E+00  0.21884048659E-01 0.  0.
         14    1    1    2    0    0 -0.23509999514E-01 -0.64801593112E-02 -0.47602468503E-03  0.24391374323E-01  0.00000000000E+00 0. -1.
     999901    1    3    3    0    0  0.10793439312E+00 -0.73297460872E-01  0.50810613567E-01  0.89106905986E+00  0.88000000000E+00 0. -1.
        -11    1    4    4    0    0 -0.22194179873E-01  0.31315698359E-01 -0.90345974278E-02  0.39435259041E-01  0.51100000000E-03 0.  1.
         11    1    4    4    0    0 -0.62230213732E-01  0.48461921824E-01 -0.41299991454E-01  0.89034306776E-01  0.51100000000E-03 0. -1.
</event>
<event>
 8    1  0.1180500E+005  0.1043930E+01  0.7957747E-01            NaN
         13   -1    0    0    0    0  0.00000000000E+00  0.00000000000E+00  0.74505805969E-08  0.10566000000E+00  0.10566000000E+00 0.  1.
     999900   -1    0    0    0    0 -0.00000000000E+00 -0.00000000000E+00 -0.74505805969E-08  0.93827000000E+00  0.93827000000E+00 0. -1.
     999902    2    1    2    0    0 -0.21095417977E-01 -0.10434420386E-01  0.81215109942E-02  0.10190331582E+01  0.10187289752E+01 0.  0.
     999903    2    3    3    0    0 -0.80817955535E-01 -0.63734479603E-01 -0.78033876738E-01  0.13120973625E+00  0.23088593334E-01 0.  0.
         14    1    1    2    0    0  0.21095417977E-01  0.10434420386E-01 -0.81215109942E-02  0.24896841752E-01  0.00000000000E+00 0. -1.
     999901    1    3    3    0    0  0.59722537558E-01  0.53300059216E-01  0.86155387732E-01  0.88782342199E+00  0.88000000000E+00 0.  1.
        -11    1    4    4    0    0 -0.66700434591E-01 -0.39958752931E-01 -0.59665681622E-01  0.98009716839E-01  0.51100000000E-03 0.  1.
         11    1    4    4    0    0 -0.14117520944E-01 -0.23775726672E-01 -0.18368195115E-01  0.33200019415E-01  0.51100000000E-03 0. -1.
</event>
<event>
 8    1  0.1180500E+005  0.1043930E+01  0.7957747E-01            NaN
         13   -1    0    0    0    0  0.00000000000E+00  0.00000000000E+00  0.74505805969E-08  0.10566000000E+00  0.10566000000E+00 0.  1.
     999900   -1    0    0    0    0 -0.00000000000E+00 -0.00000000000E+00 -0.74505805969E-08  0.93827000000E+00  0.93827000000E+00 0.  1.
     999902    2    1    2    0    0 -0.73958509791E-04 -0.12033104583E-01  0.21153736850E-01  0.10195931625E+01  0.10193026711E+01 0.  0.
     999903    2    3    3    0    0  0.86794229529E-01  0.89021683428E-01 -0.21910261279E-01  0.12851928219E+00  0.24063415082E-01 0.  0.
         14    1    1    2    0    0  0.73958509791E-04  0.12033104583E-01 -0.21153736850E-01  0.24336837479E-01  0.00000000000E+00 0. -1.
     999901    1    3    3    0    0 -0.86868188039E-01 -0.10105478801E+00  0.43063998129E-01  0.89107388033E+00  0.88000000000E+00 0.  1.
        -11    1    4    4    0    0  0.22868564486E-01  0.29342029046E-01 -0.17060280109E-01  0.40929698124E-01  0.51100000000E-03 0.  1.
         11    1    4    4    0    0  0.63925665044E-01  0.59679654382E-01 -0.48499811699E-02  0.87589584066E-01  0.51100000000E-03 0. -1.
</event>
<event>
 8    1  0.1180500E+005  0.1043930E+01  0.7957747E-01            NaN
         13   -1    0    0    0    0  0.00000000000E+00  0.00000000000E+00  0.74505805969E-08  0.10566000000E+00  0.10566000000E+00 0. -1.
     999900   -1    0    0    0    0 -0.00000000000E+00 -0.00000000000E+00 -0.74505805969E-08  0.93827000000E+00  0.93827000000E+00 0. -1.
     999902    2    1    2    0    0  0.19992610995E-01 -0.10252450886E-01  0.11065285320E-01  0.10188848851E+01  0.10185770227E+01 0.  0.
     999903    2    3    3    0    0 -0.79798589053E-01  0.49663429761E-01  0.84771053119E-01  0.12816566074E+00  0.20150287201E-01 0.  0.
         14    1    1    2    0    0 -0.19992610995E-01  0.10252450886E-01 -0.11065285320E-01  0.25045114948E-01  0.00000000000E+00 0.  1.
     999901    1    3    3    0    0  0.99791200048E-01 -0.59915880647E-01 -0.73705767799E-01  0.89071922432E+00  0.88000000000E+00 0. -1.
        -11    1    4    4    0    0 -0.27072639180E-01  0.24185105082E-01  0.42759145676E-01  0.56093250574E-01  0.51100000000E-03 0.  1.
         11    1    4    4    0    0 -0.52725949872E-01  0.25478324679E-01  0.42011907443E-01  0.72072410161E-01  0.51100000000E-03 0. -1.
</event>
<event>
 8    1  0.1180500E+005  0.1043930E+01  0.7957747E-01            NaN
         13   -1    0    0    0    0  0.00000000000E+00  0.00000000000E+00  0.74505805969E-08  0.10566000000E+00  0.10566000000E+00 0.  1.
     999900   -1    0    0    0    0 -0.00000000000E+00 -0.00000000000E+00 -0.74505805969E-08  0.93827000000E+00  0.93827000000E+00 0.  1.
     999902    2    1    2    0    0  0.21011878967E-01 -0.35468054995E-02  0.94662904626E-02  0.10206128488E+01  0.10203464595E+01 0.  0.
     999903    2    3    3    0    0 -0.12015334306E+00  0.19661143034E-01 -0.33929389605E-01  0.12800464028E+00  0.20263219386E-01 0.  0.
         14    1    1    2    0    0 -0.21011878967E-01  0.35468054995E-02 -0.94662904626E-02  0.23317151244E-01  0.00000000000E+00 0. -1.
     999901    1    3    3    0    0  0.14116522203E+00 -0.23207948534E-01  0.43395680068E-01  0.89260820847E+00  0.88000000000E+00 0. -1.
        -11    1    4    4    0    0 -0.30736098045E-01  0.11383719208E-01 -0.25518986975E-02  0.32879630381E-01  0.51100000000E-03 0.  1.
         11    1    4    4    0    0 -0.89417245019E-01  0.82774238264E-02 -0.31377490907E-01  0.95125009901E-01  0.51100000000E-03 0. -1.
</event>
<event>
 8    1  0.1180500E+005  0.1043930E+01  0.7957747E-01            NaN
         13   -1    0    0    0    0  0.00000000000E+00  0.00000000000E+00  0.74505805969E-08  0.10566000000E+00  0.10566000000E+00 0.  1.
     999900   -1    0    0    0    0 -0.00000000000E+00 -0.00000000000E+00 -0.74505805969E-08  0.93827000000E+00  0.93827000000E+00 0.  1.
     999902    2    1    2    0    0 -0.71360322260E-02  0.44068077057E-02 -0.22195251255E-01  0.10202029671E+01  0.10199270180E+01 0.  0.
     999903    2    3    3    0    0 -0.51898360577E-01 -0.10686578514E+00  0.47150294399E-01  0.12936400265E+00  0.19953923311E-01 0.  0.
         14    1    1    2    0    0  0.71360322260E-02 -0.44068077057E-02  0.22195251255E-01  0.23727032860E-01  0.00000000000E+00 0.  1.
     999901    1    3    3    0    0  0.44762328351E-01  0.11127259284E+00 -0.69345545654E-01  0.89083896449E+00  0.88000000000E+00 0.  1.
        -11    1    4    4    0    0 -0.20958562119E-01 -0.39623259230E-01  0.28185344217E-01  0.52952230809E-01  0.51100000000E-03 0. -1.
         11    1    4    4    0    0 -0.30939798458E-01 -0.67242525906E-01  0.18964950183E-01  0.76411771837E-01  0.51100000000E-03 0.  1.
</event>
<event>
 8    1  0.1180500E+005  0.1043930E+01  0.7957747E-01            NaN
         13   -1    0    0    0    0  0.00000000000E+00  0.00000000000E+00  0.74505805969E-08  0.10566000000E+00  0.10566000000E+00 0.  1.
     999900   -1    0    0    0    0 -0.00000000000E+00 -0.00000000000E+00 -0.74505805969E-08  0.93827000000E+00  0.93827000000E+00 0. -1.
     999902    2    1    2    0    0  0.23357138866E-01  0.12998509790E-02  0.49527917333E-02  0.10200181683E+01  0.10197378526E+01 0.  0.
     999903    2    3    3    0    0 -0.10400686510E+00  0.70597946269E-01 -0.26453370037E-02  0.12812044600E+00  0.24624233379E-01 0.  0.
         14    1    1    2    0    0 -0.23357138866E-01 -0.12998509790E-02 -0.49527917333E-02  0.23911831685E-01  0.00000000000E+00 0.  1.
     999901    1    3    3    0    0  0.12736400396E+00 -0.69298095290E-01  0.75981287370E-02  0.89189772232E+00  0.88000000000E+00 0.  1.
        -11    1    4    4    0    0 -0.20692161237E-01  0.37013656038E-02  0.23296937561E-02  0.21155477730E-01  0.51100000000E-03 0. -1.
         11    1    4    4    0    0 -0.83314703862E-01  0.66896580665E-01 -0.49750307598E-02  0.10696496827E+00  0.51100000000E-03 0.  1.
</event>
<event>
 8    1  0.1180500E+005  0.1043930E+01  0.7957747E-01            NaN
         13   -1    0    0    0    0  0.00000000000E+00  0.00000000000E+00  0.74505805969E-08  0.10566000000E+00  0.10566000000E+00 0.  1.
     999900   -1    0    0    0    0 -0.00000000000E+00 -0.00000000000E+00 -0.74505805969E-08  0.93827000000E+00  0.93827000000E+00 0. -1.
     999902    2    1    2    0    0 -0.16195713948E-01 -0.19016503170E-02 -0.17398947695E-01  0.10200838094E+01  0.10198050487E+01 0.  0.
     999903    2    3    3    0    0  0.66155453730E-01 -0.10833366860E+00  0.10917804314E-01  0.12940354817E+00  0.22657272935E-01 0.  0.
         14    1    1    2    0    0  0.16195713948E-01  0.19016503170E-02  0.17398947695E-01  0.23846190579E-01  0.00000000000E+00 0.  1.
     999901    1    3    3    0    0 -0.82351167678E-01  0.10643201829E+00 -0.28316752009E-01  0.89068026125E+00  0.88000000000E+00 0. -1.
        -11    1    4    4    0    0  0.13515486628E-01 -0.33867845230E-01 -0.50671412978E-02  0.36818967412E-01  0.51100000000E-03 0. -1.
         11    1    4    4    0    0  0.52639967102E-01 -0.74465823374E-01  0.15984945611E-01  0.92584580760E-01  0.51100000000E-03 0.  1.
</event>
<event>
 8    1  0.1180500E+005  0.1043930E+01  0.7957747E-01            NaN
         13   -1    0    0    0    0  0.00000000000E+00  0.00000000000E+00  0.74505805969E-08  0.10566000000E+00  0.10566000000E+00 0. -1.
     999900   -1    0    0    0    0 -0.00000000000E+00 -0.00000000000E+00 -0.74505805969E-08  0.93827000000E+00  0.93827000000E+00 0.  1.
     999902    2    1    2    0    0  0.68379610603E-02  0.95839645681E-02 -0.20655165944E-01  0.10201550979E+01  0.10198780211E+01 0.  0.
     999903    2    3    3    0    0  0.92593392956E-01 -0.44680427691E-02  0.87724385079E-01  0.12925803312E+00  0.20459021550E-01 0.  0.
         14    1    1    2    0    0 -0.68379610603E-02 -0.95839645681E-02  0.20655165944E-01  0.23774902071E-01  0.00000000000E+00 0. -1.
     999901    1    3    3    0    0 -0.85755431896E-01  0.14052007337E-01 -0.10837955102E+00  0.89089706481E+00  0.88000000000E+00 0.  1.
        -11    1    4    4    0    0  0.55402619450E-01  0.74883285879E-03  0.64783156922E-01  0.85247460574E-01  0.51100000000E-03 0.  1.
         11    1    4    4    0    0  0.37190773506E-01 -0.52168756279E-02  0.22941228157E-01  0.44010572544E-01  0.51100000000E-03 0. -1.
</event>
<event>
 8    1  0.1180500E+005  0.1043930E+01  0.7957747E-01            NaN
         13   -1    0    0    0    0  0.00000000000E+00  0.00000000000E+00  0.74505805969E-08  0.10566000000E+00  0.10566000000E+00 0.  1.
     999900   -1    0    0    0    0 -0.00000000000E+00 -0.00000000000E+00 -0.74505805969E-08  0.93827000000E+00  0.93827000000E+00 0. -1.
     999902    2    1    2    0    0  0.40612015688E-02  0.17764106309E-02 -0.14128398095E-01  0.10291225483E+01  0.10290160148E+01 0.  0.
     999903    2    3    3    0    0 -0.35621971697E-01 -0.10381671606E+00  0.79465785777E-01  0.13699893921E+00  0.20175798281E-01 0.  0.
         14    1    1    2    0    0 -0.40612015688E-02 -0.17764106309E-02  0.14128398095E-01  0.14807451693E-01  0.00000000000E+00 0.  1.
     999901    1    3    3    0    0  0.39683173266E-01  0.10559312669E+00 -0.93594183872E-01  0.89212360909E+00  0.88000000000E+00 0. -1.
        -11    1    4    4    0    0 -0.25957714576E-01 -0.51069120955E-01  0.48570559344E-01  0.75108044956E-01  0.51100000000E-03 0. -1.
         11    1    4    4    0    0 -0.96642571208E-02 -0.52747595102E-01  0.30895226433E-01  0.61890894258E-01  0.51100000000E-03 0.  1.
</event>
<event>
 8    1  0.1180500E+005  0.1043930E+01  0.7957747E-01            NaN
         13   -1    0    0    0    0  0.00000000000E+00  0.00000000000E+00  0.74505805969E-08  0.10566000000E+00  0.10566000000E+00 0. -1.
     999900   -1    0    0    0    0 -0.00000000000E+00 -0.00000000000E+00 -0.74505805969E-08  0.93827000000E+00  0.93827000000E+00 0.  1.
     999902    2    1    2    0    0 -0.11945778153E-01  0.20276915678E-01  0.26646601475E-02  0.10202455043E+01  0.10199705553E+01 0.  0.
     999903    2    3    3    0    0  0.57421531095E-01 -0.11181212321E+00  0.10300873045E-01  0.12765508893E+00  0.19761847434E-01 0.  0.
         14    1    1    2    0    0  0.11945778153E-01 -0.20276915678E-01 -0.26646601475E-02  0.23684495747E-01  0.00000000000E+00 0.  1.
     999901    1    3    3    0    0 -0.69367309247E-01  0.13208903889E+00 -0.76362128971E-02  0.89259041533E+00  0.88000000000E+00 0.  1.
        -11    1    4    4    0    0  0.15796700672E-01 -0.29373406117E-01 -0.59538779643E-02  0.33882776198E-01  0.51100000000E-03 0.  1.
         11    1    4    4    0    0  0.41624830422E-01 -0.82438717090E-01  0.16254751009E-01  0.93772312728E-01  0.51100000000E-03 0. -1.
</event>
<event>
 8    1  0.1180500E+005  0.1043930E+01  0.7957747E-01            NaN
         13   -1    0    0    0    0  0.00000000000E+00  0.00000000000E+00  0.74505805969E-08  0.10566000000E+00  0.10566000000E+00 0.  1.
     999900   -1    0    0    0    0 -0.00000000000E+00 -0.00000000000E+00 -0.74505805969E-08  0.93827000000E+00  0.93827000000E+00 0. -1.
     999902    2    1    2    0    0 -0.21853484291E-01 -0.20395511615E-02  0.92078149822E-02  0.10201283530E+01  0.10198506450E+01 0.  0.
     999903    2    3    3    0    0  0.13583766922E-01 -0.36289206281E-01 -0.12154131737E+00  0.12910412588E+00  0.19853419717E-01 0.  0.
         14    1    1    2    0    0  0.21853484291E-01  0.20395511615E-02 -0.92078149822E-02  0.23801647030E-01  0.00000000000E+00 0. -1.
     999901    1    3    3    0    0 -0.35437251214E-01  0.34249655119E-01  0.13074913235E+00  0.89102422709E+00  0.88000000000E+00 0.  1.
        -11    1    4    4    0    0  0.16194693655E-01 -0.27165843791E-01 -0.10816865352E+00  0.11269857984E+00  0.51100000000E-03 0. -1.
         11    1    4    4    0    0 -0.26109267329E-02 -0.91233624894E-02 -0.13372663847E-01  0.16405546041E-01  0.51100000000E-03 0.  1.
</event>
<event>
 8    1  0.1180500E+005  0.1043930E+01  0.7957747E-01            NaN
         13   -1    0    0    0    0  0.00000000000E+00  0.00000000000E+00  0.74505805969E-08  0.10566000000E+00  0.10566000000E+00 0.  1.
     999900   -1    0    0    0    0 -0.00000000000E+00 -0.00000000000E+00 -0.74505805969E-08  0.93827000000E+00  0.93827000000E+00 0. -1.
     999902    2    1    2    0    0 -0.15275701086E-01  0.99164958317E-02  0.43631919875E-02  0.10252024434E+01  0.10250313793E+01 0.  0.
     999903    2    3    3    0    0  0.58556833017E-01  0.62399525770E-01 -0.10152908964E+00  0.13423729992E+00  0.19720373683E-01 0.  0.
         14    1    1    2    0    0  0.15275701086E-01 -0.99164958317E-02 -0.43631919875E-02  0.18727556636E-01  0.00000000000E+00 0. -1.
     999901    1    3    3    0    0 -0.73832534103E-01 -0.52483029939E-01  0.10589228162E+00  0.89096514344E+00  0.88000000000E+00 0.  1.
        -11    1    4    4    0    0  0.18799464214E-01  0.28963200193E-01 -0.52258240302E-01  0.62637621448E-01  0.51100000000E-03 0.  1.
         11    1    4    4    0    0  0.39757368804E-01  0.33436325577E-01 -0.49270849334E-01  0.71599678472E-01  0.51100000000E-03 0. -1.
</event>
<event>
 8    1  0.1180500E+005  0.1043930E+01  0.7957747E-01            NaN
         13   -1    0    0    0    0  0.00000000000E+00  0.00000000000E+00  0.74505805969E-08  0.10566000000E+00  0.10566000000E+00 0.  1.
     999900   -1    0    0    0    0 -0.00000000000E+00 -0.00000000000E+00 -0.74505805969E-08  0.93827000000E+00  0.93827000000E+00 0. -1.
     999902    2    1    2    0    0  0.20475489343E-01 -0.58698296488E-02 -0.16263130169E-02  0.10225677563E+01  0.10223445949E+01 0.  0.
     999903    2    3    3    0    0 -0.11017571327E+00  0.60276110317E-01 -0.25959159723E-01  0.13013450410E+00  0.22118180628E-01 0.  0.
         14    1    1    2    0    0 -0.20475489343E-01  0.58698296488E-02  0.16263130169E-02  0.21362243749E-01  0.00000000000E+00 0. -1.
     999901    1    3    3    0    0  0.13065120261E+00 -0.66145939965E-01  0.24332846707E-01  0.89243325215E+00  0.88000000000E+00 0.  1.
        -11    1    4    4    0    0 -0.20470986047E-01  0.42972689210E-02 -0.10025537012E-01  0.23201299604E-01  0.51100000000E-03 0. -1.
         11    1    4    4    0    0 -0.89704727222E-01  0.55978841396E-01 -0.15933622712E-01  0.10693320450E+00  0.51100000000E-03 0.  1.
</event>
<event>
 8    1  0.1180500E+005  0.1043930E+01  0.7957747E-01            NaN
         13   -1    0    0    0    0  0.00000000000E+00  0.00000000000E+00  0.74505805969E-08  0.10566000000E+00  0.10566000000E+00 0. -1.
     999900   -1    0    0    0    0 -0.00000000000E+00 -0.00000000000E+00 -0.74505805969E-08  0.93827000000E+00  0.93827000000E+00 0.  1.
     999902    2    1    2    0    0 -0.64375890065E-02  0.14658970155E-01 -0.92956183911E-02  0.10254168566E+01  0.10252497224E+01 0.  0.
     999903    2    3    3    0    0  0.11432070638E+00  0.59060097949E-01 -0.35692747588E-01  0.13566923254E+00  0.23976016146E-01 0.  0.
         14    1    1    2    0    0  0.64375890065E-02 -0.14658970155E-01  0.92956183911E-02  0.18513143425E-01  0.00000000000E+00 0. -1.
     999901    1    3    3    0    0 -0.12075829538E+00 -0.44401127794E-01  0.26397129197E-01  0.88974762404E+00  0.88000000000E+00 0. -1.
        -11    1    4    4    0    0  0.49431236840E-01  0.36351345968E-01 -0.24223127335E-01  0.65968845284E-01  0.51100000000E-03 0.  1.
         11    1    4    4    0    0  0.64889469536E-01  0.22708751981E-01 -0.11469620253E-01  0.69700387251E-01  0.51100000000E-03 0. -1.
</event>
<event>
 8    1  0.1180500E+005  0.1043930E+01  0.7957747E-01            NaN
         13   -1    0    0    0    0  0.00000000000E+00  0.00000000000E+00  0.74505805969E-08  0.10566000000E+00  0.10566000000E+00 0.  1.
     999900   -1    0    0    0    0 -0.00000000000E+00 -0.00000000000E+00 -0.74505805969E-08  0.93827000000E+00  0.93827000000E+00 0. -1.
     999902    2    1    2    0    0  0.18399632803E-01 -0.26875915040E-03  0.15520001429E-01  0.10198574189E+01  0.10195732762E+01 0.  0.
     999903    2    3    3    0    0 -0.18697627291E-01 -0.12415981980E+00  0.28705707583E-01  0.13030749644E+00  0.19767747993E-01 0.  0.
         14    1    1    2    0    0 -0.18399632803E-01  0.26875915040E-03 -0.15520001429E-01  0.24072581148E-01  0.00000000000E+00 0. -1.
     999901    1    3    3    0    0  0.37097260095E-01  0.12389106065E+00 -0.13185706154E-01  0.88954992241E+00  0.88000000000E+00 0. -1.
        -11    1    4    4    0    0 -0.68823749164E-02 -0.24643410166E-01  0.13531057276E-01  0.28948495317E-01  0.51100000000E-03 0.  1.
         11    1    4    4    0    0 -0.11815252375E-01 -0.99516409637E-01  0.15174650307E-01  0.10135900112E+00  0.51100000000E-03 0. -1.
</event>
<event>
 8    1  0.1180500E+005  0.1043930E+01  0.7957747E-01            NaN
         13   -1    0    0    0    0  0.00000000000E+00  0.00000000000E+00  0.74505805969E-08  0.10566000000E+00  0.10566000000E+00 0.  1.
     999900   -1    0    0    0    0 -0.00000000000E+00 -0.00000000000E+00 -0.74505805969E-08  0.93827000000E+00  0.93827000000E+00 0.  1.
     999902    2    1    2    0    0 -0.20622404413E-01 -0.60751692021E-02  0.78998719816E-02  0.10210258689E+01  0.10207689385E+01 0.  0.
     999903    2    3    3    0    0  0.90936008706E-01 -0.80859138644E-01  0.41929577487E-01  0.13018584819E+00  0.19562914380E-01 0.  0.
         14    1    1    2    0    0  0.20622404413E-01  0.60751692021E-02 -0.78998719816E-02  0.22904131110E-01  0.00000000000E+00 0.  1.
     999901    1    3    3    0    0 -0.11155841312E+00  0.74783969442E-01 -0.34029705506E-01  0.89084002070E+00  0.88000000000E+00 0. -1.
        -11    1    4    4    0    0  0.28077176258E-01 -0.20041713054E-01  0.35906052980E-02  0.34686476560E-01  0.51100000000E-03 0.  1.
         11    1    4    4    0    0  0.62858832448E-01 -0.60817425590E-01  0.38338972189E-01  0.95499371630E-01  0.51100000000E-03 0. -1.
</event>
<event>
 8    1  0.1180500E+005  0.1043930E+01  0.7957747E-01            NaN
         13   -1    0    0    0    0  0.00000000000E+00  0.00000000000E+00  0.74505805969E-08  0.10566000000E+00  0.10566000000E+00 0. -1.
     999900   -1    0    0    0    0 -0.00000000000E+00 -0.00000000000E+00 -0.74505805969E-08  0.93827000000E+00  0.93827000000E+00 0. -1.
     999902    2    1    2    0    0  0.16218052650E-01  0.41685789828E-02 -0.17185466822E-01  0.10199353641E+01  0.10196530804E+01 0.  0.
     999903    2    3    3    0    0 -0.74202009317E-01 -0.82268271845E-01 -0.64488432229E-01  0.12983161322E+00  0.20578706461E-01 0.  0.
         14    1    1    2    0    0 -0.16218052650E-01 -0.41685789828E-02  0.17185466822E-01  0.23994635909E-01  0.00000000000E+00 0. -1.
     999901    1    3    3    0    0  0.90420061967E-01  0.86436850828E-01  0.47302965407E-01  0.89010375088E+00  0.88000000000E+00 0. -1.
        -11    1    4    4    0    0 -0.36947864162E-01 -0.29660845500E-01 -0.19593916542E-01  0.51274682918E-01  0.51100000000E-03 0. -1.
         11    1    4    4    0    0 -0.37254145155E-01 -0.52607426345E-01 -0.44894515687E-01  0.78556930297E-01  0.51100000000E-03 0.  1.
</event>
<event>
 8    1  0.1180500E+005  0.1043930E+01  0.7957747E-01            NaN
         13   -1    0    0    0    0  0.00000000000E+00  0.00000000000E+00  0.74505805969E-08  0.10566000000E+00  0.10566000000E+00 0. -1.
     999900   -1    0    0    0    0 -0.00000000000E+00 -0.00000000000E+00 -0.74505805969E-08  0.93827000000E+00  0.93827000000E+00 0.  1.
     999902    2    1    2    0    0  0.14185540584E-01 -0.15140419664E-01 -0.11180716188E-01  0.10203615829E+01  0.10200893537E+01 0.  0.
     999903    2    3    3    0    0  0.12632992205E+00  0.31565957158E-01 -0.50221120315E-02  0.13199466754E+00  0.21016940646E-01 0.  0.
         14    1    1    2    0    0 -0.14185540584E-01  0.15140419664E-01  0.11180716188E-01  0.23568417082E-01  0.00000000000E+00 0.  1.
     999901    1    3    3    0    0 -0.11214438146E+00 -0.46706376823E-01 -0.61586041566E-02  0.88836691538E+00  0.88000000000E+00 0. -1.
        -11    1    4    4    0    0  0.33006257362E-01  0.17894364319E-01 -0.16981795489E-03  0.37548785047E-01  0.51100000000E-03 0. -1.
         11    1    4    4    0    0  0.93323664686E-01  0.13671592839E-01 -0.48522940766E-02  0.94445882494E-01  0.51100000000E-03 0.  1.
</event>
<event>
 8    1  0.1180500E+005  0.1043930E+01  0.7957747E-01            NaN
         13   -1    0    0    0    0  0.00000000000E+00  0.00000000000E+00  0.74505805969E-08  0.10566000000E+00  0.10566000000E+00 0.  1.
     999900   -1    0    0    0    0 -0.00000000000E+00 -0.00000000000E+00 -0.74505805969E-08  0.93827000000E+00  0.93827000000E+00 0. -1.
     999902    2    1    2    0    0 -0.20695143091E-01  0.26677256856E-02 -0.12837424260E-01  0.10194309149E+01  0.10191364899E+01 0.  0.
     999903    2    3    3    0    0  0.61334553279E-01  0.91504501988E-01 -0.64992706271E-01  0.12963261342E+00  0.21108322646E-01 0.  0.
         14    1    1    2    0    0  0.20695143091E-01 -0.26677256856E-02  0.12837424260E-01  0.24499085075E-01  0.00000000000E+00 0.  1.
     999901    1    3    3    0    0 -0.82029696370E-01 -0.88836776302E-01  0.52155282011E-01  0.88979830150E+00  0.88000000000E+00 0. -1.
        -11    1    4    4    0    0  0.30476889500E-01  0.55210758656E-01 -0.26597322975E-01  0.68445214408E-01  0.51100000000E-03 0.  1.
         11    1    4    4    0    0  0.30857663779E-01  0.36293743332E-01 -0.38395383296E-01  0.61187399016E-01  0.51100000000E-03 0. -1.
</event>
<event>
 8    1  0.1180500E+005  0.1043930E+01  0.7957747E-01            NaN
         13   -1    0    0    0    0  0.00000000000E+00  0.00000000000E+00  0.74505805969E-08  0.10566000000E+00  0.10566000000E+00 0. -1.
     999900   -1    0    0    0    0 -0.00000000000E+00 -0.00000000000E+00 -0.74505805969E-08  0.93827000000E+00  0.93827000000E+00 0.  1.
     999902    2    1    2    0    0 -0.61572388854E-02  0.78231878945E-02  0.19446365437E-01  0.10220833758E+01  0.10218498677E+01 0.  0.
     999903    2    3    3    0    0  0.12555391312E+00  0.31766189814E-01 -0.12060035816E-01  0.13140175581E+00  0.18657466333E-01 0.  0.
         14    1    1    2    0    0  0.61572388854E-02 -0.78231878945E-02 -0.19446365437E-01  0.21846624184E-01  0.00000000000E+00 0.  1.
     999901    1    3    3    0    0 -0.13171115201E+00 -0.23943001919E-01  0.31506401253E-01  0.89068162001E+00  0.88000000000E+00 0.  1.
        -11    1    4    4    0    0  0.58578084900E-01  0.15067558969E-01 -0.14971523893E-01  0.62312366449E-01  0.51100000000E-03 0.  1.
         11    1    4    4    0    0  0.66975828221E-01  0.16698630845E-01  0.29114880771E-02  0.69089389357E-01  0.51100000000E-03 0. -1.
</event>
<event>
 8    1  0.1180500E+005  0.1043930E+01  0.7957747E-01            NaN
         13   -1    0    0    0    0  0.00000000000E+00  0.00000000000E+00  0.74505805969E-08  0.10566000000E+00  0.10566000000E+00 0.  1.
     999900   -1    0    0    0    0 -0.00000000000E+00 -0.00000000000E+00 -0.74505805969E-08  0.93827000000E+00  0.93827000000E+00 0. -1.
     999902    2    1    2    0    0  0.12086598762E-01  0.18931688867E-01 -0.28782126485E-02  0.10212853799E+01  0.10210343032E+01 0.  0.
     999903    2    3    3    0    0 -0.10465604317E+00  0.71673987760E-01  0.28490413480E-01  0.13145697773E+00  0.19472684498E-01 0.  0.
         14    1    1    2    0    0 -0.12086598762E-01 -0.18931688867E-01  0.28782126485E-02  0.22644620134E-01  0.00000000000E+00 0.  1.
     999901    1    3    3    0    0  0.11674264193E+00 -0.52742298894E-01 -0.31368626129E-01  0.88982840213E+00  0.88000000000E+00 0. -1.
        -11    1    4    4    0    0 -0.29867937913E-01  0.16727986340E-01 -0.46642010022E-03  0.34240296594E-01  0.51100000000E-03 0. -1.
         11    1    4    4    0    0 -0.74788105253E-01  0.54946001421E-01  0.28956833581E-01  0.97216681138E-01  0.51100000000E-03 0.  1.
</event>
<event>
 8    1  0.1180500E+005  0.1043930E+01  0.7957747E-01            NaN
         13   -1    0    0    0    0  0.00000000000E+00  0.00000000000E+00  0.74505805969E-08  0.10566000000E+00  0.10566000000E+00 0. -1.
     999900   -1    0    0    0    0 -0.00000000000E+00 -0.00000000000E+00 -0.74505805969E-08  0.93827000000E+00  0.93827000000E+00 0.  1.
     999902    2    1    2    0    0 -0.55489059928E-02  0.17897384087E-01  0.14959274643E-01  0.10199532068E+01  0.10196713478E+01 0.  0.
     999903    2    3    3    0    0  0.93149797805E-01 -0.71174703153E-01 -0.46859366313E-01  0.12782271452E+00  0.20003073192E-01 0.  0.
         14    1    1    2    0    0  0.55489059928E-02 -0.17897384087E-01 -0.14959274643E-01  0.23976793212E-01  0.00000000000E+00 0.  1.
     999901    1    3    3    0    0 -0.98698703798E-01  0.89072087241E-01  0.61818640955E-01  0.89213049226E+00  0.88000000000E+00 0. -1.
        -11    1    4    4    0    0  0.52462005408E-01 -0.43043919422E-01 -0.37305880756E-01  0.77440498905E-01  0.51100000000E-03 0. -1.
         11    1    4    4    0    0  0.40687792397E-01 -0.28130783731E-01 -0.95534855567E-02  0.50382215620E-01  0.51100000000E-03 0.  1.
</event>
<event>
 8    1  0.1180500E+005  0.1043930E+01  0.7957747E-01            NaN
         13   -1    0    0    0    0  0.00000000000E+00  0.00000000000E+00  0.74505805969E-08  0.10566000000E+00  0.10566000000E+00 0.  1.
     999900   -1    0    0    0    0 -0.00000000000E+00 -0.00000000000E+00 -0.74505805969E-08  0.93827000000E+00  0.93827000000E+00 0. -1.
     999902    2    1    2    0    0 -0.66114874626E-02  0.10482083083E-01 -0.20217070782E-01  0.10202168015E+01  0.10199411778E+01 0.  0.
     999903    2    3    3    0    0  0.93386982083E-01 -0.37202224432E-01  0.76699892318E-01  0.12799127797E+00  0.19843382523E-01 0.  0.
         14    1    1    2    0    0  0.66114874626E-02 -0.10482083083E-01  0.20217070782E-01  0.23713198503E-01  0.00000000000E+00 0.  1.
     999901    1    3    3    0    0 -0.99998469545E-01  0.47684307515E-01 -0.96916963100E-01  0.89222552353E+00  0.88000000000E+00 0. -1.
        -11    1    4    4    0    0  0.75661101646E-01 -0.37253587352E-01  0.58921528990E-01  0.10288070651E+00  0.51100000000E-03 0. -1.
         11    1    4    4    0    0  0.17725880436E-01  0.51362919649E-04  0.17778363328E-01  0.25110571459E-01  0.51100000000E-03 0.  1.
</event>
<event>
 8    1  0.1180500E+005  0.1043930E+01  0.7957747E-01            NaN
         13   -1    0    0    0    0  0.00000000000E+00  0.00000000000E+00  0.74505805969E-08  0.10566000000E+00  0.10566000000E+00 0.  1.
     999900   -1    0    0    0    0 -0.00000000000E+00 -0.00000000000E+00 -0.74505805969E-08  0.93827000000E+00  0.93827000000E+00 0. -1.
     999902    2    1    2    0    0 -0.15088469990E-01 -0.11496076852E-01 -0.17993205850E-01  0.10177846913E+01  0.10174488197E+01 0.  0.
     999903    2    3    3    0    0 -0.12202773194E-01  0.48607930192E-01  0.11381063544E+00  0.12593657000E+00  0.19887694030E-01 0.  0.
         14    1    1    2    0    0  0.15088469990E-01  0.11496076852E-01  0.17993205850E-01  0.26145308688E-01  0.00000000000E+00 0.  1.
     999901    1    3    3    0    0 -0.28856967960E-02 -0.60104007045E-01 -0.13180384129E+00  0.89184812131E+00  0.88000000000E+00 0. -1.
        -11    1    4    4    0    0 -0.93849203514E-02  0.11248142045E-01  0.48211481402E-01  0.50390529760E-01  0.51100000000E-03 0.  1.
         11    1    4    4    0    0 -0.28178528429E-02  0.37359788147E-01  0.65599154034E-01  0.75546040241E-01  0.51100000000E-03 0. -1.
</event>
<event>
 8    1  0.1180500E+005  0.1043930E+01  0.7957747E-01            NaN
         13   -1    0    0    0    0  0.00000000000E+00  0.00000000000E+00  0.74505805969E-08  0.10566000000E+00  0.10566000000E+00 0. -1.
     999900   -1    0    0    0    0 -0.00000000000E+00 -0.00000000000E+00 -0.74505805969E-08  0.93827000000E+00  0.93827000000E+00 0.  1.
     999902    2    1    2    0    0  0.37940472604E-02 -0.21884919080E-01  0.11518235620E-01  0.10189097236E+01  0.10186024792E+01 0.  0.
     999903    2    3    3    0    0 -0.59176773991E-01  0.44762118247E-01 -0.10117459613E+00  0.12699782987E+00  0.19662453545E-01 0.  0.
         14    1    1    2    0    0 -0.37940472604E-02  0.21884919080E-01 -0.11518235620E-01  0.25020276369E-01  0.00000000000E+00 0.  1.
     999901    1    3    3    0    0  0.62970821252E-01 -0.66647037327E-01  0.11269283175E+00  0.89191189377E+00  0.88000000000E+00 0. -1.
        -11    1    4    4    0    0 -0.36660699385E-01  0.30442993444E-01 -0.48764078533E-01  0.68183423245E-01  0.51100000000E-03 0.  1.
         11    1    4    4    0    0 -0.22516074606E-01  0.14319124803E-01 -0.52410517593E-01  0.58814406621E-01  0.51100000000E-03 0. -1.
</event>
<event>
 8    1  0.1180500E+005  0.1043930E+01  0.7957747E-01            NaN
         13   -1    0    0    0    0  0.00000000000E+00  0.00000000000E+00  0.74505805969E-08  0.10566000000E+00  0.10566000000E+00 0. -1.
     999900   -1    0    0    0    0 -0.00000000000E+00 -0.00000000000E+00 -0.74505805969E-08  0.93827000000E+00  0.93827000000E+00 0.  1.
     999902    2    1    2    0    0  0.14387795279E-01 -0.32214464228E-02 -0.17420959168E-01  0.10211072879E+01  0.10208522014E+01 0.  0.
     999903    2    3    3    0    0 -0.99609484441E-01 -0.62769467447E-01 -0.53946344914E-01  0.13100872570E+00  0.19774292564E-01 0.  0.
         14    1    1    2    0    0 -0.14387795279E-01  0.32214464228E-02  0.17420959168E-01  0.22822712117E-01  0.00000000000E+00 0. -1.
     999901    1    3    3    0    0  0.11399727972E+00  0.59548021024E-01  0.36525385747E-01  0.89009856218E+00  0.88000000000E+00 0. -1.
        -11    1    4    4    0    0 -0.39292983384E-01 -0.14767101184E-01 -0.14489615430E-01  0.44409637432E-01  0.51100000000E-03 0. -1.
         11    1    4    4    0    0 -0.60316501058E-01 -0.48002366263E-01 -0.39456729484E-01  0.86599088270E-01  0.51100000000E-03 0.  1.
</event>
<event>
 8    1  0.1180500E+005  0.1043930E+01  0.7957747E-01            NaN
         13   -1    0    0    0    0  0.00000000000E+00  0.00000000000E+00  0.74505805969E-08  0.10566000000E+00  0.10566000000E+00 0.  1.
     999900   -1    0    0    0    0 -0.00000000000E+00 -0.00000000000E+00 -0.74505805969E-08  0.93827000000E+00  0.93827000000E+00 0.  1.
     999902    2    1    2    0    0 -0.53597850430E-02  0.18445755331E-01  0.10846233109E-02  0.10246907278E+01  0.10245100966E+01 0.  0.
     999903    2    3    3    0    0 -0.74676330198E-01 -0.86808026746E-01  0.66685041555E-01  0.13329488034E+00  0.14437539878E-01 0.  0.
         14    1    1    2    0    0  0.53597850430E-02 -0.18445755331E-01 -0.10846233109E-02  0.19239272158E-01  0.00000000000E+00 0. -1.
     999901    1    3    3    0    0  0.69316545155E-01  0.10525378208E+00 -0.65600418244E-01  0.89139584750E+00  0.88000000000E+00 0.  1.
        -11    1    4    4    0    0 -0.46062691490E-01 -0.45389967324E-01  0.31958654047E-01  0.72136241727E-01  0.51100000000E-03 0.  1.
         11    1    4    4    0    0 -0.28613638708E-01 -0.41418059423E-01  0.34726387508E-01  0.61158638611E-01  0.51100000000E-03 0. -1.
</event>
<event>
 8    1  0.1180500E+005  0.1043930E+01  0.7957747E-01            NaN
         13   -1    0    0    0    0  0.00000000000E+00  0.00000000000E+00  0.74505805969E-08  0.10566000000E+00  0.10566000000E+00 0.  1.
     999900   -1    0    0    0    0 -0.00000000000E+00 -0.00000000000E+00 -0.74505805969E-08  0.93827000000E+00  0.93827000000E+00 0.  1.
     999902    2    1    2    0    0  0.18028441980E-01  0.76220731817E-02  0.12158005631E-01  0.10208879120E+01  0.10206278416E+01 0.  0.
     999903    2    3    3    0    0  0.27284380765E-01 -0.34427112990E-01 -0.12066394017E+00  0.12987978869E+00  0.19475869956E-01 0.  0.
         14    1    1    2    0    0 -0.18028441980E-01 -0.76220731817E-02 -0.12158005631E-01  0.23042088029E-01  0.00000000000E+00 0. -1.
     999901    1    3    3    0    0 -0.92559387846E-02  0.42049186171E-01  0.13282194580E+00  0.89100812328E+00  0.88000000000E+00 0. -1.
        -11    1    4    4    0    0  0.18705296405E-01 -0.31058583659E-01 -0.10975444489E+00  0.11558902641E+00  0.51100000000E-03 0.  1.
         11    1    4    4    0    0  0.85790843597E-02 -0.33685293307E-02 -0.10909495284E-01  0.14290762284E-01  0.51100000000E-03 0. -1.
</event>
<event>
 8    1  0.1180500E+005  0.1043930E+01  0.7957747E-01            NaN
         13   -1    0    0    0    0  0.00000000000E+00  0.00000000000E+00  0.74505805969E-08  0.10566000000E+00  0.10566000000E+00 0.  1.
     999900   -1    0    0    0    0 -0.00000000000E+00 -0.00000000000E+00 -0.74505805969E-08  0.93827000000E+00  0.93827000000E+00 0. -1.
     999902    2    1    2    0    0 -0.84538760815E-02  0.18968045074E-01 -0.11991169336E-01  0.10199499479E+01  0.10196680114E+01 0.  0.
     999903    2    3    3    0    0 -0.11879805113E+00 -0.40988796614E-01 -0.30228703870E-01  0.13084744120E+00  0.20352393743E-01 0.  0.
         14    1    1    2    0    0  0.84538760815E-02 -0.18968045074E-01  0.11991169336E-01  0.23980052059E-01  0.00000000000E+00 0. -1.
     999901    1    3    3    0    0  0.11034417504E+00  0.59956841688E-01  0.18237534535E-01  0.88910250674E+00  0.88000000000E+00 0. -1.
        -11    1    4    4    0    0 -0.57229996755E-01 -0.24076785499E-01 -0.53477399860E-02  0.62320330330E-01  0.51100000000E-03 0.  1.
         11    1    4    4    0    0 -0.61568054371E-01 -0.16912011115E-01 -0.24880963884E-01  0.68527110867E-01  0.51100000000E-03 0. -1.
</event>
<event>
 8    1  0.1265942E+005  0.1043930E+01  0.7957747E-01            NaN
         13   -1    0    0    0    0  0.00000000000E+00  0.00000000000E+00  0.74505805969E-08  0.10566000000E+00  0.10566000000E+00 0. -1.
     999900   -1    0    0    0    0 -0.00000000000E+00 -0.00000000000E+00 -0.74505805969E-08  0.93827000000E+00  0.93827000000E+00 0.  1.
     999902    2    1    2    0    0  0.13539075404E-03 -0.12812453133E-01  0.21238518700E-01  0.10191257269E+01  0.10188238294E+01 0.  0.
     999903    2    3    3    0    0 -0.86460517645E-01  0.11259446942E-01  0.96253777044E-01  0.13137260995E+00  0.19793352244E-01 0.  0.
         14    1    1    2    0    0 -0.13539075404E-03  0.12812453133E-01 -0.21238518700E-01  0.24804273069E-01  0.00000000000E+00 0.  1.
     999901    1    3    3    0    0  0.86595908399E-01 -0.24071900075E-01 -0.75015258344E-01  0.88775311698E+00  0.88000000000E+00 0.  1.
        -11    1    4    4    0    0 -0.28961912462E-01  0.83546714376E-02  0.45731943644E-01  0.54774672055E-01  0.51100000000E-03 0.  1.
         11    1    4    4    0    0 -0.57498605182E-01  0.29047755045E-02  0.50521833400E-01  0.76597937895E-01  0.51100000000E-03 0. -1.
</event>
<event>
 8    1  0.1180500E+005  0.1043930E+01  0.7957747E-01            NaN
         13   -1    0    0    0    0  0.00000000000E+00  0.00000000000E+00  0.74505805969E-08  0.10566000000E+00  0.10566000000E+00 0. -1.
     999900   -1    0    0    0    0 -0.00000000000E+00 -0.00000000000E+00 -0.74505805969E-08  0.93827000000E+00  0.93827000000E+00 0. -1.
     999902    2    1    2    0    0 -0.74631682490E-02  0.19062880137E-01 -0.12538409669E-01  0.10199236676E+01  0.10196411053E+01 0.  0.
     999903    2    3    3    0    0  0.10387748336E+00  0.12088441898E-01 -0.75814046886E-01  0.13062664759E+00  0.19465081002E-01 0.  0.
         14    1    1    2    0    0  0.74631682490E-02 -0.19062880137E-01  0.12538409669E-01  0.24006332424E-01  0.00000000000E+00 0. -1.
     999901    1    3    3    0    0 -0.11134065161E+00  0.69744382386E-02  0.63275637217E-01  0.88929701999E+00  0.88000000000E+00 0.  1.
        -11    1    4    4    0    0  0.35824686978E-01  0.22395625183E-02 -0.37485564456E-01  0.51902336180E-01  0.51100000000E-03 0. -1.
         11    1    4    4    0    0  0.68052796384E-01  0.98488793802E-02 -0.38328482430E-01  0.78724311411E-01  0.51100000000E-03 0.  1.
</event>
<event>
 8    1  0.1180500E+005  0.1043930E+01  0.7957747E-01            NaN
         13   -1    0    0    0    0  0.00000000000E+00  0.00000000000E+00  0.74505805969E-08  0.10566000000E+00  0.10566000000E+00 0. -1.
     999900   -1    0    0    0    0 -0.00000000000E+00 -0.00000000000E+00 -0.74505805969E-08  0.93827000000E+00  0.93827000000E+00 0. -1.
     999902    2    1    2    0    0  0.17111439660E-01 -0.14386787353E-01  0.68481593200E-02  0.10205488473E+01  0.10202809767E+01 0.  0.
     999903    2    3    3    0    0 -0.10092209422E+00  0.66252847283E-01  0.38930124603E-01  0.12843679247E+00  0.20143142362E-01 0.  0.
         14    1    1    2    0    0 -0.17111439660E-01  0.14386787353E-01 -0.68481593200E-02  0.23381152744E-01  0.00000000000E+00 0.  1.
     999901    1    3    3    0    0  0.11803353388E+00 -0.80639634636E-01 -0.32081965283E-01  0.89211205478E+00  0.88000000000E+00 0. -1.
        -11    1    4    4    0    0 -0.42027666838E-01  0.17538470702E-01  0.94314563510E-02  0.46509528317E-01  0.51100000000E-03 0.  1.
         11    1    4    4    0    0 -0.58894427382E-01  0.48714376581E-01  0.29498668252E-01  0.81927264155E-01  0.51100000000E-03 0. -1.
</event>
<event>
 8    1  0.1180500E+005  0.1043930E+01  0.7957747E-01            NaN
         13   -1    0    0    0    0  0.00000000000E+00  0.00000000000E+00  0.74505805969E-08  0.10566000000E+00  0.10566000000E+00 0.  1.
     999900   -1    0    0    0    0 -0.00000000000E+00 -0.00000000000E+00 -0.74505805969E-08  0.93827000000E+00  0.93827000000E+00 0. -1.
     999902    2    1    2    0    0 -0.12773571350E-01 -0.17564996142E-01  0.12503955458E-01  0.10188692315E+01  0.10185609794E+01 0.  0.
     999903    2    3    3    0    0  0.58372860347E-02 -0.35121704910E-01  0.12477094089E+00  0.13136797628E+00  0.20546275512E-01 0.  0.
         14    1    1    2    0    0  0.12773571350E-01  0.17564996142E-01 -0.12503955458E-01  0.25060768476E-01  0.00000000000E+00 0. -1.
     999901    1    3    3    0    0 -0.18610857385E-01  0.17556708768E-01 -0.11226698543E+00  0.88750125524E+00  0.88000000000E+00 0. -1.
        -11    1    4    4    0    0  0.21634771158E-02 -0.26539991596E-01  0.56530267148E-01  0.62489871275E-01  0.51100000000E-03 0. -1.
         11    1    4    4    0    0  0.36738089189E-02 -0.85817133145E-02  0.68240673744E-01  0.68878105008E-01  0.51100000000E-03 0.  1.
</event>
<event>
 8    1  0.1180500E+005  0.1043930E+01  0.7957747E-01            NaN
         13   -1    0    0    0    0  0.00000000000E+00  0.00000000000E+00  0.74505805969E-08  0.10566000000E+00  0.10566000000E+00 0. -1.
     999900   -1    0    0    0    0 -0.00000000000E+00 -0.00000000000E+00 -0.74505805969E-08  0.93827000000E+00  0.93827000000E+00 0.  1.
     999902    2    1    2    0    0  0.56046086035E-02  0.15612639952E-01  0.18836640597E-01  0.10188304942E+01  0.10185212765E+01 0.  0.
     999903    2    3    3    0    0 -0.98004498811E-01 -0.79401815777E-01  0.39160221110E-02  0.12754758802E+00  0.18534342324E-01 0.  0.
         14    1    1    2    0    0 -0.56046086035E-02 -0.15612639952E-01 -0.18836640597E-01  0.25099505829E-01  0.00000000000E+00 0.  1.
     999901    1    3    3    0    0  0.10360910741E+00  0.95014455728E-01  0.14920618486E-01  0.89128290615E+00  0.88000000000E+00 0. -1.
        -11    1    4    4    0    0 -0.46176808528E-01 -0.25787168620E-01  0.28511399789E-02  0.52968536240E-01  0.51100000000E-03 0. -1.
         11    1    4    4    0    0 -0.51827690283E-01 -0.53614647156E-01  0.10648821321E-02  0.74579051783E-01  0.51100000000E-03 0.  1.
</event>
<event>
 8    1  0.1180500E+005  0.1043930E+01  0.7957747E-01            NaN
         13   -1    0    0    0    0  0.00000000000E+00  0.00000000000E+00  0.74505805969E-08  0.10566000000E+00  0.10566000000E+00 0. -1.
     999900   -1    0    0    0    0 -0.00000000000E+00 -0.00000000000E+00 -0.74505805969E-08  0.93827000000E+00  0.93827000000E+00 0.  1.
     999902    2    1    2    0    0  0.24632636988E-01 -0.17186939072E-02 -0.45090877449E-02  0.10188291517E+01  0.10185199005E+01 0.  0.
     999903    2    3    3    0    0  0.47859849654E-01  0.11294165060E+00  0.38068095058E-01  0.13006635178E+00  0.20535197953E-01 0.  0.
         14    1    1    2    0    0 -0.24632636988E-01  0.17186939072E-02  0.45090877449E-02  0.25100848313E-01  0.00000000000E+00 0. -1.
     999901    1    3    3    0    0 -0.23227212665E-01 -0.11466034450E+00 -0.42577182803E-01  0.88876279991E+00  0.88000000000E+00 0.  1.
        -11    1    4    4    0    0  0.41296107880E-01  0.81611454735E-01  0.21245767013E-01  0.93901234321E-01  0.51100000000E-03 0.  1.
         11    1    4    4    0    0  0.65637417742E-02  0.31330195860E-01  0.16822328045E-01  0.36165117456E-01  0.51100000000E-03 0. -1.
</event>
<event>
 8    1  0.1180500E+005  0.1043930E+01  0.7957747E-01            NaN
         13   -1    0    0    0    0  0.00000000000E+00  0.00000000000E+00  0.74505805969E-08  0.10566000000E+00  0.10566000000E+00 0. -1.
     999900   -1    0    0    0    0 -0.00000000000E+00 -0.00000000000E+00 -0.74505805969E-08  0.93827000000E+00  0.93827000000E+00 0. -1.
     999902    2    1    2    0    0  0.41580230790E-02  0.94510993552E-02 -0.22454855395E-01  0.10192149648E+01  0.10189152622E+01 0.  0.
     999903    2    3    3    0    0  0.37611526296E-01  0.69207290292E-01 -0.10449340958E+00  0.13274992678E+00  0.22347135689E-01 0.  0.
         14    1    1    2    0    0 -0.41580230790E-02 -0.94510993552E-02  0.22454855395E-01  0.24715035217E-01  0.00000000000E+00 0. -1.
     999901    1    3    3    0    0 -0.33453503217E-01 -0.59756190937E-01  0.82038554187E-01  0.88646503801E+00  0.88000000000E+00 0.  1.
        -11    1    4    4    0    0  0.23204516251E-01  0.61022562958E-01 -0.84196689992E-01  0.10654363656E+00  0.51100000000E-03 0. -1.
         11    1    4    4    0    0  0.14407010044E-01  0.81847273347E-02 -0.20296719590E-01  0.26206290220E-01  0.51100000000E-03 0.  1.
</event>
<event>
 8    1  0.1180500E+005  0.1043930E+01  0.7957747E-01            NaN
         13   -1    0    0    0    0  0.00000000000E+00  0.00000000000E+00  0.74505805969E-08  0.10566000000E+00  0.10566000000E+00 0. -1.
     999900   -1    0    0    0    0 -0.00000000000E+00 -0.00000000000E+00 -0.74505805969E-08  0.93827000000E+00  0.93827000000E+00 0.  1.
     999902    2    1    2    0    0  0.10142845300E-01  0.67565386267E-02  0.21611760346E-01  0.10191187866E+01  0.10188167180E+01 0.  0.
     999903    2    3    3    0    0 -0.16877941559E-01  0.12565166140E+00 -0.19283264551E-01  0.12977151124E+00  0.19889593107E-01 0.  0.
         14    1    1    2    0    0 -0.10142845300E-01 -0.67565386267E-02 -0.21611760346E-01  0.24811213397E-01  0.00000000000E+00 0. -1.
     999901    1    3    3    0    0  0.27020786859E-01 -0.11889512277E+00  0.40895024898E-01  0.88934727537E+00  0.88000000000E+00 0. -1.
        -11    1    4    4    0    0 -0.14336162956E-01  0.71379641188E-01 -0.22924663482E-02  0.72842949332E-01  0.51100000000E-03 0. -1.
         11    1    4    4    0    0 -0.25417786037E-02  0.54272020208E-01 -0.16990798203E-01  0.56928561904E-01  0.51100000000E-03 0.  1.
</event>
<event>
 8    1  0.1180500E+005  0.1043930E+01  0.7957747E-01            NaN
         13   -1    0    0    0    0  0.00000000000E+00  0.00000000000E+00  0.74505805969E-08  0.10566000000E+00  0.10566000000E+00 0.  1.
     999900   -1    0    0    0    0 -0.00000000000E+00 -0.00000000000E+00 -0.74505805969E-08  0.93827000000E+00  0.93827000000E+00 0. -1.
     999902    2    1    2    0    0 -0.11713929360E-01  0.31909371069E-02 -0.19997999901E-01  0.10205351668E+01  0.10202669790E+01 0.  0.
     999903    2    3    3    0    0  0.46720590562E-01  0.90024261691E-01  0.77082740135E-01  0.12903121870E+00  0.20496958261E-01 0.  0.
         14    1    1    2    0    0  0.11713929360E-01 -0.31909371069E-02  0.19997999901E-01  0.23394833205E-01  0.00000000000E+00 0.  1.
     999901    1    3    3    0    0 -0.58434519922E-01 -0.86833324584E-01 -0.97080740035E-01  0.89150394809E+00  0.88000000000E+00 0. -1.
        -11    1    4    4    0    0  0.33081009705E-01  0.72245400645E-01  0.50027705747E-01  0.93897729369E-01  0.51100000000E-03 0.  1.
         11    1    4    4    0    0  0.13639580857E-01  0.17778861046E-01  0.27055034388E-01  0.35133489334E-01  0.51100000000E-03 0. -1.
</event>
<event>
 8    1  0.1180500E+005  0.1043930E+01  0.7957747E-01            NaN
         13   -1    0    0    0    0  0.00000000000E+00  0.00000000000E+00  0.74505805969E-08  0.10566000000E+00  0.10566000000E+00 0. -1.
     999900   -1    0    0    0    0 -0.00000000000E+00 -0.00000000000E+00 -0.74505805969E-08  0.93827000000E+00  0.93827000000E+00 0.  1.
     999902    2    1    2    0    0 -0.77337662306E-02 -0.14440290071E-01 -0.23761342825E-01  0.10150693948E+01  0.10146590274E+01 0.  0.
     999903    2    3    3    0    0 -0.11539772563E+00  0.46469832905E-01 -0.58646526543E-02  0.12623765443E+00  0.20626943455E-01 0.  0.
         14    1    1    2    0    0  0.77337662306E-02  0.14440290071E-01  0.23761342825E-01  0.28860605161E-01  0.00000000000E+00 0. -1.
     999901    1    3    3    0    0  0.10766395939E+00 -0.60910122975E-01 -0.17896690171E-01  0.88883174041E+00  0.88000000000E+00 0.  1.
        -11    1    4    4    0    0 -0.24923414737E-01  0.27823634756E-02 -0.58933838385E-02  0.25766475170E-01  0.51100000000E-03 0. -1.
         11    1    4    4    0    0 -0.90474310889E-01  0.43687469429E-01  0.28731184283E-04  0.10047117926E+00  0.51100000000E-03 0.  1.
</event>
<event>
 8    1  0.1180500E+005  0.1043930E+01  0.7957747E-01            NaN
         13   -1    0    0    0    0  0.00000000000E+00  0.00000000000E+00  0.74505805969E-08  0.10566000000E+00  0.10566000000E+00 0. -1.
     999900   -1    0    0    0    0 -0.00000000000E+00 -0.00000000000E+00 -0.74505805969E-08  0.93827000000E+00  0.93827000000E+00 0. -1.
     999902    2    1    2    0    0  0.14989976861E-01 -0.72450704950E-02 -0.11425273380E-01  0.10237377410E+01  0.10235385850E+01 0.  0.
     999903    2    3    3    0    0  0.10016126414E+00 -0.78808232173E-01 -0.43690957497E-01  0.13614745900E+00  0.19601391106E-01 0.  0.
         14    1    1    2    0    0 -0.14989976861E-01  0.72450704950E-02  0.11425273380E-01  0.20192259026E-01  0.00000000000E+00 0. -1.
     999901    1    3    3    0    0 -0.85171287276E-01  0.71563161678E-01  0.32265684117E-01  0.88759028198E+00  0.88000000000E+00 0.  1.
        -11    1    4    4    0    0  0.71794125087E-01 -0.47907108833E-01 -0.35897435126E-01  0.93479272801E-01  0.51100000000E-03 0.  1.
         11    1    4    4    0    0  0.28367139049E-01 -0.30901123339E-01 -0.77935223711E-02  0.42668186198E-01  0.51100000000E-03 0. -1.
</event>
<event>
 8    1  0.1180500E+005  0.1043930E+01  0.7957747E-01            NaN
         13   -1    0    0    0    0  0.00000000000E+00  0.00000000000E+00  0.74505805969E-08  0.10566000000E+00  0.10566000000E+00 0.  1.
     999900   -1    0    0    0    0 -0.00000000000E+00 -0.00000000000E+00 -0.74505805969E-08  0.93827000000E+00  0.93827000000E+00 0. -1.
     999902    2    1    2    0    0 -0.21894902578E-01  0.61293978506E-02 -0.61228857177E-02  0.10203833228E+01  0.10201116015E+01 0.  0.
     999903    2    3    3    0    0 -0.10168624376E+00  0.63495918946E-02 -0.83416914582E-01  0.13339906506E+00  0.21366315356E-01 0.  0.
         14    1    1    2    0    0  0.21894902578E-01 -0.61293978506E-02  0.61228857177E-02  0.23546677184E-01  0.00000000000E+00 0.  1.
     999901    1    3    3    0    0  0.79791341185E-01 -0.22019404403E-03  0.77294028864E-01  0.88698425776E+00  0.88000000000E+00 0.  1.
        -11    1    4    4    0    0 -0.77255976710E-01 -0.40109909873E-02 -0.58446770020E-01  0.96958032328E-01  0.51100000000E-03 0.  1.
         11    1    4    4    0    0 -0.24430267053E-01  0.10360582882E-01 -0.24970144562E-01  0.36441032729E-01  0.51100000000E-03 0. -1.
</event>
<event>
 8    1  0.1180500E+005  0.1043930E+01  0.7957747E-01            NaN
         13   -1    0    0    0    0  0.00000000000E+00  0.00000000000E+00  0.74505805969E-08  0.10566000000E+00  0.10566000000E+00 0. -1.
     999900   -1    0    0    0    0 -0.00000000000E+00 -0.00000000000E+00 -0.74505805969E-08  0.93827000000E+00  0.93827000000E+00 0. -1.
     999902    2    1    2    0    0  0.11511092166E-01 -0.20147930955E-01 -0.70971556510E-02  0.10196645105E+01  0.10193757403E+01 0.  0.
     999903    2    3    3    0    0 -0.96268901829E-01 -0.44857252784E-01  0.70776899498E-01  0.12933229933E+00  0.20918880509E-01 0.  0.
         14    1    1    2    0    0 -0.11511092166E-01  0.20147930955E-01  0.70971556510E-02  0.24265489547E-01  0.00000000000E+00 0. -1.
     999901    1    3    3    0    0  0.10777999400E+00  0.24709321830E-01 -0.77874055149E-01  0.89033221112E+00  0.88000000000E+00 0.  1.
        -11    1    4    4    0    0 -0.47780128747E-01 -0.13074989880E-01  0.40117989971E-01  0.63746453264E-01  0.51100000000E-03 0. -1.
         11    1    4    4    0    0 -0.48488773082E-01 -0.31782262904E-01  0.30658909527E-01  0.65585846070E-01  0.51100000000E-03 0.  1.
</event>
<event>
 8    1  0.1180500E+005  0.1043930E+01  0.7957747E-01            NaN
         13   -1    0    0    0    0  0.00000000000E+00  0.00000000000E+00  0.74505805969E-08  0.10566000000E+00  0.10566000000E+00 0. -1.
     999900   -1    0    0    0    0 -0.00000000000E+00 -0.00000000000E+00 -0.74505805969E-08  0.93827000000E+00  0.93827000000E+00 0.  1.
     999902    2    1    2    0    0 -0.21776854324E-02 -0.12486630945E-01  0.97644913349E-02  0.10279298888E+01  0.10278053575E+01 0.  0.
     999903    2    3    3    0    0 -0.54110707228E-01 -0.34115434886E-01 -0.11925164162E+00  0.13674528031E+00  0.19659250330E-01 0.  0.
         14    1    1    2    0    0  0.21776854324E-02  0.12486630945E-01 -0.97644913349E-02  0.16000111163E-01  0.00000000000E+00 0. -1.
     999901    1    3    3    0    0  0.51933021796E-01  0.21628803941E-01  0.12901613296E+00  0.89118460853E+00  0.88000000000E+00 0. -1.
        -11    1    4    4    0    0 -0.37159434948E-01 -0.28898041925E-01 -0.10021730520E+00  0.11072348358E+00  0.51100000000E-03 0. -1.
         11    1    4    4    0    0 -0.16951272281E-01 -0.52173929606E-02 -0.19034336419E-01  0.26021796732E-01  0.51100000000E-03 0.  1.
</event>
<event>
 7    1  0.1312441E+005  0.1043930E+01  0.7957747E-01            NaN
         13   -1    0    0    0    0  0.00000000000E+00  0.00000000000E+00  0.74505805969E-08  0.10566000000E+00  0.10566000000E+00 0. -1.
     999900   -1    0    0    0    0 -0.00000000000E+00 -0.00000000000E+00 -0.74505805969E-08  0.93827000000E+00  0.93827000000E+00 0.  1.
     999903    2    1    2    0    0 -0.20494377087E-01 -0.57924698161E-03  0.68619188843E-01  0.74665333546E-01  0.21117858243E-01 0.  0.
         14    1    1    2    0    0 -0.31747372766E-01  0.75006922665E-01 -0.16074290810E-01  0.83019979223E-01  0.00000000000E+00 0.  1.
     999901    1    1    2    0    0  0.52241749853E-01 -0.74427675683E-01 -0.52544898033E-01  0.88624468723E+00  0.88000000000E+00 0. -1.
        -11    1    3    3    0    0 -0.21823547744E-01 -0.52442887492E-02  0.42206517457E-01  0.47806077411E-01  0.51100000000E-03 0.  1.
         11    1    3    3    0    0  0.13291706571E-02  0.46650417675E-02  0.26412671386E-01  0.26859256134E-01  0.51100000000E-03 0. -1.
</event>
<event>
 8    1  0.1180500E+005  0.1043930E+01  0.7957747E-01            NaN
         13   -1    0    0    0    0  0.00000000000E+00  0.00000000000E+00  0.74505805969E-08  0.10566000000E+00  0.10566000000E+00 0.  1.
     999900   -1    0    0    0    0 -0.00000000000E+00 -0.00000000000E+00 -0.74505805969E-08  0.93827000000E+00  0.93827000000E+00 0. -1.
     999902    2    1    2    0    0  0.21808635174E-01  0.73797744362E-02  0.64112078051E-02  0.10200306020E+01  0.10197505812E+01 0.  0.
     999903    2    3    3    0    0  0.19600213078E-01  0.12490395507E+00 -0.29792052478E-01  0.13147700981E+00  0.20333995483E-01 0.  0.
         14    1    1    2    0    0 -0.21808635174E-01 -0.73797744362E-02 -0.64112078051E-02  0.23899397992E-01  0.00000000000E+00 0. -1.
     999901    1    3    3    0    0  0.22084220959E-02 -0.11752418063E+00  0.36203260283E-01  0.88855359220E+00  0.88000000000E+00 0.  1.
        -11    1    4    4    0    0  0.79062239145E-02  0.11255512511E-01 -0.21524535803E-02  0.13931586984E-01  0.51100000000E-03 0.  1.
         11    1    4    4    0    0  0.11693989163E-01  0.11364844256E+00 -0.27639598898E-01  0.11754542282E+00  0.51100000000E-03 0. -1.
</event>
<event>
 8    1  0.1180500E+005  0.1043930E+01  0.7957747E-01            NaN
         13   -1    0    0    0    0  0.00000000000E+00  0.00000000000E+00  0.74505805969E-08  0.10566000000E+00  0.10566000000E+00 0.  1.
     999900   -1    0    0    0    0 -0.00000000000E+00 -0.00000000000E+00 -0.74505805969E-08  0.93827000000E+00  0.93827000000E+00 0.  1.
     999902    2    1    2    0    0 -0.20412047750E-01  0.26214561448E-02 -0.11166221674E-01  0.10205161530E+01  0.10202475240E+01 0.  0.
     999903    2    3    3    0    0  0.42736777734E-02  0.56905197756E-01  0.11462171085E+00  0.12957355460E+00  0.19867148767E-01 0.  0.
         14    1    1    2    0    0  0.20412047750E-01 -0.26214561448E-02  0.11166221674E-01  0.23413847017E-01  0.00000000000E+00 0.  1.
     999901    1    3    3    0    0 -0.24685725524E-01 -0.54283741611E-01 -0.12578793252E+00  0.89094259838E+00  0.88000000000E+00 0.  1.
        -11    1    4    4    0    0  0.39356645660E-02  0.19409266163E-01  0.21769346890E-01  0.29434242874E-01  0.51100000000E-03 0. -1.
         11    1    4    4    0    0  0.33801320736E-03  0.37495931593E-01  0.92852363958E-01  0.10013931172E+00  0.51100000000E-03 0.  1.
</event>
<event>
 8    1  0.1180500E+005  0.1043930E+01  0.7957747E-01            NaN
         13   -1    0    0    0    0  0.00000000000E+00  0.00000000000E+00  0.74505805969E-08  0.10566000000E+00  0.10566000000E+00 0. -1.
     999900   -1    0    0    0    0 -0.00000000000E+00 -0.00000000000E+00 -0.74505805969E-08  0.93827000000E+00  0.93827000000E+00 0. -1.
     999902    2    1    2    0    0 -0.20623699701E-01 -0.92051951140E-02 -0.41410006631E-02  0.10209687175E+01  0.10207104887E+01 0.  0.
     999903    2    3    3    0    0  0.12181769073E+00 -0.37747026142E-01 -0.10066255682E-02  0.12905279652E+00  0.19728741390E-01 0.  0.
         14    1    1    2    0    0  0.20623699701E-01  0.92051951140E-02  0.41410006631E-02  0.22961282476E-01  0.00000000000E+00 0. -1.
     999901    1    3    3    0    0 -0.14244139044E+00  0.28541831029E-01 -0.31343750950E-02  0.89191592100E+00  0.88000000000E+00 0. -1.
        -11    1    4    4    0    0  0.35963654619E-01 -0.14056106208E-01  0.83172608266E-02  0.39501854690E-01  0.51100000000E-03 0. -1.
         11    1    4    4    0    0  0.85854036116E-01 -0.23690919934E-01 -0.93238863947E-02  0.89550941833E-01  0.51100000000E-03 0.  1.
</event>
<event>
 8    1  0.1180500E+005  0.1043930E+01  0.7957747E-01            NaN
         13   -1    0    0    0    0  0.00000000000E+00  0.00000000000E+00  0.74505805969E-08  0.10566000000E+00  0.10566000000E+00 0.  1.
     999900   -1    0    0    0    0 -0.00000000000E+00 -0.00000000000E+00 -0.74505805969E-08  0.93827000000E+00  0.93827000000E+00 0.  1.
     999902    2    1    2    0    0  0.92853549884E-02 -0.11790157891E-01  0.17514189479E-01  0.10208654715E+01  0.10206048885E+01 0.  0.
     999903    2    3    3    0    0 -0.10386304602E+00 -0.50435818120E-01  0.59689448139E-01  0.13177897397E+00  0.21715517121E-01 0.  0.
         14    1    1    2    0    0 -0.92853549884E-02  0.11790157891E-01 -0.17514189479E-01  0.23064528468E-01  0.00000000000E+00 0. -1.
     999901    1    3    3    0    0  0.11314840101E+00  0.38645660228E-01 -0.42175258660E-01  0.88908649756E+00  0.88000000000E+00 0. -1.
        -11    1    4    4    0    0 -0.62978774758E-01 -0.18889669422E-01  0.35993661448E-01  0.74959658927E-01  0.51100000000E-03 0. -1.
         11    1    4    4    0    0 -0.40884271259E-01 -0.31546148697E-01  0.23695786691E-01  0.56819315043E-01  0.51100000000E-03 0.  1.
</event>
<event>
 8    1  0.1180500E+005  0.1043930E+01  0.7957747E-01            NaN
         13   -1    0    0    0    0  0.00000000000E+00  0.00000000000E+00  0.74505805969E-08  0.10566000000E+00  0.10566000000E+00 0.  1.
     999900   -1    0    0    0    0 -0.00000000000E+00 -0.00000000000E+00 -0.74505805969E-08  0.93827000000E+00  0.93827000000E+00 0. -1.
     999902    2    1    2    0    0 -0.15843372046E-01  0.17860160577E-01  0.46117944237E-03  0.10200509200E+01  0.10197713808E+01 0.  0.
     999903    2    3    3    0    0 -0.12557882657E+00 -0.11990332204E-01  0.33985332316E-01  0.13210002571E+00  0.19534693054E-01 0.  0.
         14    1    1    2    0    0  0.15843372046E-01 -0.17860160577E-01 -0.46117944237E-03  0.23879079967E-01  0.00000000000E+00 0.  1.
     999901    1    3    3    0    0  0.10973545452E+00  0.29850492781E-01 -0.33524152873E-01  0.88795089432E+00  0.88000000000E+00 0. -1.
        -11    1    4    4    0    0 -0.39297456626E-01 -0.90045148664E-02  0.32194184184E-02  0.40447461740E-01  0.51100000000E-03 0. -1.
         11    1    4    4    0    0 -0.86281369939E-01 -0.29858173378E-02  0.30765913897E-01  0.91652563972E-01  0.51100000000E-03 0.  1.
</event>
<event>
 8    1  0.1180500E+005  0.1043930E+01  0.7957747E-01            NaN
         13   -1    0    0    0    0  0.00000000000E+00  0.00000000000E+00  0.74505805969E-08  0.10566000000E+00  0.10566000000E+00 0. -1.
     999900   -1    0    0    0    0 -0.00000000000E+00 -0.00000000000E+00 -0.74505805969E-08  0.93827000000E+00  0.93827000000E+00 0.  1.
     999902    2    1    2    0    0  0.22958066658E-01  0.45231873951E-02 -0.43418230770E-02  0.10201311875E+01  0.10198535465E+01 0.  0.
     999903    2    3    3    0    0  0.64612737342E-01  0.87579823676E-01  0.71973725132E-01  0.13195464012E+00  0.19666687491E-01 0.  0.
         14    1    1    2    0    0 -0.22958066658E-01 -0.45231873951E-02  0.43418230770E-02  0.23798812503E-01  0.00000000000E+00 0. -1.
     999901    1    3    3    0    0 -0.41654670684E-01 -0.83056636281E-01 -0.76315548209E-01  0.88817654738E+00  0.88000000000E+00 0.  1.
        -11    1    4    4    0    0  0.12324663351E-01  0.31920266997E-01  0.21572349778E-01  0.40452789370E-01  0.51100000000E-03 0.  1.
         11    1    4    4    0    0  0.52288073991E-01  0.55659556678E-01  0.50401375353E-01  0.91501850745E-01  0.51100000000E-03 0. -1.
</event>
<event>
 8    1  0.1180500E+005  0.1043930E+01  0.7957747E-01            NaN
         13   -1    0    0    0    0  0.00000000000E+00  0.00000000000E+00  0.74505805969E-08  0.10566000000E+00  0.10566000000E+00 0.  1.
     999900   -1    0    0    0    0 -0.00000000000E+00 -0.00000000000E+00 -0.74505805969E-08  0.93827000000E+00  0.93827000000E+00 0.  1.
     999902    2    1    2    0    0  0.15522792119E-01  0.12177033553E-01 -0.13221455538E-01  0.10201803872E+01  0.10199039064E+01 0.  0.
     999903    2    3    3    0    0 -0.10213274870E+00  0.89233974245E-02  0.74111000434E-01  0.12805911165E+00  0.19899002785E-01 0.  0.
         14    1    1    2    0    0 -0.15522792119E-01 -0.12177033553E-01  0.13221455538E-01  0.23749612794E-01  0.00000000000E+00 0.  1.
     999901    1    3    3    0    0  0.11765554082E+00  0.32536361285E-02 -0.87332455973E-01  0.89212127556E+00  0.88000000000E+00 0. -1.
        -11    1    4    4    0    0 -0.21876452206E-01  0.98136490228E-03  0.65851810351E-02  0.22872865331E-01  0.51100000000E-03 0. -1.
         11    1    4    4    0    0 -0.80256296497E-01  0.79420325222E-02  0.67525819399E-01  0.10518624632E+00  0.51100000000E-03 0.  1.
</event>
<event>
 8    1  0.1180500E+005  0.1043930E+01  0.7957747E-01            NaN
         13   -1    0    0    0    0  0.00000000000E+00  0.00000000000E+00  0.74505805969E-08  0.10566000000E+00  0.10566000000E+00 0.  1.
     999900   -1    0    0    0    0 -0.00000000000E+00 -0.00000000000E+00 -0.74505805969E-08  0.93827000000E+00  0.93827000000E+00 0.  1.
     999902    2    1    2    0    0 -0.94596052201E-03 -0.18980770592E-01  0.14483644454E-01  0.10200356398E+01  0.10197557384E+01 0.  0.
     999903    2    3    3    0    0  0.34708171782E-01  0.98628514878E-01 -0.70227714381E-01  0.12746677662E+00  0.19585865768E-01 0.  0.
         14    1    1    2    0    0  0.94596052201E-03  0.18980770592E-01 -0.14483644454E-01  0.23894360218E-01  0.00000000000E+00 0. -1.
     999901    1    3    3    0    0 -0.35654132304E-01 -0.11760928547E+00  0.84711358835E-01  0.89256886317E+00  0.88000000000E+00 0. -1.
        -11    1    4    4    0    0 -0.64462451172E-04  0.87160633428E-02 -0.12009226711E-01  0.14847779726E-01  0.51100000000E-03 0. -1.
         11    1    4    4    0    0  0.34772634233E-01  0.89912451536E-01 -0.58218487670E-01  0.11261899689E+00  0.51100000000E-03 0.  1.
</event>
<event>
 8    1  0.1180500E+005  0.1043930E+01  0.7957747E-01            NaN
         13   -1    0    0    0    0  0.00000000000E+00  0.00000000000E+00  0.74505805969E-08  0.10566000000E+00  0.10566000000E+00 0. -1.
     999900   -1    0    0    0    0 -0.00000000000E+00 -0.00000000000E+00 -0.74505805969E-08  0.93827000000E+00  0.93827000000E+00 0.  1.
     999902    2    1    2    0    0  0.13645622534E-01  0.48169848013E-03 -0.19030201413E-01  0.10205081381E+01  0.10202393231E+01 0.  0.
     999903    2    3    3    0    0 -0.60801287728E-01  0.10361073135E+00 -0.47788375855E-01  0.13089868873E+00  0.20463567720E-01 0.  0.
         14    1    1    2    0    0 -0.13645622534E-01 -0.48169848013E-03  0.19030201413E-01  0.23421861873E-01  0.00000000000E+00 0. -1.
     999901    1    3    3    0    0  0.74446910261E-01 -0.10312903287E+00  0.28758174442E-01  0.88960944940E+00  0.88000000000E+00 0.  1.
        -11    1    4    4    0    0 -0.24589665960E-01  0.60166990808E-01 -0.30161121095E-01  0.71656631247E-01  0.51100000000E-03 0. -1.
         11    1    4    4    0    0 -0.36211621768E-01  0.43443740538E-01 -0.17627254760E-01  0.59242057479E-01  0.51100000000E-03 0.  1.
</event>
<event>
 8    1  0.1180500E+005  0.1043930E+01  0.7957747E-01            NaN
         13   -1    0    0    0    0  0.00000000000E+00  0.00000000000E+00  0.74505805969E-08  0.10566000000E+00  0.10566000000E+00 0.  1.
     999900   -1    0    0    0    0 -0.00000000000E+00 -0.00000000000E+00 -0.74505805969E-08  0.93827000000E+00  0.93827000000E+00 0.  1.
     999902    2    1    2    0    0 -0.24774369493E-01 -0.14662427600E-01  0.12048355578E-01  0.10127223240E+01  0.10122413677E+01 0.  0.
     999903    2    3    3    0    0  0.97260529299E-01 -0.71547599139E-01  0.38184061106E-02  0.12244361974E+00  0.19979746914E-01 0.  0.
         14    1    1    2    0    0  0.24774369493E-01  0.14662427600E-01 -0.12048355578E-01  0.31207675963E-01  0.00000000000E+00 0.  1.
     999901    1    3    3    0    0 -0.12203489879E+00  0.56885171539E-01  0.82299494670E-02  0.89027870430E+00  0.88000000000E+00 0.  1.
        -11    1    4    4    0    0  0.62370707067E-01 -0.45136592416E-01  0.12007491673E-01  0.77922128129E-01  0.51100000000E-03 0.  1.
         11    1    4    4    0    0  0.34889822232E-01 -0.26411006723E-01 -0.81890855624E-02  0.44521491606E-01  0.51100000000E-03 0. -1.
</event>
<event>
 8    1  0.1180500E+005  0.1043930E+01  0.7957747E-01            NaN
         13   -1    0    0    0    0  0.00000000000E+00  0.00000000000E+00  0.74505805969E-08  0.10566000000E+00  0.10566000000E+00 0. -1.
     999900   -1    0    0    0    0 -0.00000000000E+00 -0.00000000000E+00 -0.74505805969E-08  0.93827000000E+00  0.93827000000E+00 0.  1.
     999902    2    1    2    0    0 -0.20911443507E-01  0.10931529522E-01 -0.28775223179E-02  0.10201588633E+01  0.10198818752E+01 0.  0.
     999903    2    3    3    0    0  0.14382592301E-01 -0.12334260736E+00 -0.98375657737E-02  0.12924716449E+00  0.34464388518E-01 0.  0.
         14    1    1    2    0    0  0.20911443507E-01 -0.10931529522E-01  0.28775223179E-02  0.23771136740E-01  0.00000000000E+00 0.  1.
     999901    1    3    3    0    0 -0.35294035808E-01  0.13427413688E+00  0.69600434558E-02  0.89091169877E+00  0.88000000000E+00 0.  1.
        -11    1    4    4    0    0 -0.72864675133E-02 -0.36195640974E-01  0.77732758168E-02  0.37734625641E-01  0.51100000000E-03 0.  1.
         11    1    4    4    0    0  0.21669059814E-01 -0.87146966389E-01 -0.17610841590E-01  0.91512538849E-01  0.51100000000E-03 0. -1.
</event>
<event>
 8    1  0.1180500E+005  0.1043930E+01  0.7957747E-01            NaN
         13   -1    0    0    0    0  0.00000000000E+00  0.00000000000E+00  0.74505805969E-08  0.10566000000E+00  0.10566000000E+00 0. -1.
     999900   -1    0    0    0    0 -0.00000000000E+00 -0.00000000000E+00 -0.74505805969E-08  0.93827000000E+00  0.93827000000E+00 0.  1.
     999902    2    1    2    0    0 -0.16244364700E-02 -0.22185903411E-01 -0.90491984685E-02  0.10199145654E+01  0.10196317863E+01 0.  0.
     999903    2    3    3    0    0 -0.57714010888E-01 -0.63585793809E-01  0.96374837107E-01  0.13088463425E+00  0.21647587112E-01 0.  0.
         14    1    1    2    0    0  0.16244364700E-02  0.22185903411E-01  0.90491984685E-02  0.24015434557E-01  0.00000000000E+00 0.  1.
     999901    1    3    3    0    0  0.56089574418E-01  0.41399890398E-01 -0.10542403558E+00  0.88902993119E+00  0.88000000000E+00 0.  1.
        -11    1    4    4    0    0 -0.37594278501E-01 -0.26857902901E-01  0.43783496495E-01  0.63654790947E-01  0.51100000000E-03 0. -1.
         11    1    4    4    0    0 -0.20119732388E-01 -0.36727890908E-01  0.52591340612E-01  0.67229843301E-01  0.51100000000E-03 0.  1.
</event>
<event>
 8    1  0.1180500E+005  0.1043930E+01  0.7957747E-01            NaN
         13   -1    0    0    0    0  0.00000000000E+00  0.00000000000E+00  0.74505805969E-08  0.10566000000E+00  0.10566000000E+00 0. -1.
     999900   -1    0    0    0    0 -0.00000000000E+00 -0.00000000000E+00 -0.74505805969E-08  0.93827000000E+00  0.93827000000E+00 0.  1.
     999902    2    1    2    0    0  0.15876977837E-01  0.48433286638E-03  0.15576317393E-01  0.10216828728E+01  0.10214406287E+01 0.  0.
     999903    2    3    3    0    0 -0.81186733551E-01 -0.78126671520E-01  0.64608454150E-01  0.13151142614E+00  0.20638322357E-01 0.  0.
         14    1    1    2    0    0 -0.15876977837E-01 -0.48433286638E-03 -0.15576317393E-01  0.22247127165E-01  0.00000000000E+00 0.  1.
     999901    1    3    3    0    0  0.97063711388E-01  0.78611004387E-01 -0.49032136756E-01  0.89017144670E+00  0.88000000000E+00 0.  1.
        -11    1    4    4    0    0 -0.35159541181E-01 -0.32283310232E-01  0.39150992039E-01  0.61737077629E-01  0.51100000000E-03 0. -1.
         11    1    4    4    0    0 -0.46027192370E-01 -0.45843361288E-01  0.25457462111E-01  0.69774348509E-01  0.51100000000E-03 0.  1.
</event>
<event>
 8    1  0.1180500E+005  0.1043930E+01  0.7957747E-01            NaN
         13   -1    0    0    0    0  0.00000000000E+00  0.00000000000E+00  0.74505805969E-08  0.10566000000E+00  0.10566000000E+00 0. -1.
     999900   -1    0    0    0    0 -0.00000000000E+00 -0.00000000000E+00 -0.74505805969E-08  0.93827000000E+00  0.93827000000E+00 0. -1.
     999902    2    1    2    0    0  0.19676875548E-01 -0.13252187002E-01 -0.86637258003E-03  0.10201907815E+01  0.10199145456E+01 0.  0.
     999903    2    3    3    0    0  0.11667126087E+00  0.22289879305E-01 -0.55288813005E-01  0.13247858083E+00  0.19613763091E-01 0.  0.
         14    1    1    2    0    0 -0.19676875548E-01  0.13252187002E-01  0.86637258003E-03  0.23739218461E-01  0.00000000000E+00 0. -1.
     999901    1    3    3    0    0 -0.96994385325E-01 -0.35542066307E-01  0.54422440425E-01  0.88771220071E+00  0.88000000000E+00 0.  1.
        -11    1    4    4    0    0  0.86401325728E-01  0.24846035855E-01 -0.38911744933E-01  0.97963766771E-01  0.51100000000E-03 0. -1.
         11    1    4    4    0    0  0.30269935145E-01 -0.25561565508E-02 -0.16377068072E-01  0.34514814061E-01  0.51100000000E-03 0.  1.
</event>
<event>
 8    1  0.1180500E+005  0.1043930E+01  0.7957747E-01            NaN
         13   -1    0    0    0    0  0.00000000000E+00  0.00000000000E+00  0.74505805969E-08  0.10566000000E+00  0.10566000000E+00 0. -1.
     999900   -1    0    0    0    0 -0.00000000000E+00 -0.00000000000E+00 -0.74505805969E-08  0.93827000000E+00  0.93827000000E+00 0. -1.
     999902    2    1    2    0    0  0.18318955165E-01  0.18488238195E-02 -0.14129293831E-01  0.10207213979E+01  0.10204575116E+01 0.  0.
     999903    2    3    3    0    0  0.11928721256E+00  0.33435233387E-01 -0.46757936153E-01  0.13378458020E+00  0.19095952304E-01 0.  0.
         14    1    1    2    0    0 -0.18318955165E-01 -0.18488238195E-02  0.14129293831E-01  0.23208602112E-01  0.00000000000E+00 0. -1.
     999901    1    3    3    0    0 -0.10096825739E+00 -0.31586409568E-01  0.32628642322E-01  0.88693681769E+00  0.88000000000E+00 0. -1.
        -11    1    4    4    0    0  0.67193319848E-01  0.90395312850E-02 -0.24061110425E-01  0.71943404937E-01  0.51100000000E-03 0.  1.
         11    1    4    4    0    0  0.52093892710E-01  0.24395702102E-01 -0.22696825727E-01  0.61841175263E-01  0.51100000000E-03 0. -1.
</event>
<event>
 8    1  0.1180500E+005  0.1043930E+01  0.7957747E-01            NaN
         13   -1    0    0    0    0  0.00000000000E+00  0.00000000000E+00  0.74505805969E-08  0.10566000000E+00  0.10566000000E+00 0. -1.
     999900   -1    0    0    0    0 -0.00000000000E+00 -0.00000000000E+00 -0.74505805969E-08  0.93827000000E+00  0.93827000000E+00 0.  1.
     999902    2    1    2    0    0 -0.15350035865E-01 -0.17321024748E-01  0.88852548845E-02  0.10191390893E+01  0.10188375209E+01 0.  0.
     999903    2    3    3    0    0 -0.10329851602E+00  0.57379246332E-01  0.51023409887E-01  0.13060620314E+00  0.22172745014E-01 0.  0.
         14    1    1    2    0    0  0.15350035865E-01  0.17321024748E-01 -0.88852548845E-02  0.24790910708E-01  0.00000000000E+00 0.  1.
     999901    1    3    3    0    0  0.87948480155E-01 -0.74700271080E-01 -0.42138155002E-01  0.88853288615E+00  0.88000000000E+00 0.  1.
        -11    1    4    4    0    0 -0.76973097643E-01  0.49639210178E-01  0.31235911480E-01  0.96772166633E-01  0.51100000000E-03 0.  1.
         11    1    4    4    0    0 -0.26325418376E-01  0.77400361544E-02  0.19787498407E-01  0.33834036510E-01  0.51100000000E-03 0. -1.
</event>
<event>
 8    1  0.1180500E+005  0.1043930E+01  0.7957747E-01            NaN
         13   -1    0    0    0    0  0.00000000000E+00  0.00000000000E+00  0.74505805969E-08  0.10566000000E+00  0.10566000000E+00 0. -1.
     999900   -1    0    0    0    0 -0.00000000000E+00 -0.00000000000E+00 -0.74505805969E-08  0.93827000000E+00  0.93827000000E+00 0.  1.
     999902    2    1    2    0    0  0.13718148019E-01 -0.41976096879E-02  0.20385839976E-01  0.10190023049E+01  0.10186973581E+01 0.  0.
     999903    2    3    3    0    0  0.40046290769E-01 -0.11680099616E-02  0.12466031234E+00  0.13244970342E+00  0.19941434587E-01 0.  0.
         14    1    1    2    0    0 -0.13718148019E-01  0.41976096879E-02 -0.20385839976E-01  0.24927695114E-01  0.00000000000E+00 0.  1.
     999901    1    3    3    0    0 -0.26328142750E-01 -0.30295997262E-02 -0.10427447236E+00  0.88655260146E+00  0.88000000000E+00 0.  1.
        -11    1    4    4    0    0  0.27396911957E-01  0.73323327226E-02  0.94319364199E-01  0.98492423423E-01  0.51100000000E-03 0. -1.
         11    1    4    4    0    0  0.12649378812E-01 -0.85003426842E-02  0.30340948137E-01  0.33957279999E-01  0.51100000000E-03 0.  1.
</event>
<event>
 8    1  0.1180500E+005  0.1043930E+01  0.7957747E-01            NaN
         13   -1    0    0    0    0  0.00000000000E+00  0.00000000000E+00  0.74505805969E-08  0.10566000000E+00  0.10566000000E+00 0. -1.
     999900   -1    0    0    0    0 -0.00000000000E+00 -0.00000000000E+00 -0.74505805969E-08  0.93827000000E+00  0.93827000000E+00 0.  1.
     999902    2    1    2    0    0 -0.20023760939E-01  0.10026661376E-01  0.69917594913E-02  0.10204700417E+01  0.10202003413E+01 0.  0.
     999903    2    3    3    0    0 -0.42004905489E-01  0.65781767450E-01 -0.10357852567E+00  0.13152820421E+00  0.21897591361E-01 0.  0.
         14    1    1    2    0    0  0.20023760939E-01 -0.10026661376E-01 -0.69917594913E-02  0.23459958254E-01  0.00000000000E+00 0.  1.
     999901    1    3    3    0    0  0.21981144550E-01 -0.55755106074E-01  0.11057028516E+00  0.88894183754E+00  0.88000000000E+00 0.  1.
        -11    1    4    4    0    0 -0.35128137525E-01  0.39695480135E-01 -0.78288977177E-01  0.94547037275E-01  0.51100000000E-03 0.  1.
         11    1    4    4    0    0 -0.68767679643E-02  0.26086287315E-01 -0.25289548494E-01  0.36981166930E-01  0.51100000000E-03 0. -1.
</event>
<event>
 8    1  0.1180500E+005  0.1043930E+01  0.7957747E-01            NaN
         13   -1    0    0    0    0  0.00000000000E+00  0.00000000000E+00  0.74505805969E-08  0.10566000000E+00  0.10566000000E+00 0.  1.
     999900   -1    0    0    0    0 -0.00000000000E+00 -0.00000000000E+00 -0.74505805969E-08  0.93827000000E+00  0.93827000000E+00 0.  1.
     999902    2    1    2    0    0  0.13740228226E-01 -0.61216635344E-02 -0.17887660223E-01  0.10205582858E+01  0.10202906339E+01 0.  0.
     999903    2    3    3    0    0 -0.12540085165E+00 -0.38964112848E-02 -0.25507316604E-01  0.12959069323E+00  0.20064121115E-01 0.  0.
         14    1    1    2    0    0 -0.13740228226E-01  0.61216635344E-02  0.17887660223E-01  0.23371714195E-01  0.00000000000E+00 0.  1.
     999901    1    3    3    0    0  0.13914107988E+00 -0.22252522496E-02  0.76196563813E-02  0.89096759258E+00  0.88000000000E+00 0.  1.
        -11    1    4    4    0    0 -0.33060717149E-01  0.77511448816E-02 -0.57704061324E-02  0.34447786189E-01  0.51100000000E-03 0.  1.
         11    1    4    4    0    0 -0.92340134500E-01 -0.11647556166E-01 -0.19736910472E-01  0.95142907041E-01  0.51100000000E-03 0. -1.
</event>
<event>
 8    1  0.1180500E+005  0.1043930E+01  0.7957747E-01            NaN
         13   -1    0    0    0    0  0.00000000000E+00  0.00000000000E+00  0.74505805969E-08  0.10566000000E+00  0.10566000000E+00 0.  1.
     999900   -1    0    0    0    0 -0.00000000000E+00 -0.00000000000E+00 -0.74505805969E-08  0.93827000000E+00  0.93827000000E+00 0.  1.
     999902    2    1    2    0    0  0.16297861181E-01 -0.21971908390E-01  0.90547000237E-03  0.10165583922E+01  0.10161898247E+01 0.  0.
     999903    2    3    3    0    0  0.99216537898E-01 -0.76329961054E-01 -0.30799656450E-01  0.13042323328E+00  0.19784251191E-01 0.  0.
         14    1    1    2    0    0 -0.16297861181E-01  0.21971908390E-01 -0.90547000237E-03  0.27371607795E-01  0.00000000000E+00 0. -1.
     999901    1    3    3    0    0 -0.82918676717E-01  0.54358052665E-01  0.31705126452E-01  0.88613515892E+00  0.88000000000E+00 0. -1.
        -11    1    4    4    0    0  0.97080893679E-01 -0.77411150385E-01 -0.30965501111E-01  0.12796995546E+00  0.51100000000E-03 0. -1.
         11    1    4    4    0    0  0.21356442185E-02  0.10811893305E-02  0.16584466142E-03  0.24532778172E-02  0.51100000000E-03 0.  1.
</event>
<event>
 8    1  0.1180500E+005  0.1043930E+01  0.7957747E-01            NaN
         13   -1    0    0    0    0  0.00000000000E+00  0.00000000000E+00  0.74505805969E-08  0.10566000000E+00  0.10566000000E+00 0. -1.
     999900   -1    0    0    0    0 -0.00000000000E+00 -0.00000000000E+00 -0.74505805969E-08  0.93827000000E+00  0.93827000000E+00 0. -1.
     999902    2    1    2    0    0  0.57621129351E-02  0.16137141156E-01  0.15462816582E-01  0.10208495328E+01  0.10205885854E+01 0.  0.
     999903    2    3    3    0    0 -0.17832097874E-02  0.33182574897E-01 -0.12378369567E+00  0.12970584635E+00  0.19923356839E-01 0.  0.
         14    1    1    2    0    0 -0.57621129351E-02 -0.16137141156E-01 -0.15462816582E-01  0.23080467213E-01  0.00000000000E+00 0.  1.
     999901    1    3    3    0    0  0.75453227224E-02 -0.17045433741E-01  0.13924651226E+00  0.89114368644E+00  0.88000000000E+00 0.  1.
        -11    1    4    4    0    0 -0.27580322862E-02  0.18750734644E-01 -0.35519420374E-01  0.40262726391E-01  0.51100000000E-03 0.  1.
         11    1    4    4    0    0  0.97482249881E-03  0.14431840253E-01 -0.88264275301E-01  0.89443119955E-01  0.51100000000E-03 0. -1.
</event>
<event>
 8    1  0.1180500E+005  0.1043930E+01  0.7957747E-01            NaN
         13   -1    0    0    0    0  0.00000000000E+00  0.00000000000E+00  0.74505805969E-08  0.10566000000E+00  0.10566000000E+00 0. -1.
     999900   -1    0    0    0    0 -0.00000000000E+00 -0.00000000000E+00 -0.74505805969E-08  0.93827000000E+00  0.93827000000E+00 0. -1.
     999902    2    1    2    0    0 -0.16103757751E-01  0.16606360523E-01 -0.17580299564E-02  0.10207310153E+01  0.10204673501E+01 0.  0.
     999903    2    3    3    0    0  0.66907777742E-01  0.10200707389E+00  0.44512624213E-01  0.13150372694E+00  0.20730717255E-01 0.  0.
         14    1    1    2    0    0  0.16103757751E-01 -0.16606360523E-01  0.17580299564E-02  0.23198984738E-01  0.00000000000E+00 0.  1.
     999901    1    3    3    0    0 -0.83011535494E-01 -0.85400713364E-01 -0.46270654170E-01  0.88922728833E+00  0.88000000000E+00 0. -1.
        -11    1    4    4    0    0  0.31973451930E-01  0.38660230600E-01  0.27394191572E-01  0.57163081716E-01  0.51100000000E-03 0. -1.
         11    1    4    4    0    0  0.34934325812E-01  0.63346843288E-01  0.17118432641E-01  0.74340645219E-01  0.51100000000E-03 0.  1.
</event>
<event>
 8    1  0.1180500E+005  0.1043930E+01  0.7957747E-01            NaN
         13   -1    0    0    0    0  0.00000000000E+00  0.00000000000E+00  0.74505805969E-08  0.10566000000E+00  0.10566000000E+00 0. -1.
     999900   -1    0    0    0    0 -0.00000000000E+00 -0.00000000000E+00 -0.74505805969E-08  0.93827000000E+00  0.93827000000E+00 0.  1.
     999902    2    1    2    0    0  0.22744765592E-01  0.56390763770E-02 -0.33528682111E-02  0.10202579644E+01  0.10199833080E+01 0.  0.
     999903    2    3    3    0    0  0.80704305333E-01  0.82832611610E-01  0.61792631121E-01  0.13258567903E+00  0.19652139266E-01 0.  0.
         14    1    1    2    0    0 -0.22744765592E-01 -0.56390763770E-02  0.33528682111E-02  0.23672035600E-01  0.00000000000E+00 0. -1.
     999901    1    3    3    0    0 -0.57959539742E-01 -0.77193535233E-01 -0.65145499332E-01  0.88767228537E+00  0.88000000000E+00 0.  1.
        -11    1    4    4    0    0  0.28765915083E-01  0.27219080407E-01  0.31797106551E-01  0.50790484490E-01  0.51100000000E-03 0.  1.
         11    1    4    4    0    0  0.51938390251E-01  0.55613531203E-01  0.29995524570E-01  0.81795194541E-01  0.51100000000E-03 0. -1.
</event>
<event>
 8    1  0.1180500E+005  0.1043930E+01  0.7957747E-01            NaN
         13   -1    0    0    0    0  0.00000000000E+00  0.00000000000E+00  0.74505805969E-08  0.10566000000E+00  0.10566000000E+00 0.  1.
     999900   -1    0    0    0    0 -0.00000000000E+00 -0.00000000000E+00 -0.74505805969E-08  0.93827000000E+00  0.93827000000E+00 0.  1.
     999902    2    1    2    0    0 -0.19871158817E-01  0.83557942698E-02 -0.20883939059E-02  0.10222725846E+01  0.10220431467E+01 0.  0.
     999903    2    3    3    0    0 -0.28092875910E-02  0.71417762333E-01  0.10997691496E+00  0.13276342072E+00  0.20562470240E-01 0.  0.
         14    1    1    2    0    0  0.19871158817E-01 -0.83557942698E-02  0.20883939059E-02  0.21657415352E-01  0.00000000000E+00 0.  1.
     999901    1    3    3    0    0 -0.17061871226E-01 -0.63061968063E-01 -0.11206530887E+00  0.88950916393E+00  0.88000000000E+00 0.  1.
        -11    1    4    4    0    0 -0.15385030259E-02  0.23309070494E-01  0.20142424406E-01  0.30848956884E-01  0.51100000000E-03 0.  1.
         11    1    4    4    0    0 -0.12707845651E-02  0.48108691839E-01  0.89834490556E-01  0.10191446383E+00  0.51100000000E-03 0. -1.
</event>
<event>
 8    1  0.1180500E+005  0.1043930E+01  0.7957747E-01            NaN
         13   -1    0    0    0    0  0.00000000000E+00  0.00000000000E+00  0.74505805969E-08  0.10566000000E+00  0.10566000000E+00 0. -1.
     999900   -1    0    0    0    0 -0.00000000000E+00 -0.00000000000E+00 -0.74505805969E-08  0.93827000000E+00  0.93827000000E+00 0.  1.
     999902    2    1    2    0    0 -0.89904590135E-02 -0.83677722666E-02  0.20062453956E-01  0.10204066069E+01  0.10201354289E+01 0.  0.
     999903    2    3    3    0    0  0.86441857807E-01  0.94054940283E-01  0.25783469106E-02  0.12916958276E+00  0.18963297807E-01 0.  0.
         14    1    1    2    0    0  0.89904590135E-02  0.83677722666E-02 -0.20062453956E-01  0.23523393138E-01  0.00000000000E+00 0.  1.
     999901    1    3    3    0    0 -0.95432316820E-01 -0.10242271255E+00  0.17484107046E-01  0.89123702411E+00  0.88000000000E+00 0. -1.
        -11    1    4    4    0    0  0.49095554036E-01  0.40194637936E-01 -0.18196854124E-02  0.63478773782E-01  0.51100000000E-03 0.  1.
         11    1    4    4    0    0  0.37346303771E-01  0.53860302346E-01  0.43980323230E-02  0.65690808973E-01  0.51100000000E-03 0. -1.
</event>
<event>
 8    1  0.1180500E+005  0.1043930E+01  0.7957747E-01            NaN
         13   -1    0    0    0    0  0.00000000000E+00  0.00000000000E+00  0.74505805969E-08  0.10566000000E+00  0.10566000000E+00 0. -1.
     999900   -1    0    0    0    0 -0.00000000000E+00 -0.00000000000E+00 -0.74505805969E-08  0.93827000000E+00  0.93827000000E+00 0.  1.
     999902    2    1    2    0    0 -0.18568273338E-01 -0.10153552582E-01 -0.10066476400E-01  0.10204947839E+01  0.10202256587E+01 0.  0.
     999903    2    3    3    0    0  0.11204638132E+00  0.39352276729E-01 -0.45701968383E-01  0.12876561909E+00  0.19721092667E-01 0.  0.
         14    1    1    2    0    0  0.18568273338E-01  0.10153552582E-01  0.10066476400E-01  0.23435216062E-01  0.00000000000E+00 0.  1.
     999901    1    3    3    0    0 -0.13061465466E+00 -0.49505829311E-01  0.35635491983E-01  0.89172916485E+00  0.88000000000E+00 0. -1.
        -11    1    4    4    0    0  0.13401883885E-01 -0.16697114734E-02 -0.42066194202E-02  0.14154688129E-01  0.51100000000E-03 0.  1.
         11    1    4    4    0    0  0.98644497433E-01  0.41021988203E-01 -0.41495348963E-01  0.11461093096E+00  0.51100000000E-03 0. -1.
</event>
<event>
 8    1  0.1180500E+005  0.1043930E+01  0.7957747E-01            NaN
         13   -1    0    0    0    0  0.00000000000E+00  0.00000000000E+00  0.74505805969E-08  0.10566000000E+00  0.10566000000E+00 0.  1.
     999900   -1    0    0    0    0 -0.00000000000E+00 -0.00000000000E+00 -0.74505805969E-08  0.93827000000E+00  0.93827000000E+00 0. -1.
     999902    2    1    2    0    0 -0.12269528222E-01 -0.18109353979E-01  0.60059207629E-02  0.10212460606E+01  0.10209941014E+01 0.  0.
     999903    2    3    3    0    0  0.25235243552E-01  0.11451469939E+00 -0.49128761171E-01  0.12881366503E+00  0.20709689280E-01 0.  0.
         14    1    1    2    0    0  0.12269528222E-01  0.18109353979E-01 -0.60059207629E-02  0.22683939440E-01  0.00000000000E+00 0.  1.
     999901    1    3    3    0    0 -0.37504771774E-01 -0.13262405337E+00  0.55134681933E-01  0.89243239553E+00  0.88000000000E+00 0.  1.
        -11    1    4    4    0    0  0.13634199721E-01  0.91472363869E-01 -0.44364059965E-01  0.10257443976E+00  0.51100000000E-03 0.  1.
         11    1    4    4    0    0  0.11601043831E-01  0.23042335524E-01 -0.47647012057E-02  0.26239225273E-01  0.51100000000E-03 0. -1.
</event>
<event>
 8    1  0.1180500E+005  0.1043930E+01  0.7957747E-01            NaN
         13   -1    0    0    0    0  0.00000000000E+00  0.00000000000E+00  0.74505805969E-08  0.10566000000E+00  0.10566000000E+00 0.  1.
     999900   -1    0    0    0    0 -0.00000000000E+00 -0.00000000000E+00 -0.74505805969E-08  0.93827000000E+00  0.93827000000E+00 0. -1.
     999902    2    1    2    0    0  0.54296018190E-02 -0.18610458479E-01 -0.26016034637E-01  0.10114852192E+01  0.10109647298E+01 0.  0.
     999903    2    3    3    0    0 -0.50667870571E-01  0.10471188735E+00 -0.27250645781E-01  0.12111627792E+00  0.19868130798E-01 0.  0.
         14    1    1    2    0    0 -0.54296018190E-02  0.18610458479E-01  0.26016034637E-01  0.32444780766E-01  0.00000000000E+00 0.  1.
     999901    1    3    3    0    0  0.56097472390E-01 -0.12332234583E+00  0.12346111442E-02  0.89036894131E+00  0.88000000000E+00 0.  1.
        -11    1    4    4    0    0 -0.14111881213E-01  0.27844765930E-01 -0.16525879888E-01  0.35324807262E-01  0.51100000000E-03 0.  1.
         11    1    4    4    0    0 -0.36555989358E-01  0.76867121421E-01 -0.10724765894E-01  0.85791470660E-01  0.51100000000E-03 0. -1.
</event>
<event>
 8    1  0.1180500E+005  0.1043930E+01  0.7957747E-01            NaN
         13   -1    0    0    0    0  0.00000000000E+00  0.00000000000E+00  0.74505805969E-08  0.10566000000E+00  0.10566000000E+00 0. -1.
     999900   -1    0    0    0    0 -0.00000000000E+00 -0.00000000000E+00 -0.74505805969E-08  0.93827000000E+00  0.93827000000E+00 0. -1.
     999902    2    1    2    0    0 -0.11870326297E-01 -0.17957087352E-01 -0.10405605846E-01  0.10200210421E+01  0.10197407946E+01 0.  0.
     999903    2    3    3    0    0  0.71827716589E-01 -0.32144397718E-01 -0.10293725144E+00  0.13110667755E+00  0.20009997219E-01 0.  0.
         14    1    1    2    0    0  0.11870326297E-01  0.17957087352E-01  0.10405605846E-01  0.23908957852E-01  0.00000000000E+00 0. -1.
     999901    1    3    3    0    0 -0.83698042886E-01  0.14187310366E-01  0.92531645591E-01  0.88891436460E+00  0.88000000000E+00 0.  1.
        -11    1    4    4    0    0  0.55210019818E-01 -0.33018172357E-01 -0.85481864622E-01  0.10698484142E+00  0.51100000000E-03 0. -1.
         11    1    4    4    0    0  0.16617696770E-01  0.87377463834E-03 -0.17455386816E-01  0.24121836123E-01  0.51100000000E-03 0.  1.
</event>
<event>
 8    1  0.1180500E+005  0.1043930E+01  0.7957747E-01            NaN
         13   -1    0    0    0    0  0.00000000000E+00  0.00000000000E+00  0.74505805969E-08  0.10566000000E+00  0.10566000000E+00 0.  1.
     999900   -1    0    0    0    0 -0.00000000000E+00 -0.00000000000E+00 -0.74505805969E-08  0.93827000000E+00  0.93827000000E+00 0. -1.
     999902    2    1    2    0    0 -0.10292309669E-01  0.16767640332E-01 -0.25287544994E-02  0.10240936697E+01  0.10239015403E+01 0.  0.
     999903    2    3    3    0    0 -0.10114333568E+00  0.74956311238E-01  0.47792843430E-01  0.13607785139E+00  0.19611292854E-01 0.  0.
         14    1    1    2    0    0  0.10292309669E-01 -0.16767640332E-01  0.25287544994E-02  0.19836330304E-01  0.00000000000E+00 0.  1.
     999901    1    3    3    0    0  0.90851026014E-01 -0.58188670906E-01 -0.50321597930E-01  0.88801581831E+00  0.88000000000E+00 0.  1.
        -11    1    4    4    0    0 -0.62795486476E-01  0.39158475471E-01  0.19775300913E-01  0.76602760853E-01  0.51100000000E-03 0.  1.
         11    1    4    4    0    0 -0.38347849207E-01  0.35797835767E-01  0.28017542517E-01  0.59475090534E-01  0.51100000000E-03 0. -1.
</event>
<event>
 8    1  0.1180500E+005  0.1043930E+01  0.7957747E-01            NaN
         13   -1    0    0    0    0  0.00000000000E+00  0.00000000000E+00  0.74505805969E-08  0.10566000000E+00  0.10566000000E+00 0. -1.
     999900   -1    0    0    0    0 -0.00000000000E+00 -0.00000000000E+00 -0.74505805969E-08  0.93827000000E+00  0.93827000000E+00 0. -1.
     999902    2    1    2    0    0  0.28813642790E-02  0.66693101382E-02  0.23050062250E-01  0.10197621013E+01  0.10194756770E+01 0.  0.
     999903    2    3    3    0    0  0.83383307260E-01  0.94010236151E-01 -0.26934238756E-01  0.13037611618E+00  0.21949442411E-01 0.  0.
         14    1    1    2    0    0 -0.28813642790E-02 -0.66693101382E-02 -0.23050062250E-01  0.24167898700E-01  0.00000000000E+00 0.  1.
     999901    1    3    3    0    0 -0.80501942981E-01 -0.87340926013E-01  0.49984301006E-01  0.88938598512E+00  0.88000000000E+00 0. -1.
        -11    1    4    4    0    0  0.59113325515E-01  0.77205603077E-01 -0.26750829948E-01  0.10085116967E+00  0.51100000000E-03 0.  1.
         11    1    4    4    0    0  0.24269981745E-01  0.16804633074E-01 -0.18340880807E-03  0.29524946510E-01  0.51100000000E-03 0. -1.
</event>
<event>
 8    1  0.1180500E+005  0.1043930E+01  0.7957747E-01            NaN
         13   -1    0    0    0    0  0.00000000000E+00  0.00000000000E+00  0.74505805969E-08  0.10566000000E+00  0.10566000000E+00 0.  1.
     999900   -1    0    0    0    0 -0.00000000000E+00 -0.00000000000E+00 -0.74505805969E-08  0.93827000000E+00  0.93827000000E+00 0.  1.
     999902    2    1    2    0    0 -0.22168297583E-01 -0.87041276202E-02  0.11374936964E-02  0.10200869896E+01  0.10198083041E+01 0.  0.
     999903    2    3    3    0    0 -0.22452048366E-01 -0.98209096778E-01 -0.82928113629E-01  0.13156110565E+00  0.16796765319E-01 0.  0.
         14    1    1    2    0    0  0.22168297583E-01  0.87041276202E-02 -0.11374936964E-02  0.23843010449E-01  0.00000000000E+00 0. -1.
     999901    1    3    3    0    0  0.28375078309E-03  0.89504969158E-01  0.84065607325E-01  0.88852588390E+00  0.88000000000E+00 0. -1.
        -11    1    4    4    0    0 -0.44729264053E-02 -0.34700516975E-01 -0.19691969224E-01  0.40151808451E-01  0.51100000000E-03 0.  1.
         11    1    4    4    0    0 -0.17979121961E-01 -0.63508579803E-01 -0.63236144404E-01  0.91409297204E-01  0.51100000000E-03 0. -1.
</event>
<event>
 7    1  0.1180500E+005  0.1043930E+01  0.7957747E-01            NaN
         13   -1    0    0    0    0  0.00000000000E+00  0.00000000000E+00  0.74505805969E-08  0.10566000000E+00  0.10566000000E+00 0.  1.
     999900   -1    0    0    0    0 -0.00000000000E+00 -0.00000000000E+00 -0.74505805969E-08  0.93827000000E+00  0.93827000000E+00 0. -1.
     999903    2    1    2    0    0  0.50906900223E-01  0.78931084913E-01 -0.15530785568E-01  0.97272734721E-01  0.19978762820E-01 0.  0.
         14    1    1    2    0    0 -0.60515561112E-01  0.30845579649E-02 -0.14411583265E-01  0.62284358926E-01  0.00000000000E+00 0. -1.
     999901    1    1    2    0    0  0.96086608890E-02 -0.82015642878E-01  0.29942368833E-01  0.88437290635E+00  0.88000000000E+00 0.  1.
        -11    1    3    3    0    0  0.41118135103E-01  0.67581875192E-01 -0.56431732871E-02  0.79310260463E-01  0.51100000000E-03 0. -1.
         11    1    3    3    0    0  0.97887651201E-02  0.11349209721E-01 -0.98876122811E-02  0.17962474258E-01  0.51100000000E-03 0.  1.
</event>
<event>
 8    1  0.1180500E+005  0.1043930E+01  0.7957747E-01            NaN
         13   -1    0    0    0    0  0.00000000000E+00  0.00000000000E+00  0.74505805969E-08  0.10566000000E+00  0.10566000000E+00 0. -1.
     999900   -1    0    0    0    0 -0.00000000000E+00 -0.00000000000E+00 -0.74505805969E-08  0.93827000000E+00  0.93827000000E+00 0. -1.
     999902    2    1    2    0    0  0.57045694211E-02  0.17381270092E-01 -0.14838091092E-01  0.10203753909E+01  0.10201034843E+01 0.  0.
     999903    2    3    3    0    0  0.13132426366E-01 -0.85434598457E-01  0.91385343361E-01  0.12801352826E+00  0.23762390448E-01 0.  0.
         14    1    1    2    0    0 -0.57045694211E-02 -0.17381270092E-01  0.14838091092E-01  0.23554609094E-01  0.00000000000E+00 0. -1.
     999901    1    3    3    0    0 -0.74278569446E-02  0.10281586855E+00 -0.10622343445E+00  0.89236186265E+00  0.88000000000E+00 0.  1.
        -11    1    4    4    0    0  0.65906537705E-02 -0.68746314581E-01  0.83671722503E-01  0.10849290646E+00  0.51100000000E-03 0. -1.
         11    1    4    4    0    0  0.65417725952E-02 -0.16688283876E-01  0.77136208586E-02  0.19520621792E-01  0.51100000000E-03 0.  1.
</event>
<event>
 8    1  0.1180500E+005  0.1043930E+01  0.7957747E-01            NaN
         13   -1    0    0    0    0  0.00000000000E+00  0.00000000000E+00  0.74505805969E-08  0.10566000000E+00  0.10566000000E+00 0.  1.
     999900   -1    0    0    0    0 -0.00000000000E+00 -0.00000000000E+00 -0.74505805969E-08  0.93827000000E+00  0.93827000000E+00 0.  1.
     999902    2    1    2    0    0  0.19239689857E-01 -0.14547488101E-01  0.85357262788E-03  0.10197944730E+01  0.10195088247E+01 0.  0.
     999903    2    3    3    0    0 -0.40986772924E-02 -0.12435109848E+00  0.38638049042E-01  0.13185912691E+00  0.20345408989E-01 0.  0.
         14    1    1    2    0    0 -0.19239689857E-01  0.14547488101E-01 -0.85357262788E-03  0.24135526968E-01  0.00000000000E+00 0. -1.
     999901    1    3    3    0    0  0.23338367149E-01  0.10980361038E+00 -0.37784476415E-01  0.88793534612E+00  0.88000000000E+00 0.  1.
        -11    1    4    4    0    0 -0.30255874544E-02 -0.37781459875E-01  0.21575544541E-01  0.43616030688E-01  0.51100000000E-03 0. -1.
         11    1    4    4    0    0 -0.10730898380E-02 -0.86569638605E-01  0.17062504501E-01  0.88243096222E-01  0.51100000000E-03 0.  1.
</event>
<event>
 8    1  0.1180500E+005  0.1043930E+01  0.7957747E-01            NaN
         13   -1    0    0    0    0  0.00000000000E+00  0.00000000000E+00  0.74505805969E-08  0.10566000000E+00  0.10566000000E+00 0. -1.
     999900   -1    0    0    0    0 -0.00000000000E+00 -0.00000000000E+00 -0.74505805969E-08  0.93827000000E+00  0.93827000000E+00 0. -1.
     999902    2    1    2    0    0 -0.13759450362E-01 -0.19127984990E-01  0.59766212942E-02  0.10196211069E+01  0.10193312902E+01 0.  0.
     999903    2    3    3    0    0  0.94751091071E-01  0.81210995156E-01  0.14435130245E-01  0.12725683431E+00  0.20320775071E-01 0.  0.
         14    1    1    2    0    0  0.13759450362E-01  0.19127984990E-01 -0.59766212942E-02  0.24308893149E-01  0.00000000000E+00 0. -1.
     999901    1    3    3    0    0 -0.10851054143E+00 -0.10033898015E+00 -0.84585089508E-02  0.89236427254E+00  0.88000000000E+00 0. -1.
        -11    1    4    4    0    0  0.39485631000E-01  0.35290778217E-01 -0.38848658468E-02  0.53102800174E-01  0.51100000000E-03 0.  1.
         11    1    4    4    0    0  0.55265460071E-01  0.45920216939E-01  0.18319996092E-01  0.74154034134E-01  0.51100000000E-03 0. -1.
</event>
<event>
 8    1  0.1180500E+005  0.1043930E+01  0.7957747E-01            NaN
         13   -1    0    0    0    0  0.00000000000E+00  0.00000000000E+00  0.74505805969E-08  0.10566000000E+00  0.10566000000E+00 0. -1.
     999900   -1    0    0    0    0 -0.00000000000E+00 -0.00000000000E+00 -0.74505805969E-08  0.93827000000E+00  0.93827000000E+00 0. -1.
     999902    2    1    2    0    0  0.12519831363E-01  0.16697515683E-01  0.11091333657E-01  0.10202958956E+01  0.10200221290E+01 0.  0.
     999903    2    3    3    0    0 -0.28395337252E-01 -0.60991793964E-02  0.12673464484E+00  0.13149495292E+00  0.19640704529E-01 0.  0.
         14    1    1    2    0    0 -0.12519831363E-01 -0.16697515683E-01 -0.11091333657E-01  0.23634104375E-01  0.00000000000E+00 0.  1.
     999901    1    3    3    0    0  0.40915168615E-01  0.22796695079E-01 -0.11564331118E+00  0.88880094270E+00  0.88000000000E+00 0. -1.
        -11    1    4    4    0    0 -0.21640649770E-01 -0.11308212326E-01  0.70399397056E-01  0.74515297861E-01  0.51100000000E-03 0. -1.
         11    1    4    4    0    0 -0.67546874818E-02  0.52090329293E-02  0.56335247783E-01  0.56979655061E-01  0.51100000000E-03 0.  1.
</event>
<event>
 8    1  0.1180500E+005  0.1043930E+01  0.7957747E-01            NaN
         13   -1    0    0    0    0  0.00000000000E+00  0.00000000000E+00  0.74505805969E-08  0.10566000000E+00  0.10566000000E+00 0. -1.
     999900   -1    0    0    0    0 -0.00000000000E+00 -0.00000000000E+00 -0.74505805969E-08  0.93827000000E+00  0.93827000000E+00 0.  1.
     999902    2    1    2    0    0  0.64350367003E-03  0.22849214031E-01 -0.28384939686E-02  0.10208961613E+01  0.10206362792E+01 0.  0.
     999903    2    3    3    0    0 -0.12165888629E+00  0.42059341714E-01  0.20725653840E-01  0.13191799918E+00  0.20073189683E-01 0.  0.
         14    1    1    2    0    0 -0.64350367003E-03 -0.22849214031E-01  0.28384939686E-02  0.23033838734E-01  0.00000000000E+00 0.  1.
     999901    1    3    3    0    0  0.12230238996E+00 -0.19210127682E-01 -0.23564147809E-01  0.88897816208E+00  0.88000000000E+00 0. -1.
        -11    1    4    4    0    0 -0.93890747914E-01  0.33869582782E-01  0.75303388566E-02  0.10009789361E+00  0.51100000000E-03 0. -1.
         11    1    4    4    0    0 -0.27768138372E-01  0.81897589313E-02  0.13195314984E-01  0.31820105570E-01  0.51100000000E-03 0.  1.
</event>
<event>
 8    1  0.1180500E+005  0.1043930E+01  0.7957747E-01            NaN
         13   -1    0    0    0    0  0.00000000000E+00  0.00000000000E+00  0.74505805969E-08  0.10566000000E+00  0.10566000000E+00 0.  1.
     999900   -1    0    0    0    0 -0.00000000000E+00 -0.00000000000E+00 -0.74505805969E-08  0.93827000000E+00  0.93827000000E+00 0.  1.
     999902    2    1    2    0    0  0.12228414959E-01 -0.12878948279E-01  0.14851140456E-01  0.10207792373E+01  0.10205166797E+01 0.  0.
     999903    2    3    3    0    0 -0.75125299670E-01  0.86837425752E-01 -0.53225572755E-01  0.12824998534E+00  0.20749650174E-01 0.  0.
         14    1    1    2    0    0 -0.12228414959E-01  0.12878948279E-01 -0.14851140456E-01  0.23150762709E-01  0.00000000000E+00 0. -1.
     999901    1    3    3    0    0  0.87353714630E-01 -0.99716374031E-01  0.68076713211E-01  0.89252925195E+00  0.88000000000E+00 0. -1.
        -11    1    4    4    0    0 -0.56250253881E-01  0.49988318766E-01 -0.35588388024E-01  0.83244925118E-01  0.51100000000E-03 0. -1.
         11    1    4    4    0    0 -0.18875045790E-01  0.36849106986E-01 -0.17637184731E-01  0.45005060221E-01  0.51100000000E-03 0.  1.
</event>
<event>
 8    1  0.1180500E+005  0.1043930E+01  0.7957747E-01            NaN
         13   -1    0    0    0    0  0.00000000000E+00  0.00000000000E+00  0.74505805969E-08  0.10566000000E+00  0.10566000000E+00 0.  1.
     999900   -1    0    0    0    0 -0.00000000000E+00 -0.00000000000E+00 -0.74505805969E-08  0.93827000000E+00  0.93827000000E+00 0.  1.
     999902    2    1    2    0    0  0.10223892433E-01 -0.18068031679E-01  0.12319583583E-01  0.10197897041E+01  0.10195039415E+01 0.  0.
     999903    2    3    3    0    0  0.12257943162E+00  0.40168592954E-01  0.57728147183E-02  0.13071258046E+00  0.20327822915E-01 0.  0.
         14    1    1    2    0    0 -0.10223892433E-01  0.18068031679E-01 -0.12319583583E-01  0.24140295875E-01  0.00000000000E+00 0. -1.
     999901    1    3    3    0    0 -0.11235553919E+00 -0.58236624633E-01  0.65467688651E-02  0.88907712366E+00  0.88000000000E+00 0. -1.
        -11    1    4    4    0    0  0.69296423876E-01  0.24355585152E-01  0.13219051965E-01  0.74633727938E-01  0.51100000000E-03 0. -1.
         11    1    4    4    0    0  0.53283007748E-01  0.15813007801E-01 -0.74462372464E-02  0.56078852525E-01  0.51100000000E-03 0.  1.
</event>
<event>
 8    1  0.1180500E+005  0.1043930E+01  0.7957747E-01            NaN
         13   -1    0    0    0    0  0.00000000000E+00  0.00000000000E+00  0.74505805969E-08  0.10566000000E+00  0.10566000000E+00 0. -1.
     999900   -1    0    0    0    0 -0.00000000000E+00 -0.00000000000E+00 -0.74505805969E-08  0.93827000000E+00  0.93827000000E+00 0. -1.
     999902    2    1    2    0    0  0.33356152633E-03  0.57030849828E-02  0.23127203836E-01  0.10201076576E+01  0.10198294608E+01 0.  0.
     999903    2    3    3    0    0 -0.42426021437E-01 -0.49203386837E-01 -0.10789140883E+00  0.12769016589E+00  0.21054258389E-01 0.  0.
         14    1    1    2    0    0 -0.33356152633E-03 -0.57030849828E-02 -0.23127203836E-01  0.23822342431E-01  0.00000000000E+00 0.  1.
     999901    1    3    3    0    0  0.42759582963E-01  0.54906471820E-01  0.13101861266E+00  0.89241749167E+00  0.88000000000E+00 0.  1.
        -11    1    4    4    0    0 -0.66258028119E-02  0.79294540419E-03 -0.12870553158E-01  0.14506628999E-01  0.51100000000E-03 0. -1.
         11    1    4    4    0    0 -0.35800218625E-01 -0.49996332241E-01 -0.95020855669E-01  0.11318353690E+00  0.51100000000E-03 0.  1.
</event>
<event>
 8    1  0.1180500E+005  0.1043930E+01  0.7957747E-01            NaN
         13   -1    0    0    0    0  0.00000000000E+00  0.00000000000E+00  0.74505805969E-08  0.10566000000E+00  0.10566000000E+00 0. -1.
     999900   -1    0    0    0    0 -0.00000000000E+00 -0.00000000000E+00 -0.74505805969E-08  0.93827000000E+00  0.93827000000E+00 0.  1.
     999902    2    1    2    0    0 -0.11704603431E-01 -0.19558189614E-01 -0.61041888520E-02  0.10203337790E+01  0.10200608996E+01 0.  0.
     999903    2    3    3    0    0 -0.22227977712E-01 -0.12519262712E+00  0.33268617086E-01  0.13307981672E+00  0.20884440516E-01 0.  0.
         14    1    1    2    0    0  0.11704603431E-01  0.19558189614E-01  0.61041888520E-02  0.23596220969E-01  0.00000000000E+00 0.  1.
     999901    1    3    3    0    0  0.10523374281E-01  0.10563443751E+00 -0.39372805937E-01  0.88725396231E+00  0.88000000000E+00 0.  1.
        -11    1    4    4    0    0 -0.32729146442E-02 -0.27862928450E-01  0.16385876045E-01  0.32493273255E-01  0.51100000000E-03 0.  1.
         11    1    4    4    0    0 -0.18955063067E-01 -0.97329698673E-01  0.16882741041E-01  0.10058654346E+00  0.51100000000E-03 0. -1.
</event>
<event>
 8    1  0.1180500E+005  0.1043930E+01  0.7957747E-01            NaN
         13   -1    0    0    0    0  0.00000000000E+00  0.00000000000E+00  0.74505805969E-08  0.10566000000E+00  0.10566000000E+00 0.  1.
     999900   -1    0    0    0    0 -0.00000000000E+00 -0.00000000000E+00 -0.74505805969E-08  0.93827000000E+00  0.93827000000E+00 0.  1.
     999902    2    1    2    0    0  0.20086723218E-01  0.51895715322E-02  0.62398395819E-02  0.10222656583E+01  0.10220360720E+01 0.  0.
     999903    2    3    3    0    0 -0.54169895697E-01 -0.59174291842E-01  0.10237402966E+00  0.13159257864E+00  0.20004759181E-01 0.  0.
         14    1    1    2    0    0 -0.20086723218E-01 -0.51895715322E-02 -0.62398395819E-02  0.21664341677E-01  0.00000000000E+00 0. -1.
     999901    1    3    3    0    0  0.74256618915E-01  0.64363863374E-01 -0.96134190081E-01  0.89067307968E+00  0.88000000000E+00 0.  1.
        -11    1    4    4    0    0 -0.20095450580E-01 -0.32087016394E-01  0.36203720309E-01  0.52386775433E-01  0.51100000000E-03 0.  1.
         11    1    4    4    0    0 -0.34074445117E-01 -0.27087275448E-01  0.66170309355E-01  0.79205803211E-01  0.51100000000E-03 0. -1.
</event>
<event>
 8    1  0.1180500E+005  0.1043930E+01  0.7957747E-01            NaN
         13   -1    0    0    0    0  0.00000000000E+00  0.00000000000E+00  0.74505805969E-08  0.10566000000E+00  0.10566000000E+00 0. -1.
     999900   -1    0    0    0    0 -0.00000000000E+00 -0.00000000000E+00 -0.74505805969E-08  0.93827000000E+00  0.93827000000E+00 0.  1.
     999902    2    1    2    0    0  0.15141619542E-01 -0.15576757319E-01  0.93067233941E-02  0.10202969911E+01  0.10200232502E+01 0.  0.
     999903    2    3    3    0    0 -0.14867751724E-01 -0.94020790381E-01  0.90056545716E-01  0.13261767820E+00  0.20403629079E-01 0.  0.
         14    1    1    2    0    0 -0.15141619542E-01  0.15576757319E-01 -0.93067233941E-02  0.23633008934E-01  0.00000000000E+00 0.  1.
     999901    1    3    3    0    0  0.30009371266E-01  0.78444033062E-01 -0.80749822322E-01  0.88767931287E+00  0.88000000000E+00 0.  1.
        -11    1    4    4    0    0  0.24087990886E-02 -0.39662810445E-01  0.44138696971E-01  0.59392142045E-01  0.51100000000E-03 0.  1.
         11    1    4    4    0    0 -0.17276550813E-01 -0.54357979936E-01  0.45917848745E-01  0.73225536154E-01  0.51100000000E-03 0. -1.
</event>
<event>
 8    1  0.1180500E+005  0.1043930E+01  0.7957747E-01            NaN
         13   -1    0    0    0    0  0.00000000000E+00  0.00000000000E+00  0.74505805969E-08  0.10566000000E+00  0.10566000000E+00 0.  1.
     999900   -1    0    0    0    0 -0.00000000000E+00 -0.00000000000E+00 -0.74505805969E-08  0.93827000000E+00  0.93827000000E+00 0. -1.
     999902    2    1    2    0    0 -0.20374600466E-01 -0.69118595897E-02 -0.11010605522E-01  0.10197611858E+01  0.10194747395E+01 0.  0.
     999903    2    3    3    0    0 -0.32874544795E-01 -0.12005215412E+00 -0.38760188097E-01  0.13199600613E+00  0.20672156385E-01 0.  0.
         14    1    1    2    0    0  0.20374600466E-01  0.69118595897E-02  0.11010605522E-01  0.24168814226E-01  0.00000000000E+00 0.  1.
     999901    1    3    3    0    0  0.12499944329E-01  0.11314029453E+00  0.27749582574E-01  0.88776517964E+00  0.88000000000E+00 0. -1.
        -11    1    4    4    0    0 -0.11212464691E-02 -0.33635851298E-01 -0.15385755120E-01  0.37008245943E-01  0.51100000000E-03 0.  1.
         11    1    4    4    0    0 -0.31753298326E-01 -0.86416302818E-01 -0.23374432977E-01  0.94987760187E-01  0.51100000000E-03 0. -1.
</event>
<event>
 8    1  0.1180500E+005  0.1043930E+01  0.7957747E-01            NaN
         13   -1    0    0    0    0  0.00000000000E+00  0.00000000000E+00  0.74505805969E-08  0.10566000000E+00  0.10566000000E+00 0.  1.
     999900   -1    0    0    0    0 -0.00000000000E+00 -0.00000000000E+00 -0.74505805969E-08  0.93827000000E+00  0.93827000000E+00 0.  1.
     999902    2    1    2    0    0  0.80292682381E-02  0.21227402669E-01 -0.11263873803E-01  0.10185933344E+01  0.10182781713E+01 0.  0.
     999903    2    3    3    0    0 -0.13845710771E-02 -0.84642111379E-01  0.91533302979E-01  0.12625694380E+00  0.19906437325E-01 0.  0.
         14    1    1    2    0    0 -0.80292682381E-02 -0.21227402669E-01  0.11263873803E-01  0.25336665636E-01  0.00000000000E+00 0. -1.
     999901    1    3    3    0    0  0.94138393152E-02  0.10586951405E+00 -0.10279717678E+00  0.89233639057E+00  0.88000000000E+00 0.  1.
        -11    1    4    4    0    0 -0.32334892154E-02 -0.42179594785E-01  0.59615518908E-01  0.73101606579E-01  0.51100000000E-03 0. -1.
         11    1    4    4    0    0  0.18489181383E-02 -0.42462516594E-01  0.31917784071E-01  0.53155337219E-01  0.51100000000E-03 0.  1.
</event>
<event>
 8    1  0.1180500E+005  0.1043930E+01  0.7957747E-01            NaN
         13   -1    0    0    0    0  0.00000000000E+00  0.00000000000E+00  0.74505805969E-08  0.10566000000E+00  0.10566000000E+00 0.  1.
     999900   -1    0    0    0    0 -0.00000000000E+00 -0.00000000000E+00 -0.74505805969E-08  0.93827000000E+00  0.93827000000E+00 0.  1.
     999902    2    1    2    0    0 -0.14411026586E-01 -0.45578622724E-04  0.18390148629E-01  0.10205659821E+01  0.10202985085E+01 0.  0.
     999903    2    3    3    0    0 -0.11533587154E-01  0.10958443451E+00  0.70497148590E-01  0.13222924480E+00  0.19311998875E-01 0.  0.
         14    1    1    2    0    0  0.14411026586E-01  0.45578622724E-04 -0.18390148629E-01  0.23364017875E-01  0.00000000000E+00 0. -1.
     999901    1    3    3    0    0 -0.28774394316E-02 -0.10963001314E+00 -0.52106999961E-01  0.88833673733E+00  0.88000000000E+00 0. -1.
        -11    1    4    4    0    0 -0.39547833681E-02  0.77951848560E-01  0.40304788170E-01  0.87845706075E-01  0.51100000000E-03 0.  1.
         11    1    4    4    0    0 -0.75788037859E-02  0.31632585953E-01  0.30192360420E-01  0.44383538724E-01  0.51100000000E-03 0. -1.
</event>
<event>
 8    1  0.1180500E+005  0.1043930E+01  0.7957747E-01            NaN
         13   -1    0    0    0    0  0.00000000000E+00  0.00000000000E+00  0.74505805969E-08  0.10566000000E+00  0.10566000000E+00 0.  1.
     999900   -1    0    0    0    0 -0.00000000000E+00 -0.00000000000E+00 -0.74505805969E-08  0.93827000000E+00  0.93827000000E+00 0.  1.
     999902    2    1    2    0    0  0.17996920257E-01 -0.18186024942E-02 -0.13985527946E-01  0.10210653669E+01  0.10208093319E+01 0.  0.
     999903    2    3    3    0    0 -0.21045213785E-01  0.12596991031E+00  0.16927436289E-01  0.13044210000E+00  0.20427531061E-01 0.  0.
         14    1    1    2    0    0 -0.17996920257E-01  0.18186024942E-02  0.13985527946E-01  0.22864633076E-01  0.00000000000E+00 0.  1.
     999901    1    3    3    0    0  0.39042134042E-01 -0.12778851280E+00 -0.30912964235E-01  0.89062326693E+00  0.88000000000E+00 0. -1.
        -11    1    4    4    0    0 -0.35640344531E-02  0.55060363746E-01  0.15813514087E-01  0.57399253882E-01  0.51100000000E-03 0.  1.
         11    1    4    4    0    0 -0.17481179332E-01  0.70909546565E-01  0.11139222020E-02  0.73042846114E-01  0.51100000000E-03 0. -1.
</event>
<event>
 8    1  0.1180500E+005  0.1043930E+01  0.7957747E-01            NaN
         13   -1    0    0    0    0  0.00000000000E+00  0.00000000000E+00  0.74505805969E-08  0.10566000000E+00  0.10566000000E+00 0.  1.
     999900   -1    0    0    0    0 -0.00000000000E+00 -0.00000000000E+00 -0.74505805969E-08  0.93827000000E+00  0.93827000000E+00 0. -1.
     999902    2    1    2    0    0  0.12052083860E-01  0.97327065913E-02  0.17511519573E-01  0.10205498456E+01  0.10202819981E+01 0.  0.
     999903    2    3    3    0    0  0.50148083084E-02 -0.34527844239E-01  0.12644285561E+00  0.13270157274E+00  0.20114456090E-01 0.  0.
         14    1    1    2    0    0 -0.12052083860E-01 -0.97327065913E-02 -0.17511519573E-01  0.23380154420E-01  0.00000000000E+00 0.  1.
     999901    1    3    3    0    0  0.70372755520E-02  0.44260550830E-01 -0.10893133604E+00  0.88784827284E+00  0.88000000000E+00 0. -1.
        -11    1    4    4    0    0 -0.28575971708E-02 -0.27534008395E-01  0.10765098726E+00  0.11115432361E+00  0.51100000000E-03 0.  1.
         11    1    4    4    0    0  0.78724054792E-02 -0.69938358444E-02  0.18791868353E-01  0.21547249129E-01  0.51100000000E-03 0. -1.
</event>
<event>
 8    1  0.1180500E+005  0.1043930E+01  0.7957747E-01            NaN
         13   -1    0    0    0    0  0.00000000000E+00  0.00000000000E+00  0.74505805969E-08  0.10566000000E+00  0.10566000000E+00 0. -1.
     999900   -1    0    0    0    0 -0.00000000000E+00 -0.00000000000E+00 -0.74505805969E-08  0.93827000000E+00  0.93827000000E+00 0.  1.
     999902    2    1    2    0    0  0.17560174484E-02 -0.18877259762E-01  0.12440174423E-01  0.10212541875E+01  0.10210024109E+01 0.  0.
     999903    2    3    3    0    0  0.12100865854E-01  0.12332929794E+00 -0.29006968975E-01  0.12881506540E+00  0.19883916617E-01 0.  0.
         14    1    1    2    0    0 -0.17560174484E-02  0.18877259762E-01 -0.12440174423E-01  0.22675812512E-01  0.00000000000E+00 0.  1.
     999901    1    3    3    0    0 -0.10344848405E-01 -0.14220655770E+00  0.41447143398E-01  0.89243912209E+00  0.88000000000E+00 0.  1.
        -11    1    4    4    0    0  0.15123556193E-01  0.53323095667E-01 -0.12257861934E-01  0.56767867528E-01  0.51100000000E-03 0. -1.
         11    1    4    4    0    0 -0.30226903390E-02  0.70006202271E-01 -0.16749107041E-01  0.72047197870E-01  0.51100000000E-03 0.  1.
</event>
<event>
 8    1  0.1180500E+005  0.1043930E+01  0.7957747E-01            NaN
         13   -1    0    0    0    0  0.00000000000E+00  0.00000000000E+00  0.74505805969E-08  0.10566000000E+00  0.10566000000E+00 0.  1.
     999900   -1    0    0    0    0 -0.00000000000E+00 -0.00000000000E+00 -0.74505805969E-08  0.93827000000E+00  0.93827000000E+00 0. -1.
     999902    2    1    2    0    0  0.20881283577E-01 -0.10003086388E-01  0.55841529608E-02  0.10201125168E+01  0.10198344348E+01 0.  0.
     999903    2    3    3    0    0 -0.10599714768E-01  0.92119598013E-01 -0.87122623969E-01  0.12881310449E+00  0.20101989671E-01 0.  0.
         14    1    1    2    0    0 -0.20881283577E-01  0.10003086388E-01 -0.55841529608E-02  0.23817483188E-01  0.00000000000E+00 0. -1.
     999901    1    3    3    0    0  0.31480998344E-01 -0.10212268440E+00  0.92706776929E-01  0.89129941233E+00  0.88000000000E+00 0.  1.
        -11    1    4    4    0    0 -0.99457992486E-02  0.35688580685E-01 -0.24031292177E-01  0.44162855871E-01  0.51100000000E-03 0. -1.
         11    1    4    4    0    0 -0.65391551893E-03  0.56431017328E-01 -0.63091331792E-01  0.84650248614E-01  0.51100000000E-03 0.  1.
</event>
<event>
 8    1  0.1180500E+005  0.1043930E+01  0.7957747E-01            NaN
         13   -1    0    0    0    0  0.00000000000E+00  0.00000000000E+00  0.74505805969E-08  0.10566000000E+00  0.10566000000E+00 0.  1.
     999900   -1    0    0    0    0 -0.00000000000E+00 -0.00000000000E+00 -0.74505805969E-08  0.93827000000E+00  0.93827000000E+00 0. -1.
     999902    2    1    2    0    0  0.21977161873E-01  0.67452255584E-02 -0.78269959618E-02  0.10196451163E+01  0.10193558788E+01 0.  0.
     999903    2    3    3    0    0  0.13024835996E+00  0.14504087231E-01 -0.99804426774E-02  0.13297297303E+00  0.20179160092E-01 0.  0.
         14    1    1    2    0    0 -0.21977161873E-01 -0.67452255584E-02  0.78269959618E-02  0.24284883727E-01  0.00000000000E+00 0.  1.
     999901    1    3    3    0    0 -0.10827119809E+00 -0.77588616726E-02  0.21534467156E-02  0.88667214324E+00  0.88000000000E+00 0. -1.
        -11    1    4    4    0    0  0.10975645789E-01 -0.43933655591E-02 -0.11462739659E-02  0.11888714246E-01  0.51100000000E-03 0.  1.
         11    1    4    4    0    0  0.11927271417E+00  0.18897452790E-01 -0.88341687115E-02  0.12108425878E+00  0.51100000000E-03 0. -1.
</event>
<event>
 8    1  0.1180500E+005  0.1043930E+01  0.7957747E-01            NaN
         13   -1    0    0    0    0  0.00000000000E+00  0.00000000000E+00  0.74505805969E-08  0.10566000000E+00  0.10566000000E+00 0.  1.
     999900   -1    0    0    0    0 -0.00000000000E+00 -0.00000000000E+00 -0.74505805969E-08  0.93827000000E+00  0.93827000000E+00 0. -1.
     999902    2    1    2    0    0 -0.21045057756E-01  0.38030773420E-02 -0.95966436365E-02  0.10204895772E+01  0.10202203310E+01 0.  0.
     999903    2    3    3    0    0  0.22890630365E-01  0.12727474720E+00 -0.75938740662E-02  0.13078197968E+00  0.17983799708E-01 0.  0.
         14    1    1    2    0    0  0.21045057756E-01 -0.38030773420E-02  0.95966436365E-02  0.23440422827E-01  0.00000000000E+00 0. -1.
     999901    1    3    3    0    0 -0.43935688121E-01 -0.12347166986E+00 -0.20027695703E-02  0.88970759749E+00  0.88000000000E+00 0.  1.
        -11    1    4    4    0    0  0.13601807438E-01  0.58359812760E-01 -0.11948828006E-01  0.61105748687E-01  0.51100000000E-03 0. -1.
         11    1    4    4    0    0  0.92888229272E-02  0.68914934443E-01  0.43549539399E-02  0.69676230994E-01  0.51100000000E-03 0.  1.
</event>
<event>
 8    1  0.1180500E+005  0.1043930E+01  0.7957747E-01            NaN
         13   -1    0    0    0    0  0.00000000000E+00  0.00000000000E+00  0.74505805969E-08  0.10566000000E+00  0.10566000000E+00 0.  1.
     999900   -1    0    0    0    0 -0.00000000000E+00 -0.00000000000E+00 -0.74505805969E-08  0.93827000000E+00  0.93827000000E+00 0. -1.
     999902    2    1    2    0    0 -0.33835272920E-02  0.16973953969E-01  0.14977385453E-01  0.10210414560E+01  0.10207848791E+01 0.  0.
     999903    2    3    3    0    0  0.38727468879E-01  0.50244847739E-01  0.11600110936E+00  0.13363733097E+00  0.19450380089E-01 0.  0.
         14    1    1    2    0    0  0.33835272920E-02 -0.16973953969E-01 -0.14977385453E-01  0.22888543975E-01  0.00000000000E+00 0. -1.
     999901    1    3    3    0    0 -0.42110996171E-01 -0.33270893769E-01 -0.10102372391E+00  0.88740412505E+00  0.88000000000E+00 0. -1.
        -11    1    4    4    0    0  0.12903446339E-01  0.16359780552E-01  0.58276516307E-01  0.61891476158E-01  0.51100000000E-03 0. -1.
         11    1    4    4    0    0  0.25824022540E-01  0.33885067187E-01  0.57724593055E-01  0.71745854813E-01  0.51100000000E-03 0.  1.
</event>
<event>
 8    1  0.1180500E+005  0.1043930E+01  0.7957747E-01            NaN
         13   -1    0    0    0    0  0.00000000000E+00  0.00000000000E+00  0.74505805969E-08  0.10566000000E+00  0.10566000000E+00 0.  1.
     999900   -1    0    0    0    0 -0.00000000000E+00 -0.00000000000E+00 -0.74505805969E-08  0.93827000000E+00  0.93827000000E+00 0. -1.
     999902    2    1    2    0    0  0.12685950061E-01  0.16817261849E-01  0.15012953660E-01  0.10180622130E+01  0.10177335247E+01 0.  0.
     999903    2    3    3    0    0 -0.79011574938E-01 -0.10997722260E-01 -0.95372927402E-01  0.12600439418E+00  0.20428734742E-01 0.  0.
         14    1    1    2    0    0 -0.12685950061E-01 -0.16817261849E-01 -0.15012953660E-01  0.25867786969E-01  0.00000000000E+00 0. -1.
     999901    1    3    3    0    0  0.91697524998E-01  0.27814984108E-01  0.11038588106E+00  0.89205781885E+00  0.88000000000E+00 0.  1.
        -11    1    4    4    0    0 -0.66060521143E-02 -0.71902117053E-02 -0.97966874927E-02  0.13841072059E-01  0.51100000000E-03 0.  1.
         11    1    4    4    0    0 -0.72405522823E-01 -0.38075105542E-02 -0.85576239909E-01  0.11216332212E+00  0.51100000000E-03 0. -1.
</event>
<event>
 8    1  0.1180500E+005  0.1043930E+01  0.7957747E-01            NaN
         13   -1    0    0    0    0  0.00000000000E+00  0.00000000000E+00  0.74505805969E-08  0.10566000000E+00  0.10566000000E+00 0. -1.
     999900   -1    0    0    0    0 -0.00000000000E+00 -0.00000000000E+00 -0.74505805969E-08  0.93827000000E+00  0.93827000000E+00 0. -1.
     999902    2    1    2    0    0 -0.73726165763E-03  0.87392159934E-02  0.21907445444E-01  0.10203322540E+01  0.10200593389E+01 0.  0.
     999903    2    3    3    0    0  0.27766418489E-01  0.11218919745E+00  0.62379879957E-01  0.13289077626E+00  0.20281000217E-01 0.  0.
         14    1    1    2    0    0  0.73726165763E-03 -0.87392159934E-02 -0.21907445444E-01  0.23597746012E-01  0.00000000000E+00 0.  1.
     999901    1    3    3    0    0 -0.28503680146E-01 -0.10344998146E+00 -0.40472434513E-01  0.88744147773E+00  0.88000000000E+00 0.  1.
        -11    1    4    4    0    0  0.48992854582E-02  0.26903588813E-01  0.24823904628E-01  0.36936343227E-01  0.51100000000E-03 0. -1.
         11    1    4    4    0    0  0.22867133031E-01  0.85285608638E-01  0.37555975330E-01  0.95954433028E-01  0.51100000000E-03 0.  1.
</event>
<event>
 8    1  0.1180500E+005  0.1043930E+01  0.7957747E-01            NaN
         13   -1    0    0    0    0  0.00000000000E+00  0.00000000000E+00  0.74505805969E-08  0.10566000000E+00  0.10566000000E+00 0.  1.
     999900   -1    0    0    0    0 -0.00000000000E+00 -0.00000000000E+00 -0.74505805969E-08  0.93827000000E+00  0.93827000000E+00 0.  1.
     999902    2    1    2    0    0 -0.19371499967E-02  0.10606362704E-01  0.20474637214E-01  0.10207900292E+01  0.10205277191E+01 0.  0.
     999903    2    3    3    0    0 -0.21992015390E-01 -0.11521967626E+00  0.55600015607E-01  0.13092027360E+00  0.17015691749E-01 0.  0.
         14    1    1    2    0    0  0.19371499967E-02 -0.10606362704E-01 -0.20474637214E-01  0.23139970808E-01  0.00000000000E+00 0. -1.
     999901    1    3    3    0    0  0.20054865393E-01  0.12582603897E+00 -0.35125378392E-01  0.88986975559E+00  0.88000000000E+00 0. -1.
        -11    1    4    4    0    0 -0.80700653320E-02 -0.15314922998E-01  0.11759892751E-01  0.20933920307E-01  0.51100000000E-03 0. -1.
         11    1    4    4    0    0 -0.13921950058E-01 -0.99904753264E-01  0.43840122856E-01  0.10998635329E+00  0.51100000000E-03 0.  1.
</event>
<event>
 8    1  0.1180500E+005  0.1043930E+01  0.7957747E-01            NaN
         13   -1    0    0    0    0  0.00000000000E+00  0.00000000000E+00  0.74505805969E-08  0.10566000000E+00  0.10566000000E+00 0.  1.
     999900   -1    0    0    0    0 -0.00000000000E+00 -0.00000000000E+00 -0.74505805969E-08  0.93827000000E+00  0.93827000000E+00 0. -1.
     999902    2    1    2    0    0 -0.12548909706E-01  0.15874463076E-01  0.11403139478E-01  0.10207027466E+01  0.10204384310E+01 0.  0.
     999903    2    3    3    0    0 -0.89584893898E-01  0.46350128669E-01  0.85280567450E-01  0.13372970107E+00  0.20906222050E-01 0.  0.
         14    1    1    2    0    0  0.12548909706E-01 -0.15874463076E-01 -0.11403139478E-01  0.23227253448E-01  0.00000000000E+00 0.  1.
     999901    1    3    3    0    0  0.77035984192E-01 -0.30475665593E-01 -0.73877427972E-01  0.88697304549E+00  0.88000000000E+00 0.  1.
        -11    1    4    4    0    0 -0.36235461024E-01  0.28259079909E-01  0.30529475814E-01  0.55171498506E-01  0.51100000000E-03 0. -1.
         11    1    4    4    0    0 -0.53349432874E-01  0.18091048760E-01  0.54751091636E-01  0.78558202560E-01  0.51100000000E-03 0.  1.
</event>
<event>
 8    1  0.1180500E+005  0.1043930E+01  0.7957747E-01            NaN
         13   -1    0    0    0    0  0.00000000000E+00  0.00000000000E+00  0.74505805969E-08  0.10566000000E+00  0.10566000000E+00 0. -1.
     999900   -1    0    0    0    0 -0.00000000000E+00 -0.00000000000E+00 -0.74505805969E-08  0.93827000000E+00  0.93827000000E+00 0.  1.
     999902    2    1    2    0    0  0.12599803569E-01  0.26511993221E-01 -0.12371762522E-01  0.10120756229E+01  0.10115742015E+01 0.  0.
     999903    2    3    3    0    0  0.50277843432E-01  0.11409356891E+00  0.10213108423E-01  0.12663774053E+00  0.19687705200E-01 0.  0.
         14    1    1    2    0    0 -0.12599803569E-01 -0.26511993221E-01  0.12371762522E-01  0.31854377132E-01  0.00000000000E+00 0. -1.
     999901    1    3    3    0    0 -0.37678039863E-01 -0.87581575687E-01 -0.22584870945E-01  0.88543788234E+00  0.88000000000E+00 0.  1.
        -11    1    4    4    0    0  0.11039224016E-01  0.40061001077E-01 -0.36157855396E-02  0.41714305703E-01  0.51100000000E-03 0. -1.
         11    1    4    4    0    0  0.39238619416E-01  0.74032567831E-01  0.13828893963E-01  0.84923434825E-01  0.51100000000E-03 0.  1.
</event>
<event>
 8    1  0.1180500E+005  0.1043930E+01  0.7957747E-01            NaN
         13   -1    0    0    0    0  0.00000000000E+00  0.00000000000E+00  0.74505805969E-08  0.10566000000E+00  0.10566000000E+00 0.  1.
     999900   -1    0    0    0    0 -0.00000000000E+00 -0.00000000000E+00 -0.74505805969E-08  0.93827000000E+00  0.93827000000E+00 0.  1.
     999902    2    1    2    0    0  0.17043732956E-01  0.13959478352E-01  0.93576369776E-02  0.10199942268E+01  0.10197133428E+01 0.  0.
     999903    2    3    3    0    0  0.65989901721E-01  0.10760222454E+00 -0.35318216412E-01  0.13254810267E+00  0.19715913758E-01 0.  0.
         14    1    1    2    0    0 -0.17043732956E-01 -0.13959478352E-01 -0.93576369776E-02  0.23935773201E-01  0.00000000000E+00 0. -1.
     999901    1    3    3    0    0 -0.48946168765E-01 -0.93642746193E-01  0.44675853389E-01  0.88744612413E+00  0.88000000000E+00 0. -1.
        -11    1    4    4    0    0  0.40635728453E-01  0.50070150623E-01 -0.12666642444E-01  0.65719003051E-01  0.51100000000E-03 0.  1.
         11    1    4    4    0    0  0.25354173268E-01  0.57532073922E-01 -0.22651573967E-01  0.66829099621E-01  0.51100000000E-03 0. -1.
</event>
<event>
 8    1  0.1180500E+005  0.1043930E+01  0.7957747E-01            NaN
         13   -1    0    0    0    0  0.00000000000E+00  0.00000000000E+00  0.74505805969E-08  0.10566000000E+00  0.10566000000E+00 0.  1.
     999900   -1    0    0    0    0 -0.00000000000E+00 -0.00000000000E+00 -0.74505805969E-08  0.93827000000E+00  0.93827000000E+00 0. -1.
     999902    2    1    2    0    0  0.38668915371E-02 -0.22703469888E-01  0.71704429993E-02  0.10198091450E+01  0.10195238479E+01 0.  0.
     999903    2    3    3    0    0 -0.12211630089E+00  0.26203247516E-01 -0.24896667854E-01  0.12891525039E+00  0.20007413357E-01 0.  0.
         14    1    1    2    0    0 -0.38668915371E-02  0.22703469888E-01 -0.71704429993E-02  0.24120855042E-01  0.00000000000E+00 0. -1.
     999901    1    3    3    0    0  0.12598319243E+00 -0.48906717405E-01  0.32067110853E-01  0.89089389457E+00  0.88000000000E+00 0.  1.
        -11    1    4    4    0    0 -0.40583400726E-01  0.12538492073E-01 -0.17398757033E-01  0.45904292449E-01  0.51100000000E-03 0.  1.
         11    1    4    4    0    0 -0.81532900164E-01  0.13664755444E-01 -0.74979108208E-02  0.83010957940E-01  0.51100000000E-03 0. -1.
</event>
<event>
 8    1  0.1180500E+005  0.1043930E+01  0.7957747E-01            NaN
         13   -1    0    0    0    0  0.00000000000E+00  0.00000000000E+00  0.74505805969E-08  0.10566000000E+00  0.10566000000E+00 0. -1.
     999900   -1    0    0    0    0 -0.00000000000E+00 -0.00000000000E+00 -0.74505805969E-08  0.93827000000E+00  0.93827000000E+00 0. -1.
     999902    2    1    2    0    0 -0.21366177011E-01 -0.85339957763E-02 -0.79677240053E-02  0.10195819563E+01  0.10192911942E+01 0.  0.
     999903    2    3    3    0    0 -0.36513323670E-01  0.11921534193E+00  0.28806260878E-01  0.12946867406E+00  0.19667647020E-01 0.  0.
         14    1    1    2    0    0  0.21366177011E-01  0.85339957763E-02  0.79677240053E-02  0.24348043655E-01  0.00000000000E+00 0. -1.
     999901    1    3    3    0    0  0.15147146658E-01 -0.12774933771E+00 -0.36773984883E-01  0.89011328229E+00  0.88000000000E+00 0.  1.
        -11    1    4    4    0    0 -0.26294654739E-01  0.68574315164E-01  0.25321210632E-01  0.77687002755E-01  0.51100000000E-03 0.  1.
         11    1    4    4    0    0 -0.10218668931E-01  0.50641026769E-01  0.34850502452E-02  0.51781671305E-01  0.51100000000E-03 0. -1.
</event>
<event>
 8    1  0.1180500E+005  0.1043930E+01  0.7957747E-01            NaN
         13   -1    0    0    0    0  0.00000000000E+00  0.00000000000E+00  0.74505805969E-08  0.10566000000E+00  0.10566000000E+00 0.  1.
     999900   -1    0    0    0    0 -0.00000000000E+00 -0.00000000000E+00 -0.74505805969E-08  0.93827000000E+00  0.93827000000E+00 0.  1.
     999902    2    1    2    0    0 -0.21334665385E-01 -0.26655737058E-02 -0.94554605899E-02  0.10204421528E+01  0.10201718033E+01 0.  0.
     999903    2    3    3    0    0  0.31620356782E-01 -0.12164842005E+00  0.26445966425E-01  0.13013318142E+00  0.20906235930E-01 0.  0.
         14    1    1    2    0    0  0.21334665385E-01  0.26655737058E-02  0.94554605899E-02  0.23487847182E-01  0.00000000000E+00 0.  1.
     999901    1    3    3    0    0 -0.52955022168E-01  0.11898284635E+00 -0.35901427014E-01  0.89030897140E+00  0.88000000000E+00 0. -1.
        -11    1    4    4    0    0  0.24105727914E-01 -0.67150365620E-01  0.66221419057E-02  0.71654529554E-01  0.51100000000E-03 0.  1.
         11    1    4    4    0    0  0.75146288687E-02 -0.54498054433E-01  0.19823824519E-01  0.58478651862E-01  0.51100000000E-03 0. -1.
</event>
<event>
 8    1  0.1180500E+005  0.1043930E+01  0.7957747E-01            NaN
         13   -1    0    0    0    0  0.00000000000E+00  0.00000000000E+00  0.74505805969E-08  0.10566000000E+00  0.10566000000E+00 0. -1.
     999900   -1    0    0    0    0 -0.00000000000E+00 -0.00000000000E+00 -0.74505805969E-08  0.93827000000E+00  0.93827000000E+00 0.  1.
     999902    2    1    2    0    0 -0.22337121454E-01 -0.33540938647E-02  0.95307090970E-02  0.10194140591E+01  0.10191192239E+01 0.  0.
     999903    2    3    3    0    0 -0.80844218567E-02  0.48491675298E-01 -0.11724461077E+00  0.12870473228E+00  0.20045171675E-01 0.  0.
         14    1    1    2    0    0  0.22337121454E-01  0.33540938647E-02 -0.95307090970E-02  0.24515940863E-01  0.00000000000E+00 0.  1.
     999901    1    3    3    0    0 -0.14252699598E-01 -0.51845769162E-01  0.12677531986E+00  0.89070932686E+00  0.88000000000E+00 0. -1.
        -11    1    4    4    0    0 -0.14735793133E-01  0.30742272398E-01 -0.77516970573E-01  0.84683958098E-01  0.51100000000E-03 0.  1.
         11    1    4    4    0    0  0.66513712764E-02  0.17749402900E-01 -0.39727640193E-01  0.44020774180E-01  0.51100000000E-03 0. -1.
</event>
<event>
 8    1  0.1180500E+005  0.1043930E+01  0.7957747E-01            NaN
         13   -1    0    0    0    0  0.00000000000E+00  0.00000000000E+00  0.74505805969E-08  0.10566000000E+00  0.10566000000E+00 0.  1.
     999900   -1    0    0    0    0 -0.00000000000E+00 -0.00000000000E+00 -0.74505805969E-08  0.93827000000E+00  0.93827000000E+00 0. -1.
     999902    2    1    2    0    0  0.40020706949E-02 -0.20886193426E-01 -0.12500544956E-01  0.10192619383E+01  0.10189633877E+01 0.  0.
     999903    2    3    3    0    0  0.40534471297E-02 -0.76931276769E-01  0.10264091344E+00  0.12999335710E+00  0.20694540334E-01 0.  0.
         14    1    1    2    0    0 -0.40020706949E-02  0.20886193426E-01  0.12500544956E-01  0.24668061737E-01  0.00000000000E+00 0.  1.
     999901    1    3    3    0    0 -0.51376434832E-04  0.56045083343E-01 -0.11514145839E+00  0.88926858117E+00  0.88000000000E+00 0. -1.
        -11    1    4    4    0    0 -0.48718408668E-02 -0.11175037228E-01  0.25271079406E-01  0.28062517097E-01  0.51100000000E-03 0.  1.
         11    1    4    4    0    0  0.89252879965E-02 -0.65756239541E-01  0.77369834030E-01  0.10193084000E+00  0.51100000000E-03 0. -1.
</event>
<event>
 8    1  0.1180500E+005  0.1043930E+01  0.7957747E-01            NaN
         13   -1    0    0    0    0  0.00000000000E+00  0.00000000000E+00  0.74505805969E-08  0.10566000000E+00  0.10566000000E+00 0.  1.
     999900   -1    0    0    0    0 -0.00000000000E+00 -0.00000000000E+00 -0.74505805969E-08  0.93827000000E+00  0.93827000000E+00 0. -1.
     999902    2    1    2    0    0 -0.11343373224E-01 -0.15997937586E-01  0.15402730871E-01  0.10189930747E+01  0.10186878993E+01 0.  0.
     999903    2    3    3    0    0  0.11601259612E+00  0.37051517133E-01 -0.29964258511E-01  0.12708951981E+00  0.20546334887E-01 0.  0.
         14    1    1    2    0    0  0.11343373224E-01  0.15997937586E-01 -0.15402730871E-01  0.24936925259E-01  0.00000000000E+00 0. -1.
     999901    1    3    3    0    0 -0.12735596934E+00 -0.53049454718E-01  0.45366989382E-01  0.89190355493E+00  0.88000000000E+00 0. -1.
        -11    1    4    4    0    0  0.87675602348E-01  0.22782222229E-01 -0.29779770404E-01  0.95357940116E-01  0.51100000000E-03 0.  1.
         11    1    4    4    0    0  0.28336993771E-01  0.14269294904E-01 -0.18448810692E-03  0.31731579694E-01  0.51100000000E-03 0. -1.
</event>
<event>
 8    1  0.1180500E+005  0.1043930E+01  0.7957747E-01            NaN
         13   -1    0    0    0    0  0.00000000000E+00  0.00000000000E+00  0.74505805969E-08  0.10566000000E+00  0.10566000000E+00 0. -1.
     999900   -1    0    0    0    0 -0.00000000000E+00 -0.00000000000E+00 -0.74505805969E-08  0.93827000000E+00  0.93827000000E+00 0.  1.
     999902    2    1    2    0    0 -0.82680176915E-02  0.20938689617E-01  0.77388834166E-02  0.10201249762E+01  0.10198471886E+01 0.  0.
     999903    2    3    3    0    0 -0.62230493782E-01  0.11035247369E+00 -0.34105648631E-01  0.13296222992E+00  0.21574441147E-01 0.  0.
         14    1    1    2    0    0  0.82680176915E-02 -0.20938689617E-01 -0.77388834166E-02  0.23805023754E-01  0.00000000000E+00 0. -1.
     999901    1    3    3    0    0  0.53962476090E-01 -0.89413784072E-01  0.41844532048E-01  0.88716274633E+00  0.88000000000E+00 0. -1.
        -11    1    4    4    0    0 -0.48837323459E-01  0.98472866120E-01 -0.33980822439E-01  0.11505193149E+00  0.51100000000E-03 0.  1.
         11    1    4    4    0    0 -0.13393170323E-01  0.11879607569E-01 -0.12482619206E-03  0.17910298430E-01  0.51100000000E-03 0. -1.
</event>
<event>
 8    1  0.1180500E+005  0.1043930E+01  0.7957747E-01            NaN
         13   -1    0    0    0    0  0.00000000000E+00  0.00000000000E+00  0.74505805969E-08  0.10566000000E+00  0.10566000000E+00 0.  1.
     999900   -1    0    0    0    0 -0.00000000000E+00 -0.00000000000E+00 -0.74505805969E-08  0.93827000000E+00  0.93827000000E+00 0. -1.
     999902    2    1    2    0    0  0.11279209835E-01 -0.22825506386E-01 -0.14944517861E-02  0.10184259277E+01  0.10181065330E+01 0.  0.
     999903    2    3    3    0    0  0.31212882347E-01  0.97531377452E-01  0.72249697869E-01  0.12695448657E+00  0.20268428821E-01 0.  0.
         14    1    1    2    0    0 -0.11279209835E-01  0.22825506386E-01  0.14944517861E-02  0.25504072272E-01  0.00000000000E+00 0.  1.
     999901    1    3    3    0    0 -0.19933672512E-01 -0.12035688384E+00 -0.73744149655E-01  0.89147144116E+00  0.88000000000E+00 0. -1.
        -11    1    4    4    0    0  0.60083325952E-02  0.37016714650E-01  0.36271536644E-01  0.52174924203E-01  0.51100000000E-03 0. -1.
         11    1    4    4    0    0  0.25204549752E-01  0.60514662801E-01  0.35978161226E-01  0.74779562371E-01  0.51100000000E-03 0.  1.
</event>
<event>
 8    1  0.1180500E+005  0.1043930E+01  0.7957747E-01            NaN
         13   -1    0    0    0    0  0.00000000000E+00  0.00000000000E+00  0.74505805969E-08  0.10566000000E+00  0.10566000000E+00 0.  1.
     999900   -1    0    0    0    0 -0.00000000000E+00 -0.00000000000E+00 -0.74505805969E-08  0.93827000000E+00  0.93827000000E+00 0.  1.
     999902    2    1    2    0    0 -0.52840274197E-02 -0.27318306975E-01  0.66816075049E-02  0.10153143623E+01  0.10149110304E+01 0.  0.
     999903    2    3    3    0    0 -0.72076468731E-01  0.90945161482E-01  0.40999346505E-01  0.12423345386E+00  0.16940038441E-01 0.  0.
         14    1    1    2    0    0  0.52840274197E-02  0.27318306975E-01 -0.66816075049E-02  0.28615637693E-01  0.00000000000E+00 0. -1.
     999901    1    3    3    0    0  0.66792441311E-01 -0.11826346846E+00 -0.34317739000E-01  0.89108090845E+00  0.88000000000E+00 0.  1.
        -11    1    4    4    0    0 -0.24051770011E-01  0.32419940850E-01  0.59566135001E-02  0.40807873882E-01  0.51100000000E-03 0.  1.
         11    1    4    4    0    0 -0.48024698720E-01  0.58525220633E-01  0.35042733005E-01  0.83425579978E-01  0.51100000000E-03 0. -1.
</event>
<event>
 8    1  0.1180500E+005  0.1043930E+01  0.7957747E-01            NaN
         13   -1    0    0    0    0  0.00000000000E+00  0.00000000000E+00  0.74505805969E-08  0.10566000000E+00  0.10566000000E+00 0. -1.
     999900   -1    0    0    0    0 -0.00000000000E+00 -0.00000000000E+00 -0.74505805969E-08  0.93827000000E+00  0.93827000000E+00 0. -1.
     999902    2    1    2    0    0  0.27630436537E-02 -0.10648398417E-01  0.22520228161E-01  0.10188664114E+01  0.10185580890E+01 0.  0.
     999903    2    3    3    0    0  0.81250785341E-01 -0.64936667520E-01 -0.72884998682E-01  0.12858010962E+00  0.20053943498E-01 0.  0.
         14    1    1    2    0    0 -0.27630436537E-02  0.10648398417E-01 -0.22520228161E-01  0.25063588640E-01  0.00000000000E+00 0.  1.
     999901    1    3    3    0    0 -0.78487741687E-01  0.54288269103E-01  0.95405226843E-01  0.89028630174E+00  0.88000000000E+00 0.  1.
        -11    1    4    4    0    0  0.20804322884E-01 -0.14905153761E-01 -0.28972562809E-01  0.38660754985E-01  0.51100000000E-03 0. -1.
         11    1    4    4    0    0  0.60446462457E-01 -0.50031513758E-01 -0.43912435872E-01  0.89919354634E-01  0.51100000000E-03 0.  1.
</event>
<event>
 8    1  0.1180500E+005  0.1043930E+01  0.7957747E-01            NaN
         13   -1    0    0    0    0  0.00000000000E+00  0.00000000000E+00  0.74505805969E-08  0.10566000000E+00  0.10566000000E+00 0. -1.
     999900   -1    0    0    0    0 -0.00000000000E+00 -0.00000000000E+00 -0.74505805969E-08  0.93827000000E+00  0.93827000000E+00 0. -1.
     999902    2    1    2    0    0 -0.79855623798E-02 -0.78981790216E-02  0.21514272510E-01  0.10196603820E+01  0.10193715123E+01 0.  0.
     999903    2    3    3    0    0  0.78498661123E-01  0.99229374193E-01 -0.89413305281E-02  0.12843460959E+00  0.20174068707E-01 0.  0.
         14    1    1    2    0    0  0.79855623798E-02  0.78981790216E-02 -0.21514272510E-01  0.24269618044E-01  0.00000000000E+00 0.  1.
     999901    1    3    3    0    0 -0.86484223502E-01 -0.10712755321E+00  0.30455603038E-01  0.89122577237E+00  0.88000000000E+00 0. -1.
        -11    1    4    4    0    0  0.16281410891E-01  0.18168522782E-01  0.60854397614E-02  0.25149021030E-01  0.51100000000E-03 0. -1.
         11    1    4    4    0    0  0.62217250231E-01  0.81060851411E-01 -0.15026770290E-01  0.10328558856E+00  0.51100000000E-03 0.  1.
</event>
<event>
 8    1  0.1180500E+005  0.1043930E+01  0.7957747E-01            NaN
         13   -1    0    0    0    0  0.00000000000E+00  0.00000000000E+00  0.74505805969E-08  0.10566000000E+00  0.10566000000E+00 0.  1.
     999900   -1    0    0    0    0 -0.00000000000E+00 -0.00000000000E+00 -0.74505805969E-08  0.93827000000E+00  0.93827000000E+00 0. -1.
     999902    2    1    2    0    0  0.18178094137E-01  0.14923583114E-01 -0.33157457307E-02  0.10201781451E+01  0.10199016115E+01 0.  0.
     999903    2    3    3    0    0  0.39627552138E-02 -0.59141697645E-02  0.12822798596E+00  0.13004330078E+00  0.20449030837E-01 0.  0.
         14    1    1    2    0    0 -0.18178094137E-01 -0.14923583114E-01  0.33157457307E-02  0.23751854857E-01  0.00000000000E+00 0. -1.
     999901    1    3    3    0    0  0.14215338923E-01  0.20837752878E-01 -0.13154373169E+00  0.89013484436E+00  0.88000000000E+00 0. -1.
        -11    1    4    4    0    0 -0.83287652651E-02 -0.29016413044E-02  0.45264586331E-01  0.46118670296E-01  0.51100000000E-03 0.  1.
         11    1    4    4    0    0  0.12291520479E-01 -0.30125284601E-02  0.82963399624E-01  0.83924630483E-01  0.51100000000E-03 0. -1.
</event>
<event>
 8    1  0.1180500E+005  0.1043930E+01  0.7957747E-01            NaN
         13   -1    0    0    0    0  0.00000000000E+00  0.00000000000E+00  0.74505805969E-08  0.10566000000E+00  0.10566000000E+00 0. -1.
     999900   -1    0    0    0    0 -0.00000000000E+00 -0.00000000000E+00 -0.74505805969E-08  0.93827000000E+00  0.93827000000E+00 0. -1.
     999902    2    1    2    0    0  0.22551211998E-01  0.92212090804E-03  0.29650345207E-02  0.10211660175E+01  0.10209122570E+01 0.  0.
     999903    2    3    3    0    0  0.33917270308E-02  0.12860605717E+00  0.20421597991E-01  0.13157341127E+00  0.18533729672E-01 0.  0.
         14    1    1    2    0    0 -0.22551211998E-01 -0.92212090804E-03 -0.29650345207E-02  0.22763982500E-01  0.00000000000E+00 0. -1.
     999901    1    3    3    0    0  0.19159484967E-01 -0.12768393627E+00 -0.17456563470E-01  0.88959260623E+00  0.88000000000E+00 0.  1.
        -11    1    4    4    0    0 -0.48139614212E-02  0.69471955559E-01  0.17466610465E-01  0.71797426388E-01  0.51100000000E-03 0. -1.
         11    1    4    4    0    0  0.82056884520E-02  0.59134101615E-01  0.29549875255E-02  0.59775984886E-01  0.51100000000E-03 0.  1.
</event>
<event>
 8    1  0.1180500E+005  0.1043930E+01  0.7957747E-01            NaN
         13   -1    0    0    0    0  0.00000000000E+00  0.00000000000E+00  0.74505805969E-08  0.10566000000E+00  0.10566000000E+00 0.  1.
     999900   -1    0    0    0    0 -0.00000000000E+00 -0.00000000000E+00 -0.74505805969E-08  0.93827000000E+00  0.93827000000E+00 0.  1.
     999902    2    1    2    0    0 -0.14143685135E-01 -0.18395722872E-01  0.42022528045E-02  0.10203481134E+01  0.10200755693E+01 0.  0.
     999903    2    3    3    0    0 -0.77445874185E-01  0.98486887358E-01  0.28665657587E-01  0.13002953560E+00  0.19708622339E-01 0.  0.
         14    1    1    2    0    0  0.14143685135E-01  0.18395722872E-01 -0.42022528045E-02  0.23581886647E-01  0.00000000000E+00 0.  1.
     999901    1    3    3    0    0  0.63302189051E-01 -0.11688261023E+00 -0.24463404783E-01  0.89031857775E+00  0.88000000000E+00 0. -1.
        -11    1    4    4    0    0 -0.39041898009E-01  0.47700917780E-01  0.24118275947E-01  0.66193653116E-01  0.51100000000E-03 0. -1.
         11    1    4    4    0    0 -0.38403976177E-01  0.50785969578E-01  0.45473816401E-02  0.63835882488E-01  0.51100000000E-03 0.  1.
</event>
<event>
 8    1  0.1180500E+005  0.1043930E+01  0.7957747E-01            NaN
         13   -1    0    0    0    0  0.00000000000E+00  0.00000000000E+00  0.74505805969E-08  0.10566000000E+00  0.10566000000E+00 0. -1.
     999900   -1    0    0    0    0 -0.00000000000E+00 -0.00000000000E+00 -0.74505805969E-08  0.93827000000E+00  0.93827000000E+00 0. -1.
     999902    2    1    2    0    0  0.55631844061E-02 -0.19490667196E-01  0.90713308907E-02  0.10217236006E+01  0.10214822524E+01 0.  0.
     999903    2    3    3    0    0  0.93042663743E-01  0.19392507243E-01  0.90659933137E-01  0.13277969882E+00  0.19447836113E-01 0.  0.
         14    1    1    2    0    0 -0.55631844061E-02  0.19490667196E-01 -0.90713308907E-02  0.22206399361E-01  0.00000000000E+00 0.  1.
     999901    1    3    3    0    0 -0.87479479337E-01 -0.38883174438E-01 -0.81588602246E-01  0.88894390182E+00  0.88000000000E+00 0. -1.
        -11    1    4    4    0    0  0.48515793320E-01  0.26598080794E-02  0.54573516493E-01  0.73071106491E-01  0.51100000000E-03 0. -1.
         11    1    4    4    0    0  0.44526870423E-01  0.16732699163E-01  0.36086416644E-01  0.59708592331E-01  0.51100000000E-03 0.  1.
</event>
<event>
 8    1  0.1180500E+005  0.1043930E+01  0.7957747E-01            NaN
         13   -1    0    0    0    0  0.00000000000E+00  0.00000000000E+00  0.74505805969E-08  0.10566000000E+00  0.10566000000E+00 0. -1.
     999900   -1    0    0    0    0 -0.00000000000E+00 -0.00000000000E+00 -0.74505805969E-08  0.93827000000E+00  0.93827000000E+00 0. -1.
     999902    2    1    2    0    0  0.21736886919E-01  0.19512399048E-02  0.10076629695E-01  0.10198917377E+01  0.10196084143E+01 0.  0.
     999903    2    3    3    0    0 -0.74629513674E-01 -0.91396380755E-01  0.43255283134E-01  0.12910495931E+00  0.29567013266E-01 0.  0.
         14    1    1    2    0    0 -0.21736886919E-01 -0.19512399048E-02 -0.10076629695E-01  0.24038262335E-01  0.00000000000E+00 0.  1.
     999901    1    3    3    0    0  0.96366400592E-01  0.93347620660E-01 -0.33178653439E-01  0.89078677835E+00  0.88000000000E+00 0.  1.
        -11    1    4    4    0    0 -0.10623700173E-01 -0.24552665266E-01 -0.43912667217E-03  0.26760985226E-01  0.51100000000E-03 0.  1.
         11    1    4    4    0    0 -0.64005813501E-01 -0.66843715489E-01  0.43694409806E-01  0.10234397409E+00  0.51100000000E-03 0. -1.
</event>
<event>
 8    1  0.1180500E+005  0.1043930E+01  0.7957747E-01            NaN
         13   -1    0    0    0    0  0.00000000000E+00  0.00000000000E+00  0.74505805969E-08  0.10566000000E+00  0.10566000000E+00 0.  1.
     999900   -1    0    0    0    0 -0.00000000000E+00 -0.00000000000E+00 -0.74505805969E-08  0.93827000000E+00  0.93827000000E+00 0.  1.
     999902    2    1    2    0    0 -0.27094070106E-02  0.22664046145E-01  0.59397334519E-02  0.10203444047E+01  0.10200717739E+01 0.  0.
     999903    2    3    3    0    0  0.68826818717E-02 -0.11987087640E+00 -0.40231408879E-01  0.12762945200E+00  0.15947176499E-01 0.  0.
         14    1    1    2    0    0  0.27094070106E-02 -0.22664046145E-01 -0.59397334519E-02  0.23585595339E-01  0.00000000000E+00 0.  1.
     999901    1    3    3    0    0 -0.95920888823E-02  0.14253492255E+00  0.46171142331E-01  0.89271495266E+00  0.88000000000E+00 0.  1.
        -11    1    4    4    0    0 -0.57940480355E-03 -0.52693340359E-01 -0.10253146395E-01  0.53687167555E-01  0.51100000000E-03 0. -1.
         11    1    4    4    0    0  0.74620866753E-02 -0.67177536046E-01 -0.29978262484E-01  0.73942284448E-01  0.51100000000E-03 0.  1.
</event>
<event>
 8    1  0.1180500E+005  0.1043930E+01  0.7957747E-01            NaN
         13   -1    0    0    0    0  0.00000000000E+00  0.00000000000E+00  0.74505805969E-08  0.10566000000E+00  0.10566000000E+00 0.  1.
     999900   -1    0    0    0    0 -0.00000000000E+00 -0.00000000000E+00 -0.74505805969E-08  0.93827000000E+00  0.93827000000E+00 0.  1.
     999902    2    1    2    0    0 -0.21250763670E-01  0.96993572852E-02  0.52127501707E-02  0.10199958141E+01  0.10197149678E+01 0.  0.
     999903    2    3    3    0    0  0.45148990978E-01 -0.10417759570E+00 -0.55886198364E-01  0.12808215837E+00  0.19757765371E-01 0.  0.
         14    1    1    2    0    0  0.21250763670E-01 -0.96993572852E-02 -0.52127501707E-02  0.23934185858E-01  0.00000000000E+00 0. -1.
     999901    1    3    3    0    0 -0.66399754648E-01  0.11387695299E+00  0.61098948534E-01  0.89191365577E+00  0.88000000000E+00 0. -1.
        -11    1    4    4    0    0  0.14113771545E-01 -0.27777886977E-01 -0.25261207740E-01  0.40114826307E-01  0.51100000000E-03 0. -1.
         11    1    4    4    0    0  0.31035219432E-01 -0.76399708727E-01 -0.30624990623E-01  0.87967332064E-01  0.51100000000E-03 0.  1.
</event>
<event>
 8    1  0.1180500E+005  0.1043930E+01  0.7957747E-01            NaN
         13   -1    0    0    0    0  0.00000000000E+00  0.00000000000E+00  0.74505805969E-08  0.10566000000E+00  0.10566000000E+00 0.  1.
     999900   -1    0    0    0    0 -0.00000000000E+00 -0.00000000000E+00 -0.74505805969E-08  0.93827000000E+00  0.93827000000E+00 0. -1.
     999902    2    1    2    0    0  0.30186545727E-02  0.18808408676E-01  0.13657844592E-01  0.10204906051E+01  0.10202213828E+01 0.  0.
     999903    2    3    3    0    0 -0.43821993192E-01  0.27677843829E-01 -0.11701885113E+00  0.12956461946E+00  0.20177932741E-01 0.  0.
         14    1    1    2    0    0 -0.30186545727E-02 -0.18808408676E-01 -0.13657844592E-01  0.23439394857E-01  0.00000000000E+00 0. -1.
     999901    1    3    3    0    0  0.46840647765E-01 -0.88694351536E-02  0.13067669572E+00  0.89092598568E+00  0.88000000000E+00 0.  1.
        -11    1    4    4    0    0 -0.35097059913E-01  0.29658607295E-01 -0.10460877525E+00  0.11425713799E+00  0.51100000000E-03 0.  1.
         11    1    4    4    0    0 -0.87249332791E-02 -0.19807634664E-02 -0.12410075883E-01  0.15307481473E-01  0.51100000000E-03 0. -1.
</event>
<event>
 8    1  0.1180500E+005  0.1043930E+01  0.7957747E-01            NaN
         13   -1    0    0    0    0  0.00000000000E+00  0.00000000000E+00  0.74505805969E-08  0.10566000000E+00  0.10566000000E+00 0. -1.
     999900   -1    0    0    0    0 -0.00000000000E+00 -0.00000000000E+00 -0.74505805969E-08  0.93827000000E+00  0.93827000000E+00 0.  1.
     999902    2    1    2    0    0 -0.20444285025E-01 -0.81651882666E-02  0.26647776743E-02  0.10217547857E+01  0.10215141222E+01 0.  0.
     999903    2    3    3    0    0  0.37526218696E-02  0.45745412630E-01  0.12174480294E+00  0.13177057481E+00  0.20855752098E-01 0.  0.
         14    1    1    2    0    0  0.20444285025E-01  0.81651882666E-02 -0.26647776743E-02  0.22175214310E-01  0.00000000000E+00 0. -1.
     999901    1    3    3    0    0 -0.24196906895E-01 -0.53910600897E-01 -0.11908002527E+00  0.88998421088E+00  0.88000000000E+00 0.  1.
        -11    1    4    4    0    0 -0.77606273123E-02  0.11364055384E-01  0.41177833652E-01  0.43419398848E-01  0.51100000000E-03 0.  1.
         11    1    4    4    0    0  0.11513249182E-01  0.34381357246E-01  0.80566969291E-01  0.88351175966E-01  0.51100000000E-03 0. -1.
</event>
<event>
 8    1  0.1180500E+005  0.1043930E+01  0.7957747E-01            NaN
         13   -1    0    0    0    0  0.00000000000E+00  0.00000000000E+00  0.74505805969E-08  0.10566000000E+00  0.10566000000E+00 0. -1.
     999900   -1    0    0    0    0 -0.00000000000E+00 -0.00000000000E+00 -0.74505805969E-08  0.93827000000E+00  0.93827000000E+00 0.  1.
     999902    2    1    2    0    0 -0.23302003951E-01 -0.26381900902E-02  0.22566076364E-02  0.10203708041E+01  0.10200987904E+01 0.  0.
     999903    2    3    3    0    0  0.37977142114E-01 -0.11986968376E+00 -0.25427908879E-01  0.13005356324E+00  0.21362264759E-01 0.  0.
         14    1    1    2    0    0  0.23302003951E-01  0.26381900902E-02 -0.22566076364E-02  0.23559195935E-01  0.00000000000E+00 0. -1.
     999901    1    3    3    0    0 -0.61279146065E-01  0.11723149366E+00  0.27684516516E-01  0.89031724082E+00  0.88000000000E+00 0.  1.
        -11    1    4    4    0    0  0.44746534803E-02 -0.37270387523E-02  0.18559315871E-02  0.61334284610E-02  0.51100000000E-03 0. -1.
         11    1    4    4    0    0  0.33502488633E-01 -0.11614264500E+00 -0.27283840466E-01  0.12392013478E+00  0.51100000000E-03 0.  1.
</event>
<event>
 8    1  0.1180500E+005  0.1043930E+01  0.7957747E-01            NaN
         13   -1    0    0    0    0  0.00000000000E+00  0.00000000000E+00  0.74505805969E-08  0.10566000000E+00  0.10566000000E+00 0. -1.
     999900   -1    0    0    0    0 -0.00000000000E+00 -0.00000000000E+00 -0.74505805969E-08  0.93827000000E+00  0.93827000000E+00 0. -1.
     999902    2    1    2    0    0  0.12100894125E-01  0.14510013549E-01  0.11750588543E-01  0.10216803154E+01  0.10214380150E+01 0.  0.
     999903    2    3    3    0    0 -0.90759389239E-01  0.12522687422E-01  0.93520629840E-01  0.13192162512E+00  0.16221052122E-01 0.  0.
         14    1    1    2    0    0 -0.12100894125E-01 -0.14510013549E-01 -0.11750588543E-01  0.22249684558E-01  0.00000000000E+00 0.  1.
     999901    1    3    3    0    0  0.10286028336E+00  0.19873261273E-02 -0.81770041298E-01  0.88975869033E+00  0.88000000000E+00 0. -1.
        -11    1    4    4    0    0 -0.65034321636E-01  0.12567593947E-01  0.75881788623E-01  0.10072593695E+00  0.51100000000E-03 0.  1.
         11    1    4    4    0    0 -0.25725067603E-01 -0.44906525041E-04  0.17638841218E-01  0.31195688168E-01  0.51100000000E-03 0. -1.
</event>
<event>
 8    1  0.1453169E+005  0.1043930E+01  0.7957747E-01            NaN
         13   -1    0    0    0    0  0.00000000000E+00  0.00000000000E+00  0.74505805969E-08  0.10566000000E+00  0.10566000000E+00 0.  1.
     999900   -1    0    0    0    0 -0.00000000000E+00 -0.00000000000E+00 -0.74505805969E-08  0.93827000000E+00  0.93827000000E+00 0.  1.
     999902    2    1    2    0    0  0.74813877686E-02 -0.10247993925E-02 -0.24674495220E-01  0.10181258900E+01  0.10177988386E+01 0.  0.
     999903    2    3    3    0    0  0.33772203402E-02  0.12173086755E+00  0.32700705641E-01  0.12774523457E+00  0.20486558380E-01 0.  0.
         14    1    1    2    0    0 -0.74813877686E-02  0.10247993925E-02  0.24674495220E-01  0.25804109965E-01  0.00000000000E+00 0.  1.
     999901    1    3    3    0    0  0.41041674284E-02 -0.12275566694E+00 -0.57375200861E-01  0.89038065547E+00  0.88000000000E+00 0.  1.
        -11    1    4    4    0    0 -0.86709700283E-02  0.50960200498E-01  0.14131119307E-01  0.53591766251E-01  0.51100000000E-03 0. -1.
         11    1    4    4    0    0  0.12048190368E-01  0.70770667049E-01  0.18569586334E-01  0.74153468317E-01  0.51100000000E-03 0.  1.
</event>
<event>
 8    1  0.1180500E+005  0.1043930E+01  0.7957747E-01            NaN
         13   -1    0    0    0    0  0.00000000000E+00  0.00000000000E+00  0.74505805969E-08  0.10566000000E+00  0.10566000000E+00 0.  1.
     999900   -1    0    0    0    0 -0.00000000000E+00 -0.00000000000E+00 -0.74505805969E-08  0.93827000000E+00  0.93827000000E+00 0. -1.
     999902    2    1    2    0    0  0.12744906835E-01  0.31106629487E-03 -0.20668711698E-01  0.10196457447E+01  0.10193565223E+01 0.  0.
     999903    2    3    3    0    0 -0.11697577225E+00 -0.20114890191E-01  0.42837197624E-01  0.12763807948E+00  0.19196711530E-01 0.  0.
         14    1    1    2    0    0 -0.12744906835E-01 -0.31106629487E-03  0.20668711698E-01  0.24284255305E-01  0.00000000000E+00 0. -1.
     999901    1    3    3    0    0  0.12972067908E+00  0.20425956485E-01 -0.63505909322E-01  0.89200766521E+00  0.88000000000E+00 0. -1.
        -11    1    4    4    0    0 -0.10041730705E+00 -0.20883584146E-01  0.30621755488E-01  0.10704070567E+00  0.51100000000E-03 0. -1.
         11    1    4    4    0    0 -0.16558465201E-01  0.76869395548E-03  0.12215442135E-01  0.20597373808E-01  0.51100000000E-03 0.  1.
</event>
<event>
 8    1  0.1180500E+005  0.1043930E+01  0.7957747E-01            NaN
         13   -1    0    0    0    0  0.00000000000E+00  0.00000000000E+00  0.74505805969E-08  0.10566000000E+00  0.10566000000E+00 0. -1.
     999900   -1    0    0    0    0 -0.00000000000E+00 -0.00000000000E+00 -0.74505805969E-08  0.93827000000E+00  0.93827000000E+00 0. -1.
     999902    2    1    2    0    0  0.21610026195E-01  0.61568574235E-02 -0.29200247159E-02  0.10212710797E+01  0.10210196822E+01 0.  0.
     999903    2    3    3    0    0 -0.10500488975E+00  0.30377300569E-01  0.65830450782E-01  0.12922590443E+00  0.20417611627E-01 0.  0.
         14    1    1    2    0    0 -0.21610026195E-01 -0.61568574235E-02  0.29200247159E-02  0.22658920315E-01  0.00000000000E+00 0. -1.
     999901    1    3    3    0    0  0.12661491595E+00 -0.24220443145E-01 -0.68750475498E-01  0.89204517525E+00  0.88000000000E+00 0. -1.
        -11    1    4    4    0    0 -0.44905943765E-01  0.18610870420E-01  0.19262188793E-01  0.52289590946E-01  0.51100000000E-03 0. -1.
         11    1    4    4    0    0 -0.60098945989E-01  0.11766430149E-01  0.46568261989E-01  0.76936313488E-01  0.51100000000E-03 0.  1.
</event>
<event>
 8    1  0.1180500E+005  0.1043930E+01  0.7957747E-01            NaN
         13   -1    0    0    0    0  0.00000000000E+00  0.00000000000E+00  0.74505805969E-08  0.10566000000E+00  0.10566000000E+00 0. -1.
     999900   -1    0    0    0    0 -0.00000000000E+00 -0.00000000000E+00 -0.74505805969E-08  0.93827000000E+00  0.93827000000E+00 0.  1.
     999902    2    1    2    0    0 -0.10334439040E-02  0.93384441769E-02 -0.21799743659E-01  0.10201917741E+01  0.10199155615E+01 0.  0.
     999903    2    3    3    0    0 -0.64983632191E-01 -0.13487614244E-02  0.10986248648E+00  0.12803775947E+00  0.99604369576E-02 0.  0.
         14    1    1    2    0    0  0.10334439040E-02 -0.93384441769E-02  0.21799743659E-01  0.23738225914E-01  0.00000000000E+00 0. -1.
     999901    1    3    3    0    0  0.63950188287E-01  0.10687205601E-01 -0.13166223014E+00  0.89215401461E+00  0.88000000000E+00 0.  1.
        -11    1    4    4    0    0 -0.30328573018E-01  0.41721939392E-02  0.48907862669E-01  0.57701557131E-01  0.51100000000E-03 0.  1.
         11    1    4    4    0    0 -0.34655059173E-01 -0.55209553636E-02  0.60954623815E-01  0.70336202341E-01  0.51100000000E-03 0. -1.
</event>
<event>
 8    1  0.1180500E+005  0.1043930E+01  0.7957747E-01            NaN
         13   -1    0    0    0    0  0.00000000000E+00  0.00000000000E+00  0.74505805969E-08  0.10566000000E+00  0.10566000000E+00 0. -1.
     999900   -1    0    0    0    0 -0.00000000000E+00 -0.00000000000E+00 -0.74505805969E-08  0.93827000000E+00  0.93827000000E+00 0. -1.
     999902    2    1    2    0    0  0.14846486931E-01 -0.18003021735E-01 -0.44533673700E-02  0.10201737493E+01  0.10198971121E+01 0.  0.
     999903    2    3    3    0    0  0.35205078946E-01 -0.12382523328E+00 -0.28192218973E-01  0.13328235472E+00  0.19932357846E-01 0.  0.
         14    1    1    2    0    0 -0.14846486931E-01  0.18003021735E-01  0.44533673700E-02  0.23756250688E-01  0.00000000000E+00 0.  1.
     999901    1    3    3    0    0 -0.20358592015E-01  0.10582221154E+00  0.23738851603E-01  0.88689139459E+00  0.88000000000E+00 0. -1.
        -11    1    4    4    0    0  0.30792612212E-01 -0.79961219850E-01 -0.13100598670E-01  0.86682572950E-01  0.51100000000E-03 0. -1.
         11    1    4    4    0    0  0.44124667345E-02 -0.43864013429E-01 -0.15091620303E-01  0.46599781771E-01  0.51100000000E-03 0.  1.
</event>
<event>
 8    1  0.1180500E+005  0.1043930E+01  0.7957747E-01            NaN
         13   -1    0    0    0    0  0.00000000000E+00  0.00000000000E+00  0.74505805969E-08  0.10566000000E+00  0.10566000000E+00 0. -1.
     999900   -1    0    0    0    0 -0.00000000000E+00 -0.00000000000E+00 -0.74505805969E-08  0.93827000000E+00  0.93827000000E+00 0. -1.
     999902    2    1    2    0    0  0.16504989482E-01 -0.18752939784E-03 -0.21915571499E-01  0.10164938538E+01  0.10161235223E+01 0.  0.
     999903    2    3    3    0    0  0.64538600843E-01 -0.22126506397E-01  0.10378210995E+00  0.12599486240E+00  0.21193530201E-01 0.  0.
         14    1    1    2    0    0 -0.16504989482E-01  0.18752939784E-03  0.21915571499E-01  0.27436146217E-01  0.00000000000E+00 0. -1.
     999901    1    3    3    0    0 -0.48033611361E-01  0.21938976999E-01 -0.12569768145E+00  0.89049899138E+00  0.88000000000E+00 0. -1.
        -11    1    4    4    0    0  0.44979844121E-01 -0.20376338651E-01  0.57991082476E-01  0.76168289476E-01  0.51100000000E-03 0. -1.
         11    1    4    4    0    0  0.19558756723E-01 -0.17501677462E-02  0.45791027470E-01  0.49826572925E-01  0.51100000000E-03 0.  1.
</event>
<event>
 8    1  0.1180500E+005  0.1043930E+01  0.7957747E-01            NaN
         13   -1    0    0    0    0  0.00000000000E+00  0.00000000000E+00  0.74505805969E-08  0.10566000000E+00  0.10566000000E+00 0. -1.
     999900   -1    0    0    0    0 -0.00000000000E+00 -0.00000000000E+00 -0.74505805969E-08  0.93827000000E+00  0.93827000000E+00 0. -1.
     999902    2    1    2    0    0 -0.72101353675E-02  0.92665392579E-03 -0.22377655115E-01  0.10204012051E+01  0.10201299012E+01 0.  0.
     999903    2    3    3    0    0  0.78953358766E-01 -0.43244422054E-01 -0.94566268380E-01  0.13215212545E+00  0.20437520535E-01 0.  0.
         14    1    1    2    0    0  0.72101353675E-02 -0.92665392579E-03  0.22377655115E-01  0.23528794869E-01  0.00000000000E+00 0. -1.
     999901    1    3    3    0    0 -0.86163494134E-01  0.44171075980E-01  0.72188613265E-01  0.88824907968E+00  0.88000000000E+00 0.  1.
        -11    1    4    4    0    0  0.42511491206E-01 -0.14175835394E-01 -0.37280552837E-01  0.58294784797E-01  0.51100000000E-03 0.  1.
         11    1    4    4    0    0  0.36441867560E-01 -0.29068586660E-01 -0.57285715543E-01  0.73857340650E-01  0.51100000000E-03 0. -1.
</event>
<event>
 8    1  0.1180500E+005  0.1043930E+01  0.7957747E-01            NaN
         13   -1    0    0    0    0  0.00000000000E+00  0.00000000000E+00  0.74505805969E-08  0.10566000000E+00  0.10566000000E+00 0. -1.
     999900   -1    0    0    0    0 -0.00000000000E+00 -0.00000000000E+00 -0.74505805969E-08  0.93827000000E+00  0.93827000000E+00 0.  1.
     999902    2    1    2    0    0  0.19250326718E-01  0.24934241367E-02  0.15159345061E-01  0.10193007900E+01  0.10190031906E+01 0.  0.
     999903    2    3    3    0    0  0.12987876291E+00  0.11745288213E-01 -0.56830654970E-02  0.13208117008E+00  0.20166640952E-01 0.  0.
         14    1    1    2    0    0 -0.19250326718E-01 -0.24934241367E-02 -0.15159345061E-01  0.24629210003E-01  0.00000000000E+00 0. -1.
     999901    1    3    3    0    0 -0.11062843619E+00 -0.92518640760E-02  0.20842410558E-01  0.88721961991E+00  0.88000000000E+00 0. -1.
        -11    1    4    4    0    0  0.56096924392E-01  0.14440804276E-01 -0.60890355887E-02  0.58247225082E-01  0.51100000000E-03 0. -1.
         11    1    4    4    0    0  0.73781838516E-01 -0.26955160628E-02  0.40597009165E-03  0.73833945001E-01  0.51100000000E-03 0.  1.
</event>
<event>
 8    1  0.1180500E+005  0.1043930E+01  0.7957747E-01            NaN
         13   -1    0    0    0    0  0.00000000000E+00  0.00000000000E+00  0.74505805969E-08  0.10566000000E+00  0.10566000000E+00 0.  1.
     999900   -1    0    0    0    0 -0.00000000000E+00 -0.00000000000E+00 -0.74505805969E-08  0.93827000000E+00  0.93827000000E+00 0.  1.
     999902    2    1    2    0    0  0.39783830732E-02  0.12975895276E-01  0.18815453753E-01  0.10207303731E+01  0.10204666931E+01 0.  0.
     999903    2    3    3    0    0  0.63655573614E-01 -0.78859061829E-01 -0.77136493314E-01  0.12876523778E+00  0.18964814116E-01 0.  0.
         14    1    1    2    0    0 -0.39783830732E-02 -0.12975895276E-01 -0.18815453753E-01  0.23199626938E-01  0.00000000000E+00 0. -1.
     999901    1    3    3    0    0 -0.59677190541E-01  0.91834957106E-01  0.95951947067E-01  0.89196513528E+00  0.88000000000E+00 0. -1.
        -11    1    4    4    0    0  0.10847903360E-01 -0.13100840555E-01 -0.22754084017E-01  0.28413350576E-01  0.51100000000E-03 0. -1.
         11    1    4    4    0    0  0.52807670254E-01 -0.65758221275E-01 -0.54382409297E-01  0.10035188720E+00  0.51100000000E-03 0.  1.
</event>
<event>
 8    1  0.1180500E+005  0.1043930E+01  0.7957747E-01            NaN
         13   -1    0    0    0    0  0.00000000000E+00  0.00000000000E+00  0.74505805969E-08  0.10566000000E+00  0.10566000000E+00 0.  1.
     999900   -1    0    0    0    0 -0.00000000000E+00 -0.00000000000E+00 -0.74505805969E-08  0.93827000000E+00  0.93827000000E+00 0. -1.
     999902    2    1    2    0    0  0.57054419233E-02  0.16752837194E-01 -0.17616162372E-01  0.10189592411E+01  0.10186532267E+01 0.  0.
     999903    2    3    3    0    0  0.70806875239E-01  0.83372656259E-01 -0.71722927292E-01  0.13239060932E+00  0.20456826326E-01 0.  0.
         14    1    1    2    0    0 -0.57054419233E-02 -0.16752837194E-01  0.17616162372E-01  0.24970758865E-01  0.00000000000E+00 0.  1.
     999901    1    3    3    0    0 -0.65101433316E-01 -0.66619819065E-01  0.54106764920E-01  0.88656863182E+00  0.88000000000E+00 0. -1.
        -11    1    4    4    0    0  0.61673967054E-01  0.72237867942E-01 -0.69753316941E-01  0.11784640055E+00  0.51100000000E-03 0. -1.
         11    1    4    4    0    0  0.91329081857E-02  0.11134788317E-01 -0.19696103511E-02  0.14544208769E-01  0.51100000000E-03 0.  1.
</event>
<event>
 8    1  0.1180500E+005  0.1043930E+01  0.7957747E-01            NaN
         13   -1    0    0    0    0  0.00000000000E+00  0.00000000000E+00  0.74505805969E-08  0.10566000000E+00  0.10566000000E+00 0. -1.
     999900   -1    0    0    0    0 -0.00000000000E+00 -0.00000000000E+00 -0.74505805969E-08  0.93827000000E+00  0.93827000000E+00 0.  1.
     999902    2    1    2    0    0 -0.21373016102E-01 -0.81153960226E-02  0.15097816334E-02  0.10210183237E+01  0.10207612220E+01 0.  0.
     999903    2    3    3    0    0  0.11088980929E+00 -0.32658269981E-01 -0.53835265231E-01  0.12907724838E+00  0.19989693988E-01 0.  0.
         14    1    1    2    0    0  0.21373016102E-01  0.81153960226E-02 -0.15097816334E-02  0.22911676291E-01  0.00000000000E+00 0.  1.
     999901    1    3    3    0    0 -0.13226282539E+00  0.24542873958E-01  0.55345046865E-01  0.89194107533E+00  0.88000000000E+00 0.  1.
        -11    1    4    4    0    0  0.55004653472E-01 -0.23590110333E-01 -0.35379408750E-01  0.69526749482E-01  0.51100000000E-03 0. -1.
         11    1    4    4    0    0  0.55885155814E-01 -0.90681596479E-02 -0.18455856482E-01  0.59550498900E-01  0.51100000000E-03 0.  1.
</event>
<event>
 8    1  0.1180500E+005  0.1043930E+01  0.7957747E-01            NaN
         13   -1    0    0    0    0  0.00000000000E+00  0.00000000000E+00  0.74505805969E-08  0.10566000000E+00  0.10566000000E+00 0. -1.
     999900   -1    0    0    0    0 -0.00000000000E+00 -0.00000000000E+00 -0.74505805969E-08  0.93827000000E+00  0.93827000000E+00 0. -1.
     999902    2    1    2    0    0 -0.13345476103E-01 -0.11736007237E-01 -0.21564732399E-01  0.10159858900E+01  0.10156015240E+01 0.  0.
     999903    2    3    3    0    0  0.63965498273E-01 -0.99887796395E-01  0.38885051050E-01  0.12615337714E+00  0.18261175489E-01 0.  0.
         14    1    1    2    0    0  0.13345476103E-01  0.11736007237E-01  0.21564732399E-01  0.27944109965E-01  0.00000000000E+00 0. -1.
     999901    1    3    3    0    0 -0.77310974376E-01  0.88151789157E-01 -0.60449783449E-01  0.88983251290E+00  0.88000000000E+00 0. -1.
        -11    1    4    4    0    0  0.17936024080E-01 -0.44083988512E-01  0.17623966671E-01  0.50753958714E-01  0.51100000000E-03 0. -1.
         11    1    4    4    0    0  0.46029474193E-01 -0.55803807882E-01  0.21261084380E-01  0.75399418424E-01  0.51100000000E-03 0.  1.
</event>
<event>
 8    1  0.1180500E+005  0.1043930E+01  0.7957747E-01            NaN
         13   -1    0    0    0    0  0.00000000000E+00  0.00000000000E+00  0.74505805969E-08  0.10566000000E+00  0.10566000000E+00 0.  1.
     999900   -1    0    0    0    0 -0.00000000000E+00 -0.00000000000E+00 -0.74505805969E-08  0.93827000000E+00  0.93827000000E+00 0. -1.
     999902    2    1    2    0    0  0.11306563665E-01 -0.20896909217E-01 -0.43338070722E-02  0.10197783731E+01  0.10194923390E+01 0.  0.
     999903    2    3    3    0    0 -0.52979469516E-01 -0.81193660899E-01 -0.88240153488E-01  0.13140420236E+00  0.90280091550E-02 0.  0.
         14    1    1    2    0    0 -0.11306563665E-01  0.20896909217E-01  0.43338070722E-02  0.24151626870E-01  0.00000000000E+00 0.  1.
     999901    1    3    3    0    0  0.64286033182E-01  0.60296751682E-01  0.83906346416E-01  0.88837417077E+00  0.88000000000E+00 0.  1.
        -11    1    4    4    0    0 -0.30403388674E-01 -0.51854150200E-01 -0.50141554626E-01  0.78279343106E-01  0.51100000000E-03 0. -1.
         11    1    4    4    0    0 -0.22576080843E-01 -0.29339510699E-01 -0.38098598862E-01  0.53124859252E-01  0.51100000000E-03 0.  1.
</event>
<event>
 8    1  0.1180500E+005  0.1043930E+01  0.7957747E-01            NaN
         13   -1    0    0    0    0  0.00000000000E+00  0.00000000000E+00  0.74505805969E-08  0.10566000000E+00  0.10566000000E+00 0. -1.
     999900   -1    0    0    0    0 -0.00000000000E+00 -0.00000000000E+00 -0.74505805969E-08  0.93827000000E+00  0.93827000000E+00 0. -1.
     999902    2    1    2    0    0  0.64701247968E-03 -0.21836212245E-01  0.84333868882E-02  0.10205128950E+01  0.10202441904E+01 0.  0.
     999903    2    3    3    0    0 -0.86267629497E-01  0.71189606073E-01 -0.60719954340E-01  0.12866641584E+00  0.18922732287E-01 0.  0.
         14    1    1    2    0    0 -0.64701247968E-03  0.21836212245E-01 -0.84333868882E-02  0.23417104961E-01  0.00000000000E+00 0.  1.
     999901    1    3    3    0    0  0.86914641976E-01 -0.93025818318E-01  0.69153341229E-01  0.89184647920E+00  0.88000000000E+00 0. -1.
        -11    1    4    4    0    0 -0.34605754612E-01  0.30920255431E-01 -0.35676300085E-01  0.58537850634E-01  0.51100000000E-03 0. -1.
         11    1    4    4    0    0 -0.51661874885E-01  0.40269350642E-01 -0.25043654256E-01  0.70128565202E-01  0.51100000000E-03 0.  1.
</event>
<event>
 8    1  0.1180500E+005  0.1043930E+01  0.7957747E-01            NaN
         13   -1    0    0    0    0  0.00000000000E+00  0.00000000000E+00  0.74505805969E-08  0.10566000000E+00  0.10566000000E+00 0. -1.
     999900   -1    0    0    0    0 -0.00000000000E+00 -0.00000000000E+00 -0.74505805969E-08  0.93827000000E+00  0.93827000000E+00 0.  1.
     999902    2    1    2    0    0  0.12981413160E-01 -0.15271952997E-01  0.10955029377E-01  0.10210878831E+01  0.10208323578E+01 0.  0.
     999903    2    3    3    0    0  0.17818855711E-02 -0.37978285720E-01 -0.12282942476E+00  0.13061649831E+00  0.22979920390E-01 0.  0.
         14    1    1    2    0    0 -0.12981413160E-01  0.15271952997E-01 -0.10955029377E-01  0.22842116904E-01  0.00000000000E+00 0.  1.
     999901    1    3    3    0    0  0.11199527589E-01  0.22706332722E-01  0.13378445413E+00  0.89047138479E+00  0.88000000000E+00 0. -1.
        -11    1    4    4    0    0 -0.81547656739E-02 -0.23444275602E-01 -0.51896948022E-01  0.57529893070E-01  0.51100000000E-03 0.  1.
         11    1    4    4    0    0  0.99366512450E-02 -0.14534010118E-01 -0.70932476735E-01  0.73086605235E-01  0.51100000000E-03 0. -1.
</event>
<event>
 8    1  0.1180500E+005  0.1043930E+01  0.7957747E-01            NaN
         13   -1    0    0    0    0  0.00000000000E+00  0.00000000000E+00  0.74505805969E-08  0.10566000000E+00  0.10566000000E+00 0. -1.
     999900   -1    0    0    0    0 -0.00000000000E+00 -0.00000000000E+00 -0.74505805969E-08  0.93827000000E+00  0.93827000000E+00 0. -1.
     999902    2    1    2    0    0  0.13190765236E-01  0.13867778855E-01 -0.21947744305E-02  0.10246653014E+01  0.10244841879E+01 0.  0.
     999903    2    3    3    0    0 -0.10328394054E+00 -0.45052780963E-01 -0.67383269278E-01  0.13265211241E+00  0.18940762929E-01 0.  0.
         14    1    1    2    0    0 -0.13190765236E-01 -0.13867778855E-01  0.21947744305E-02  0.19264698614E-01  0.00000000000E+00 0.  1.
     999901    1    3    3    0    0  0.11647470578E+00  0.58920559819E-01  0.65188494847E-01  0.89201318898E+00  0.88000000000E+00 0.  1.
        -11    1    4    4    0    0 -0.52156805604E-01 -0.12958197625E-01 -0.35135825418E-01  0.64210860494E-01  0.51100000000E-03 0. -1.
         11    1    4    4    0    0 -0.51127134939E-01 -0.32094583338E-01 -0.32247443860E-01  0.68441251911E-01  0.51100000000E-03 0.  1.
</event>
<event>
 8    1  0.1180500E+005  0.1043930E+01  0.7957747E-01            NaN
         13   -1    0    0    0    0  0.00000000000E+00  0.00000000000E+00  0.74505805969E-08  0.10566000000E+00  0.10566000000E+00 0.  1.
     999900   -1    0    0    0    0 -0.00000000000E+00 -0.00000000000E+00 -0.74505805969E-08  0.93827000000E+00  0.93827000000E+00 0.  1.
     999902    2    1    2    0    0 -0.18604127617E-01  0.17532882815E-01  0.11382581802E-01  0.10159464564E+01  0.10155609896E+01 0.  0.
     999903    2    3    3    0    0 -0.10632561682E+00  0.29358227615E-01  0.66711208235E-01  0.12977708469E+00  0.14988798643E-01 0.  0.
         14    1    1    2    0    0  0.18604127617E-01 -0.17532882815E-01 -0.11382581802E-01  0.27983543604E-01  0.00000000000E+00 0.  1.
     999901    1    3    3    0    0  0.87721489206E-01 -0.11825344800E-01 -0.55328626433E-01  0.88616937171E+00  0.88000000000E+00 0.  1.
        -11    1    4    4    0    0 -0.62863050838E-01  0.13742762320E-01  0.31181150127E-01  0.71506306862E-01  0.51100000000E-03 0. -1.
         11    1    4    4    0    0 -0.43462565985E-01  0.15615465295E-01  0.35530058108E-01  0.58270777827E-01  0.51100000000E-03 0.  1.
</event>
<event>
 8    1  0.1180500E+005  0.1043930E+01  0.7957747E-01            NaN
         13   -1    0    0    0    0  0.00000000000E+00  0.00000000000E+00  0.74505805969E-08  0.10566000000E+00  0.10566000000E+00 0. -1.
     999900   -1    0    0    0    0 -0.00000000000E+00 -0.00000000000E+00 -0.74505805969E-08  0.93827000000E+00  0.93827000000E+00 0. -1.
     999902    2    1    2    0    0 -0.59219402639E-02 -0.21789286467E-01 -0.28504726173E-02  0.10211710990E+01  0.10209174530E+01 0.  0.
     999903    2    3    3    0    0 -0.31206662164E-01  0.13920178120E-01  0.12467919417E+00  0.13090243227E+00  0.20564974949E-01 0.  0.
         14    1    1    2    0    0  0.59219402639E-02  0.21789286467E-01  0.28504726173E-02  0.22758901014E-01  0.00000000000E+00 0. -1.
     999901    1    3    3    0    0  0.25284721900E-01 -0.35709464587E-01 -0.12752966678E+00  0.89026866671E+00  0.88000000000E+00 0. -1.
        -11    1    4    4    0    0 -0.13613814298E-01 -0.32519776945E-02  0.62224217058E-01  0.63781075627E-01  0.51100000000E-03 0.  1.
         11    1    4    4    0    0 -0.17592847866E-01  0.17172155815E-01  0.62454977108E-01  0.67121356646E-01  0.51100000000E-03 0. -1.
</event>
<event>
 8    1  0.1180500E+005  0.1043930E+01  0.7957747E-01            NaN
         13   -1    0    0    0    0  0.00000000000E+00  0.00000000000E+00  0.74505805969E-08  0.10566000000E+00  0.10566000000E+00 0.  1.
     999900   -1    0    0    0    0 -0.00000000000E+00 -0.00000000000E+00 -0.74505805969E-08  0.93827000000E+00  0.93827000000E+00 0.  1.
     999902    2    1    2    0    0 -0.76544231529E-02 -0.20237178019E-01  0.96930073694E-02  0.10202216057E+01  0.10199460950E+01 0.  0.
     999903    2    3    3    0    0 -0.20705224603E-01  0.57837552297E-01 -0.11094709902E+00  0.12847050691E+00  0.20531039555E-01 0.  0.
         14    1    1    2    0    0  0.76544231529E-02  0.20237178019E-01 -0.96930073694E-02  0.23708394291E-01  0.00000000000E+00 0. -1.
     999901    1    3    3    0    0  0.13050801451E-01 -0.78074730316E-01  0.12064010639E+00  0.89175109879E+00  0.88000000000E+00 0. -1.
        -11    1    4    4    0    0 -0.24036166960E-01  0.40434713080E-01 -0.81194575599E-01  0.93837751314E-01  0.51100000000E-03 0.  1.
         11    1    4    4    0    0  0.33309423564E-02  0.17402839216E-01 -0.29752523417E-01  0.34632755600E-01  0.51100000000E-03 0. -1.
</event>
<event>
 8    1  0.1180500E+005  0.1043930E+01  0.7957747E-01            NaN
         13   -1    0    0    0    0  0.00000000000E+00  0.00000000000E+00  0.74505805969E-08  0.10566000000E+00  0.10566000000E+00 0.  1.
     999900   -1    0    0    0    0 -0.00000000000E+00 -0.00000000000E+00 -0.74505805969E-08  0.93827000000E+00  0.93827000000E+00 0.  1.
     999902    2    1    2    0    0 -0.75064084184E-02 -0.33082954257E-02 -0.22173644610E-01  0.10202876333E+01  0.10200136731E+01 0.  0.
     999903    2    3    3    0    0  0.12266383971E+00  0.50806158349E-02 -0.38101429776E-01  0.13053015983E+00  0.22675392952E-01 0.  0.
         14    1    1    2    0    0  0.75064084184E-02  0.33082954257E-02  0.22173644610E-01  0.23642366659E-01  0.00000000000E+00 0.  1.
     999901    1    3    3    0    0 -0.13017024812E+00 -0.83889112606E-02  0.15927785166E-01  0.88975747351E+00  0.88000000000E+00 0.  1.
        -11    1    4    4    0    0  0.74018637907E-01  0.11607587570E-01 -0.30347651884E-01  0.80837713616E-01  0.51100000000E-03 0.  1.
         11    1    4    4    0    0  0.48645201799E-01 -0.65269717351E-02 -0.77537778921E-02  0.49692446214E-01  0.51100000000E-03 0. -1.
</event>
<event>
 8    1  0.1180500E+005  0.1043930E+01  0.7957747E-01            NaN
         13   -1    0    0    0    0  0.00000000000E+00  0.00000000000E+00  0.74505805969E-08  0.10566000000E+00  0.10566000000E+00 0. -1.
     999900   -1    0    0    0    0 -0.00000000000E+00 -0.00000000000E+00 -0.74505805969E-08  0.93827000000E+00  0.93827000000E+00 0.  1.
     999902    2    1    2    0    0 -0.21838984777E-01 -0.31523146506E-02 -0.83949292198E-02  0.10203216714E+01  0.10200485086E+01 0.  0.
     999903    2    3    3    0    0  0.11384702589E+00 -0.43634749693E-02 -0.56318069165E-01  0.12863294332E+00  0.19862627593E-01 0.  0.
         14    1    1    2    0    0  0.21838984777E-01  0.31523146506E-02  0.83949292198E-02  0.23608328623E-01  0.00000000000E+00 0. -1.
     999901    1    3    3    0    0 -0.13568601067E+00  0.12111603186E-02  0.47923139946E-01  0.89168872806E+00  0.88000000000E+00 0. -1.
        -11    1    4    4    0    0  0.62027137209E-01 -0.10363465848E-01 -0.24287477110E-01  0.67415946482E-01  0.51100000000E-03 0.  1.
         11    1    4    4    0    0  0.51819888682E-01  0.59999908785E-02 -0.32030592055E-01  0.61216996839E-01  0.51100000000E-03 0. -1.
</event>
<event>
 8    1  0.1180500E+005  0.1043930E+01  0.7957747E-01            NaN
         13   -1    0    0    0    0  0.00000000000E+00  0.00000000000E+00  0.74505805969E-08  0.10566000000E+00  0.10566000000E+00 0.  1.
     999900   -1    0    0    0    0 -0.00000000000E+00 -0.00000000000E+00 -0.74505805969E-08  0.93827000000E+00  0.93827000000E+00 0. -1.
     999902    2    1    2    0    0  0.30128043964E-02 -0.72205390626E-02  0.22533845239E-01  0.10200765442E+01  0.10197976116E+01 0.  0.
     999903    2    3    3    0    0  0.12544978636E+00  0.24545304500E-01  0.21180299156E-01  0.13103114854E+00  0.19504767199E-01 0.  0.
         14    1    1    2    0    0 -0.30128043964E-02  0.72205390626E-02 -0.22533845239E-01  0.23853455849E-01  0.00000000000E+00 0. -1.
     999901    1    3    3    0    0 -0.12243698197E+00 -0.31765843562E-01  0.13535460835E-02  0.88904539561E+00  0.88000000000E+00 0.  1.
        -11    1    4    4    0    0  0.15637709393E-01  0.81813247179E-03 -0.33862686383E-02  0.16029199360E-01  0.51100000000E-03 0. -1.
         11    1    4    4    0    0  0.10981207697E+00  0.23727172028E-01  0.24566567794E-01  0.11500194918E+00  0.51100000000E-03 0.  1.
</event>
<event>
 8    1  0.1180500E+005  0.1043930E+01  0.7957747E-01            NaN
         13   -1    0    0    0    0  0.00000000000E+00  0.00000000000E+00  0.74505805969E-08  0.10566000000E+00  0.10566000000E+00 0.  1.
     999900   -1    0    0    0    0 -0.00000000000E+00 -0.00000000000E+00 -0.74505805969E-08  0.93827000000E+00  0.93827000000E+00 0.  1.
     999902    2    1    2    0    0  0.12906681869E-01 -0.17989416304E-01 -0.88813462840E-02  0.10200746055E+01  0.10197956270E+01 0.  0.
     999903    2    3    3    0    0  0.99119439442E-01 -0.66939168886E-01 -0.55372507272E-01  0.13328819044E+00  0.19852242786E-01 0.  0.
         14    1    1    2    0    0 -0.12906681869E-01  0.17989416304E-01  0.88813462840E-02  0.23855394518E-01  0.00000000000E+00 0.  1.
     999901    1    3    3    0    0 -0.86212757573E-01  0.48949752582E-01  0.46491160988E-01  0.88678641504E+00  0.88000000000E+00 0.  1.
        -11    1    4    4    0    0  0.76269926909E-01 -0.50379652105E-01 -0.32684571344E-01  0.97076018778E-01  0.51100000000E-03 0.  1.
         11    1    4    4    0    0  0.22849512533E-01 -0.16559516781E-01 -0.22687935928E-01  0.36212171665E-01  0.51100000000E-03 0. -1.
</event>
<event>
 8    1  0.1180500E+005  0.1043930E+01  0.7957747E-01            NaN
         13   -1    0    0    0    0  0.00000000000E+00  0.00000000000E+00  0.74505805969E-08  0.10566000000E+00  0.10566000000E+00 0. -1.
     999900   -1    0    0    0    0 -0.00000000000E+00 -0.00000000000E+00 -0.74505805969E-08  0.93827000000E+00  0.93827000000E+00 0.  1.
     999902    2    1    2    0    0  0.18696196381E-01 -0.11816686511E-01  0.48924995059E-02  0.10212778833E+01  0.10210266385E+01 0.  0.
     999903    2    3    3    0    0 -0.13635805047E-01  0.12538527534E+00  0.24071741052E-01  0.12985341654E+00  0.19366430149E-01 0.  0.
         14    1    1    2    0    0 -0.18696196381E-01  0.11816686511E-01 -0.48924995059E-02  0.22652116692E-01  0.00000000000E+00 0.  1.
     999901    1    3    3    0    0  0.32332001427E-01 -0.13720196185E+00 -0.19179241546E-01  0.89142446677E+00  0.88000000000E+00 0. -1.
        -11    1    4    4    0    0  0.35981181052E-02  0.65167589391E-02  0.76581498951E-03  0.75008129271E-02  0.51100000000E-03 0.  1.
         11    1    4    4    0    0 -0.17233923152E-01  0.11886851640E+00  0.23305926063E-01  0.12235260361E+00  0.51100000000E-03 0. -1.
</event>
<event>
 8    1  0.1180500E+005  0.1043930E+01  0.7957747E-01            NaN
         13   -1    0    0    0    0  0.00000000000E+00  0.00000000000E+00  0.74505805969E-08  0.10566000000E+00  0.10566000000E+00 0. -1.
     999900   -1    0    0    0    0 -0.00000000000E+00 -0.00000000000E+00 -0.74505805969E-08  0.93827000000E+00  0.93827000000E+00 0.  1.
     999902    2    1    2    0    0  0.21369240393E-01 -0.27226769639E-02  0.32607394293E-02  0.10221426223E+01  0.10219103926E+01 0.  0.
     999903    2    3    3    0    0  0.30744603572E-01  0.11206100016E+00  0.61201178234E-01  0.13274941095E+00  0.19337101285E-01 0.  0.
         14    1    1    2    0    0 -0.21369240393E-01  0.27226769639E-02 -0.32607394293E-02  0.21787377686E-01  0.00000000000E+00 0. -1.
     999901    1    3    3    0    0 -0.93753631798E-02 -0.11478367712E+00 -0.57940438805E-01  0.88939321136E+00  0.88000000000E+00 0.  1.
        -11    1    4    4    0    0  0.10494099321E-01  0.29456622278E-01  0.74936401965E-02  0.32159516181E-01  0.51100000000E-03 0.  1.
         11    1    4    4    0    0  0.20250504251E-01  0.82604377878E-01  0.53707538038E-01  0.10058989477E+00  0.51100000000E-03 0. -1.
</event>
<event>
 8    1  0.1180500E+005  0.1043930E+01  0.7957747E-01            NaN
         13   -1    0    0    0    0  0.00000000000E+00  0.00000000000E+00  0.74505805969E-08  0.10566000000E+00  0.10566000000E+00 0.  1.
     999900   -1    0    0    0    0 -0.00000000000E+00 -0.00000000000E+00 -0.74505805969E-08  0.93827000000E+00  0.93827000000E+00 0.  1.
     999902    2    1    2    0    0 -0.93964029943E-02 -0.12290579320E-01 -0.17926058416E-01  0.10202510157E+01  0.10199761961E+01 0.  0.
     999903    2    3    3    0    0 -0.63177129150E-01  0.11145556122E+00  0.17438931881E-02  0.12974981925E+00  0.20451959763E-01 0.  0.
         14    1    1    2    0    0  0.93964029943E-02  0.12290579320E-01  0.17926058416E-01  0.23678984345E-01  0.00000000000E+00 0.  1.
     999901    1    3    3    0    0  0.53780726156E-01 -0.12374614054E+00 -0.19669951605E-01  0.89050119641E+00  0.88000000000E+00 0. -1.
        -11    1    4    4    0    0 -0.19071831238E-01  0.51058234971E-01 -0.45540630271E-02  0.54696240420E-01  0.51100000000E-03 0.  1.
         11    1    4    4    0    0 -0.44105297912E-01  0.60397326246E-01  0.62979562153E-02  0.75053578829E-01  0.51100000000E-03 0. -1.
</event>
<event>
 8    1  0.1180500E+005  0.1043930E+01  0.7957747E-01            NaN
         13   -1    0    0    0    0  0.00000000000E+00  0.00000000000E+00  0.74505805969E-08  0.10566000000E+00  0.10566000000E+00 0.  1.
     999900   -1    0    0    0    0 -0.00000000000E+00 -0.00000000000E+00 -0.74505805969E-08  0.93827000000E+00  0.93827000000E+00 0. -1.
     999902    2    1    2    0    0  0.19700728476E-01 -0.11285959488E-01 -0.12163648225E-01  0.10181725560E+01  0.10178467015E+01 0.  0.
     999903    2    3    3    0    0  0.89560739214E-01 -0.82153014966E-01  0.43867401186E-01  0.13079324636E+00  0.20304692316E-01 0.  0.
         14    1    1    2    0    0 -0.19700728476E-01  0.11285959488E-01  0.12163648225E-01  0.25757444015E-01  0.00000000000E+00 0. -1.
     999901    1    3    3    0    0 -0.69860010738E-01  0.70867055478E-01 -0.56031049411E-01  0.88737930963E+00  0.88000000000E+00 0. -1.
        -11    1    4    4    0    0  0.39002730211E-01 -0.49329427576E-01  0.20554450160E-01  0.66161559316E-01  0.51100000000E-03 0.  1.
         11    1    4    4    0    0  0.50558009003E-01 -0.32823587390E-01  0.23312951026E-01  0.64631687043E-01  0.51100000000E-03 0. -1.
</event>
<event>
 7    1  0.1180500E+005  0.1043930E+01  0.7957747E-01            NaN
         13   -1    0    0    0    0  0.00000000000E+00  0.00000000000E+00  0.74505805969E-08  0.10566000000E+00  0.10566000000E+00 0.  1.
     999900   -1    0    0    0    0 -0.00000000000E+00 -0.00000000000E+00 -0.74505805969E-08  0.93827000000E+00  0.93827000000E+00 0.  1.
     999902    2    1    2    0    0  0.19329452836E-01  0.13959227463E-01  0.11085618856E-02  0.10200612613E+01  0.10197819669E+01 0.  0.
         14    1    1    2    0    0 -0.19329452836E-01 -0.13959227463E-01 -0.11085618856E-02  0.23868738713E-01  0.00000000000E+00 0.  1.
     999901    1    3    3    0    0  0.94564751788E-01  0.70074724132E-02 -0.97016440386E-01  0.89039529797E+00  0.88000000000E+00 0.  1.
        -11    1    3    3    0    0 -0.55426779050E-01  0.49205041524E-02  0.40864734599E-01  0.69040038035E-01  0.51100000000E-03 0. -1.
         11    1    3    3    0    0 -0.19808519901E-01  0.20312508973E-02  0.57260267672E-01  0.60625925277E-01  0.51100000000E-03 0.  1.
</event>
<event>
 8    1  0.1180500E+005  0.1043930E+01  0.7957747E-01            NaN
         13   -1    0    0    0    0  0.00000000000E+00  0.00000000000E+00  0.74505805969E-08  0.10566000000E+00  0.10566000000E+00 0. -1.
     999900   -1    0    0    0    0 -0.00000000000E+00 -0.00000000000E+00 -0.74505805969E-08  0.93827000000E+00  0.93827000000E+00 0. -1.
     999902    2    1    2    0    0 -0.30345732442E-02 -0.18135844213E-01 -0.16938759107E-01  0.10189292192E+01  0.10186224594E+01 0.  0.
     999903    2    3    3    0    0  0.59118362925E-01 -0.75000272148E-01 -0.88879153146E-01  0.13198391597E+00  0.20005713037E-01 0.  0.
         14    1    1    2    0    0  0.30345732442E-02  0.18135844213E-01  0.16938759107E-01  0.25000780792E-01  0.00000000000E+00 0. -1.
     999901    1    3    3    0    0 -0.62152936170E-01  0.56864427934E-01  0.71940394039E-01  0.88694530324E+00  0.88000000000E+00 0.  1.
        -11    1    4    4    0    0  0.29452671174E-01 -0.21805344310E-01 -0.32377907770E-01  0.48903199408E-01  0.51100000000E-03 0. -1.
         11    1    4    4    0    0  0.29665691751E-01 -0.53194927838E-01 -0.56501245376E-01  0.83080716564E-01  0.51100000000E-03 0.  1.
</event>
<event>
 8    1  0.1180500E+005  0.1043930E+01  0.7957747E-01            NaN
         13   -1    0    0    0    0  0.00000000000E+00  0.00000000000E+00  0.74505805969E-08  0.10566000000E+00  0.10566000000E+00 0. -1.
     999900   -1    0    0    0    0 -0.00000000000E+00 -0.00000000000E+00 -0.74505805969E-08  0.93827000000E+00  0.93827000000E+00 0. -1.
     999902    2    1    2    0    0  0.96456830031E-02  0.15493066502E-01 -0.88763760924E-02  0.10236355583E+01  0.10234343613E+01 0.  0.
     999903    2    3    3    0    0  0.57455121251E-01 -0.11672657334E+00 -0.14514343912E-01  0.13245680958E+00  0.20197929162E-01 0.  0.
         14    1    1    2    0    0 -0.96456830031E-02 -0.15493066502E-01  0.88763760924E-02  0.20294441672E-01  0.00000000000E+00 0. -1.
     999901    1    3    3    0    0 -0.47809438248E-01  0.13221963984E+00  0.56379678193E-02  0.89117874875E+00  0.88000000000E+00 0.  1.
        -11    1    4    4    0    0  0.15397315239E-01 -0.48007129148E-01  0.89661941194E-03  0.50426449538E-01  0.51100000000E-03 0.  1.
         11    1    4    4    0    0  0.42057806012E-01 -0.68719444192E-01 -0.15410963324E-01  0.82030360039E-01  0.51100000000E-03 0. -1.
</event>
<event>
 8    1  0.1180500E+005  0.1043930E+01  0.7957747E-01            NaN
         13   -1    0    0    0    0  0.00000000000E+00  0.00000000000E+00  0.74505805969E-08  0.10566000000E+00  0.10566000000E+00 0. -1.
     999900   -1    0    0    0    0 -0.00000000000E+00 -0.00000000000E+00 -0.74505805969E-08  0.93827000000E+00  0.93827000000E+00 0.  1.
     999902    2    1    2    0    0  0.10970408145E-01  0.21061135476E-01  0.19469364732E-04  0.10201829652E+01  0.10199065451E+01 0.  0.
     999903    2    3    3    0    0  0.46058296393E-01 -0.42506619580E-01  0.11326033460E+00  0.12996079465E+00  0.11563969017E-01 0.  0.
         14    1    1    2    0    0 -0.10970408145E-01 -0.21061135476E-01 -0.19469364732E-04  0.23747034794E-01  0.00000000000E+00 0.  1.
     999901    1    3    3    0    0 -0.35087888247E-01  0.63567755056E-01 -0.11324086523E+00  0.89022217055E+00  0.88000000000E+00 0.  1.
        -11    1    4    4    0    0  0.38157357800E-01 -0.36104204366E-01  0.85018511116E-01  0.99939511109E-01  0.51100000000E-03 0. -1.
         11    1    4    4    0    0  0.79009385927E-02 -0.64024152138E-02  0.28241823480E-01  0.30021283545E-01  0.51100000000E-03 0.  1.
</event>
<event>
 8    1  0.1180500E+005  0.1043930E+01  0.7957747E-01            NaN
         13   -1    0    0    0    0  0.00000000000E+00  0.00000000000E+00  0.74505805969E-08  0.10566000000E+00  0.10566000000E+00 0. -1.
     999900   -1    0    0    0    0 -0.00000000000E+00 -0.00000000000E+00 -0.74505805969E-08  0.93827000000E+00  0.93827000000E+00 0. -1.
     999902    2    1    2    0    0 -0.15072479312E-01  0.16953032385E-01  0.66871081981E-02  0.10202804259E+01  0.10200062966E+01 0.  0.
     999903    2    3    3    0    0 -0.11360952005E+00  0.20628064035E-02  0.65462262218E-01  0.13270745088E+00  0.20361275235E-01 0.  0.
         14    1    1    2    0    0  0.15072479312E-01 -0.16953032385E-01 -0.66871081981E-02  0.23649574113E-01  0.00000000000E+00 0. -1.
     999901    1    3    3    0    0  0.98537040737E-01  0.14890225981E-01 -0.58775154020E-01  0.88757297500E+00  0.88000000000E+00 0. -1.
        -11    1    4    4    0    0 -0.55580213651E-01  0.91797604205E-02  0.25174350644E-01  0.61704434219E-01  0.51100000000E-03 0. -1.
         11    1    4    4    0    0 -0.58029306398E-01 -0.71169540170E-02  0.40287911574E-01  0.71003016665E-01  0.51100000000E-03 0.  1.
</event>
<event>
 8    1  0.1180500E+005  0.1043930E+01  0.7957747E-01            NaN
         13   -1    0    0    0    0  0.00000000000E+00  0.00000000000E+00  0.74505805969E-08  0.10566000000E+00  0.10566000000E+00 0.  1.
     999900   -1    0    0    0    0 -0.00000000000E+00 -0.00000000000E+00 -0.74505805969E-08  0.93827000000E+00  0.93827000000E+00 0. -1.
     999902    2    1    2    0    0 -0.21340454722E-01  0.66797946571E-02 -0.61894502047E-02  0.10207277596E+01  0.10204640196E+01 0.  0.
     999903    2    3    3    0    0 -0.96476162873E-01  0.21287173952E-01 -0.87747324099E-01  0.13364803550E+00  0.20035237167E-01 0.  0.
         14    1    1    2    0    0  0.21340454722E-01 -0.66797946571E-02  0.61894502047E-02  0.23202240371E-01  0.00000000000E+00 0.  1.
     999901    1    3    3    0    0  0.75135708151E-01 -0.14607379295E-01  0.81557873895E-01  0.88707972413E+00  0.88000000000E+00 0. -1.
        -11    1    4    4    0    0 -0.16494656107E-01  0.43313669212E-02 -0.26390725595E-01  0.31425561856E-01  0.51100000000E-03 0.  1.
         11    1    4    4    0    0 -0.79981506765E-01  0.16955807031E-01 -0.61356598504E-01  0.10222247364E+00  0.51100000000E-03 0. -1.
</event>
<event>
 8    1  0.1180500E+005  0.1043930E+01  0.7957747E-01            NaN
         13   -1    0    0    0    0  0.00000000000E+00  0.00000000000E+00  0.74505805969E-08  0.10566000000E+00  0.10566000000E+00 0. -1.
     999900   -1    0    0    0    0 -0.00000000000E+00 -0.00000000000E+00 -0.74505805969E-08  0.93827000000E+00  0.93827000000E+00 0.  1.
     999902    2    1    2    0    0 -0.14981735983E-01 -0.11923450577E-01 -0.13660244669E-01  0.10204092991E+01  0.10201381839E+01 0.  0.
     999903    2    3    3    0    0 -0.38254533485E-01  0.73263849307E-01  0.97080139936E-01  0.12908335874E+00  0.20173224482E-01 0.  0.
         14    1    1    2    0    0  0.14981735983E-01  0.11923450577E-01  0.13660244669E-01  0.23520700907E-01  0.00000000000E+00 0. -1.
     999901    1    3    3    0    0  0.23272797502E-01 -0.85187299884E-01 -0.11074038461E+00  0.89132594035E+00  0.88000000000E+00 0.  1.
        -11    1    4    4    0    0 -0.81482627754E-02  0.31486162947E-01  0.47709107461E-01  0.57742468766E-01  0.51100000000E-03 0. -1.
         11    1    4    4    0    0 -0.30106270710E-01  0.41777686360E-01  0.49371032475E-01  0.71340889974E-01  0.51100000000E-03 0.  1.
</event>
<event>
 8    1  0.1180500E+005  0.1043930E+01  0.7957747E-01            NaN
         13   -1    0    0    0    0  0.00000000000E+00  0.00000000000E+00  0.74505805969E-08  0.10566000000E+00  0.10566000000E+00 0.  1.
     999900   -1    0    0    0    0 -0.00000000000E+00 -0.00000000000E+00 -0.74505805969E-08  0.93827000000E+00  0.93827000000E+00 0. -1.
     999902    2    1    2    0    0 -0.18479183465E-01 -0.11661628996E-01  0.98793185991E-02  0.10199492838E+01  0.10196673314E+01 0.  0.
     999903    2    3    3    0    0 -0.19105288303E-01  0.11059896346E+00  0.62386935423E-01  0.12994642186E+00  0.19919841463E-01 0.  0.
         14    1    1    2    0    0  0.18479183465E-01  0.11661628996E-01 -0.98793185991E-02  0.23980716177E-01  0.00000000000E+00 0. -1.
     999901    1    3    3    0    0  0.62610483774E-03 -0.12226059246E+00 -0.52507616824E-01  0.89000286196E+00  0.88000000000E+00 0. -1.
        -11    1    4    4    0    0 -0.31708987690E-02  0.53356603651E-01  0.38636648157E-01  0.65954783405E-01  0.51100000000E-03 0.  1.
         11    1    4    4    0    0 -0.15934389534E-01  0.57242359809E-01  0.23750287266E-01  0.63991638458E-01  0.51100000000E-03 0. -1.
</event>
<event>
 7    1  0.1180500E+005  0.1043930E+01  0.7957747E-01            NaN
         13   -1    0    0    0    0  0.00000000000E+00  0.00000000000E+00  0.74505805969E-08  0.10566000000E+00  0.10566000000E+00 0.  1.
     999900   -1    0    0    0    0 -0.00000000000E+00 -0.00000000000E+00 -0.74505805969E-08  0.93827000000E+00  0.93827000000E+00 0.  1.
     999903    2    1    2    0    0 -0.84812009681E-01  0.35948437389E-01  0.73939494149E-01  0.12012151654E+00  0.21834898783E-01 0.  0.
         14    1    1    2    0    0  0.26017553084E-01  0.14184473450E-01 -0.25502599804E-01  0.39095971050E-01  0.00000000000E+00 0.  1.
     999901    1    1    2    0    0  0.58794456597E-01 -0.50132910838E-01 -0.48436894345E-01  0.88471251241E+00  0.88000000000E+00 0.  1.
        -11    1    3    3    0    0 -0.69881951837E-01  0.25995645939E-01  0.48359807974E-01  0.88871778134E-01  0.51100000000E-03 0.  1.
         11    1    3    3    0    0 -0.14930057844E-01  0.99527914497E-02  0.25579686175E-01  0.31249738410E-01  0.51100000000E-03 0. -1.
</event>
<event>
 8    1  0.1180500E+005  0.1043930E+01  0.7957747E-01            NaN
         13   -1    0    0    0    0  0.00000000000E+00  0.00000000000E+00  0.74505805969E-08  0.10566000000E+00  0.10566000000E+00 0. -1.
     999900   -1    0    0    0    0 -0.00000000000E+00 -0.00000000000E+00 -0.74505805969E-08  0.93827000000E+00  0.93827000000E+00 0.  1.
     999902    2    1    2    0    0  0.10858979348E-01 -0.20156059090E-01 -0.78887235615E-03  0.10210213451E+01  0.10207643120E+01 0.  0.
     999903    2    3    3    0    0  0.89304128455E-01  0.65864883592E-01  0.66251802085E-01  0.13082603167E+00  0.20315979736E-01 0.  0.
         14    1    1    2    0    0 -0.10858979348E-01  0.20156059090E-01  0.78887235615E-03  0.22908654917E-01  0.00000000000E+00 0. -1.
     999901    1    3    3    0    0 -0.78445149107E-01 -0.86020942681E-01 -0.67040674441E-01  0.89019531342E+00  0.88000000000E+00 0. -1.
        -11    1    4    4    0    0  0.50141982435E-01  0.24524862621E-01  0.34597127655E-01  0.65672746646E-01  0.51100000000E-03 0. -1.
         11    1    4    4    0    0  0.39162146020E-01  0.41340020971E-01  0.31654674430E-01  0.65153285021E-01  0.51100000000E-03 0.  1.
</event>
<event>
 8    1  0.1180500E+005  0.1043930E+01  0.7957747E-01            NaN
         13   -1    0    0    0    0  0.00000000000E+00  0.00000000000E+00  0.74505805969E-08  0.10566000000E+00  0.10566000000E+00 0.  1.
     999900   -1    0    0    0    0 -0.00000000000E+00 -0.00000000000E+00 -0.74505805969E-08  0.93827000000E+00  0.93827000000E+00 0.  1.
     999902    2    1    2    0    0  0.22474650084E-01 -0.17628410760E-01 -0.24803993878E-02  0.10152590540E+01  0.10148541391E+01 0.  0.
     999903    2    3    3    0    0  0.57602212135E-01 -0.10054198661E+00 -0.53605713090E-01  0.12918772259E+00  0.19727880728E-01 0.  0.
         14    1    1    2    0    0 -0.22474650084E-01  0.17628410760E-01  0.24803993878E-02  0.28670945981E-01  0.00000000000E+00 0. -1.
     999901    1    3    3    0    0 -0.35127562051E-01  0.82913575851E-01  0.51125313702E-01  0.88607133143E+00  0.88000000000E+00 0. -1.
        -11    1    4    4    0    0  0.11494840741E-02 -0.17251458554E-02  0.16289443673E-02  0.26855209198E-02  0.51100000000E-03 0.  1.
         11    1    4    4    0    0  0.56452728061E-01 -0.98816840755E-01 -0.55234657457E-01  0.12650220167E+00  0.51100000000E-03 0. -1.
</event>
<event>
 8    1  0.1180500E+005  0.1043930E+01  0.7957747E-01            NaN
         13   -1    0    0    0    0  0.00000000000E+00  0.00000000000E+00  0.74505805969E-08  0.10566000000E+00  0.10566000000E+00 0. -1.
     999900   -1    0    0    0    0 -0.00000000000E+00 -0.00000000000E+00 -0.74505805969E-08  0.93827000000E+00  0.93827000000E+00 0. -1.
     999902    2    1    2    0    0 -0.17021635811E-01  0.15373248459E-01 -0.66271193472E-02  0.10200555039E+01  0.10197760732E+01 0.  0.
     999903    2    3    3    0    0 -0.91594507232E-01 -0.67727138754E-01  0.60258718578E-01  0.13048229002E+00  0.20444944761E-01 0.  0.
         14    1    1    2    0    0  0.17021635811E-01 -0.15373248459E-01  0.66271193472E-02  0.23874496114E-01  0.00000000000E+00 0.  1.
     999901    1    3    3    0    0  0.74572871421E-01  0.83100387213E-01 -0.66885837925E-01  0.88957321386E+00  0.88000000000E+00 0. -1.
        -11    1    4    4    0    0 -0.47250029524E-01 -0.45411691878E-01  0.27939144443E-01  0.71243553831E-01  0.51100000000E-03 0.  1.
         11    1    4    4    0    0 -0.44344477708E-01 -0.22315446877E-01  0.32319574134E-01  0.59238736193E-01  0.51100000000E-03 0. -1.
</event>
<event>
 8    1  0.1180500E+005  0.1043930E+01  0.7957747E-01            NaN
         13   -1    0    0    0    0  0.00000000000E+00  0.00000000000E+00  0.74505805969E-08  0.10566000000E+00  0.10566000000E+00 0. -1.
     999900   -1    0    0    0    0 -0.00000000000E+00 -0.00000000000E+00 -0.74505805969E-08  0.93827000000E+00  0.93827000000E+00 0.  1.
     999902    2    1    2    0    0 -0.15157872832E-01 -0.92244704212E-02  0.13051765738E-01  0.10219027316E+01  0.10216653035E+01 0.  0.
     999903    2    3    3    0    0  0.11536915285E+00 -0.39478899697E-01  0.44258654292E-01  0.13121395050E+00  0.19739487723E-01 0.  0.
         14    1    1    2    0    0  0.15157872832E-01  0.92244704212E-02 -0.13051765738E-01  0.22027268379E-01  0.00000000000E+00 0.  1.
     999901    1    3    3    0    0 -0.13052702568E+00  0.30254429276E-01 -0.31206888554E-01  0.89068878112E+00  0.88000000000E+00 0. -1.
        -11    1    4    4    0    0  0.78912135875E-01 -0.24245664573E-01  0.20337998389E-01  0.85022777762E-01  0.51100000000E-03 0. -1.
         11    1    4    4    0    0  0.36457016973E-01 -0.15233235124E-01  0.23920655904E-01  0.46191172737E-01  0.51100000000E-03 0.  1.
</event>
<event>
 8    1  0.1180500E+005  0.1043930E+01  0.7957747E-01            NaN
         13   -1    0    0    0    0  0.00000000000E+00  0.00000000000E+00  0.74505805969E-08  0.10566000000E+00  0.10566000000E+00 0. -1.
     999900   -1    0    0    0    0 -0.00000000000E+00 -0.00000000000E+00 -0.74505805969E-08  0.93827000000E+00  0.93827000000E+00 0. -1.
     999902    2    1    2    0    0 -0.13892232892E-01 -0.14047298285E-02  0.18949788129E-01  0.10203914811E+01  0.10201199502E+01 0.  0.
     999903    2    3    3    0    0 -0.70229709665E-01  0.29814701260E-01 -0.10281744142E+00  0.12967501538E+00  0.20568296508E-01 0.  0.
         14    1    1    2    0    0  0.13892232892E-01  0.14047298285E-02 -0.18949788129E-01  0.23538518874E-01  0.00000000000E+00 0.  1.
     999901    1    3    3    0    0  0.56337476773E-01 -0.31219431088E-01  0.12176722955E+00  0.89071646575E+00  0.88000000000E+00 0.  1.
        -11    1    4    4    0    0 -0.38392055477E-01  0.18444206364E-01 -0.40500622466E-01  0.58776697876E-01  0.51100000000E-03 0. -1.
         11    1    4    4    0    0 -0.31837654188E-01  0.11370494896E-01 -0.62316818957E-01  0.70898317500E-01  0.51100000000E-03 0.  1.
</event>
<event>
 8    1  0.1180500E+005  0.1043930E+01  0.7957747E-01            NaN
         13   -1    0    0    0    0  0.00000000000E+00  0.00000000000E+00  0.74505805969E-08  0.10566000000E+00  0.10566000000E+00 0. -1.
     999900   -1    0    0    0    0 -0.00000000000E+00 -0.00000000000E+00 -0.74505805969E-08  0.93827000000E+00  0.93827000000E+00 0.  1.
     999902    2    1    2    0    0 -0.39388334352E-02 -0.14069204079E-01  0.18700814031E-01  0.10201986419E+01  0.10199225910E+01 0.  0.
     999903    2    3    3    0    0  0.42614184270E-01 -0.11962655847E+00  0.33938205507E-01  0.13253783019E+00  0.16970340259E-01 0.  0.
         14    1    1    2    0    0  0.39388334352E-02  0.14069204079E-01 -0.18700814031E-01  0.23731358109E-01  0.00000000000E+00 0.  1.
     999901    1    3    3    0    0 -0.46553017705E-01  0.10555735439E+00 -0.15237391476E-01  0.88766081170E+00  0.88000000000E+00 0.  1.
        -11    1    4    4    0    0  0.31013299075E-01 -0.61912224523E-01  0.18139748458E-01  0.71583935768E-01  0.51100000000E-03 0. -1.
         11    1    4    4    0    0  0.11600885195E-01 -0.57714333942E-01  0.15798457050E-01  0.60953894427E-01  0.51100000000E-03 0.  1.
</event>
<event>
 8    1  0.1180500E+005  0.1043930E+01  0.7957747E-01            NaN
         13   -1    0    0    0    0  0.00000000000E+00  0.00000000000E+00  0.74505805969E-08  0.10566000000E+00  0.10566000000E+00 0. -1.
     999900   -1    0    0    0    0 -0.00000000000E+00 -0.00000000000E+00 -0.74505805969E-08  0.93827000000E+00  0.93827000000E+00 0. -1.
     999902    2    1    2    0    0  0.75689754243E-03 -0.20286129238E-01 -0.31290296988E-02  0.10233900204E+01  0.10231838755E+01 0.  0.
     999903    2    3    3    0    0  0.73289773173E-01  0.21528925999E-01 -0.10714831550E+00  0.13331725448E+00  0.21397273674E-01 0.  0.
         14    1    1    2    0    0 -0.75689754243E-03  0.20286129238E-01  0.31290296988E-02  0.20539979557E-01  0.00000000000E+00 0. -1.
     999901    1    3    3    0    0 -0.72532875630E-01 -0.41815055237E-01  0.10401928580E+00  0.89007276596E+00  0.88000000000E+00 0.  1.
        -11    1    4    4    0    0  0.52076009314E-01  0.52759673664E-02 -0.65788904768E-01  0.84072514470E-01  0.51100000000E-03 0.  1.
         11    1    4    4    0    0  0.21213763859E-01  0.16252958632E-01 -0.41359410733E-01  0.49244740009E-01  0.51100000000E-03 0. -1.
</event>
<event>
 8    1  0.1180500E+005  0.1043930E+01  0.7957747E-01            NaN
         13   -1    0    0    0    0  0.00000000000E+00  0.00000000000E+00  0.74505805969E-08  0.10566000000E+00  0.10566000000E+00 0. -1.
     999900   -1    0    0    0    0 -0.00000000000E+00 -0.00000000000E+00 -0.74505805969E-08  0.93827000000E+00  0.93827000000E+00 0. -1.
     999902    2    1    2    0    0  0.14196069362E-01  0.19568822174E-02 -0.18349634153E-01  0.10206476709E+01  0.10203820860E+01 0.  0.
     999903    2    3    3    0    0  0.84979461423E-01 -0.83335968976E-01  0.50396816401E-01  0.13103470254E+00  0.21537445967E-01 0.  0.
         14    1    1    2    0    0 -0.14196069362E-01 -0.19568822174E-02  0.18349634153E-01  0.23282329069E-01  0.00000000000E+00 0. -1.
     999901    1    3    3    0    0 -0.70783392061E-01  0.85292851193E-01 -0.68746450554E-01  0.88961296839E+00  0.88000000000E+00 0. -1.
        -11    1    4    4    0    0  0.63512769211E-01 -0.50357868250E-01  0.39689566063E-01  0.90251368537E-01  0.51100000000E-03 0. -1.
         11    1    4    4    0    0  0.21466692212E-01 -0.32978100725E-01  0.10707250338E-01  0.40783334007E-01  0.51100000000E-03 0.  1.
</event>
<event>
 8    1  0.1180500E+005  0.1043930E+01  0.7957747E-01            NaN
         13   -1    0    0    0    0  0.00000000000E+00  0.00000000000E+00  0.74505805969E-08  0.10566000000E+00  0.10566000000E+00 0. -1.
     999900   -1    0    0    0    0 -0.00000000000E+00 -0.00000000000E+00 -0.74505805969E-08  0.93827000000E+00  0.93827000000E+00 0.  1.
     999902    2    1    2    0    0 -0.76674322046E-02 -0.12064566768E-01 -0.16475082261E-01  0.10221178102E+01  0.10218850456E+01 0.  0.
     999903    2    3    3    0    0  0.91737891457E-01  0.20537421291E-01  0.87112760403E-01  0.12988759936E+00  0.21083857362E-01 0.  0.
         14    1    1    2    0    0  0.76674322046E-02  0.12064566768E-01  0.16475082261E-01  0.21812189790E-01  0.00000000000E+00 0. -1.
     999901    1    3    3    0    0 -0.99405323662E-01 -0.32601988059E-01 -0.10358784266E+00  0.89223021085E+00  0.88000000000E+00 0.  1.
        -11    1    4    4    0    0  0.24678521527E-01  0.10833544639E-01  0.14652832922E-01  0.30681619055E-01  0.51100000000E-03 0. -1.
         11    1    4    4    0    0  0.67059369930E-01  0.97038766519E-02  0.72459927482E-01  0.99205980309E-01  0.51100000000E-03 0.  1.
</event>
<event>
 8    1  0.1180500E+005  0.1043930E+01  0.7957747E-01            NaN
         13   -1    0    0    0    0  0.00000000000E+00  0.00000000000E+00  0.74505805969E-08  0.10566000000E+00  0.10566000000E+00 0.  1.
     999900   -1    0    0    0    0 -0.00000000000E+00 -0.00000000000E+00 -0.74505805969E-08  0.93827000000E+00  0.93827000000E+00 0. -1.
     999902    2    1    2    0    0 -0.15598223094E-01 -0.88834365311E-02 -0.15390820764E-01  0.10202847601E+01  0.10200107324E+01 0.  0.
     999903    2    3    3    0    0 -0.64202311427E-01 -0.11391846037E+00  0.89099102320E-02  0.13237415692E+00  0.18552048804E-01 0.  0.
         14    1    1    2    0    0  0.15598223094E-01  0.88834365311E-02  0.15390820764E-01  0.23645239946E-01  0.00000000000E+00 0.  1.
     999901    1    3    3    0    0  0.48604088333E-01  0.10503502383E+00 -0.24300730996E-01  0.88791060314E+00  0.88000000000E+00 0.  1.
        -11    1    4    4    0    0 -0.41298030743E-01 -0.61296444535E-01 -0.20655360104E-02  0.73941253816E-01  0.51100000000E-03 0. -1.
         11    1    4    4    0    0 -0.22904280684E-01 -0.52622015831E-01  0.10975446242E-01  0.58432903103E-01  0.51100000000E-03 0.  1.
</event>
<event>
 8    1  0.1180500E+005  0.1043930E+01  0.7957747E-01            NaN
         13   -1    0    0    0    0  0.00000000000E+00  0.00000000000E+00  0.74505805969E-08  0.10566000000E+00  0.10566000000E+00 0.  1.
     999900   -1    0    0    0    0 -0.00000000000E+00 -0.00000000000E+00 -0.74505805969E-08  0.93827000000E+00  0.93827000000E+00 0. -1.
     999902    2    1    2    0    0 -0.13634432327E-01  0.14984759888E-01 -0.11000609823E-01  0.10208767098E+01  0.10206163835E+01 0.  0.
     999903    2    3    3    0    0 -0.14746448499E-01 -0.94940073587E-01 -0.86664295375E-01  0.13081508331E+00  0.19256443394E-01 0.  0.
         14    1    1    2    0    0  0.13634432327E-01 -0.14984759888E-01  0.11000609823E-01  0.23053290226E-01  0.00000000000E+00 0.  1.
     999901    1    3    3    0    0  0.11120161720E-02  0.10992483347E+00  0.75663685552E-01  0.89006162647E+00  0.88000000000E+00 0. -1.
        -11    1    4    4    0    0 -0.24513452129E-02 -0.35727374835E-01 -0.44342266986E-01  0.56999580423E-01  0.51100000000E-03 0. -1.
         11    1    4    4    0    0 -0.12295103286E-01 -0.59212698752E-01 -0.42322028389E-01  0.73815502886E-01  0.51100000000E-03 0.  1.
</event>
<event>
 8    1  0.1180500E+005  0.1043930E+01  0.7957747E-01            NaN
         13   -1    0    0    0    0  0.00000000000E+00  0.00000000000E+00  0.74505805969E-08  0.10566000000E+00  0.10566000000E+00 0. -1.
     999900   -1    0    0    0    0 -0.00000000000E+00 -0.00000000000E+00 -0.74505805969E-08  0.93827000000E+00  0.93827000000E+00 0.  1.
     999902    2    1    2    0    0 -0.59085743142E-02  0.30818789054E-01  0.78396863613E-02  0.10115854535E+01  0.10110682271E+01 0.  0.
     999903    2    3    3    0    0  0.10207698340E+00 -0.55119101165E-01 -0.19777331699E-01  0.12040146496E+00  0.25446887094E-01 0.  0.
         14    1    1    2    0    0  0.59085743142E-02 -0.30818789054E-01 -0.78396863613E-02  0.32344546549E-01  0.00000000000E+00 0.  1.
     999901    1    3    3    0    0 -0.10798555772E+00  0.85937890219E-01  0.27617018060E-01  0.89118398849E+00  0.88000000000E+00 0. -1.
        -11    1    4    4    0    0  0.37640225144E-01 -0.33198319379E-01 -0.29006012240E-02  0.50275138657E-01  0.51100000000E-03 0.  1.
         11    1    4    4    0    0  0.64436758257E-01 -0.21920781785E-01 -0.16876730475E-01  0.70126326306E-01  0.51100000000E-03 0. -1.
</event>
<event>
 8    1  0.1180500E+005  0.1043930E+01  0.7957747E-01            NaN
         13   -1    0    0    0    0  0.00000000000E+00  0.00000000000E+00  0.74505805969E-08  0.10566000000E+00  0.10566000000E+00 0. -1.
     999900   -1    0    0    0    0 -0.00000000000E+00 -0.00000000000E+00 -0.74505805969E-08  0.93827000000E+00  0.93827000000E+00 0.  1.
     999902    2    1    2    0    0 -0.33785387786E-02  0.84857751863E-02 -0.22419285867E-01  0.10197215865E+01  0.10194341895E+01 0.  0.
     999903    2    3    3    0    0 -0.10763313811E+00  0.50979561527E-01  0.47543765992E-01  0.12979486369E+00  0.20062124605E-01 0.  0.
         14    1    1    2    0    0  0.33785387786E-02 -0.84857751863E-02  0.22419285867E-01  0.24208413487E-01  0.00000000000E+00 0. -1.
     999901    1    3    3    0    0  0.10425459933E+00 -0.42493786340E-01 -0.69963051859E-01  0.88992672282E+00  0.88000000000E+00 0.  1.
        -11    1    4    4    0    0 -0.41715360436E-01  0.24509972948E-01  0.98502948623E-02  0.49378127750E-01  0.51100000000E-03 0. -1.
         11    1    4    4    0    0 -0.65917777676E-01  0.26469588579E-01  0.37693471130E-01  0.80416735945E-01  0.51100000000E-03 0.  1.
</event>
<event>
 8    1  0.1180500E+005  0.1043930E+01  0.7957747E-01            NaN
         13   -1    0    0    0    0  0.00000000000E+00  0.00000000000E+00  0.74505805969E-08  0.10566000000E+00  0.10566000000E+00 0. -1.
     999900   -1    0    0    0    0 -0.00000000000E+00 -0.00000000000E+00 -0.74505805969E-08  0.93827000000E+00  0.93827000000E+00 0. -1.
     999902    2    1    2    0    0  0.13361393222E-02 -0.10588948648E-01  0.20659292392E-01  0.10206766677E+01  0.10204117514E+01 0.  0.
     999903    2    3    3    0    0  0.11262990426E+00  0.61489911323E-01  0.14392331979E-01  0.13072108510E+00  0.20355793836E-01 0.  0.
         14    1    1    2    0    0 -0.13361393222E-02  0.10588948648E-01 -0.20659292392E-01  0.23253332318E-01  0.00000000000E+00 0.  1.
     999901    1    3    3    0    0 -0.11129376494E+00 -0.72078859971E-01  0.62669604133E-02  0.88995558258E+00  0.88000000000E+00 0. -1.
        -11    1    4    4    0    0  0.65062113678E-01  0.38311383786E-01  0.18197394319E-01  0.77667541772E-01  0.51100000000E-03 0. -1.
         11    1    4    4    0    0  0.47567790582E-01  0.23178527537E-01 -0.38050623404E-02  0.53053543332E-01  0.51100000000E-03 0.  1.
</event>
<event>
 8    1  0.1180500E+005  0.1043930E+01  0.7957747E-01            NaN
         13   -1    0    0    0    0  0.00000000000E+00  0.00000000000E+00  0.74505805969E-08  0.10566000000E+00  0.10566000000E+00 0.  1.
     999900   -1    0    0    0    0 -0.00000000000E+00 -0.00000000000E+00 -0.74505805969E-08  0.93827000000E+00  0.93827000000E+00 0.  1.
     999902    2    1    2    0    0  0.15937951338E-01  0.16383287643E-01 -0.84426991572E-02  0.10195638436E+01  0.10192726434E+01 0.  0.
     999903    2    3    3    0    0 -0.81986994090E-01  0.70336372946E-01 -0.70097237099E-01  0.13034985792E+00  0.20208667718E-01 0.  0.
         14    1    1    2    0    0 -0.15937951338E-01 -0.16383287643E-01  0.84426991572E-02  0.24366156363E-01  0.00000000000E+00 0.  1.
     999901    1    3    3    0    0  0.97924945428E-01 -0.53953085303E-01  0.61654537941E-01  0.88921398572E+00  0.88000000000E+00 0. -1.
        -11    1    4    4    0    0 -0.40162510971E-01  0.47627191058E-01 -0.39700468571E-01  0.73876687401E-01  0.51100000000E-03 0.  1.
         11    1    4    4    0    0 -0.41824483119E-01  0.22709181888E-01 -0.30396768528E-01  0.56473170516E-01  0.51100000000E-03 0. -1.
</event>
<event>
 8    1  0.1180500E+005  0.1043930E+01  0.7957747E-01            NaN
         13   -1    0    0    0    0  0.00000000000E+00  0.00000000000E+00  0.74505805969E-08  0.10566000000E+00  0.10566000000E+00 0. -1.
     999900   -1    0    0    0    0 -0.00000000000E+00 -0.00000000000E+00 -0.74505805969E-08  0.93827000000E+00  0.93827000000E+00 0. -1.
     999902    2    1    2    0    0  0.10470392699E-02  0.65173282667E-02  0.21999992220E-01  0.10209610750E+01  0.10207026722E+01 0.  0.
     999903    2    3    3    0    0  0.94405770412E-01  0.63787399331E-01 -0.59738504792E-01  0.13041242633E+00  0.21387617571E-01 0.  0.
         14    1    1    2    0    0 -0.10470392699E-02 -0.65173282667E-02 -0.21999992220E-01  0.22968925022E-01  0.00000000000E+00 0.  1.
     999901    1    3    3    0    0 -0.93358731142E-01 -0.57270071065E-01  0.81738497012E-01  0.89054864865E+00  0.88000000000E+00 0.  1.
        -11    1    4    4    0    0  0.30177879440E-01  0.12284343383E-01 -0.94057098805E-02  0.33916633075E-01  0.51100000000E-03 0. -1.
         11    1    4    4    0    0  0.64227890972E-01  0.51503055948E-01 -0.50332794911E-01  0.96495793252E-01  0.51100000000E-03 0.  1.
</event>
<event>
 8    1  0.1180500E+005  0.1043930E+01  0.7957747E-01            NaN
         13   -1    0    0    0    0  0.00000000000E+00  0.00000000000E+00  0.74505805969E-08  0.10566000000E+00  0.10566000000E+00 0. -1.
     999900   -1    0    0    0    0 -0.00000000000E+00 -0.00000000000E+00 -0.74505805969E-08  0.93827000000E+00  0.93827000000E+00 0.  1.
     999902    2    1    2    0    0 -0.30999483461E-03 -0.21552151144E-01  0.21305305501E-02  0.10222705800E+01  0.10220410991E+01 0.  0.
     999903    2    3    3    0    0 -0.11851958936E+00 -0.13769280588E-01  0.54733151301E-01  0.13277571375E+00  0.19929529862E-01 0.  0.
         14    1    1    2    0    0  0.30999483461E-03  0.21552151144E-01 -0.21305305501E-02  0.21659420033E-01  0.00000000000E+00 0. -1.
     999901    1    3    3    0    0  0.11820959453E+00 -0.77828705561E-02 -0.52602620751E-01  0.88949486621E+00  0.88000000000E+00 0.  1.
        -11    1    4    4    0    0 -0.37878708912E-01 -0.97442417535E-02  0.26466368528E-01  0.47227922041E-01  0.51100000000E-03 0. -1.
         11    1    4    4    0    0 -0.80640880450E-01 -0.40250388344E-02  0.28266782773E-01  0.85547791712E-01  0.51100000000E-03 0.  1.
</event>
<event>
 8    1  0.1180500E+005  0.1043930E+01  0.7957747E-01            NaN
         13   -1    0    0    0    0  0.00000000000E+00  0.00000000000E+00  0.74505805969E-08  0.10566000000E+00  0.10566000000E+00 0.  1.
     999900   -1    0    0    0    0 -0.00000000000E+00 -0.00000000000E+00 -0.74505805969E-08  0.93827000000E+00  0.93827000000E+00 0. -1.
     999902    2    1    2    0    0  0.59582716657E-02  0.11839535916E-01 -0.19269806639E-01  0.10205419462E+01  0.10202739156E+01 0.  0.
     999903    2    3    3    0    0 -0.10463478432E+00 -0.68279281396E-01 -0.29552030358E-01  0.12994912509E+00  0.20073720503E-01 0.  0.
         14    1    1    2    0    0 -0.59582716657E-02 -0.11839535916E-01  0.19269806639E-01  0.23388053785E-01  0.00000000000E+00 0.  1.
     999901    1    3    3    0    0  0.11059305599E+00  0.80118817312E-01  0.10282223719E-01  0.89059282113E+00  0.88000000000E+00 0. -1.
        -11    1    4    4    0    0 -0.34080335707E-01 -0.14483217168E-01 -0.15373771470E-01  0.40097965430E-01  0.51100000000E-03 0. -1.
         11    1    4    4    0    0 -0.70554448613E-01 -0.53796064228E-01 -0.14178258888E-01  0.89851159657E-01  0.51100000000E-03 0.  1.
</event>
<event>
 8    1  0.1180500E+005  0.1043930E+01  0.7957747E-01            NaN
         13   -1    0    0    0    0  0.00000000000E+00  0.00000000000E+00  0.74505805969E-08  0.10566000000E+00  0.10566000000E+00 0.  1.
     999900   -1    0    0    0    0 -0.00000000000E+00 -0.00000000000E+00 -0.74505805969E-08  0.93827000000E+00  0.93827000000E+00 0.  1.
     999902    2    1    2    0    0  0.23198638680E-01  0.28293751426E-02  0.58310988134E-02  0.10198429928E+01  0.10195585055E+01 0.  0.
     999903    2    3    3    0    0  0.42077339454E-01 -0.12043765798E+00 -0.18656799257E-01  0.13071374243E+00  0.21500566173E-01 0.  0.
         14    1    1    2    0    0 -0.23198638680E-01 -0.28293751426E-02 -0.58310988134E-02  0.24087007155E-01  0.00000000000E+00 0. -1.
     999901    1    3    3    0    0 -0.18878700773E-01  0.12326703312E+00  0.24487898070E-01  0.88912925042E+00  0.88000000000E+00 0. -1.
        -11    1    4    4    0    0  0.32051220437E-01 -0.85923887870E-01 -0.22887604278E-01  0.94521419735E-01  0.51100000000E-03 0.  1.
         11    1    4    4    0    0  0.10026119017E-01 -0.34513770109E-01  0.42308050213E-02  0.36192322691E-01  0.51100000000E-03 0. -1.
</event>
<event>
 8    1  0.1180500E+005  0.1043930E+01  0.7957747E-01            NaN
         13   -1    0    0    0    0  0.00000000000E+00  0.00000000000E+00  0.74505805969E-08  0.10566000000E+00  0.10566000000E+00 0. -1.
     999900   -1    0    0    0    0 -0.00000000000E+00 -0.00000000000E+00 -0.74505805969E-08  0.93827000000E+00  0.93827000000E+00 0. -1.
     999902    2    1    2    0    0 -0.22647776263E-01  0.22680018451E-02 -0.58690910024E-02  0.10204244298E+01  0.10201536674E+01 0.  0.
     999903    2    3    3    0    0  0.55963967908E-01 -0.11230016786E+00 -0.25177806167E-01  0.12931360709E+00  0.18568620036E-01 0.  0.
         14    1    1    2    0    0  0.22647776263E-01 -0.22680018451E-02  0.58690910024E-02  0.23505570217E-01  0.00000000000E+00 0.  1.
     999901    1    3    3    0    0 -0.78611744171E-01  0.11456816971E+00  0.19308715165E-01  0.89111082269E+00  0.88000000000E+00 0.  1.
        -11    1    4    4    0    0  0.26364642337E-01 -0.57983196756E-01 -0.36058228937E-02  0.63799753537E-01  0.51100000000E-03 0.  1.
         11    1    4    4    0    0  0.29599325571E-01 -0.54316971108E-01 -0.21571983274E-01  0.65513853557E-01  0.51100000000E-03 0. -1.
</event>
<event>
 8    1  0.1180500E+005  0.1043930E+01  0.7957747E-01            NaN
         13   -1    0    0    0    0  0.00000000000E+00  0.00000000000E+00  0.74505805969E-08  0.10566000000E+00  0.10566000000E+00 0. -1.
     999900   -1    0    0    0    0 -0.00000000000E+00 -0.00000000000E+00 -0.74505805969E-08  0.93827000000E+00  0.93827000000E+00 0.  1.
     999902    2    1    2    0    0 -0.10161400700E-01 -0.20553941967E-01  0.79949553944E-02  0.10196475391E+01  0.10193583600E+01 0.  0.
     999903    2    3    3    0    0  0.58018043568E-01  0.50806460603E-01  0.10177548806E+00  0.12917826285E+00  0.19529050278E-01 0.  0.
         14    1    1    2    0    0  0.10161400700E-01  0.20553941967E-01 -0.79949553944E-02  0.24282460879E-01  0.00000000000E+00 0. -1.
     999901    1    3    3    0    0 -0.68179444268E-01 -0.71360402570E-01 -0.93780532665E-01  0.89046927627E+00  0.88000000000E+00 0. -1.
        -11    1    4    4    0    0  0.20176700684E-01  0.22860175952E-01  0.54693458542E-01  0.62620463295E-01  0.51100000000E-03 0.  1.
         11    1    4    4    0    0  0.37841342884E-01  0.27946284652E-01  0.47082029518E-01  0.66557799555E-01  0.51100000000E-03 0. -1.
</event>
<event>
 8    1  0.1180500E+005  0.1043930E+01  0.7957747E-01            NaN
         13   -1    0    0    0    0  0.00000000000E+00  0.00000000000E+00  0.74505805969E-08  0.10566000000E+00  0.10566000000E+00 0. -1.
     999900   -1    0    0    0    0 -0.00000000000E+00 -0.00000000000E+00 -0.74505805969E-08  0.93827000000E+00  0.93827000000E+00 0.  1.
     999902    2    1    2    0    0 -0.13780108876E-02  0.10430677687E-01 -0.21334955147E-01  0.10201418041E+01  0.10198644137E+01 0.  0.
     999903    2    3    3    0    0  0.10087483163E+00  0.80083665268E-01 -0.16868430045E-01  0.13147587573E+00  0.20303617064E-01 0.  0.
         14    1    1    2    0    0  0.13780108876E-02 -0.10430677687E-01  0.21334955147E-01  0.23788195857E-01  0.00000000000E+00 0. -1.
     999901    1    3    3    0    0 -0.10225284252E+00 -0.69652987581E-01 -0.44665251020E-02  0.88866592842E+00  0.88000000000E+00 0. -1.
        -11    1    4    4    0    0  0.90065291628E-01  0.70461285673E-01 -0.83111355989E-02  0.11465550851E+00  0.51100000000E-03 0. -1.
         11    1    4    4    0    0  0.10809540006E-01  0.96223795950E-02 -0.85572944457E-02  0.16820367221E-01  0.51100000000E-03 0.  1.
</event>
<event>
 8    1  0.1180500E+005  0.1043930E+01  0.7957747E-01            NaN
         13   -1    0    0    0    0  0.00000000000E+00  0.00000000000E+00  0.74505805969E-08  0.10566000000E+00  0.10566000000E+00 0.  1.
     999900   -1    0    0    0    0 -0.00000000000E+00 -0.00000000000E+00 -0.74505805969E-08  0.93827000000E+00  0.93827000000E+00 0. -1.
     999902    2    1    2    0    0  0.11772800630E-01 -0.17288310389E-01 -0.10628697205E-01  0.10204682500E+01  0.10201985079E+01 0.  0.
     999903    2    3    3    0    0  0.17204785140E-01 -0.10684706812E+00 -0.76078179528E-01  0.13348802905E+00  0.17856760716E-01 0.  0.
         14    1    1    2    0    0 -0.11772800630E-01  0.17288310389E-01  0.10628697205E-01  0.23461750042E-01  0.00000000000E+00 0.  1.
     999901    1    3    3    0    0 -0.54319845103E-02  0.89558757727E-01  0.65449482322E-01  0.88698022091E+00  0.88000000000E+00 0.  1.
        -11    1    4    4    0    0  0.19490642940E-01 -0.68379837487E-01 -0.51113101021E-01  0.87569958056E-01  0.51100000000E-03 0.  1.
         11    1    4    4    0    0 -0.22858578003E-02 -0.38467230628E-01 -0.24965078507E-01  0.45918070996E-01  0.51100000000E-03 0. -1.
</event>
<event>
 8    1  0.1180500E+005  0.1043930E+01  0.7957747E-01            NaN
         13   -1    0    0    0    0  0.00000000000E+00  0.00000000000E+00  0.74505805969E-08  0.10566000000E+00  0.10566000000E+00 0.  1.
     999900   -1    0    0    0    0 -0.00000000000E+00 -0.00000000000E+00 -0.74505805969E-08  0.93827000000E+00  0.93827000000E+00 0.  1.
     999902    2    1    2    0    0  0.85128984327E-02 -0.17843542765E-01 -0.13043700083E-01  0.10202445705E+01  0.10199695996E+01 0.  0.
     999903    2    3    3    0    0 -0.28480762268E-02 -0.12087574953E+00  0.48456418645E-01  0.13202895931E+00  0.21553728814E-01 0.  0.
         14    1    1    2    0    0 -0.85128984327E-02  0.17843542765E-01  0.13043700083E-01  0.23685429487E-01  0.00000000000E+00 0.  1.
     999901    1    3    3    0    0  0.11360974659E-01  0.10303220677E+00 -0.61500118727E-01  0.88821561120E+00  0.88000000000E+00 0.  1.
        -11    1    4    4    0    0  0.77319528142E-02 -0.78970855901E-01  0.27379017859E-01  0.83940758371E-01  0.51100000000E-03 0. -1.
         11    1    4    4    0    0 -0.10580029041E-01 -0.41904893633E-01  0.21077400785E-01  0.48088200941E-01  0.51100000000E-03 0.  1.
</event>
<event>
 8    1  0.1180500E+005  0.1043930E+01  0.7957747E-01            NaN
         13   -1    0    0    0    0  0.00000000000E+00  0.00000000000E+00  0.74505805969E-08  0.10566000000E+00  0.10566000000E+00 0.  1.
     999900   -1    0    0    0    0 -0.00000000000E+00 -0.00000000000E+00 -0.74505805969E-08  0.93827000000E+00  0.93827000000E+00 0.  1.
     999902    2    1    2    0    0 -0.42603788567E-02 -0.11402535065E-01  0.73202065160E-02  0.10297259845E+01  0.10296280149E+01 0.  0.
     999903    2    3    3    0    0  0.10124615458E+00 -0.15908606407E-01 -0.91257643978E-01  0.13794712965E+00  0.14056508080E-01 0.  0.
         14    1    1    2    0    0  0.42603788567E-02  0.11402535065E-01 -0.73202065160E-02  0.14204015536E-01  0.00000000000E+00 0. -1.
     999901    1    3    3    0    0 -0.10550653344E+00  0.45060713413E-02  0.98577850494E-01  0.89177885481E+00  0.88000000000E+00 0. -1.
        -11    1    4    4    0    0  0.75886849938E-01 -0.15445066895E-01 -0.61865231427E-01  0.99120795323E-01  0.51100000000E-03 0.  1.
         11    1    4    4    0    0  0.25359304647E-01 -0.46353951216E-03 -0.29392412551E-01  0.38826334331E-01  0.51100000000E-03 0. -1.
</event>
<event>
 8    1  0.1180500E+005  0.1043930E+01  0.7957747E-01            NaN
         13   -1    0    0    0    0  0.00000000000E+00  0.00000000000E+00  0.74505805969E-08  0.10566000000E+00  0.10566000000E+00 0.  1.
     999900   -1    0    0    0    0 -0.00000000000E+00 -0.00000000000E+00 -0.74505805969E-08  0.93827000000E+00  0.93827000000E+00 0. -1.
     999902    2    1    2    0    0  0.15567408791E-01  0.13055358541E-01 -0.13723983417E-01  0.10194119592E+01  0.10191170729E+01 0.  0.
     999903    2    3    3    0    0 -0.32915463115E-01 -0.27752204612E-01  0.11810566080E+00  0.12733858714E+00  0.20311476743E-01 0.  0.
         14    1    1    2    0    0 -0.15567408791E-01 -0.13055358541E-01  0.13723983417E-01  0.24518040785E-01  0.00000000000E+00 0.  1.
     999901    1    3    3    0    0  0.48482871905E-01  0.40807563153E-01 -0.13182964422E+00  0.89207337208E+00  0.88000000000E+00 0. -1.
        -11    1    4    4    0    0 -0.10565075257E-02 -0.73193545615E-02  0.38307522794E-01  0.39018157093E-01  0.51100000000E-03 0.  1.
         11    1    4    4    0    0 -0.31858955589E-01 -0.20432850051E-01  0.79798138007E-01  0.88320430042E-01  0.51100000000E-03 0. -1.
</event>
<event>
 8    1  0.1180500E+005  0.1043930E+01  0.7957747E-01            NaN
         13   -1    0    0    0    0  0.00000000000E+00  0.00000000000E+00  0.74505805969E-08  0.10566000000E+00  0.10566000000E+00 0.  1.
     999900   -1    0    0    0    0 -0.00000000000E+00 -0.00000000000E+00 -0.74505805969E-08  0.93827000000E+00  0.93827000000E+00 0.  1.
     999902    2    1    2    0    0  0.14026554739E-01  0.13750995942E-01 -0.13357183861E-01  0.10201760848E+01  0.10198995026E+01 0.  0.
     999903    2    3    3    0    0  0.22300759295E-01  0.12464727022E+00 -0.35081054173E-01  0.13291153988E+00  0.20013276408E-01 0.  0.
         14    1    1    2    0    0 -0.14026554739E-01 -0.13750995942E-01  0.13357183861E-01  0.23753915213E-01  0.00000000000E+00 0.  1.
     999901    1    3    3    0    0 -0.82742045561E-02 -0.11089627428E+00  0.21723870312E-01  0.88726454491E+00  0.88000000000E+00 0. -1.
        -11    1    4    4    0    0  0.93274338575E-02  0.85486357227E-01 -0.31168294976E-01  0.91469350206E-01  0.51100000000E-03 0. -1.
         11    1    4    4    0    0  0.12973325438E-01  0.39160912993E-01 -0.39127591962E-02  0.41442189673E-01  0.51100000000E-03 0.  1.
</event>
<event>
 8    1  0.1180500E+005  0.1043930E+01  0.7957747E-01            NaN
         13   -1    0    0    0    0  0.00000000000E+00  0.00000000000E+00  0.74505805969E-08  0.10566000000E+00  0.10566000000E+00 0.  1.
     999900   -1    0    0    0    0 -0.00000000000E+00 -0.00000000000E+00 -0.74505805969E-08  0.93827000000E+00  0.93827000000E+00 0. -1.
     999902    2    1    2    0    0  0.83288262387E-03  0.20030259266E-01  0.11422645168E-01  0.10208565997E+01  0.10205958139E+01 0.  0.
     999903    2    3    3    0    0 -0.60747030340E-01 -0.79786722816E-01  0.80883101502E-01  0.13036220296E+00  0.19902387281E-01 0.  0.
         14    1    1    2    0    0 -0.83288262387E-03 -0.20030259266E-01 -0.11422645168E-01  0.23073400321E-01  0.00000000000E+00 0. -1.
     999901    1    3    3    0    0  0.61579912964E-01  0.99816982082E-01 -0.69460456334E-01  0.89049439672E+00  0.88000000000E+00 0.  1.
        -11    1    4    4    0    0 -0.82626439320E-02 -0.11737817423E-01  0.36547983965E-02  0.14821144184E-01  0.51100000000E-03 0.  1.
         11    1    4    4    0    0 -0.52484386408E-01 -0.68048905393E-01  0.77228303105E-01  0.11554105878E+00  0.51100000000E-03 0. -1.
</event>
<event>
 8    1  0.1180500E+005  0.1043930E+01  0.7957747E-01            NaN
         13   -1    0    0    0    0  0.00000000000E+00  0.00000000000E+00  0.74505805969E-08  0.10566000000E+00  0.10566000000E+00 0.  1.
     999900   -1    0    0    0    0 -0.00000000000E+00 -0.00000000000E+00 -0.74505805969E-08  0.93827000000E+00  0.93827000000E+00 0.  1.
     999902    2    1    2    0    0 -0.30032269945E-02  0.20188419062E-01  0.87565812832E-02  0.10217203320E+01  0.10214789119E+01 0.  0.
     999903    2    3    3    0    0 -0.12440971384E-01  0.99086837855E-01 -0.86533049078E-01  0.13301670021E+00  0.15247778464E-01 0.  0.
         14    1    1    2    0    0  0.30032269945E-02 -0.20188419062E-01 -0.87565812832E-02  0.22209667993E-01  0.00000000000E+00 0. -1.
     999901    1    3    3    0    0  0.94377443898E-02 -0.78898418793E-01  0.95289630361E-01  0.88870363179E+00  0.88000000000E+00 0.  1.
        -11    1    4    4    0    0  0.15333725837E-02  0.43787482517E-01 -0.33847487230E-01  0.55367936294E-01  0.51100000000E-03 0. -1.
         11    1    4    4    0    0 -0.13974343968E-01  0.55299355338E-01 -0.52685561847E-01  0.77648763920E-01  0.51100000000E-03 0.  1.
</event>
<event>
 8    1  0.1180500E+005  0.1043930E+01  0.7957747E-01            NaN
         13   -1    0    0    0    0  0.00000000000E+00  0.00000000000E+00  0.74505805969E-08  0.10566000000E+00  0.10566000000E+00 0.  1.
     999900   -1    0    0    0    0 -0.00000000000E+00 -0.00000000000E+00 -0.74505805969E-08  0.93827000000E+00  0.93827000000E+00 0. -1.
     999902    2    1    2    0    0 -0.72160987402E-02 -0.92006915797E-03 -0.22623894580E-01  0.10201653369E+01  0.10198885014E+01 0.  0.
     999903    2    3    3    0    0  0.12765891513E+00  0.63108488335E-02  0.43892484147E-02  0.12945030643E+00  0.20037237989E-01 0.  0.
         14    1    1    2    0    0  0.72160987402E-02  0.92006915797E-03  0.22623894580E-01  0.23764663142E-01  0.00000000000E+00 0.  1.
     999901    1    3    3    0    0 -0.13487501387E+00 -0.72309179915E-02 -0.27013142995E-01  0.89071503043E+00  0.88000000000E+00 0.  1.
        -11    1    4    4    0    0  0.48781278778E-01  0.70227163876E-02 -0.68877938698E-02  0.49765796789E-01  0.51100000000E-03 0.  1.
         11    1    4    4    0    0  0.78877636356E-01 -0.71186755412E-03  0.11277042285E-01  0.79684509638E-01  0.51100000000E-03 0. -1.
</event>
<event>
 8    1  0.1180500E+005  0.1043930E+01  0.7957747E-01            NaN
         13   -1    0    0    0    0  0.00000000000E+00  0.00000000000E+00  0.74505805969E-08  0.10566000000E+00  0.10566000000E+00 0.  1.
     999900   -1    0    0    0    0 -0.00000000000E+00 -0.00000000000E+00 -0.74505805969E-08  0.93827000000E+00  0.93827000000E+00 0. -1.
     999902    2    1    2    0    0  0.41190850685E-03 -0.54860287747E-02  0.22928752969E-01  0.10203504773E+01  0.10200779885E+01 0.  0.
     999903    2    3    3    0    0  0.10250156286E+00  0.30114826015E-01 -0.70217795121E-01  0.12885398381E+00  0.16103951622E-01 0.  0.
         14    1    1    2    0    0 -0.41190850685E-03  0.54860287747E-02 -0.22928752969E-01  0.23579522749E-01  0.00000000000E+00 0. -1.
     999901    1    3    3    0    0 -0.10208965436E+00 -0.35600854790E-01  0.93146548090E-01  0.89149649344E+00  0.88000000000E+00 0.  1.
        -11    1    4    4    0    0  0.97366873046E-01  0.24974641478E-01 -0.67496547541E-01  0.12107884099E+00  0.51100000000E-03 0.  1.
         11    1    4    4    0    0  0.51346898180E-02  0.51401845377E-02 -0.27212475793E-02  0.77751428280E-02  0.51100000000E-03 0. -1.
</event>
<event>
 8    1  0.1180500E+005  0.1043930E+01  0.7957747E-01            NaN
         13   -1    0    0    0    0  0.00000000000E+00  0.00000000000E+00  0.74505805969E-08  0.10566000000E+00  0.10566000000E+00 0. -1.
     999900   -1    0    0    0    0 -0.00000000000E+00 -0.00000000000E+00 -0.74505805969E-08  0.93827000000E+00  0.93827000000E+00 0. -1.
     999902    2    1    2    0    0 -0.16473214962E-01 -0.14599911249E-01  0.38926381177E-02  0.10215765472E+01  0.10213319563E+01 0.  0.
     999903    2    3    3    0    0 -0.11199623249E+00  0.59337844857E-01 -0.33015032372E-01  0.13255820388E+00  0.20434018930E-01 0.  0.
         14    1    1    2    0    0  0.16473214962E-01  0.14599911249E-01 -0.38926381177E-02  0.22353452780E-01  0.00000000000E+00 0. -1.
     999901    1    3    3    0    0  0.95523017526E-01 -0.73937756106E-01  0.36907670490E-01  0.88901834334E+00  0.88000000000E+00 0. -1.
        -11    1    4    4    0    0 -0.80509871143E-01  0.52458605472E-01 -0.23045888688E-01  0.98818615382E-01  0.51100000000E-03 0.  1.
         11    1    4    4    0    0 -0.31486361344E-01  0.68792393849E-02 -0.99691436835E-02  0.33739588498E-01  0.51100000000E-03 0. -1.
</event>
<event>
 8    1  0.1180500E+005  0.1043930E+01  0.7957747E-01            NaN
         13   -1    0    0    0    0  0.00000000000E+00  0.00000000000E+00  0.74505805969E-08  0.10566000000E+00  0.10566000000E+00 0.  1.
     999900   -1    0    0    0    0 -0.00000000000E+00 -0.00000000000E+00 -0.74505805969E-08  0.93827000000E+00  0.93827000000E+00 0. -1.
     999902    2    1    2    0    0  0.60528769024E-02  0.21947722802E-01 -0.57260515199E-02  0.10204538947E+01  0.10201838186E+01 0.  0.
     999903    2    3    3    0    0 -0.68173185259E-01 -0.62113123051E-01 -0.89019239026E-01  0.12943566300E+00  0.17987292591E-01 0.  0.
         14    1    1    2    0    0 -0.60528769024E-02 -0.21947722802E-01  0.57260515199E-02  0.23476105320E-01  0.00000000000E+00 0. -1.
     999901    1    3    3    0    0  0.74226062161E-01  0.84060845853E-01  0.83293187506E-01  0.89101823168E+00  0.88000000000E+00 0.  1.
        -11    1    4    4    0    0 -0.24509932486E-01 -0.11486615764E-01 -0.27256150010E-01  0.38416636585E-01  0.51100000000E-03 0.  1.
         11    1    4    4    0    0 -0.43663252773E-01 -0.50626507287E-01 -0.61763089016E-01  0.91019026410E-01  0.51100000000E-03 0. -1.
</event>
<event>
 8    1  0.1180500E+005  0.1043930E+01  0.7957747E-01            NaN
         13   -1    0    0    0    0  0.00000000000E+00  0.00000000000E+00  0.74505805969E-08  0.10566000000E+00  0.10566000000E+00 0.  1.
     999900   -1    0    0    0    0 -0.00000000000E+00 -0.00000000000E+00 -0.74505805969E-08  0.93827000000E+00  0.93827000000E+00 0.  1.
     999902    2    1    2    0    0  0.19876188556E-01 -0.12977158398E-01  0.16195037550E-02  0.10201373057E+01  0.10198598090E+01 0.  0.
     999903    2    3    3    0    0 -0.78375694035E-01  0.33592008622E-01  0.94200706196E-01  0.12862544438E+00  0.19988982876E-01 0.  0.
         14    1    1    2    0    0 -0.19876188556E-01  0.12977158398E-01 -0.16195037550E-02  0.23792694341E-01  0.00000000000E+00 0. -1.
     999901    1    3    3    0    0  0.98251882591E-01 -0.46569167019E-01 -0.92581202441E-01  0.89151186128E+00  0.88000000000E+00 0.  1.
        -11    1    4    4    0    0 -0.28597370649E-01  0.21121054479E-02  0.31397319254E-01  0.42524385648E-01  0.51100000000E-03 0. -1.
         11    1    4    4    0    0 -0.49778323386E-01  0.31479903174E-01  0.62803386942E-01  0.86101058735E-01  0.51100000000E-03 0.  1.
</event>
<event>
 8    1  0.1180500E+005  0.1043930E+01  0.7957747E-01            NaN
         13   -1    0    0    0    0  0.00000000000E+00  0.00000000000E+00  0.74505805969E-08  0.10566000000E+00  0.10566000000E+00 0. -1.
     999900   -1    0    0    0    0 -0.00000000000E+00 -0.00000000000E+00 -0.74505805969E-08  0.93827000000E+00  0.93827000000E+00 0. -1.
     999902    2    1    2    0    0  0.10030567100E-01 -0.57479862474E-02 -0.20805847697E-01  0.10201280060E+01  0.10198502898E+01 0.  0.
     999903    2    3    3    0    0 -0.10655255714E+00 -0.60507039895E-01  0.35690594455E-01  0.12895909559E+00  0.18495418213E-01 0.  0.
         14    1    1    2    0    0 -0.10030567100E-01  0.57479862474E-02  0.20805847697E-01  0.23801994048E-01  0.00000000000E+00 0. -1.
     999901    1    3    3    0    0  0.11658312424E+00  0.54759053647E-01 -0.56496442153E-01  0.89116891036E+00  0.88000000000E+00 0. -1.
        -11    1    4    4    0    0 -0.48182586454E-01 -0.17077780784E-01  0.13041855528E-01  0.52759485881E-01  0.51100000000E-03 0.  1.
         11    1    4    4    0    0 -0.58369970682E-01 -0.43429259111E-01  0.22648738927E-01  0.76199609712E-01  0.51100000000E-03 0. -1.
</event>
<event>
 8    1  0.1180500E+005  0.1043930E+01  0.7957747E-01            NaN
         13   -1    0    0    0    0  0.00000000000E+00  0.00000000000E+00  0.74505805969E-08  0.10566000000E+00  0.10566000000E+00 0. -1.
     999900   -1    0    0    0    0 -0.00000000000E+00 -0.00000000000E+00 -0.74505805969E-08  0.93827000000E+00  0.93827000000E+00 0.  1.
     999902    2    1    2    0    0 -0.12758682524E-01  0.16225723681E-01  0.33063357812E-02  0.10230256955E+01  0.10228120960E+01 0.  0.
     999903    2    3    3    0    0  0.97611747719E-02 -0.22551864310E-01 -0.12823224597E+00  0.13211983980E+00  0.20205841877E-01 0.  0.
         14    1    1    2    0    0  0.12758682524E-01 -0.16225723681E-01 -0.33063357812E-02  0.20904304462E-01  0.00000000000E+00 0. -1.
     999901    1    3    3    0    0 -0.22519857296E-01  0.38777587991E-01  0.13153858175E+00  0.89090585574E+00  0.88000000000E+00 0. -1.
        -11    1    4    4    0    0 -0.43450861636E-02 -0.15146541272E-01 -0.69213588853E-01  0.70986473988E-01  0.51100000000E-03 0.  1.
         11    1    4    4    0    0  0.14106260936E-01 -0.74053230382E-02 -0.59018657114E-01  0.61133365811E-01  0.51100000000E-03 0. -1.
</event>
<event>
 8    1  0.1180500E+005  0.1043930E+01  0.7957747E-01            NaN
         13   -1    0    0    0    0  0.00000000000E+00  0.00000000000E+00  0.74505805969E-08  0.10566000000E+00  0.10566000000E+00 0. -1.
     999900   -1    0    0    0    0 -0.00000000000E+00 -0.00000000000E+00 -0.74505805969E-08  0.93827000000E+00  0.93827000000E+00 0. -1.
     999902    2    1    2    0    0 -0.13802969535E-01  0.17920396607E-01 -0.31009759377E-02  0.10210984728E+01  0.10208431870E+01 0.  0.
     999903    2    3    3    0    0 -0.64913115197E-01 -0.34391877080E-01  0.10666974323E+00  0.13126790929E+00  0.21361557869E-01 0.  0.
         14    1    1    2    0    0  0.13802969535E-01 -0.17920396607E-01  0.31009759377E-02  0.22831527201E-01  0.00000000000E+00 0. -1.
     999901    1    3    3    0    0  0.51110145662E-01  0.52312273687E-01 -0.10977071917E+00  0.88983056351E+00  0.88000000000E+00 0. -1.
        -11    1    4    4    0    0 -0.13502521342E-01  0.14957780380E-02  0.15472812380E-01  0.20596710381E-01  0.51100000000E-03 0. -1.
         11    1    4    4    0    0 -0.51410593855E-01 -0.35887655118E-01  0.91196930852E-01  0.11067119891E+00  0.51100000000E-03 0.  1.
</event>
<event>
 8    1  0.1180500E+005  0.1043930E+01  0.7957747E-01            NaN
         13   -1    0    0    0    0  0.00000000000E+00  0.00000000000E+00  0.74505805969E-08  0.10566000000E+00  0.10566000000E+00 0.  1.
     999900   -1    0    0    0    0 -0.00000000000E+00 -0.00000000000E+00 -0.74505805969E-08  0.93827000000E+00  0.93827000000E+00 0.  1.
     999902    2    1    2    0    0 -0.93728541449E-02 -0.16042964668E-01 -0.18553848837E-01  0.10176721932E+01  0.10173333871E+01 0.  0.
     999903    2    3    3    0    0 -0.40197555927E-01 -0.27631687263E-01 -0.12007319702E+00  0.13122386490E+00  0.20561527992E-01 0.  0.
         14    1    1    2    0    0  0.93728541449E-02  0.16042964668E-01  0.18553848837E-01  0.26257806779E-01  0.00000000000E+00 0.  1.
     999901    1    3    3    0    0  0.30824701782E-01  0.11588722594E-01  0.10151934818E+00  0.88644832832E+00  0.88000000000E+00 0. -1.
        -11    1    4    4    0    0 -0.35549792190E-01 -0.15318124833E-01 -0.77036032047E-01  0.86216263128E-01  0.51100000000E-03 0.  1.
         11    1    4    4    0    0 -0.46477637374E-02 -0.12313562430E-01 -0.43037164970E-01  0.45007601771E-01  0.51100000000E-03 0. -1.
</event>
<event>
 8    1  0.1180500E+005  0.1043930E+01  0.7957747E-01            NaN
         13   -1    0    0    0    0  0.00000000000E+00  0.00000000000E+00  0.74505805969E-08  0.10566000000E+00  0.10566000000E+00 0. -1.
     999900   -1    0    0    0    0 -0.00000000000E+00 -0.00000000000E+00 -0.74505805969E-08  0.93827000000E+00  0.93827000000E+00 0. -1.
     999902    2    1    2    0    0 -0.34074169521E-03 -0.73966283917E-02 -0.22348976967E-01  0.10203863599E+01  0.10201147095E+01 0.  0.
     999903    2    3    3    0    0 -0.24251500032E-01  0.11683463846E+00 -0.50201973068E-01  0.13090284607E+00  0.19412599334E-01 0.  0.
         14    1    1    2    0    0  0.34074169521E-03  0.73966283917E-02  0.22348976967E-01  0.23543640074E-01  0.00000000000E+00 0. -1.
     999901    1    3    3    0    0  0.23910758337E-01 -0.12423126685E+00  0.27852996101E-01  0.88948351385E+00  0.88000000000E+00 0.  1.
        -11    1    4    4    0    0 -0.52986012388E-02  0.45435908147E-02 -0.24336707855E-02  0.74096738843E-02  0.51100000000E-03 0.  1.
         11    1    4    4    0    0 -0.18952898793E-01  0.11229104764E+00 -0.47768302283E-01  0.12349317219E+00  0.51100000000E-03 0. -1.
</event>
<event>
 8    1  0.1180500E+005  0.1043930E+01  0.7957747E-01            NaN
         13   -1    0    0    0    0  0.00000000000E+00  0.00000000000E+00  0.74505805969E-08  0.10566000000E+00  0.10566000000E+00 0. -1.
     999900   -1    0    0    0    0 -0.00000000000E+00 -0.00000000000E+00 -0.74505805969E-08  0.93827000000E+00  0.93827000000E+00 0.  1.
     999902    2    1    2    0    0 -0.56016196500E-02  0.98036493428E-02  0.20736014783E-01  0.10203191552E+01  0.10200459335E+01 0.  0.
     999903    2    3    3    0    0 -0.92631197416E-01  0.86595051573E-01 -0.27844252267E-01  0.13136971389E+00  0.20086255265E-01 0.  0.
         14    1    1    2    0    0  0.56016196500E-02 -0.98036493428E-02 -0.20736014783E-01  0.23610844801E-01  0.00000000000E+00 0.  1.
     999901    1    3    3    0    0  0.87029577766E-01 -0.76791402231E-01  0.48580267051E-01  0.88894944131E+00  0.88000000000E+00 0.  1.
        -11    1    4    4    0    0 -0.47580043376E-01  0.47527555188E-01 -0.47501816244E-02  0.67420726608E-01  0.51100000000E-03 0. -1.
         11    1    4    4    0    0 -0.45051154040E-01  0.39067496385E-01 -0.23094070643E-01  0.63948987279E-01  0.51100000000E-03 0.  1.
</event>
<event>
 8    1  0.1180500E+005  0.1043930E+01  0.7957747E-01            NaN
         13   -1    0    0    0    0  0.00000000000E+00  0.00000000000E+00  0.74505805969E-08  0.10566000000E+00  0.10566000000E+00 0.  1.
     999900   -1    0    0    0    0 -0.00000000000E+00 -0.00000000000E+00 -0.74505805969E-08  0.93827000000E+00  0.93827000000E+00 0. -1.
     999902    2    1    2    0    0  0.23901474224E-02 -0.22105700912E-01 -0.73077799000E-02  0.10205253324E+01  0.10202569165E+01 0.  0.
     999903    2    3    3    0    0  0.13087127526E-01  0.14686045560E-01 -0.12834334265E+00  0.13141472881E+00  0.20269792960E-01 0.  0.
         14    1    1    2    0    0 -0.23901474224E-02  0.22105700912E-01  0.73077799000E-02  0.23404667581E-01  0.00000000000E+00 0.  1.
     999901    1    3    3    0    0 -0.10696980104E-01 -0.36791746472E-01  0.12103556275E+00  0.88911060360E+00  0.88000000000E+00 0.  1.
        -11    1    4    4    0    0 -0.37522407330E-02  0.91842831043E-02 -0.34019334866E-01  0.35440183865E-01  0.51100000000E-03 0.  1.
         11    1    4    4    0    0  0.16839368259E-01  0.55017624560E-02 -0.94324007781E-01  0.95974544950E-01  0.51100000000E-03 0. -1.
</event>
<event>
 8    1  0.1180500E+005  0.1043930E+01  0.7957747E-01            NaN
         13   -1    0    0    0    0  0.00000000000E+00  0.00000000000E+00  0.74505805969E-08  0.10566000000E+00  0.10566000000E+00 0.  1.
     999900   -1    0    0    0    0 -0.00000000000E+00 -0.00000000000E+00 -0.74505805969E-08  0.93827000000E+00  0.93827000000E+00 0. -1.
     999902    2    1    2    0    0  0.17363144469E-01 -0.13634235027E-01  0.78498297707E-02  0.10204994435E+01  0.10202304265E+01 0.  0.
     999903    2    3    3    0    0  0.40256545934E-01  0.69559601447E-01 -0.99715772397E-01  0.12976060353E+00  0.20867470366E-01 0.  0.
         14    1    1    2    0    0 -0.17363144469E-01  0.13634235027E-01 -0.78498297707E-02  0.23430556503E-01  0.00000000000E+00 0.  1.
     999901    1    3    3    0    0 -0.22893401466E-01 -0.83193836474E-01  0.10756560217E+00  0.89073883997E+00  0.88000000000E+00 0.  1.
        -11    1    4    4    0    0  0.29172701205E-02  0.23158410520E-01 -0.24940200679E-01  0.34162803950E-01  0.51100000000E-03 0.  1.
         11    1    4    4    0    0  0.37339275814E-01  0.46401190927E-01 -0.74775571717E-01  0.95597799579E-01  0.51100000000E-03 0. -1.
</event>
<event>
 8    1  0.1180500E+005  0.1043930E+01  0.7957747E-01            NaN
         13   -1    0    0    0    0  0.00000000000E+00  0.00000000000E+00  0.74505805969E-08  0.10566000000E+00  0.10566000000E+00 0.  1.
     999900   -1    0    0    0    0 -0.00000000000E+00 -0.00000000000E+00 -0.74505805969E-08  0.93827000000E+00  0.93827000000E+00 0. -1.
     999902    2    1    2    0    0  0.68603178190E-02 -0.12974278236E-01  0.18074052873E-01  0.10206476624E+01  0.10203820772E+01 0.  0.
     999903    2    3    3    0    0 -0.23459249966E-01 -0.25256406717E-02 -0.12478433432E+00  0.12855071196E+00  0.19935901876E-01 0.  0.
         14    1    1    2    0    0 -0.68603178190E-02  0.12974278236E-01 -0.18074052873E-01  0.23282337588E-01  0.00000000000E+00 0. -1.
     999901    1    3    3    0    0  0.30319567785E-01 -0.10448637564E-01  0.14285838719E+00  0.89209695045E+00  0.88000000000E+00 0.  1.
        -11    1    4    4    0    0 -0.50396029662E-02  0.34068948387E-02 -0.73192921292E-01  0.73447051532E-01  0.51100000000E-03 0.  1.
         11    1    4    4    0    0 -0.18419646999E-01 -0.59325355104E-02 -0.51591413028E-01  0.55103660426E-01  0.51100000000E-03 0. -1.
</event>
<event>
 8    1  0.1180500E+005  0.1043930E+01  0.7957747E-01            NaN
         13   -1    0    0    0    0  0.00000000000E+00  0.00000000000E+00  0.74505805969E-08  0.10566000000E+00  0.10566000000E+00 0.  1.
     999900   -1    0    0    0    0 -0.00000000000E+00 -0.00000000000E+00 -0.74505805969E-08  0.93827000000E+00  0.93827000000E+00 0.  1.
     999902    2    1    2    0    0 -0.18671893001E-02 -0.20761260668E-01 -0.45623672757E-02  0.10225915011E+01  0.10223688408E+01 0.  0.
     999903    2    3    3    0    0  0.78847872652E-02 -0.45068103298E-01  0.12322694109E+00  0.13297583634E+00  0.20109456368E-01 0.  0.
         14    1    1    2    0    0  0.18671893001E-02  0.20761260668E-01  0.45623672757E-02  0.21338498906E-01  0.00000000000E+00 0. -1.
     999901    1    3    3    0    0 -0.97519765652E-02  0.24306842630E-01 -0.12778930836E+00  0.88961566475E+00  0.88000000000E+00 0.  1.
        -11    1    4    4    0    0  0.14342941042E-01 -0.35572512664E-01  0.98586131804E-01  0.10578568013E+00  0.51100000000E-03 0. -1.
         11    1    4    4    0    0 -0.64581537773E-02 -0.94955906341E-02  0.24640809282E-01  0.27190156211E-01  0.51100000000E-03 0.  1.
</event>
<event>
 8    1  0.1180500E+005  0.1043930E+01  0.7957747E-01            NaN
         13   -1    0    0    0    0  0.00000000000E+00  0.00000000000E+00  0.74505805969E-08  0.10566000000E+00  0.10566000000E+00 0. -1.
     999900   -1    0    0    0    0 -0.00000000000E+00 -0.00000000000E+00 -0.74505805969E-08  0.93827000000E+00  0.93827000000E+00 0.  1.
     999902    2    1    2    0    0  0.20581107769E-01  0.11698826222E-01  0.14353325013E-02  0.10202128182E+01  0.10199371009E+01 0.  0.
     999903    2    3    3    0    0 -0.68039274837E-01  0.10943255506E+00  0.42244191721E-02  0.13037393788E+00  0.19356935065E-01 0.  0.
         14    1    1    2    0    0 -0.20581107769E-01 -0.11698826222E-01 -0.14353325013E-02  0.23717181775E-01  0.00000000000E+00 0.  1.
     999901    1    3    3    0    0  0.88620382606E-01 -0.97733728834E-01 -0.27890866708E-02  0.88983888034E+00  0.88000000000E+00 0. -1.
        -11    1    4    4    0    0 -0.19820799985E-01  0.49753445097E-01  0.59010660699E-03  0.53561915181E-01  0.51100000000E-03 0.  1.
         11    1    4    4    0    0 -0.48218474853E-01  0.59679109959E-01  0.36343125652E-02  0.76812022701E-01  0.51100000000E-03 0. -1.
</event>
<event>
 8    1  0.1180500E+005  0.1043930E+01  0.7957747E-01            NaN
         13   -1    0    0    0    0  0.00000000000E+00  0.00000000000E+00  0.74505805969E-08  0.10566000000E+00  0.10566000000E+00 0. -1.
     999900   -1    0    0    0    0 -0.00000000000E+00 -0.00000000000E+00 -0.74505805969E-08  0.93827000000E+00  0.93827000000E+00 0.  1.
     999902    2    1    2    0    0 -0.76441929456E-02 -0.20722344864E-01 -0.93779356058E-02  0.10199342725E+01  0.10196519628E+01 0.  0.
     999903    2    3    3    0    0 -0.12230029929E+00  0.40408870410E-01  0.23702116102E-02  0.13031577720E+00  0.19655631993E-01 0.  0.
         14    1    1    2    0    0  0.76441929456E-02  0.20722344864E-01  0.93779356058E-02  0.23995727509E-01  0.00000000000E+00 0. -1.
     999901    1    3    3    0    0  0.11465610635E+00 -0.61131215274E-01 -0.11748147216E-01  0.88961849529E+00  0.88000000000E+00 0. -1.
        -11    1    4    4    0    0 -0.10482377283E-01  0.93473797674E-02  0.24306956688E-02  0.14262648578E-01  0.51100000000E-03 0.  1.
         11    1    4    4    0    0 -0.11181792201E+00  0.31061490642E-01 -0.60484058654E-04  0.11605312862E+00  0.51100000000E-03 0. -1.
</event>
<event>
 8    1  0.1180500E+005  0.1043930E+01  0.7957747E-01            NaN
         13   -1    0    0    0    0  0.00000000000E+00  0.00000000000E+00  0.74505805969E-08  0.10566000000E+00  0.10566000000E+00 0.  1.
     999900   -1    0    0    0    0 -0.00000000000E+00 -0.00000000000E+00 -0.74505805969E-08  0.93827000000E+00  0.93827000000E+00 0.  1.
     999902    2    1    2    0    0  0.70456926822E-02  0.84339479624E-02  0.21244914771E-01  0.10200109769E+01  0.10197304905E+01 0.  0.
     999903    2    3    3    0    0  0.11493566928E+00  0.44893618231E-01  0.43552621302E-01  0.13239214631E+00  0.20129693281E-01 0.  0.
         14    1    1    2    0    0 -0.70456926822E-02 -0.84339479624E-02 -0.21244914771E-01  0.23919023125E-01  0.00000000000E+00 0.  1.
     999901    1    3    3    0    0 -0.10788997660E+00 -0.36459670269E-01 -0.22307706531E-01  0.88761883057E+00  0.88000000000E+00 0.  1.
        -11    1    4    4    0    0  0.82752284863E-01  0.39476805217E-01  0.25856941659E-01  0.95263851240E-01  0.51100000000E-03 0. -1.
         11    1    4    4    0    0  0.32183384416E-01  0.54168130146E-02  0.17695679643E-01  0.37128295069E-01  0.51100000000E-03 0.  1.
</event>
<event>
 8    1  0.1180500E+005  0.1043930E+01  0.7957747E-01            NaN
         13   -1    0    0    0    0  0.00000000000E+00  0.00000000000E+00  0.74505805969E-08  0.10566000000E+00  0.10566000000E+00 0. -1.
     999900   -1    0    0    0    0 -0.00000000000E+00 -0.00000000000E+00 -0.74505805969E-08  0.93827000000E+00  0.93827000000E+00 0. -1.
     999902    2    1    2    0    0  0.14788683829E-01 -0.11802210699E-01  0.15428569342E-01  0.10195161085E+01  0.10192237524E+01 0.  0.
     999903    2    3    3    0    0 -0.48523208485E-01  0.54683044364E-01 -0.10113433695E+00  0.12709490974E+00  0.24087857301E-01 0.  0.
         14    1    1    2    0    0 -0.14788683829E-01  0.11802210699E-01 -0.15428569342E-01  0.24413891512E-01  0.00000000000E+00 0.  1.
     999901    1    3    3    0    0  0.63311892314E-01 -0.66485255063E-01  0.11656290629E+00  0.89242119875E+00  0.88000000000E+00 0. -1.
        -11    1    4    4    0    0 -0.44564020245E-01  0.40223375361E-01 -0.90900429461E-01  0.10893585738E+00  0.51100000000E-03 0. -1.
         11    1    4    4    0    0 -0.39591882399E-02  0.14459669003E-01 -0.10233907489E-01  0.18159052362E-01  0.51100000000E-03 0.  1.
</event>
<event>
 8    1  0.1180500E+005  0.1043930E+01  0.7957747E-01            NaN
         13   -1    0    0    0    0  0.00000000000E+00  0.00000000000E+00  0.74505805969E-08  0.10566000000E+00  0.10566000000E+00 0.  1.
     999900   -1    0    0    0    0 -0.00000000000E+00 -0.00000000000E+00 -0.74505805969E-08  0.93827000000E+00  0.93827000000E+00 0.  1.
     999902    2    1    2    0    0 -0.92482048805E-03  0.59334761536E-02  0.21890699608E-01  0.10212305691E+01  0.10209782619E+01 0.  0.
     999903    2    3    3    0    0  0.37146554039E-03 -0.12492271887E+00 -0.28453279431E-01  0.13013038377E+00  0.22770682745E-01 0.  0.
         14    1    1    2    0    0  0.92482048805E-03 -0.59334761536E-02 -0.21890699608E-01  0.22699430863E-01  0.00000000000E+00 0. -1.
     999901    1    3    3    0    0 -0.12962860284E-02  0.13085619503E+00  0.50343979039E-01  0.89110018537E+00  0.88000000000E+00 0.  1.
        -11    1    4    4    0    0  0.68386698890E-02 -0.49420442601E-01 -0.20472574092E-01  0.53930834998E-01  0.51100000000E-03 0.  1.
         11    1    4    4    0    0 -0.64672043486E-02 -0.75502276272E-01 -0.79807053392E-02  0.76199548772E-01  0.51100000000E-03 0. -1.
</event>
<event>
 8    1  0.1180500E+005  0.1043930E+01  0.7957747E-01            NaN
         13   -1    0    0    0    0  0.00000000000E+00  0.00000000000E+00  0.74505805969E-08  0.10566000000E+00  0.10566000000E+00 0.  1.
     999900   -1    0    0    0    0 -0.00000000000E+00 -0.00000000000E+00 -0.74505805969E-08  0.93827000000E+00  0.93827000000E+00 0.  1.
     999902    2    1    2    0    0 -0.19499080583E-02 -0.11817252425E-02  0.22990221155E-01  0.10208269940E+01  0.10205655309E+01 0.  0.
     999903    2    3    3    0    0  0.65049077663E-01  0.28173021508E-01  0.11257101649E+00  0.13325993508E+00  0.78022367030E-02 0.  0.
         14    1    1    2    0    0  0.19499080583E-02  0.11817252425E-02 -0.22990221155E-01  0.23103005968E-01  0.00000000000E+00 0. -1.
     999901    1    3    3    0    0 -0.66998985721E-01 -0.29354746750E-01 -0.89580795338E-01  0.88756705895E+00  0.88000000000E+00 0. -1.
        -11    1    4    4    0    0  0.13050012410E-01  0.36711781992E-02  0.17230373652E-01  0.21930054046E-01  0.51100000000E-03 0. -1.
         11    1    4    4    0    0  0.51999065253E-01  0.24501843309E-01  0.95340642841E-01  0.11132988103E+00  0.51100000000E-03 0.  1.
</event>
<event>
 8    1  0.1180500E+005  0.1043930E+01  0.7957747E-01            NaN
         13   -1    0    0    0    0  0.00000000000E+00  0.00000000000E+00  0.74505805969E-08  0.10566000000E+00  0.10566000000E+00 0.  1.
     999900   -1    0    0    0    0 -0.00000000000E+00 -0.00000000000E+00 -0.74505805969E-08  0.93827000000E+00  0.93827000000E+00 0.  1.
     999902    2    1    2    0    0 -0.19235492591E-01 -0.12545349813E-01 -0.40230988953E-03  0.10209615035E+01  0.10207031105E+01 0.  0.
     999903    2    3    3    0    0 -0.60903225793E-01 -0.30836598284E-01 -0.11133408229E+00  0.13283052901E+00  0.24260520439E-01 0.  0.
         14    1    1    2    0    0  0.19235492591E-01  0.12545349813E-01  0.40230988953E-03  0.22968496477E-01  0.00000000000E+00 0. -1.
     999901    1    3    3    0    0  0.41667733202E-01  0.18291248470E-01  0.11093177240E+00  0.88813097451E+00  0.88000000000E+00 0. -1.
        -11    1    4    4    0    0 -0.35651441186E-01 -0.30050196359E-01 -0.64156382965E-01  0.79311677299E-01  0.51100000000E-03 0. -1.
         11    1    4    4    0    0 -0.25251784607E-01 -0.78640192451E-03 -0.47177699326E-01  0.53518851712E-01  0.51100000000E-03 0.  1.
</event>
<event>
 8    1  0.1180500E+005  0.1043930E+01  0.7957747E-01            NaN
         13   -1    0    0    0    0  0.00000000000E+00  0.00000000000E+00  0.74505805969E-08  0.10566000000E+00  0.10566000000E+00 0.  1.
     999900   -1    0    0    0    0 -0.00000000000E+00 -0.00000000000E+00 -0.74505805969E-08  0.93827000000E+00  0.93827000000E+00 0.  1.
     999902    2    1    2    0    0  0.17274292305E-01  0.10075490701E-01 -0.12195914233E-01  0.10205065713E+01  0.10202377199E+01 0.  0.
     999903    2    3    3    0    0 -0.10483936098E+00 -0.63521708435E-01  0.31556842439E-01  0.12795819965E+00  0.18739463680E-01 0.  0.
         14    1    1    2    0    0 -0.17274292305E-01 -0.10075490701E-01  0.12195914233E-01  0.23423428688E-01  0.00000000000E+00 0. -1.
     999901    1    3    3    0    0  0.12211365329E+00  0.73597199136E-01 -0.43752756672E-01  0.89254837166E+00  0.88000000000E+00 0.  1.
        -11    1    4    4    0    0 -0.53894485288E-01 -0.23756362724E-01  0.94548364594E-02  0.59654298821E-01  0.51100000000E-03 0. -1.
         11    1    4    4    0    0 -0.50944875695E-01 -0.39765345711E-01  0.22102005980E-01  0.68303900829E-01  0.51100000000E-03 0.  1.
</event>
<event>
 8    1  0.1180500E+005  0.1043930E+01  0.7957747E-01            NaN
         13   -1    0    0    0    0  0.00000000000E+00  0.00000000000E+00  0.74505805969E-08  0.10566000000E+00  0.10566000000E+00 0.  1.
     999900   -1    0    0    0    0 -0.00000000000E+00 -0.00000000000E+00 -0.74505805969E-08  0.93827000000E+00  0.93827000000E+00 0. -1.
     999902    2    1    2    0    0 -0.12598133075E-01 -0.18392326215E-01 -0.19665147013E-02  0.10215501474E+01  0.10213049720E+01 0.  0.
     999903    2    3    3    0    0  0.70589548286E-02 -0.63647483758E-01 -0.11469962278E+00  0.13298772192E+00  0.20709893364E-01 0.  0.
         14    1    1    2    0    0  0.12598133075E-01  0.18392326215E-01  0.19665147013E-02  0.22379852561E-01  0.00000000000E+00 0. -1.
     999901    1    3    3    0    0 -0.19657087903E-01  0.45255157542E-01  0.11273310808E+00  0.88856242552E+00  0.88000000000E+00 0.  1.
        -11    1    4    4    0    0  0.10435582529E-02 -0.46673533877E-02 -0.25044446172E-01  0.25502129451E-01  0.51100000000E-03 0.  1.
         11    1    4    4    0    0  0.60153965757E-02 -0.58980130370E-01 -0.89655176609E-01  0.10748559247E+00  0.51100000000E-03 0. -1.
</event>
<event>
 8    1  0.1180500E+005  0.1043930E+01  0.7957747E-01            NaN
         13   -1    0    0    0    0  0.00000000000E+00  0.00000000000E+00  0.74505805969E-08  0.10566000000E+00  0.10566000000E+00 0.  1.
     999900   -1    0    0    0    0 -0.00000000000E+00 -0.00000000000E+00 -0.74505805969E-08  0.93827000000E+00  0.93827000000E+00 0.  1.
     999902    2    1    2    0    0 -0.16669985254E-01 -0.10804350462E-01  0.12828276374E-01  0.10202828633E+01  0.10200087912E+01 0.  0.
     999903    2    3    3    0    0 -0.38377701483E-01 -0.11454296963E+00 -0.47911191542E-01  0.13184479065E+00  0.22240204226E-01 0.  0.
         14    1    1    2    0    0  0.16669985254E-01  0.10804350462E-01 -0.12828276374E-01  0.23647136656E-01  0.00000000000E+00 0. -1.
     999901    1    3    3    0    0  0.21707716229E-01  0.10373861917E+00  0.60739467916E-01  0.88843807269E+00  0.88000000000E+00 0.  1.
        -11    1    4    4    0    0 -0.52626967420E-02 -0.45060278846E-01 -0.12132999418E-01  0.46963767976E-01  0.51100000000E-03 0. -1.
         11    1    4    4    0    0 -0.33115004741E-01 -0.69482690783E-01 -0.35778192124E-01  0.84881022673E-01  0.51100000000E-03 0.  1.
</event>
<event>
 8    1  0.1180500E+005  0.1043930E+01  0.7957747E-01            NaN
         13   -1    0    0    0    0  0.00000000000E+00  0.00000000000E+00  0.74505805969E-08  0.10566000000E+00  0.10566000000E+00 0. -1.
     999900   -1    0    0    0    0 -0.00000000000E+00 -0.00000000000E+00 -0.74505805969E-08  0.93827000000E+00  0.93827000000E+00 0. -1.
     999902    2    1    2    0    0  0.82876218045E-04  0.14267617345E-02  0.23199418456E-01  0.10206866024E+01  0.10204219150E+01 0.  0.
     999903    2    3    3    0    0  0.10319584307E+00  0.30326194566E-01 -0.69023781973E-01  0.12941078654E+00  0.20342298082E-01 0.  0.
         14    1    1    2    0    0 -0.82876218045E-04 -0.14267617345E-02 -0.23199418456E-01  0.23243397648E-01  0.00000000000E+00 0.  1.
     999901    1    3    3    0    0 -0.10311296685E+00 -0.28899432832E-01  0.92223200429E-01  0.89127581581E+00  0.88000000000E+00 0.  1.
        -11    1    4    4    0    0  0.22887317597E-01  0.63472073094E-02 -0.58801829443E-02  0.24473537135E-01  0.51100000000E-03 0. -1.
         11    1    4    4    0    0  0.80308525475E-01  0.23978987257E-01 -0.63143599028E-01  0.10493724941E+00  0.51100000000E-03 0.  1.
</event>
<event>
 8    1  0.1180500E+005  0.1043930E+01  0.7957747E-01            NaN
         13   -1    0    0    0    0  0.00000000000E+00  0.00000000000E+00  0.74505805969E-08  0.10566000000E+00  0.10566000000E+00 0.  1.
     999900   -1    0    0    0    0 -0.00000000000E+00 -0.00000000000E+00 -0.74505805969E-08  0.93827000000E+00  0.93827000000E+00 0.  1.
     999902    2    1    2    0    0 -0.97004339264E-02  0.30524410508E-01 -0.43520484018E-02  0.10116069683E+01  0.10110904410E+01 0.  0.
     999903    2    3    3    0    0 -0.24530637692E-01 -0.76125150115E-01  0.87480998843E-01  0.12030041478E+00  0.20554171632E-01 0.  0.
         14    1    1    2    0    0  0.97004339264E-02 -0.30524410508E-01  0.43520484018E-02  0.32323031734E-01  0.00000000000E+00 0.  1.
     999901    1    3    3    0    0  0.14830203766E-01  0.10664956062E+00 -0.91833047245E-01  0.89130655349E+00  0.88000000000E+00 0.  1.
        -11    1    4    4    0    0 -0.11407416369E-01 -0.10334346770E-01  0.18570191428E-01  0.24125525943E-01  0.51100000000E-03 0.  1.
         11    1    4    4    0    0 -0.13123221323E-01 -0.65790803345E-01  0.68910807415E-01  0.96174888834E-01  0.51100000000E-03 0. -1.
</event>
<event>
 8    1  0.1180500E+005  0.1043930E+01  0.7957747E-01            NaN
         13   -1    0    0    0    0  0.00000000000E+00  0.00000000000E+00  0.74505805969E-08  0.10566000000E+00  0.10566000000E+00 0.  1.
     999900   -1    0    0    0    0 -0.00000000000E+00 -0.00000000000E+00 -0.74505805969E-08  0.93827000000E+00  0.93827000000E+00 0.  1.
     999902    2    1    2    0    0  0.73800101454E-02  0.22284300311E-01 -0.41740709165E-02  0.10200872347E+01  0.10198085550E+01 0.  0.
     999903    2    3    3    0    0 -0.77526320925E-02 -0.66631680806E-01 -0.10870091500E+00  0.12932300679E+00  0.20215513156E-01 0.  0.
         14    1    1    2    0    0 -0.73800101454E-02 -0.22284300311E-01  0.41740709165E-02  0.23842765320E-01  0.00000000000E+00 0.  1.
     999901    1    3    3    0    0  0.15132642238E-01  0.88915981117E-01  0.10452684408E+00  0.89076422789E+00  0.88000000000E+00 0. -1.
        -11    1    4    4    0    0 -0.12419044914E-01 -0.53022181325E-01 -0.94691773577E-01  0.10923542234E+00  0.51100000000E-03 0. -1.
         11    1    4    4    0    0  0.46664128218E-02 -0.13609499481E-01 -0.14009141420E-01  0.20087584451E-01  0.51100000000E-03 0.  1.
</event>
<event>
 8    1  0.1180500E+005  0.1043930E+01  0.7957747E-01            NaN
         13   -1    0    0    0    0  0.00000000000E+00  0.00000000000E+00  0.74505805969E-08  0.10566000000E+00  0.10566000000E+00 0. -1.
     999900   -1    0    0    0    0 -0.00000000000E+00 -0.00000000000E+00 -0.74505805969E-08  0.93827000000E+00  0.93827000000E+00 0.  1.
     999902    2    1    2    0    0 -0.64431400081E-02 -0.22049745583E-01 -0.25543151117E-02  0.10208165870E+01  0.10205548856E+01 0.  0.
     999903    2    3    3    0    0  0.48985463148E-01  0.10514790289E+00 -0.51759299422E-01  0.12858752322E+00  0.20001724139E-01 0.  0.
         14    1    1    2    0    0  0.64431400081E-02  0.22049745583E-01  0.25543151117E-02  0.23113412970E-01  0.00000000000E+00 0.  1.
     999901    1    3    3    0    0 -0.55428603156E-01 -0.12719764848E+00  0.49204984311E-01  0.89222906381E+00  0.88000000000E+00 0. -1.
        -11    1    4    4    0    0  0.40247219686E-01  0.85271352343E-01 -0.33038700634E-01  0.99914258660E-01  0.51100000000E-03 0.  1.
         11    1    4    4    0    0  0.87382434621E-02  0.19876550550E-01 -0.18720598788E-01  0.28673264561E-01  0.51100000000E-03 0. -1.
</event>
<event>
 8    1  0.1180500E+005  0.1043930E+01  0.7957747E-01            NaN
         13   -1    0    0    0    0  0.00000000000E+00  0.00000000000E+00  0.74505805969E-08  0.10566000000E+00  0.10566000000E+00 0. -1.
     999900   -1    0    0    0    0 -0.00000000000E+00 -0.00000000000E+00 -0.74505805969E-08  0.93827000000E+00  0.93827000000E+00 0.  1.
     999902    2    1    2    0    0  0.22742331522E-01  0.94980133999E-02 -0.36574265275E-02  0.10190140880E+01  0.10187094330E+01 0.  0.
     999903    2    3    3    0    0  0.37157196190E-01  0.11817051966E+00 -0.39584232464E-01  0.13148479986E+00  0.19401345033E-01 0.  0.
         14    1    1    2    0    0 -0.22742331522E-01 -0.94980133999E-02  0.36574265275E-02  0.24915911993E-01  0.00000000000E+00 0. -1.
     999901    1    3    3    0    0 -0.14414864667E-01 -0.10867250626E+00  0.35926805936E-01  0.88752928815E+00  0.88000000000E+00 0. -1.
        -11    1    4    4    0    0  0.29620457440E-01  0.10192361103E+00 -0.40346792831E-01  0.11355139276E+00  0.51100000000E-03 0.  1.
         11    1    4    4    0    0  0.75367387498E-02  0.16246908625E-01  0.76256036672E-03  0.17933407098E-01  0.51100000000E-03 0. -1.
</event>
<event>
 8    1  0.1180500E+005  0.1043930E+01  0.7957747E-01            NaN
         13   -1    0    0    0    0  0.00000000000E+00  0.00000000000E+00  0.74505805969E-08  0.10566000000E+00  0.10566000000E+00 0. -1.
     999900   -1    0    0    0    0 -0.00000000000E+00 -0.00000000000E+00 -0.74505805969E-08  0.93827000000E+00  0.93827000000E+00 0.  1.
     999902    2    1    2    0    0  0.73457922169E-02 -0.16030296246E-01  0.15715447418E-01  0.10203099588E+01  0.10200365217E+01 0.  0.
     999903    2    3    3    0    0  0.12408995733E+00  0.26995856872E-01  0.27086785782E-01  0.13148502814E+00  0.20676674373E-01 0.  0.
         14    1    1    2    0    0 -0.73457922169E-02  0.16030296246E-01 -0.15715447418E-01  0.23620041249E-01  0.00000000000E+00 0. -1.
     999901    1    3    3    0    0 -0.11674416511E+00 -0.43026153119E-01 -0.11371338364E-01  0.88882493061E+00  0.88000000000E+00 0. -1.
        -11    1    4    4    0    0  0.45463100746E-01  0.19085740403E-01  0.58456953604E-02  0.49654730806E-01  0.51100000000E-03 0. -1.
         11    1    4    4    0    0  0.78626856582E-01  0.79101164693E-02  0.21241090421E-01  0.81830297334E-01  0.51100000000E-03 0.  1.
</event>
<event>
 8    1  0.1180500E+005  0.1043930E+01  0.7957747E-01            NaN
         13   -1    0    0    0    0  0.00000000000E+00  0.00000000000E+00  0.74505805969E-08  0.10566000000E+00  0.10566000000E+00 0. -1.
     999900   -1    0    0    0    0 -0.00000000000E+00 -0.00000000000E+00 -0.74505805969E-08  0.93827000000E+00  0.93827000000E+00 0.  1.
     999902    2    1    2    0    0 -0.58940564344E-02  0.14954975550E-01  0.17391320110E-01  0.10202477448E+01  0.10199728485E+01 0.  0.
     999903    2    3    3    0    0  0.29157200634E-01  0.12248591468E+00  0.37047832545E-01  0.13279190256E+00  0.20204104645E-01 0.  0.
         14    1    1    2    0    0  0.58940564344E-02 -0.14954975550E-01 -0.17391320110E-01  0.23682255174E-01  0.00000000000E+00 0.  1.
     999901    1    3    3    0    0 -0.35051257069E-01 -0.10753093913E+00 -0.19656512436E-01  0.88745584227E+00  0.88000000000E+00 0. -1.
        -11    1    4    4    0    0  0.25493055431E-01  0.72925462452E-01  0.28611355442E-01  0.82382581473E-01  0.51100000000E-03 0. -1.
         11    1    4    4    0    0  0.36641452033E-02  0.49560452231E-01  0.84364771038E-02  0.50409321086E-01  0.51100000000E-03 0.  1.
</event>
<event>
 8    1  0.1180500E+005  0.1043930E+01  0.7957747E-01            NaN
         13   -1    0    0    0    0  0.00000000000E+00  0.00000000000E+00  0.74505805969E-08  0.10566000000E+00  0.10566000000E+00 0.  1.
     999900   -1    0    0    0    0 -0.00000000000E+00 -0.00000000000E+00 -0.74505805969E-08  0.93827000000E+00  0.93827000000E+00 0. -1.
     999902    2    1    2    0    0 -0.14456882506E-01  0.17152269120E-01  0.83451393533E-02  0.10199958583E+01  0.10197150130E+01 0.  0.
     999903    2    3    3    0    0 -0.52833515279E-01  0.27691059771E-01  0.11645729558E+00  0.13248694546E+00  0.20792159506E-01 0.  0.
         14    1    1    2    0    0  0.14456882506E-01 -0.17152269120E-01 -0.83451393533E-02  0.23934141693E-01  0.00000000000E+00 0. -1.
     999901    1    3    3    0    0  0.38376632773E-01 -0.10538790650E-01 -0.10811215623E+00  0.88750891284E+00  0.88000000000E+00 0. -1.
        -11    1    4    4    0    0 -0.47944041294E-01  0.16285322779E-01  0.96549509324E-01  0.10902252843E+00  0.51100000000E-03 0. -1.
         11    1    4    4    0    0 -0.48894739848E-02  0.11405736992E-01  0.19907786255E-01  0.23464417034E-01  0.51100000000E-03 0.  1.
</event>
<event>
 8    1  0.1180500E+005  0.1043930E+01  0.7957747E-01            NaN
         13   -1    0    0    0    0  0.00000000000E+00  0.00000000000E+00  0.74505805969E-08  0.10566000000E+00  0.10566000000E+00 0. -1.
     999900   -1    0    0    0    0 -0.00000000000E+00 -0.00000000000E+00 -0.74505805969E-08  0.93827000000E+00  0.93827000000E+00 0.  1.
     999902    2    1    2    0    0 -0.15653791473E-01  0.16338122794E-01  0.86182312274E-02  0.10197174133E+01  0.10194299160E+01 0.  0.
     999903    2    3    3    0    0 -0.58878438276E-01 -0.98783846003E-01  0.58004985383E-01  0.12979579359E+00  0.16045279031E-01 0.  0.
         14    1    1    2    0    0  0.15653791473E-01 -0.16338122794E-01 -0.86182312274E-02  0.24212586673E-01  0.00000000000E+00 0. -1.
     999901    1    3    3    0    0  0.43224646803E-01  0.11512196880E+00 -0.49386754156E-01  0.88992161974E+00  0.88000000000E+00 0. -1.
        -11    1    4    4    0    0 -0.17510402193E-01 -0.28888070695E-01  0.25427282310E-01  0.42284070524E-01  0.51100000000E-03 0. -1.
         11    1    4    4    0    0 -0.41368036083E-01 -0.69895775308E-01  0.32577703073E-01  0.87511723065E-01  0.51100000000E-03 0.  1.
</event>
<event>
 8    1  0.1180500E+005  0.1043930E+01  0.7957747E-01            NaN
         13   -1    0    0    0    0  0.00000000000E+00  0.00000000000E+00  0.74505805969E-08  0.10566000000E+00  0.10566000000E+00 0. -1.
     999900   -1    0    0    0    0 -0.00000000000E+00 -0.00000000000E+00 -0.74505805969E-08  0.93827000000E+00  0.93827000000E+00 0. -1.
     999902    2    1    2    0    0  0.17877249914E-01 -0.53005238912E-02 -0.14608907803E-01  0.10202422013E+01  0.10199671748E+01 0.  0.
     999903    2    3    3    0    0  0.11374657645E-01 -0.57999750956E-01  0.11338463233E+00  0.12939887137E+00  0.19865525804E-01 0.  0.
         14    1    1    2    0    0 -0.17877249914E-01  0.53005238912E-02  0.14608907803E-01  0.23687798657E-01  0.00000000000E+00 0. -1.
     999901    1    3    3    0    0  0.65025922700E-02  0.52699227064E-01 -0.12799354014E+00  0.89084332997E+00  0.88000000000E+00 0. -1.
        -11    1    4    4    0    0  0.13819668247E-01 -0.39482606194E-01  0.62655829649E-01  0.75338393481E-01  0.51100000000E-03 0. -1.
         11    1    4    4    0    0 -0.24450106028E-02 -0.18517144762E-01  0.50728802683E-01  0.54060477890E-01  0.51100000000E-03 0.  1.
</event>
<event>
 8    1  0.1180500E+005  0.1043930E+01  0.7957747E-01            NaN
         13   -1    0    0    0    0  0.00000000000E+00  0.00000000000E+00  0.74505805969E-08  0.10566000000E+00  0.10566000000E+00 0. -1.
     999900   -1    0    0    0    0 -0.00000000000E+00 -0.00000000000E+00 -0.74505805969E-08  0.93827000000E+00  0.93827000000E+00 0. -1.
     999902    2    1    2    0    0 -0.22729592916E-01 -0.74560743734E-04  0.88142195138E-02  0.10195511071E+01  0.10192595987E+01 0.  0.
     999903    2    3    3    0    0  0.36613041852E-01  0.98091884656E-01 -0.69247183774E-01  0.12867974602E+00  0.28297913467E-01 0.  0.
         14    1    1    2    0    0  0.22729592916E-01  0.74560743734E-04 -0.88142195138E-02  0.24378892901E-01  0.00000000000E+00 0. -1.
     999901    1    3    3    0    0 -0.59342634768E-01 -0.98166445400E-01  0.78061403288E-01  0.89087136108E+00  0.88000000000E+00 0.  1.
        -11    1    4    4    0    0  0.18286469472E-01  0.51477634360E-01 -0.52752863252E-01  0.75943844433E-01  0.51100000000E-03 0.  1.
         11    1    4    4    0    0  0.18326572380E-01  0.46614250296E-01 -0.16494320522E-01  0.52735901589E-01  0.51100000000E-03 0. -1.
</event>
<event>
 8    1  0.1180500E+005  0.1043930E+01  0.7957747E-01            NaN
         13   -1    0    0    0    0  0.00000000000E+00  0.00000000000E+00  0.74505805969E-08  0.10566000000E+00  0.10566000000E+00 0. -1.
     999900   -1    0    0    0    0 -0.00000000000E+00 -0.00000000000E+00 -0.74505805969E-08  0.93827000000E+00  0.93827000000E+00 0.  1.
     999902    2    1    2    0    0 -0.23185890819E-01 -0.34125441739E-02 -0.62750433541E-02  0.10196687725E+01  0.10193801050E+01 0.  0.
     999903    2    3    3    0    0  0.11360041207E+00  0.11716934789E-01 -0.53446598063E-01  0.12772452011E+00  0.20363546090E-01 0.  0.
         14    1    1    2    0    0  0.23185890819E-01  0.34125441739E-02  0.62750433541E-02  0.24261227502E-01  0.00000000000E+00 0. -1.
     999901    1    3    3    0    0 -0.13678630289E+00 -0.15129478963E-01  0.47171554708E-01  0.89194425239E+00  0.88000000000E+00 0.  1.
        -11    1    4    4    0    0  0.25072703307E-01  0.10061100993E-01 -0.78991996124E-02  0.28151814859E-01  0.51100000000E-03 0.  1.
         11    1    4    4    0    0  0.88527708765E-01  0.16558337960E-02 -0.45547398450E-01  0.99572705252E-01  0.51100000000E-03 0. -1.
</event>
<event>
 8    1  0.1180500E+005  0.1043930E+01  0.7957747E-01            NaN
         13   -1    0    0    0    0  0.00000000000E+00  0.00000000000E+00  0.74505805969E-08  0.10566000000E+00  0.10566000000E+00 0. -1.
     999900   -1    0    0    0    0 -0.00000000000E+00 -0.00000000000E+00 -0.74505805969E-08  0.93827000000E+00  0.93827000000E+00 0. -1.
     999902    2    1    2    0    0 -0.29345883414E-02 -0.10155037261E-01  0.21272565236E-01  0.10201758715E+01  0.10198992843E+01 0.  0.
     999903    2    3    3    0    0 -0.38247736049E-01 -0.11269000840E+00 -0.50171678389E-01  0.13064525443E+00  0.19724550363E-01 0.  0.
         14    1    1    2    0    0  0.29345883414E-02  0.10155037261E-01 -0.21272565236E-01  0.23754128530E-01  0.00000000000E+00 0.  1.
     999901    1    3    3    0    0  0.35313147708E-01  0.10253497114E+00  0.71444243624E-01  0.88953061704E+00  0.88000000000E+00 0.  1.
        -11    1    4    4    0    0 -0.35253316557E-01 -0.78602437625E-01 -0.39709827564E-01  0.94859217027E-01  0.51100000000E-03 0.  1.
         11    1    4    4    0    0 -0.29944194923E-02 -0.34087570772E-01 -0.10461850825E-01  0.35786037402E-01  0.51100000000E-03 0. -1.
</event>
<event>
 8    1  0.1180500E+005  0.1043930E+01  0.7957747E-01            NaN
         13   -1    0    0    0    0  0.00000000000E+00  0.00000000000E+00  0.74505805969E-08  0.10566000000E+00  0.10566000000E+00 0.  1.
     999900   -1    0    0    0    0 -0.00000000000E+00 -0.00000000000E+00 -0.74505805969E-08  0.93827000000E+00  0.93827000000E+00 0.  1.
     999902    2    1    2    0    0  0.98911506548E-02 -0.33409754502E-02 -0.14700107314E-01  0.10258997439E+01  0.10257412902E+01 0.  0.
     999903    2    3    3    0    0 -0.10972824278E+00  0.70727883501E-01 -0.25772927203E-01  0.13465477061E+00  0.20614138441E-01 0.  0.
         14    1    1    2    0    0 -0.98911506548E-02  0.33409754502E-02  0.14700107314E-01  0.18030256051E-01  0.00000000000E+00 0.  1.
     999901    1    3    3    0    0  0.11961939344E+00 -0.74068858951E-01  0.11072819889E-01  0.89124497333E+00  0.88000000000E+00 0.  1.
        -11    1    4    4    0    0 -0.77473196670E-01  0.60391487304E-01 -0.17403955442E-01  0.99761649581E-01  0.51100000000E-03 0.  1.
         11    1    4    4    0    0 -0.32255046114E-01  0.10336396197E-01 -0.83689717602E-02  0.34893121034E-01  0.51100000000E-03 0. -1.
</event>
<event>
 8    1  0.1180500E+005  0.1043930E+01  0.7957747E-01            NaN
         13   -1    0    0    0    0  0.00000000000E+00  0.00000000000E+00  0.74505805969E-08  0.10566000000E+00  0.10566000000E+00 0. -1.
     999900   -1    0    0    0    0 -0.00000000000E+00 -0.00000000000E+00 -0.74505805969E-08  0.93827000000E+00  0.93827000000E+00 0. -1.
     999902    2    1    2    0    0  0.78354889843E-02  0.58333236289E-02  0.21547987290E-01  0.10202712108E+01  0.10199968653E+01 0.  0.
     999903    2    3    3    0    0  0.68998116903E-01  0.53130288015E-01  0.99200633362E-01  0.13347483992E+00  0.19778766156E-01 0.  0.
         14    1    1    2    0    0 -0.78354889843E-02 -0.58333236289E-02 -0.21547987290E-01  0.23658789243E-01  0.00000000000E+00 0.  1.
     999901    1    3    3    0    0 -0.61162627919E-01 -0.47296964386E-01 -0.77652646072E-01  0.88679637084E+00  0.88000000000E+00 0. -1.
        -11    1    4    4    0    0  0.44225038446E-01  0.41609349688E-01  0.78216055959E-01  0.99021232762E-01  0.51100000000E-03 0. -1.
         11    1    4    4    0    0  0.24773078457E-01  0.11520938327E-01  0.20984577403E-01  0.34453607154E-01  0.51100000000E-03 0.  1.
</event>
<event>
 8    1  0.1180500E+005  0.1043930E+01  0.7957747E-01            NaN
         13   -1    0    0    0    0  0.00000000000E+00  0.00000000000E+00  0.74505805969E-08  0.10566000000E+00  0.10566000000E+00 0. -1.
     999900   -1    0    0    0    0 -0.00000000000E+00 -0.00000000000E+00 -0.74505805969E-08  0.93827000000E+00  0.93827000000E+00 0. -1.
     999902    2    1    2    0    0  0.22456052175E-01 -0.91956954289E-02  0.12872704073E-02  0.10196299556E+01  0.10193403525E+01 0.  0.
     999903    2    3    3    0    0 -0.32835969985E-01  0.15416368041E-01  0.12229625532E+00  0.12928949496E+00  0.21060249612E-01 0.  0.
         14    1    1    2    0    0 -0.22456052175E-01  0.91956954289E-02 -0.12872704073E-02  0.24300044420E-01  0.00000000000E+00 0.  1.
     999901    1    3    3    0    0  0.55292022160E-01 -0.24612063470E-01 -0.12100898491E+00  0.89034046062E+00  0.88000000000E+00 0. -1.
        -11    1    4    4    0    0 -0.23229624101E-01  0.20133479801E-01  0.81386081967E-01  0.86999585653E-01  0.51100000000E-03 0.  1.
         11    1    4    4    0    0 -0.96063458842E-02 -0.47171117601E-02  0.40910173354E-01  0.42289909310E-01  0.51100000000E-03 0. -1.
</event>
<event>
 8    1  0.1180500E+005  0.1043930E+01  0.7957747E-01            NaN
         13   -1    0    0    0    0  0.00000000000E+00  0.00000000000E+00  0.74505805969E-08  0.10566000000E+00  0.10566000000E+00 0. -1.
     999900   -1    0    0    0    0 -0.00000000000E+00 -0.00000000000E+00 -0.74505805969E-08  0.93827000000E+00  0.93827000000E+00 0. -1.
     999902    2    1    2    0    0  0.11469116519E-03  0.22635354105E-01  0.66599389048E-02  0.10203349328E+01  0.10200620804E+01 0.  0.
     999903    2    3    3    0    0 -0.10918617674E+00 -0.19902342818E-01  0.67013935382E-01  0.13050419594E+00  0.14924918168E-01 0.  0.
         14    1    1    2    0    0 -0.11469116519E-03 -0.22635354105E-01 -0.66599389048E-02  0.23595067191E-01  0.00000000000E+00 0. -1.
     999901    1    3    3    0    0  0.10930086790E+00  0.42537696923E-01 -0.60353996477E-01  0.88983073687E+00  0.88000000000E+00 0.  1.
        -11    1    4    4    0    0 -0.10126493288E+00 -0.16271479487E-01  0.57462430861E-01  0.11756504479E+00  0.51100000000E-03 0. -1.
         11    1    4    4    0    0 -0.79212438592E-02 -0.36308633311E-02  0.95515045210E-02  0.12939151148E-01  0.51100000000E-03 0.  1.
</event>
<event>
 8    1  0.1180500E+005  0.1043930E+01  0.7957747E-01            NaN
         13   -1    0    0    0    0  0.00000000000E+00  0.00000000000E+00  0.74505805969E-08  0.10566000000E+00  0.10566000000E+00 0. -1.
     999900   -1    0    0    0    0 -0.00000000000E+00 -0.00000000000E+00 -0.74505805969E-08  0.93827000000E+00  0.93827000000E+00 0.  1.
     999902    2    1    2    0    0  0.13429339529E-01 -0.17215201938E-01 -0.46409264308E-02  0.10216085185E+01  0.10213646345E+01 0.  0.
     999903    2    3    3    0    0  0.56342255595E-01 -0.92666796994E-01 -0.76486729516E-01  0.13442405010E+00  0.21401411686E-01 0.  0.
         14    1    1    2    0    0 -0.13429339529E-01  0.17215201938E-01  0.46409264308E-02  0.22321481494E-01  0.00000000000E+00 0. -1.
     999901    1    3    3    0    0 -0.42912916066E-01  0.75451595056E-01  0.71845803085E-01  0.88718446841E+00  0.88000000000E+00 0. -1.
        -11    1    4    4    0    0  0.18145864180E-01 -0.50377376473E-01 -0.37764387754E-01  0.65525281766E-01  0.51100000000E-03 0. -1.
         11    1    4    4    0    0  0.38196391415E-01 -0.42289420521E-01 -0.38722341762E-01  0.68898768332E-01  0.51100000000E-03 0.  1.
</event>
<event>
 8    1  0.1180500E+005  0.1043930E+01  0.7957747E-01            NaN
         13   -1    0    0    0    0  0.00000000000E+00  0.00000000000E+00  0.74505805969E-08  0.10566000000E+00  0.10566000000E+00 0. -1.
     999900   -1    0    0    0    0 -0.00000000000E+00 -0.00000000000E+00 -0.74505805969E-08  0.93827000000E+00  0.93827000000E+00 0. -1.
     999902    2    1    2    0    0  0.15986329563E-01  0.20672514877E-02  0.59176997968E-02  0.10267586450E+01  0.10266150494E+01 0.  0.
     999903    2    3    3    0    0 -0.57839330913E-01 -0.10288848053E-01 -0.11957571795E+00  0.13470959969E+00  0.19926749134E-01 0.  0.
         14    1    1    2    0    0 -0.15986329563E-01 -0.20672514877E-02 -0.59176997968E-02  0.17171354999E-01  0.00000000000E+00 0. -1.
     999901    1    3    3    0    0  0.73825660475E-01  0.12356099541E-01  0.12549341775E+00  0.89204904531E+00  0.88000000000E+00 0.  1.
        -11    1    4    4    0    0 -0.40592317462E-01 -0.11338073589E-01 -0.10042143214E+00  0.10890827932E+00  0.51100000000E-03 0.  1.
         11    1    4    4    0    0 -0.17247013451E-01  0.10492255357E-02 -0.19154285811E-01  0.25801320376E-01  0.51100000000E-03 0. -1.
</event>
<event>
 7    1  0.1180500E+005  0.1043930E+01  0.7957747E-01            NaN
         13   -1    0    0    0    0  0.00000000000E+00  0.00000000000E+00  0.74505805969E-08  0.10566000000E+00  0.10566000000E+00 0. -1.
     999900   -1    0    0    0    0 -0.00000000000E+00 -0.00000000000E+00 -0.74505805969E-08  0.93827000000E+00  0.93827000000E+00 0.  1.
     999903    2    1    2    0    0 -0.71835261873E-01 -0.39040728527E-01 -0.45086366221E-01  0.95532734203E-01  0.20229670117E-01 0.  0.
         14    1    1    2    0    0  0.58208114724E-01  0.54324713814E-02 -0.27614418940E-01  0.64654872194E-01  0.00000000000E+00 0.  1.
     999901    1    1    2    0    0  0.13627147148E-01  0.33608257145E-01  0.72700785161E-01  0.88374239360E+00  0.88000000000E+00 0. -1.
        -11    1    3    3    0    0 -0.22069776413E-01 -0.14897719058E-01 -0.25445865720E-01  0.36834362588E-01  0.51100000000E-03 0.  1.
         11    1    3    3    0    0 -0.49765485460E-01 -0.24143009469E-01 -0.19640500501E-01  0.58698371615E-01  0.51100000000E-03 0. -1.
</event>
<event>
 8    1  0.1180500E+005  0.1043930E+01  0.7957747E-01            NaN
         13   -1    0    0    0    0  0.00000000000E+00  0.00000000000E+00  0.74505805969E-08  0.10566000000E+00  0.10566000000E+00 0.  1.
     999900   -1    0    0    0    0 -0.00000000000E+00 -0.00000000000E+00 -0.74505805969E-08  0.93827000000E+00  0.93827000000E+00 0.  1.
     999902    2    1    2    0    0 -0.16652871118E-01 -0.26302551883E-02  0.49669632467E-02  0.10263542473E+01  0.10262037487E+01 0.  0.
     999903    2    3    3    0    0 -0.18923459506E-01  0.98583417322E-01 -0.89059406650E-01  0.13557351036E+00  0.19282409307E-01 0.  0.
         14    1    1    2    0    0  0.16652871118E-01  0.26302551883E-02 -0.49669632467E-02  0.17575752693E-01  0.00000000000E+00 0. -1.
     999901    1    3    3    0    0  0.22705883873E-02 -0.10121367251E+00  0.94026369896E-01  0.89078073694E+00  0.88000000000E+00 0. -1.
        -11    1    4    4    0    0 -0.10535634241E-01  0.77404819898E-01 -0.77432879132E-01  0.10999371629E+00  0.51100000000E-03 0. -1.
         11    1    4    4    0    0 -0.83878252643E-02  0.21178597424E-01 -0.11626527518E-01  0.25579794069E-01  0.51100000000E-03 0.  1.
</event>
<event>
 8    1  0.1180500E+005  0.1043930E+01  0.7957747E-01            NaN
         13   -1    0    0    0    0  0.00000000000E+00  0.00000000000E+00  0.74505805969E-08  0.10566000000E+00  0.10566000000E+00 0.  1.
     999900   -1    0    0    0    0 -0.00000000000E+00 -0.00000000000E+00 -0.74505805969E-08  0.93827000000E+00  0.93827000000E+00 0.  1.
     999902    2    1    2    0    0 -0.23373855121E-01  0.48737321607E-02 -0.16334335707E-03  0.10200528760E+01  0.10197733831E+01 0.  0.
     999903    2    3    3    0    0  0.63139319997E-01 -0.99312995555E-01  0.47445761138E-01  0.12842176927E+00  0.19783977258E-01 0.  0.
         14    1    1    2    0    0  0.23373855121E-01 -0.48737321607E-02  0.16334335707E-03  0.23877123978E-01  0.00000000000E+00 0. -1.
     999901    1    3    3    0    0 -0.86513175118E-01  0.10418672772E+00 -0.47609104495E-01  0.89163110675E+00  0.88000000000E+00 0.  1.
        -11    1    4    4    0    0  0.25726552346E-01 -0.45347112163E-01  0.10888779690E-01  0.53263896977E-01  0.51100000000E-03 0.  1.
         11    1    4    4    0    0  0.37412767651E-01 -0.53965883392E-01  0.36556981448E-01  0.75157872290E-01  0.51100000000E-03 0. -1.
</event>
<event>
 8    1  0.1180500E+005  0.1043930E+01  0.7957747E-01            NaN
         13   -1    0    0    0    0  0.00000000000E+00  0.00000000000E+00  0.74505805969E-08  0.10566000000E+00  0.10566000000E+00 0. -1.
     999900   -1    0    0    0    0 -0.00000000000E+00 -0.00000000000E+00 -0.74505805969E-08  0.93827000000E+00  0.93827000000E+00 0.  1.
     999902    2    1    2    0    0 -0.77315930749E-02 -0.58736944040E-02  0.22427562620E-01  0.10194908228E+01  0.10191978534E+01 0.  0.
     999903    2    3    3    0    0 -0.54978952146E-01 -0.95071983346E-01 -0.64482434626E-01  0.12946723024E+00  0.23289743086E-01 0.  0.
         14    1    1    2    0    0  0.77315930749E-02  0.58736944040E-02 -0.22427562620E-01  0.24439177206E-01  0.00000000000E+00 0.  1.
     999901    1    3    3    0    0  0.47247359071E-01  0.89198288942E-01  0.86909997247E-01  0.89002359256E+00  0.88000000000E+00 0.  1.
        -11    1    4    4    0    0 -0.50005201477E-01 -0.76132246633E-01 -0.44112146278E-01  0.10120662885E+00  0.51100000000E-03 0. -1.
         11    1    4    4    0    0 -0.49737506689E-02 -0.18939736713E-01 -0.20370288348E-01  0.28260601389E-01  0.51100000000E-03 0.  1.
</event>
<event>
 8    1  0.1180500E+005  0.1043930E+01  0.7957747E-01            NaN
         13   -1    0    0    0    0  0.00000000000E+00  0.00000000000E+00  0.74505805969E-08  0.10566000000E+00  0.10566000000E+00 0. -1.
     999900   -1    0    0    0    0 -0.00000000000E+00 -0.00000000000E+00 -0.74505805969E-08  0.93827000000E+00  0.93827000000E+00 0. -1.
     999902    2    1    2    0    0 -0.12407309323E-01 -0.27593298534E-01  0.14085111643E-02  0.10136427857E+01  0.10131902001E+01 0.  0.
     999903    2    3    3    0    0  0.74450062788E-02 -0.69110437784E-01 -0.10339988335E+00  0.12622936068E+00  0.20264128194E-01 0.  0.
         14    1    1    2    0    0  0.12407309323E-01  0.27593298534E-01 -0.14085111643E-02  0.30287214337E-01  0.00000000000E+00 0. -1.
     999901    1    3    3    0    0 -0.19852315602E-01  0.41517139250E-01  0.10480839451E+00  0.88741342499E+00  0.88000000000E+00 0.  1.
        -11    1    4    4    0    0  0.46874935658E-02 -0.11694565542E-01 -0.33091126239E-01  0.35412133739E-01  0.51100000000E-03 0.  1.
         11    1    4    4    0    0  0.27575127130E-02 -0.57415872241E-01 -0.70308757107E-01  0.90817226937E-01  0.51100000000E-03 0. -1.
</event>
<event>
 8    1  0.1180500E+005  0.1043930E+01  0.7957747E-01            NaN
         13   -1    0    0    0    0  0.00000000000E+00  0.00000000000E+00  0.74505805969E-08  0.10566000000E+00  0.10566000000E+00 0.  1.
     999900   -1    0    0    0    0 -0.00000000000E+00 -0.00000000000E+00 -0.74505805969E-08  0.93827000000E+00  0.93827000000E+00 0.  1.
     999902    2    1    2    0    0  0.84276099633E-02  0.79622264408E-02 -0.20525354274E-01  0.10203564592E+01  0.10200841102E+01 0.  0.
     999903    2    3    3    0    0  0.79877861097E-01 -0.31949460746E-01  0.93632797378E-01  0.12921664704E+00  0.22991311225E-01 0.  0.
         14    1    1    2    0    0 -0.84276099633E-02 -0.79622264408E-02  0.20525354274E-01  0.23573540838E-01  0.00000000000E+00 0.  1.
     999901    1    3    3    0    0 -0.71450251134E-01  0.39911687187E-01 -0.11415815165E+00  0.89113981212E+00  0.88000000000E+00 0. -1.
        -11    1    4    4    0    0  0.29578410982E-01 -0.47139257125E-02  0.45407269888E-01  0.54398389420E-01  0.51100000000E-03 0. -1.
         11    1    4    4    0    0  0.50299450115E-01 -0.27235535034E-01  0.48225527490E-01  0.74818257619E-01  0.51100000000E-03 0.  1.
</event>
<event>
 8    1  0.1180500E+005  0.1043930E+01  0.7957747E-01            NaN
         13   -1    0    0    0    0  0.00000000000E+00  0.00000000000E+00  0.74505805969E-08  0.10566000000E+00  0.10566000000E+00 0. -1.
     999900   -1    0    0    0    0 -0.00000000000E+00 -0.00000000000E+00 -0.74505805969E-08  0.93827000000E+00  0.93827000000E+00 0. -1.
     999902    2    1    2    0    0  0.18393630120E-01  0.94221313428E-02  0.13357690621E-01  0.10193224791E+01  0.10190254100E+01 0.  0.
     999903    2    3    3    0    0 -0.40773011753E-01  0.15946806468E-02 -0.11893172068E+00  0.12743546333E+00  0.20737927475E-01 0.  0.
         14    1    1    2    0    0 -0.18393630120E-01 -0.94221313428E-02 -0.13357690621E-01  0.24607520939E-01  0.00000000000E+00 0.  1.
     999901    1    3    3    0    0  0.59166641873E-01  0.78274506960E-02  0.13228941130E+00  0.89188701574E+00  0.88000000000E+00 0.  1.
        -11    1    4    4    0    0 -0.33462033996E-01  0.76808358052E-02 -0.75050349232E-01  0.82531927147E-01  0.51100000000E-03 0. -1.
         11    1    4    4    0    0 -0.73109777568E-02 -0.60861551584E-02 -0.43881371446E-01  0.44903536179E-01  0.51100000000E-03 0.  1.
</event>
<event>
 8    1  0.1180500E+005  0.1043930E+01  0.7957747E-01            NaN
         13   -1    0    0    0    0  0.00000000000E+00  0.00000000000E+00  0.74505805969E-08  0.10566000000E+00  0.10566000000E+00 0. -1.
     999900   -1    0    0    0    0 -0.00000000000E+00 -0.00000000000E+00 -0.74505805969E-08  0.93827000000E+00  0.93827000000E+00 0. -1.
     999902    2    1    2    0    0  0.12452603211E-01 -0.20293765377E-01 -0.10114528914E-03  0.10201200342E+01  0.10198421298E+01 0.  0.
     999903    2    3    3    0    0  0.61988394475E-01  0.99573490911E-01  0.49950600145E-01  0.12920638467E+00  0.21018711705E-01 0.  0.
         14    1    1    2    0    0 -0.12452603211E-01  0.20293765377E-01  0.10114528914E-03  0.23809965777E-01  0.00000000000E+00 0.  1.
     999901    1    3    3    0    0 -0.49535791265E-01 -0.11986725629E+00 -0.50051745435E-01  0.89091364956E+00  0.88000000000E+00 0.  1.
        -11    1    4    4    0    0  0.31645791641E-01  0.31706998201E-01  0.17697527789E-01  0.48169009481E-01  0.51100000000E-03 0. -1.
         11    1    4    4    0    0  0.30342602835E-01  0.67866492710E-01  0.32253072357E-01  0.81037375186E-01  0.51100000000E-03 0.  1.
</event>
<event>
 8    1  0.1180500E+005  0.1043930E+01  0.7957747E-01            NaN
         13   -1    0    0    0    0  0.00000000000E+00  0.00000000000E+00  0.74505805969E-08  0.10566000000E+00  0.10566000000E+00 0. -1.
     999900   -1    0    0    0    0 -0.00000000000E+00 -0.00000000000E+00 -0.74505805969E-08  0.93827000000E+00  0.93827000000E+00 0. -1.
     999902    2    1    2    0    0  0.10702505426E-01  0.42235873302E-02 -0.20992886678E-01  0.10199908354E+01  0.10197098708E+01 0.  0.
     999903    2    3    3    0    0 -0.67184029539E-01  0.10711225256E+00 -0.26016584418E-01  0.13056538750E+00  0.19589009043E-01 0.  0.
         14    1    1    2    0    0 -0.10702505426E-01 -0.42235873302E-02  0.20992886678E-01  0.23939164635E-01  0.00000000000E+00 0. -1.
     999901    1    3    3    0    0  0.77886534965E-01 -0.10288866523E+00  0.50236977398E-02  0.88942544786E+00  0.88000000000E+00 0.  1.
        -11    1    4    4    0    0 -0.62330508338E-01  0.86116928196E-01 -0.23387089416E-01  0.10885051522E+00  0.51100000000E-03 0. -1.
         11    1    4    4    0    0 -0.48535212011E-02  0.20995324367E-01 -0.26294950021E-02  0.21714872284E-01  0.51100000000E-03 0.  1.
</event>
<event>
 8    1  0.1180500E+005  0.1043930E+01  0.7957747E-01            NaN
         13   -1    0    0    0    0  0.00000000000E+00  0.00000000000E+00  0.74505805969E-08  0.10566000000E+00  0.10566000000E+00 0.  1.
     999900   -1    0    0    0    0 -0.00000000000E+00 -0.00000000000E+00 -0.74505805969E-08  0.93827000000E+00  0.93827000000E+00 0.  1.
     999902    2    1    2    0    0 -0.10909101564E-01  0.21264794548E-01 -0.79857076407E-03  0.10200168718E+01  0.10197365253E+01 0.  0.
     999903    2    3    3    0    0 -0.39205108092E-01 -0.76145462148E-02 -0.12266238839E+00  0.13069945360E+00  0.21006280715E-01 0.  0.
         14    1    1    2    0    0  0.10909101564E-01 -0.21264794548E-01  0.79857076407E-03  0.23913128180E-01  0.00000000000E+00 0. -1.
     999901    1    3    3    0    0  0.28296006528E-01  0.28879340763E-01  0.12186381763E+00  0.88931741822E+00  0.88000000000E+00 0. -1.
        -11    1    4    4    0    0 -0.38498847278E-02 -0.15904881799E-02 -0.44529676334E-01  0.44726999234E-01  0.51100000000E-03 0. -1.
         11    1    4    4    0    0 -0.35355223364E-01 -0.60240580349E-02 -0.78132712059E-01  0.85972454362E-01  0.51100000000E-03 0.  1.
</event>
<event>
 8    1  0.1180500E+005  0.1043930E+01  0.7957747E-01            NaN
         13   -1    0    0    0    0  0.00000000000E+00  0.00000000000E+00  0.74505805969E-08  0.10566000000E+00  0.10566000000E+00 0. -1.
     999900   -1    0    0    0    0 -0.00000000000E+00 -0.00000000000E+00 -0.74505805969E-08  0.93827000000E+00  0.93827000000E+00 0. -1.
     999902    2    1    2    0    0  0.44602225147E-02 -0.23538376597E-01  0.10706690356E-02  0.10199488597E+01  0.10196668972E+01 0.  0.
     999903    2    3    3    0    0  0.10077598194E+00  0.48297852700E-01  0.62718650036E-01  0.12964686436E+00  0.19651953220E-01 0.  0.
         14    1    1    2    0    0 -0.44602225147E-02  0.23538376597E-01 -0.10706690356E-02  0.23981140295E-01  0.00000000000E+00 0.  1.
     999901    1    3    3    0    0 -0.96315759422E-01 -0.71836229296E-01 -0.61647981001E-01  0.89030199534E+00  0.88000000000E+00 0. -1.
        -11    1    4    4    0    0  0.14378772407E-01  0.53064921906E-02  0.16892629393E-01  0.22815126651E-01  0.51100000000E-03 0.  1.
         11    1    4    4    0    0  0.86397209530E-01  0.42991360509E-01  0.45826020644E-01  0.10683173771E+00  0.51100000000E-03 0. -1.
</event>
<event>
 8    1  0.1180500E+005  0.1043930E+01  0.7957747E-01            NaN
         13   -1    0    0    0    0  0.00000000000E+00  0.00000000000E+00  0.74505805969E-08  0.10566000000E+00  0.10566000000E+00 0.  1.
     999900   -1    0    0    0    0 -0.00000000000E+00 -0.00000000000E+00 -0.74505805969E-08  0.93827000000E+00  0.93827000000E+00 0.  1.
     999902    2    1    2    0    0  0.18781212271E-01 -0.13856578134E-01  0.35396848743E-02  0.10203234742E+01  0.10200503536E+01 0.  0.
     999903    2    3    3    0    0 -0.12330817389E+00  0.26744243183E-01  0.45609997152E-02  0.12800129950E+00  0.21056344983E-01 0.  0.
         14    1    1    2    0    0 -0.18781212271E-01  0.13856578134E-01 -0.35396848743E-02  0.23606525813E-01  0.00000000000E+00 0. -1.
     999901    1    3    3    0    0  0.14208938616E+00 -0.40600821316E-01 -0.10213148409E-02  0.89232217469E+00  0.88000000000E+00 0.  1.
        -11    1    4    4    0    0 -0.51552796797E-01  0.13594843903E-01  0.12060817771E-01  0.54664751757E-01  0.51100000000E-03 0. -1.
         11    1    4    4    0    0 -0.71755377094E-01  0.13149399280E-01 -0.74998180554E-02  0.73336547745E-01  0.51100000000E-03 0.  1.
</event>
<event>
 8    1  0.1180500E+005  0.1043930E+01  0.7957747E-01            NaN
         13   -1    0    0    0    0  0.00000000000E+00  0.00000000000E+00  0.74505805969E-08  0.10566000000E+00  0.10566000000E+00 0.  1.
     999900   -1    0    0    0    0 -0.00000000000E+00 -0.00000000000E+00 -0.74505805969E-08  0.93827000000E+00  0.93827000000E+00 0. -1.
     999902    2    1    2    0    0  0.19376868922E-01  0.34187684073E-02  0.13107418141E-01  0.10202877616E+01  0.10200138043E+01 0.  0.
     999903    2    3    3    0    0  0.54623420719E-01  0.38341178110E-01 -0.11027825562E+00  0.13029567252E+00  0.19023790028E-01 0.  0.
         14    1    1    2    0    0 -0.19376868922E-01 -0.34187684073E-02 -0.13107418141E-01  0.23642238409E-01  0.00000000000E+00 0.  1.
     999901    1    3    3    0    0 -0.35246551797E-01 -0.34922409702E-01  0.12338567376E+00  0.88999208907E+00  0.88000000000E+00 0.  1.
        -11    1    4    4    0    0  0.29125198151E-01  0.89531873555E-02 -0.49498889516E-01  0.58127772325E-01  0.51100000000E-03 0.  1.
         11    1    4    4    0    0  0.25498222568E-01  0.29387990754E-01 -0.60779366099E-01  0.72167900199E-01  0.51100000000E-03 0. -1.
</event>
<event>
 8    1  0.1180500E+005  0.1043930E+01  0.7957747E-01            NaN
         13   -1    0    0    0    0  0.00000000000E+00  0.00000000000E+00  0.74505805969E-08  0.10566000000E+00  0.10566000000E+00 0.  1.
     999900   -1    0    0    0    0 -0.00000000000E+00 -0.00000000000E+00 -0.74505805969E-08  0.93827000000E+00  0.93827000000E+00 0.  1.
     999902    2    1    2    0    0  0.19307023756E-01 -0.82400711579E-02 -0.99618143109E-02  0.10206943015E+01  0.10204297916E+01 0.  0.
     999903    2    3    3    0    0 -0.66044550182E-01  0.10166323494E+00  0.37748810336E-01  0.12848360244E+00  0.19640963981E-01 0.  0.
         14    1    1    2    0    0 -0.19307023756E-01  0.82400711579E-02  0.99618143109E-02  0.23235698470E-01  0.00000000000E+00 0.  1.
     999901    1    3    3    0    0  0.85351573939E-01 -0.10990330610E+00 -0.47710624647E-01  0.89221069909E+00  0.88000000000E+00 0.  1.
        -11    1    4    4    0    0 -0.28093793959E-01  0.50855613648E-01  0.27353248620E-01  0.64218502237E-01  0.51100000000E-03 0. -1.
         11    1    4    4    0    0 -0.37950756224E-01  0.50807621297E-01  0.10395561716E-01  0.64265100204E-01  0.51100000000E-03 0.  1.
</event>
<event>
 8    1  0.1180500E+005  0.1043930E+01  0.7957747E-01            NaN
         13   -1    0    0    0    0  0.00000000000E+00  0.00000000000E+00  0.74505805969E-08  0.10566000000E+00  0.10566000000E+00 0. -1.
     999900   -1    0    0    0    0 -0.00000000000E+00 -0.00000000000E+00 -0.74505805969E-08  0.93827000000E+00  0.93827000000E+00 0.  1.
     999902    2    1    2    0    0  0.64037348287E-02 -0.13133134374E-01 -0.17964306142E-01  0.10207739353E+01  0.10205112560E+01 0.  0.
     999903    2    3    3    0    0 -0.36080003043E-01  0.79694397058E-01 -0.96133376143E-01  0.13143023227E+00  0.19476046923E-01 0.  0.
         14    1    1    2    0    0 -0.64037348287E-02  0.13133134374E-01  0.17964306142E-01  0.23156064722E-01  0.00000000000E+00 0. -1.
     999901    1    3    3    0    0  0.42483737872E-01 -0.92827531432E-01  0.78169070001E-01  0.88934370301E+00  0.88000000000E+00 0. -1.
        -11    1    4    4    0    0 -0.22443005131E-01  0.41640284544E-01 -0.65062879727E-01  0.80442782247E-01  0.51100000000E-03 0. -1.
         11    1    4    4    0    0 -0.13636997912E-01  0.38054112514E-01 -0.31070496416E-01  0.50987450023E-01  0.51100000000E-03 0.  1.
</event>
<event>
 8    1  0.1180500E+005  0.1043930E+01  0.7957747E-01            NaN
         13   -1    0    0    0    0  0.00000000000E+00  0.00000000000E+00  0.74505805969E-08  0.10566000000E+00  0.10566000000E+00 0. -1.
     999900   -1    0    0    0    0 -0.00000000000E+00 -0.00000000000E+00 -0.74505805969E-08  0.93827000000E+00  0.93827000000E+00 0. -1.
     999902    2    1    2    0    0  0.11292825879E-01 -0.18649338643E-01 -0.82072291655E-03  0.10221125910E+01  0.10218797138E+01 0.  0.
     999903    2    3    3    0    0  0.91662876425E-01  0.72175881729E-01  0.57583312965E-01  0.13187689354E+00  0.21546143485E-01 0.  0.
         14    1    1    2    0    0 -0.11292825879E-01  0.18649338643E-01  0.82072291655E-03  0.21817408972E-01  0.00000000000E+00 0. -1.
     999901    1    3    3    0    0 -0.80370050546E-01 -0.90825220372E-01 -0.58404035882E-01  0.89023569749E+00  0.88000000000E+00 0.  1.
        -11    1    4    4    0    0  0.59589048267E-01  0.37617856744E-01  0.25950239097E-01  0.75097495628E-01  0.51100000000E-03 0. -1.
         11    1    4    4    0    0  0.32073828158E-01  0.34558024985E-01  0.31633073869E-01  0.56779397909E-01  0.51100000000E-03 0.  1.
</event>
<event>
 8    1  0.1180500E+005  0.1043930E+01  0.7957747E-01            NaN
         13   -1    0    0    0    0  0.00000000000E+00  0.00000000000E+00  0.74505805969E-08  0.10566000000E+00  0.10566000000E+00 0. -1.
     999900   -1    0    0    0    0 -0.00000000000E+00 -0.00000000000E+00 -0.74505805969E-08  0.93827000000E+00  0.93827000000E+00 0.  1.
     999902    2    1    2    0    0  0.16847542581E-01  0.15338220709E-01  0.34586393497E-02  0.10208851982E+01  0.10206250658E+01 0.  0.
     999903    2    3    3    0    0 -0.93374267515E-01 -0.60326555886E-01  0.61121852442E-01  0.12892160475E+00  0.22953260016E-01 0.  0.
         14    1    1    2    0    0 -0.16847542581E-01 -0.15338220709E-01 -0.34586393497E-02  0.23044801837E-01  0.00000000000E+00 0. -1.
     999901    1    3    3    0    0  0.11022181010E+00  0.75664776595E-01 -0.57663213092E-01  0.89196359342E+00  0.88000000000E+00 0.  1.
        -11    1    4    4    0    0 -0.13278567473E-01 -0.16880911439E-02  0.12760319941E-01  0.18500186265E-01  0.51100000000E-03 0.  1.
         11    1    4    4    0    0 -0.80095700042E-01 -0.58638464742E-01  0.48361532501E-01  0.11042141848E+00  0.51100000000E-03 0. -1.
</event>
<event>
 8    1  0.1180500E+005  0.1043930E+01  0.7957747E-01            NaN
         13   -1    0    0    0    0  0.00000000000E+00  0.00000000000E+00  0.74505805969E-08  0.10566000000E+00  0.10566000000E+00 0.  1.
     999900   -1    0    0    0    0 -0.00000000000E+00 -0.00000000000E+00 -0.74505805969E-08  0.93827000000E+00  0.93827000000E+00 0. -1.
     999902    2    1    2    0    0  0.21837865306E-03 -0.22527122733E-01  0.74346067881E-02  0.10202067556E+01  0.10199308956E+01 0.  0.
     999903    2    3    3    0    0 -0.14518844440E-01 -0.13013002426E+00  0.17361924403E-01  0.13347448381E+00  0.19219296315E-01 0.  0.
         14    1    1    2    0    0 -0.21837865306E-03  0.22527122733E-01 -0.74346067881E-02  0.23723244423E-01  0.00000000000E+00 0. -1.
     999901    1    3    3    0    0  0.14737223093E-01  0.10760290153E+00 -0.99273176150E-02  0.88673227177E+00  0.88000000000E+00 0. -1.
        -11    1    4    4    0    0  0.21066450044E-02 -0.45954009003E-01  0.38117675644E-03  0.46006687703E-01  0.51100000000E-03 0. -1.
         11    1    4    4    0    0 -0.16625489444E-01 -0.84176015257E-01  0.16980747647E-01  0.87467796105E-01  0.51100000000E-03 0.  1.
</event>
<event>
 8    1  0.1180500E+005  0.1043930E+01  0.7957747E-01            NaN
         13   -1    0    0    0    0  0.00000000000E+00  0.00000000000E+00  0.74505805969E-08  0.10566000000E+00  0.10566000000E+00 0.  1.
     999900   -1    0    0    0    0 -0.00000000000E+00 -0.00000000000E+00 -0.74505805969E-08  0.93827000000E+00  0.93827000000E+00 0. -1.
     999902    2    1    2    0    0  0.11374010861E-01 -0.10640901704E-01 -0.17791940833E-01  0.10202836457E+01  0.10200095919E+01 0.  0.
     999903    2    3    3    0    0  0.13561592597E-01  0.99480036709E-03 -0.13080749359E+00  0.13297722162E+00  0.19683360225E-01 0.  0.
         14    1    1    2    0    0 -0.11374010861E-01  0.10640901704E-01  0.17791940833E-01  0.23646354281E-01  0.00000000000E+00 0.  1.
     999901    1    3    3    0    0 -0.21875817357E-02 -0.11635702071E-01  0.11301555276E+00  0.88730642410E+00  0.88000000000E+00 0.  1.
        -11    1    4    4    0    0  0.30031994921E-02  0.85583464615E-02 -0.80762589071E-01  0.81271898069E-01  0.51100000000E-03 0. -1.
         11    1    4    4    0    0  0.10558393105E-01 -0.75635460944E-02 -0.50044904520E-01  0.51705323554E-01  0.51100000000E-03 0.  1.
</event>
<event>
 8    1  0.1180500E+005  0.1043930E+01  0.7957747E-01            NaN
         13   -1    0    0    0    0  0.00000000000E+00  0.00000000000E+00  0.74505805969E-08  0.10566000000E+00  0.10566000000E+00 0. -1.
     999900   -1    0    0    0    0 -0.00000000000E+00 -0.00000000000E+00 -0.74505805969E-08  0.93827000000E+00  0.93827000000E+00 0. -1.
     999902    2    1    2    0    0  0.43931523503E-03 -0.22126003239E-01  0.91248398841E-02  0.10199922532E+01  0.10197113224E+01 0.  0.
     999903    2    3    3    0    0 -0.10347348398E+00  0.19728231320E-02  0.77455522881E-01  0.13092099315E+00  0.20743541245E-01 0.  0.
         14    1    1    2    0    0 -0.43931523503E-03  0.22126003239E-01 -0.91248398841E-02  0.23937746764E-01  0.00000000000E+00 0.  1.
     999901    1    3    3    0    0  0.10391279922E+00 -0.24098826371E-01 -0.68330682997E-01  0.88907126009E+00  0.88000000000E+00 0.  1.
        -11    1    4    4    0    0 -0.32182010347E-01 -0.27225852714E-02  0.13424566529E-01  0.34979627900E-01  0.51100000000E-03 0.  1.
         11    1    4    4    0    0 -0.71291473637E-01  0.46954084034E-02  0.64030956352E-01  0.95941365249E-01  0.51100000000E-03 0. -1.
</event>
<event>
 8    1  0.1180500E+005  0.1043930E+01  0.7957747E-01            NaN
         13   -1    0    0    0    0  0.00000000000E+00  0.00000000000E+00  0.74505805969E-08  0.10566000000E+00  0.10566000000E+00 0. -1.
     999900   -1    0    0    0    0 -0.00000000000E+00 -0.00000000000E+00 -0.74505805969E-08  0.93827000000E+00  0.93827000000E+00 0.  1.
     999902    2    1    2    0    0 -0.17404906694E-01  0.12725350309E-01  0.84331320251E-02  0.10207786926E+01  0.10205161225E+01 0.  0.
     999903    2    3    3    0    0  0.80841235661E-01  0.91478617364E-01 -0.44193417450E-01  0.13025977914E+00  0.10531338848E-01 0.  0.
         14    1    1    2    0    0  0.17404906694E-01 -0.12725350309E-01 -0.84331320251E-02  0.23151307377E-01  0.00000000000E+00 0. -1.
     999901    1    3    3    0    0 -0.98246142355E-01 -0.78753267055E-01  0.52626549475E-01  0.89051891348E+00  0.88000000000E+00 0. -1.
        -11    1    4    4    0    0  0.46605021390E-01  0.44847976239E-01 -0.23018266654E-01  0.68654720976E-01  0.51100000000E-03 0.  1.
         11    1    4    4    0    0  0.34236214272E-01  0.46630641125E-01 -0.21175150795E-01  0.61605058165E-01  0.51100000000E-03 0. -1.
</event>
<event>
 8    1  0.1180500E+005  0.1043930E+01  0.7957747E-01            NaN
         13   -1    0    0    0    0  0.00000000000E+00  0.00000000000E+00  0.74505805969E-08  0.10566000000E+00  0.10566000000E+00 0. -1.
     999900   -1    0    0    0    0 -0.00000000000E+00 -0.00000000000E+00 -0.74505805969E-08  0.93827000000E+00  0.93827000000E+00 0.  1.
     999902    2    1    2    0    0  0.14225850971E-01  0.18919286948E-01  0.12644896175E-02  0.10202252919E+01  0.10199498679E+01 0.  0.
     999903    2    3    3    0    0  0.12643842818E+00  0.92440801412E-02 -0.32352419550E-01  0.13241035128E+00  0.20339442947E-01 0.  0.
         14    1    1    2    0    0 -0.14225850971E-01 -0.18919286948E-01 -0.12644896175E-02  0.23704708150E-01  0.00000000000E+00 0.  1.
     999901    1    3    3    0    0 -0.11221257720E+00  0.96752068068E-02  0.33616909168E-01  0.88781494057E+00  0.88000000000E+00 0. -1.
        -11    1    4    4    0    0  0.38991060813E-01 -0.45630974724E-03 -0.10126194522E-02  0.39010223802E-01  0.51100000000E-03 0. -1.
         11    1    4    4    0    0  0.87447367363E-01  0.97003898884E-02 -0.31339800098E-01  0.93400127483E-01  0.51100000000E-03 0.  1.
</event>
<event>
 8    1  0.1180500E+005  0.1043930E+01  0.7957747E-01            NaN
         13   -1    0    0    0    0  0.00000000000E+00  0.00000000000E+00  0.74505805969E-08  0.10566000000E+00  0.10566000000E+00 0. -1.
     999900   -1    0    0    0    0 -0.00000000000E+00 -0.00000000000E+00 -0.74505805969E-08  0.93827000000E+00  0.93827000000E+00 0. -1.
     999902    2    1    2    0    0  0.43565555664E-02  0.56616750531E-02 -0.22283588281E-01  0.10205293067E+01  0.10202609830E+01 0.  0.
     999903    2    3    3    0    0  0.14415638337E-01 -0.12681258197E+00 -0.18685886677E-01  0.13054978031E+00  0.20120666080E-01 0.  0.
         14    1    1    2    0    0 -0.43565555664E-02 -0.56616750531E-02  0.22283588281E-01  0.23400693312E-01  0.00000000000E+00 0. -1.
     999901    1    3    3    0    0 -0.10059082771E-01  0.13247425702E+00 -0.35977016043E-02  0.88997952638E+00  0.88000000000E+00 0. -1.
        -11    1    4    4    0    0  0.15242703289E-01 -0.65645689610E-01 -0.16256261432E-01  0.69326933617E-01  0.51100000000E-03 0. -1.
         11    1    4    4    0    0 -0.82706495165E-03 -0.61166892357E-01 -0.24296252449E-02  0.61222846690E-01  0.51100000000E-03 0.  1.
</event>
<event>
 8    1  0.1314260E+005  0.1043930E+01  0.7957747E-01            NaN
         13   -1    0    0    0    0  0.00000000000E+00  0.00000000000E+00  0.74505805969E-08  0.10566000000E+00  0.10566000000E+00 0.  1.
     999900   -1    0    0    0    0 -0.00000000000E+00 -0.00000000000E+00 -0.74505805969E-08  0.93827000000E+00  0.93827000000E+00 0. -1.
     999902    2    1    2    0    0 -0.19544363493E-01  0.15672587303E-01  0.75971408153E-02  0.10177512169E+01  0.10174144734E+01 0.  0.
     999903    2    3    3    0    0 -0.12353556909E+00 -0.33226833616E-01  0.14205393036E-01  0.13025530522E+00  0.19989798513E-01 0.  0.
         14    1    1    2    0    0  0.19544363493E-01 -0.15672587303E-01 -0.75971408153E-02  0.26178783121E-01  0.00000000000E+00 0.  1.
     999901    1    3    3    0    0  0.10399120560E+00  0.48899420920E-01 -0.66082522203E-02  0.88749591166E+00  0.88000000000E+00 0. -1.
        -11    1    4    4    0    0 -0.64501106822E-01 -0.88069338369E-02  0.12823262343E-01  0.66352483322E-01  0.51100000000E-03 0.  1.
         11    1    4    4    0    0 -0.59034462269E-01 -0.24419899780E-01  0.13821306922E-02  0.63902821901E-01  0.51100000000E-03 0. -1.
</event>
<event>
 8    1  0.1180500E+005  0.1043930E+01  0.7957747E-01            NaN
         13   -1    0    0    0    0  0.00000000000E+00  0.00000000000E+00  0.74505805969E-08  0.10566000000E+00  0.10566000000E+00 0. -1.
     999900   -1    0    0    0    0 -0.00000000000E+00 -0.00000000000E+00 -0.74505805969E-08  0.93827000000E+00  0.93827000000E+00 0.  1.
     999902    2    1    2    0    0 -0.15883154317E-01 -0.17216972084E-01 -0.57850094595E-02  0.10198019032E+01  0.10195164328E+01 0.  0.
     999903    2    3    3    0    0 -0.12021778082E+00 -0.29310192173E-01 -0.43645846525E-01  0.13274756260E+00  0.20138353157E-01 0.  0.
         14    1    1    2    0    0  0.15883154317E-01  0.17216972084E-01  0.57850094595E-02  0.24128096760E-01  0.00000000000E+00 0.  1.
     999901    1    3    3    0    0  0.10433462650E+00  0.12093220090E-01  0.37860837065E-01  0.88705434064E+00  0.88000000000E+00 0. -1.
        -11    1    4    4    0    0 -0.86877622592E-01 -0.18142009889E-01 -0.21945159799E-01  0.91425953589E-01  0.51100000000E-03 0.  1.
         11    1    4    4    0    0 -0.33340158227E-01 -0.11168182284E-01 -0.21700686726E-01  0.41321609014E-01  0.51100000000E-03 0. -1.
</event>
<event>
 8    1  0.1180500E+005  0.1043930E+01  0.7957747E-01            NaN
         13   -1    0    0    0    0  0.00000000000E+00  0.00000000000E+00  0.74505805969E-08  0.10566000000E+00  0.10566000000E+00 0.  1.
     999900   -1    0    0    0    0 -0.00000000000E+00 -0.00000000000E+00 -0.74505805969E-08  0.93827000000E+00  0.93827000000E+00 0. -1.
     999902    2    1    2    0    0 -0.11318752628E-02 -0.19855532729E-01 -0.13648399124E-01  0.10198094254E+01  0.10195241351E+01 0.  0.
     999903    2    3    3    0    0  0.35053242407E-01 -0.12423035922E+00 -0.22996314643E-01  0.13285347908E+00  0.21431389616E-01 0.  0.
         14    1    1    2    0    0  0.11318752628E-02  0.19855532729E-01  0.13648399124E-01  0.24120574624E-01  0.00000000000E+00 0.  1.
     999901    1    3    3    0    0 -0.36185117670E-01  0.10437482649E+00  0.93479155199E-02  0.88695594630E+00  0.88000000000E+00 0.  1.
        -11    1    4    4    0    0  0.48646948654E-02 -0.50809606490E-01 -0.38420268719E-02  0.51188901720E-01  0.51100000000E-03 0. -1.
         11    1    4    4    0    0  0.30188547541E-01 -0.73420752731E-01 -0.19154287771E-01  0.81664577359E-01  0.51100000000E-03 0.  1.
</event>
<event>
 8    1  0.1180500E+005  0.1043930E+01  0.7957747E-01            NaN
         13   -1    0    0    0    0  0.00000000000E+00  0.00000000000E+00  0.74505805969E-08  0.10566000000E+00  0.10566000000E+00 0. -1.
     999900   -1    0    0    0    0 -0.00000000000E+00 -0.00000000000E+00 -0.74505805969E-08  0.93827000000E+00  0.93827000000E+00 0. -1.
     999902    2    1    2    0    0 -0.21409943321E-01 -0.22164072927E-03 -0.95754502524E-02  0.10204752767E+01  0.10202056980E+01 0.  0.
     999903    2    3    3    0    0 -0.98182480426E-01 -0.40337914377E-01 -0.78569560388E-01  0.13353473467E+00  0.19783901139E-01 0.  0.
         14    1    1    2    0    0  0.21409943321E-01  0.22164072927E-03  0.95754502524E-02  0.23454723301E-01  0.00000000000E+00 0. -1.
     999901    1    3    3    0    0  0.76772537106E-01  0.40116273647E-01  0.68994110136E-01  0.88694054203E+00  0.88000000000E+00 0.  1.
        -11    1    4    4    0    0 -0.79857637186E-01 -0.32480784197E-01 -0.53359383052E-01  0.10138899565E+00  0.51100000000E-03 0. -1.
         11    1    4    4    0    0 -0.18324843241E-01 -0.78571301801E-02 -0.25210177336E-01  0.32145739014E-01  0.51100000000E-03 0.  1.
</event>
<event>
 8    1  0.1180500E+005  0.1043930E+01  0.7957747E-01            NaN
         13   -1    0    0    0    0  0.00000000000E+00  0.00000000000E+00  0.74505805969E-08  0.10566000000E+00  0.10566000000E+00 0. -1.
     999900   -1    0    0    0    0 -0.00000000000E+00 -0.00000000000E+00 -0.74505805969E-08  0.93827000000E+00  0.93827000000E+00 0.  1.
     999902    2    1    2    0    0 -0.15074198871E-01  0.14477455388E-01 -0.32120540911E-02  0.10227841853E+01  0.10225655697E+01 0.  0.
     999903    2    3    3    0    0  0.67283017022E-01 -0.69768360233E-01 -0.86386191976E-01  0.13104543118E+00  0.17768016201E-01 0.  0.
         14    1    1    2    0    0  0.15074198871E-01 -0.14477455388E-01  0.32120540911E-02  0.21145814660E-01  0.00000000000E+00 0. -1.
     999901    1    3    3    0    0 -0.82357215893E-01  0.84245815622E-01  0.83174137885E-01  0.89173875416E+00  0.88000000000E+00 0.  1.
        -11    1    4    4    0    0  0.12188954743E-01 -0.21568193136E-01 -0.16026806055E-01  0.29510628699E-01  0.51100000000E-03 0. -1.
         11    1    4    4    0    0  0.55094062279E-01 -0.48200167097E-01 -0.70359385921E-01  0.10153480248E+00  0.51100000000E-03 0.  1.
</event>
<event>
 8    1  0.1180500E+005  0.1043930E+01  0.7957747E-01            NaN
         13   -1    0    0    0    0  0.00000000000E+00  0.00000000000E+00  0.74505805969E-08  0.10566000000E+00  0.10566000000E+00 0.  1.
     999900   -1    0    0    0    0 -0.00000000000E+00 -0.00000000000E+00 -0.74505805969E-08  0.93827000000E+00  0.93827000000E+00 0. -1.
     999902    2    1    2    0    0  0.96917380019E-02 -0.20228498398E-01  0.21597392218E-02  0.10213958835E+01  0.10211472785E+01 0.  0.
     999903    2    3    3    0    0  0.10195688509E-02 -0.83737537796E-01  0.10196365459E+00  0.13343787429E+00  0.19901373808E-01 0.  0.
         14    1    1    2    0    0 -0.96917380019E-02  0.20228498398E-01 -0.21597392218E-02  0.22534116500E-01  0.00000000000E+00 0.  1.
     999901    1    3    3    0    0  0.86721691510E-02  0.63509039398E-01 -0.99803915371E-01  0.88795800921E+00  0.88000000000E+00 0. -1.
        -11    1    4    4    0    0  0.30549025889E-02 -0.48588294785E-01  0.73488500437E-01  0.88153137423E-01  0.51100000000E-03 0.  1.
         11    1    4    4    0    0 -0.20353337379E-02 -0.35149243010E-01  0.28475154156E-01  0.45284736864E-01  0.51100000000E-03 0. -1.
</event>
<event>
 8    1  0.1180500E+005  0.1043930E+01  0.7957747E-01            NaN
         13   -1    0    0    0    0  0.00000000000E+00  0.00000000000E+00  0.74505805969E-08  0.10566000000E+00  0.10566000000E+00 0.  1.
     999900   -1    0    0    0    0 -0.00000000000E+00 -0.00000000000E+00 -0.74505805969E-08  0.93827000000E+00  0.93827000000E+00 0. -1.
     999902    2    1    2    0    0 -0.49018152550E-02 -0.20881532679E-01 -0.87559325858E-02  0.10207625108E+01  0.10204995693E+01 0.  0.
     999903    2    3    3    0    0  0.49930439840E-01 -0.12080521007E+00 -0.18759182822E-01  0.13335539876E+00  0.18569002042E-01 0.  0.
         14    1    1    2    0    0  0.49018152550E-02  0.20881532679E-01  0.87559325858E-02  0.23167489188E-01  0.00000000000E+00 0.  1.
     999901    1    3    3    0    0 -0.54832255095E-01  0.99923677389E-01  0.10003250236E-01  0.88740711205E+00  0.88000000000E+00 0.  1.
        -11    1    4    4    0    0  0.25297973626E-01 -0.38414515074E-01 -0.79933348768E-02  0.46688509951E-01  0.51100000000E-03 0. -1.
         11    1    4    4    0    0  0.24632466213E-01 -0.82390694993E-01 -0.10765847945E-01  0.86666888811E-01  0.51100000000E-03 0.  1.
</event>
<event>
 8    1  0.1180500E+005  0.1043930E+01  0.7957747E-01            NaN
         13   -1    0    0    0    0  0.00000000000E+00  0.00000000000E+00  0.74505805969E-08  0.10566000000E+00  0.10566000000E+00 0.  1.
     999900   -1    0    0    0    0 -0.00000000000E+00 -0.00000000000E+00 -0.74505805969E-08  0.93827000000E+00  0.93827000000E+00 0.  1.
     999902    2    1    2    0    0  0.19834294752E-01  0.10639056968E-01 -0.10171613624E-01  0.10192307995E+01  0.10189314855E+01 0.  0.
     999903    2    3    3    0    0  0.76409646719E-01 -0.89985697182E-01  0.50552012466E-01  0.12961657392E+00  0.17580968714E-01 0.  0.
         14    1    1    2    0    0 -0.19834294752E-01 -0.10639056968E-01  0.10171613624E-01  0.24699200497E-01  0.00000000000E+00 0.  1.
     999901    1    3    3    0    0 -0.56575351966E-01  0.10062475415E+00 -0.60723626089E-01  0.88961422559E+00  0.88000000000E+00 0.  1.
        -11    1    4    4    0    0  0.63240795925E-01 -0.63931886640E-01  0.41555755879E-01  0.99064758447E-01  0.51100000000E-03 0.  1.
         11    1    4    4    0    0  0.13168850794E-01 -0.26053810542E-01  0.89962565865E-02  0.30551815471E-01  0.51100000000E-03 0. -1.
</event>
<event>
 8    1  0.1180500E+005  0.1043930E+01  0.7957747E-01            NaN
         13   -1    0    0    0    0  0.00000000000E+00  0.00000000000E+00  0.74505805969E-08  0.10566000000E+00  0.10566000000E+00 0.  1.
     999900   -1    0    0    0    0 -0.00000000000E+00 -0.00000000000E+00 -0.74505805969E-08  0.93827000000E+00  0.93827000000E+00 0. -1.
     999902    2    1    2    0    0 -0.42166807358E-02 -0.15542636857E-01  0.18206380565E-01  0.10196230823E+01  0.10193333133E+01 0.  0.
     999903    2    3    3    0    0  0.13062782008E-01 -0.12889577529E+00 -0.11184501974E-01  0.13169778258E+00  0.20843600737E-01 0.  0.
         14    1    1    2    0    0  0.42166807358E-02  0.15542636857E-01 -0.18206380565E-01  0.24306917744E-01  0.00000000000E+00 0. -1.
     999901    1    3    3    0    0 -0.17279462744E-01  0.11335313843E+00  0.29390882539E-01  0.88792529967E+00  0.88000000000E+00 0.  1.
        -11    1    4    4    0    0  0.47567200430E-02 -0.27458352680E-01  0.59161250841E-02  0.28492967106E-01  0.51100000000E-03 0.  1.
         11    1    4    4    0    0  0.83060619650E-02 -0.10143742261E+00 -0.17100627058E-01  0.10320481548E+00  0.51100000000E-03 0. -1.
</event>
<event>
 8    1  0.1180500E+005  0.1043930E+01  0.7957747E-01            NaN
         13   -1    0    0    0    0  0.00000000000E+00  0.00000000000E+00  0.74505805969E-08  0.10566000000E+00  0.10566000000E+00 0.  1.
     999900   -1    0    0    0    0 -0.00000000000E+00 -0.00000000000E+00 -0.74505805969E-08  0.93827000000E+00  0.93827000000E+00 0.  1.
     999902    2    1    2    0    0 -0.53274073464E-03 -0.19256095102E-01 -0.12535225167E-01  0.10209471176E+01  0.10206883972E+01 0.  0.
     999903    2    3    3    0    0  0.23927780594E-01 -0.99401477346E-01  0.81279273223E-01  0.13200237273E+00  0.19107950421E-01 0.  0.
         14    1    1    2    0    0  0.53274073464E-03  0.19256095102E-01  0.12535225167E-01  0.22982882353E-01  0.00000000000E+00 0.  1.
     999901    1    3    3    0    0 -0.24460521329E-01  0.80145382244E-01 -0.93814498390E-01  0.88894474491E+00  0.88000000000E+00 0.  1.
        -11    1    4    4    0    0  0.11370938267E-02 -0.37367116481E-02  0.93964168579E-02  0.10188707822E-01  0.51100000000E-03 0. -1.
         11    1    4    4    0    0  0.22790686767E-01 -0.95664765698E-01  0.71882856366E-01  0.12181366491E+00  0.51100000000E-03 0.  1.
</event>
<event>
 8    1  0.1180500E+005  0.1043930E+01  0.7957747E-01            NaN
         13   -1    0    0    0    0  0.00000000000E+00  0.00000000000E+00  0.74505805969E-08  0.10566000000E+00  0.10566000000E+00 0. -1.
     999900   -1    0    0    0    0 -0.00000000000E+00 -0.00000000000E+00 -0.74505805969E-08  0.93827000000E+00  0.93827000000E+00 0. -1.
     999902    2    1    2    0    0  0.60827988160E-02 -0.17613140813E-01 -0.15371050219E-01  0.10197744136E+01  0.10194882845E+01 0.  0.
     999903    2    3    3    0    0  0.94123607423E-01  0.68241985360E-01 -0.55532847591E-01  0.13031656936E+00  0.19552213362E-01 0.  0.
         14    1    1    2    0    0 -0.60827988160E-02  0.17613140813E-01  0.15371050219E-01  0.24155586426E-01  0.00000000000E+00 0.  1.
     999901    1    3    3    0    0 -0.88040808607E-01 -0.85855126173E-01  0.40161797372E-01  0.88945784422E+00  0.88000000000E+00 0. -1.
        -11    1    4    4    0    0  0.81271196276E-01  0.51866558487E-01 -0.40202278264E-01  0.10445875517E+00  0.51100000000E-03 0. -1.
         11    1    4    4    0    0  0.12852411146E-01  0.16375426873E-01 -0.15330569327E-01  0.25857814185E-01  0.51100000000E-03 0.  1.
</event>
<event>
 8    1  0.1180500E+005  0.1043930E+01  0.7957747E-01            NaN
         13   -1    0    0    0    0  0.00000000000E+00  0.00000000000E+00  0.74505805969E-08  0.10566000000E+00  0.10566000000E+00 0.  1.
     999900   -1    0    0    0    0 -0.00000000000E+00 -0.00000000000E+00 -0.74505805969E-08  0.93827000000E+00  0.93827000000E+00 0. -1.
     999902    2    1    2    0    0  0.17257872819E-01  0.18044895260E-01  0.48943104353E-02  0.10184858122E+01  0.10181679345E+01 0.  0.
     999903    2    3    3    0    0 -0.48649707018E-01  0.62008236063E-01  0.10117355886E+00  0.12969659190E+00  0.19321014602E-01 0.  0.
         14    1    1    2    0    0 -0.17257872819E-01 -0.18044895260E-01 -0.48943104353E-02  0.25444187820E-01  0.00000000000E+00 0. -1.
     999901    1    3    3    0    0  0.65907579837E-01 -0.43963340802E-01 -0.96279248422E-01  0.88878922028E+00  0.88000000000E+00 0. -1.
        -11    1    4    4    0    0 -0.34280533343E-01  0.44521093845E-01  0.56895460461E-01  0.79966476136E-01  0.51100000000E-03 0. -1.
         11    1    4    4    0    0 -0.14369173675E-01  0.17487142217E-01  0.44278098397E-01  0.49730115761E-01  0.51100000000E-03 0.  1.
</event>
<event>
 8    1  0.1180500E+005  0.1043930E+01  0.7957747E-01            NaN
         13   -1    0    0    0    0  0.00000000000E+00  0.00000000000E+00  0.74505805969E-08  0.10566000000E+00  0.10566000000E+00 0.  1.
     999900   -1    0    0    0    0 -0.00000000000E+00 -0.00000000000E+00 -0.74505805969E-08  0.93827000000E+00  0.93827000000E+00 0. -1.
     999902    2    1    2    0    0  0.98564778296E-02  0.15217798958E-01  0.15006322722E-01  0.10203944677E+01  0.10201230065E+01 0.  0.
     999903    2    3    3    0    0  0.63855899308E-01 -0.13877499144E-01  0.11395587459E+00  0.13272702560E+00  0.18983179741E-01 0.  0.
         14    1    1    2    0    0 -0.98564778296E-02 -0.15217798958E-01 -0.15006322722E-01  0.23535532329E-01  0.00000000000E+00 0. -1.
     999901    1    3    3    0    0 -0.53999421478E-01  0.29095298103E-01 -0.98949551868E-01  0.88766744207E+00  0.88000000000E+00 0. -1.
        -11    1    4    4    0    0  0.51399300872E-01 -0.10606747023E-01  0.10381104990E+00  0.11632448760E+00  0.51100000000E-03 0.  1.
         11    1    4    4    0    0  0.12456598436E-01 -0.32707521212E-02  0.10144824689E-01  0.16402538006E-01  0.51100000000E-03 0. -1.
</event>
<event>
 8    1  0.1180500E+005  0.1043930E+01  0.7957747E-01            NaN
         13   -1    0    0    0    0  0.00000000000E+00  0.00000000000E+00  0.74505805969E-08  0.10566000000E+00  0.10566000000E+00 0. -1.
     999900   -1    0    0    0    0 -0.00000000000E+00 -0.00000000000E+00 -0.74505805969E-08  0.93827000000E+00  0.93827000000E+00 0. -1.
     999902    2    1    2    0    0 -0.12541308895E-01 -0.15044810419E-01  0.12803607915E-01  0.10205299332E+01  0.10202616240E+01 0.  0.
     999903    2    3    3    0    0  0.60632500359E-01 -0.10394972216E+00 -0.46883288183E-01  0.13102388195E+00  0.22076460184E-01 0.  0.
         14    1    1    2    0    0  0.12541308895E-01  0.15044810419E-01 -0.12803607915E-01  0.23400066773E-01  0.00000000000E+00 0.  1.
     999901    1    3    3    0    0 -0.73173809254E-01  0.88904911737E-01  0.59686896099E-01  0.88950605128E+00  0.88000000000E+00 0.  1.
        -11    1    4    4    0    0  0.13876189036E-01 -0.44207755490E-01 -0.14681448565E-01  0.48607410141E-01  0.51100000000E-03 0.  1.
         11    1    4    4    0    0  0.46756311323E-01 -0.59741966666E-01 -0.32201839619E-01  0.82416471809E-01  0.51100000000E-03 0. -1.
</event>
<event>
 8    1  0.1180500E+005  0.1043930E+01  0.7957747E-01            NaN
         13   -1    0    0    0    0  0.00000000000E+00  0.00000000000E+00  0.74505805969E-08  0.10566000000E+00  0.10566000000E+00 0. -1.
     999900   -1    0    0    0    0 -0.00000000000E+00 -0.00000000000E+00 -0.74505805969E-08  0.93827000000E+00  0.93827000000E+00 0.  1.
     999902    2    1    2    0    0  0.33829891317E-03  0.78980059968E-02 -0.22462851248E-01  0.10201167131E+01  0.10198387303E+01 0.  0.
     999903    2    3    3    0    0 -0.92894389054E-01  0.40121295906E-01  0.78052849696E-01  0.12891859787E+00  0.16990339288E-01 0.  0.
         14    1    1    2    0    0 -0.33829891317E-03 -0.78980059968E-02  0.22462851248E-01  0.23813286860E-01  0.00000000000E+00 0.  1.
     999901    1    3    3    0    0  0.93232687967E-01 -0.32223289909E-01 -0.10051570094E+00  0.89119811527E+00  0.88000000000E+00 0.  1.
        -11    1    4    4    0    0 -0.28865389365E-01  0.41684132868E-02  0.21891056725E-01  0.36470067974E-01  0.51100000000E-03 0. -1.
         11    1    4    4    0    0 -0.64028999689E-01  0.35952882619E-01  0.56161792971E-01  0.92448529899E-01  0.51100000000E-03 0.  1.
</event>
<event>
 8    1  0.1180500E+005  0.1043930E+01  0.7957747E-01            NaN
         13   -1    0    0    0    0  0.00000000000E+00  0.00000000000E+00  0.74505805969E-08  0.10566000000E+00  0.10566000000E+00 0. -1.
     999900   -1    0    0    0    0 -0.00000000000E+00 -0.00000000000E+00 -0.74505805969E-08  0.93827000000E+00  0.93827000000E+00 0. -1.
     999902    2    1    2    0    0 -0.39389465648E-02 -0.14982991777E-01 -0.18840045162E-01  0.10195383489E+01  0.10192465316E+01 0.  0.
     999903    2    3    3    0    0  0.91555459043E-01 -0.81573736507E-01 -0.43186116549E-01  0.13153708763E+00  0.20007203501E-01 0.  0.
         14    1    1    2    0    0  0.39389465648E-02  0.14982991777E-01  0.18840045162E-01  0.24391651120E-01  0.00000000000E+00 0. -1.
     999901    1    3    3    0    0 -0.95494405608E-01  0.66590744731E-01  0.24346071386E-01  0.88800126125E+00  0.88000000000E+00 0.  1.
        -11    1    4    4    0    0  0.40166281317E-01 -0.36435696401E-01 -0.86676418367E-02  0.54920663353E-01  0.51100000000E-03 0. -1.
         11    1    4    4    0    0  0.51389177726E-01 -0.45138040106E-01 -0.34518474712E-01  0.76616424280E-01  0.51100000000E-03 0.  1.
</event>
<event>
 8    1  0.1180500E+005  0.1043930E+01  0.7957747E-01            NaN
         13   -1    0    0    0    0  0.00000000000E+00  0.00000000000E+00  0.74505805969E-08  0.10566000000E+00  0.10566000000E+00 0. -1.
     999900   -1    0    0    0    0 -0.00000000000E+00 -0.00000000000E+00 -0.74505805969E-08  0.93827000000E+00  0.93827000000E+00 0. -1.
     999902    2    1    2    0    0  0.77941740650E-02  0.18673094696E-01 -0.12680402011E-01  0.10200505902E+01  0.10197710432E+01 0.  0.
     999903    2    3    3    0    0  0.65576602727E-01  0.11396325861E+00  0.86448218092E-03  0.13291898316E+00  0.19462621010E-01 0.  0.
         14    1    1    2    0    0 -0.77941740650E-02 -0.18673094696E-01  0.12680402011E-01  0.23879409751E-01  0.00000000000E+00 0. -1.
     999901    1    3    3    0    0 -0.57782428662E-01 -0.95290163918E-01 -0.13544884192E-01  0.88713160709E+00  0.88000000000E+00 0.  1.
        -11    1    4    4    0    0  0.31259887159E-01  0.44432837441E-01  0.85544560396E-02  0.54999067514E-01  0.51100000000E-03 0. -1.
         11    1    4    4    0    0  0.34316715568E-01  0.69530421173E-01 -0.76899738587E-02  0.77919915650E-01  0.51100000000E-03 0.  1.
</event>
<event>
 8    1  0.1180500E+005  0.1043930E+01  0.7957747E-01            NaN
         13   -1    0    0    0    0  0.00000000000E+00  0.00000000000E+00  0.74505805969E-08  0.10566000000E+00  0.10566000000E+00 0.  1.
     999900   -1    0    0    0    0 -0.00000000000E+00 -0.00000000000E+00 -0.74505805969E-08  0.93827000000E+00  0.93827000000E+00 0.  1.
     999902    2    1    2    0    0  0.23042325692E-01 -0.68472280902E-03  0.61569721404E-02  0.10200694484E+01  0.10197903478E+01 0.  0.
     999903    2    3    3    0    0 -0.31088780664E-01 -0.19033164225E-01  0.12384901674E+00  0.13039632898E+00  0.18326211880E-01 0.  0.
         14    1    1    2    0    0 -0.23042325692E-01  0.68472280902E-03 -0.61569721404E-02  0.23860551640E-01  0.00000000000E+00 0.  1.
     999901    1    3    3    0    0  0.54131106356E-01  0.18348441416E-01 -0.11769204460E+00  0.88967311938E+00  0.88000000000E+00 0.  1.
        -11    1    4    4    0    0 -0.15751031042E-01 -0.17852058774E-04  0.38020696576E-01  0.41157378278E-01  0.51100000000E-03 0. -1.
         11    1    4    4    0    0 -0.15337749621E-01 -0.19015312166E-01  0.85828320163E-01  0.89238950707E-01  0.51100000000E-03 0.  1.
</event>
<event>
 8    1  0.1180500E+005  0.1043930E+01  0.7957747E-01            NaN
         13   -1    0    0    0    0  0.00000000000E+00  0.00000000000E+00  0.74505805969E-08  0.10566000000E+00  0.10566000000E+00 0.  1.
     999900   -1    0    0    0    0 -0.00000000000E+00 -0.00000000000E+00 -0.74505805969E-08  0.93827000000E+00  0.93827000000E+00 0.  1.
     999902    2    1    2    0    0  0.22257041028E-01  0.11959882699E-01  0.29637319625E-02  0.10184899061E+01  0.10181721321E+01 0.  0.
     999903    2    3    3    0    0  0.21699411940E-01  0.37630009309E-01 -0.12038228190E+00  0.12951661885E+00  0.19894187167E-01 0.  0.
         14    1    1    2    0    0 -0.22257041028E-01 -0.11959882699E-01 -0.29637319625E-02  0.25440093881E-01  0.00000000000E+00 0. -1.
     999901    1    3    3    0    0  0.55762908816E-03 -0.25670126609E-01  0.12334601386E+00  0.88897328727E+00  0.88000000000E+00 0. -1.
        -11    1    4    4    0    0  0.13019250796E-01  0.35858968819E-01 -0.10553439586E+00  0.11221914438E+00  0.51100000000E-03 0. -1.
         11    1    4    4    0    0  0.86801611437E-02  0.17710404892E-02 -0.14847886040E-01  0.17297474462E-01  0.51100000000E-03 0.  1.
</event>
<event>
 8    1  0.1180500E+005  0.1043930E+01  0.7957747E-01            NaN
         13   -1    0    0    0    0  0.00000000000E+00  0.00000000000E+00  0.74505805969E-08  0.10566000000E+00  0.10566000000E+00 0.  1.
     999900   -1    0    0    0    0 -0.00000000000E+00 -0.00000000000E+00 -0.74505805969E-08  0.93827000000E+00  0.93827000000E+00 0. -1.
     999902    2    1    2    0    0  0.15430004166E-01  0.23178266409E-02  0.17843639052E-01  0.10202265656E+01  0.10199511715E+01 0.  0.
     999903    2    3    3    0    0  0.87260765436E-01 -0.20188831606E-01 -0.92139746542E-01  0.13019142411E+00  0.20929498654E-01 0.  0.
         14    1    1    2    0    0 -0.15430004166E-01 -0.23178266409E-02 -0.17843639052E-01  0.23703434424E-01  0.00000000000E+00 0.  1.
     999901    1    3    3    0    0 -0.71830761270E-01  0.22506658247E-01  0.10998338559E+00  0.89003514146E+00  0.88000000000E+00 0.  1.
        -11    1    4    4    0    0  0.19088646657E-01 -0.12724598424E-01 -0.28911390940E-01  0.36910994071E-01  0.51100000000E-03 0. -1.
         11    1    4    4    0    0  0.68172118779E-01 -0.74642331820E-02 -0.63228355602E-01  0.93280430043E-01  0.51100000000E-03 0.  1.
</event>
<event>
 8    1  0.1180500E+005  0.1043930E+01  0.7957747E-01            NaN
         13   -1    0    0    0    0  0.00000000000E+00  0.00000000000E+00  0.74505805969E-08  0.10566000000E+00  0.10566000000E+00 0. -1.
     999900   -1    0    0    0    0 -0.00000000000E+00 -0.00000000000E+00 -0.74505805969E-08  0.93827000000E+00  0.93827000000E+00 0. -1.
     999902    2    1    2    0    0  0.88460010664E-02 -0.10739983902E-01  0.18447602667E-01  0.10208234418E+01  0.10205618973E+01 0.  0.
     999903    2    3    3    0    0  0.14498055045E-01 -0.12874792814E+00  0.21568504808E-01  0.13292279381E+00  0.20421706925E-01 0.  0.
         14    1    1    2    0    0 -0.88460010664E-02  0.10739983902E-01 -0.18447602667E-01  0.23106558230E-01  0.00000000000E+00 0.  1.
     999901    1    3    3    0    0 -0.56520539781E-02  0.11800794424E+00 -0.31209021413E-02  0.88790064796E+00  0.88000000000E+00 0.  1.
        -11    1    4    4    0    0  0.13039911129E-01 -0.50255930278E-01  0.17471353270E-02  0.51952010676E-01  0.51100000000E-03 0. -1.
         11    1    4    4    0    0  0.14581439152E-02 -0.78491997863E-01  0.19821369481E-01  0.80970783134E-01  0.51100000000E-03 0.  1.
</event>
<event>
 8    1  0.1180500E+005  0.1043930E+01  0.7957747E-01            NaN
         13   -1    0    0    0    0  0.00000000000E+00  0.00000000000E+00  0.74505805969E-08  0.10566000000E+00  0.10566000000E+00 0.  1.
     999900   -1    0    0    0    0 -0.00000000000E+00 -0.00000000000E+00 -0.74505805969E-08  0.93827000000E+00  0.93827000000E+00 0.  1.
     999902    2    1    2    0    0 -0.29733581965E-02  0.22076180092E-01  0.82300412520E-02  0.10201827440E+01  0.10199063188E+01 0.  0.
     999903    2    3    3    0    0 -0.34668139867E-01 -0.94457831938E-01 -0.76659422713E-01  0.12788741388E+00  0.18824494715E-01 0.  0.
         14    1    1    2    0    0  0.29733581965E-02 -0.22076180092E-01 -0.82300412520E-02  0.23747255956E-01  0.00000000000E+00 0. -1.
     999901    1    3    3    0    0  0.31694781670E-01  0.11653401203E+00  0.84889463965E-01  0.89229533017E+00  0.88000000000E+00 0.  1.
        -11    1    4    4    0    0 -0.21720132602E-02 -0.38376961374E-02  0.55818572244E-03  0.44741754040E-02  0.51100000000E-03 0. -1.
         11    1    4    4    0    0 -0.32496126607E-01 -0.90620135801E-01 -0.77217608436E-01  0.12341323847E+00  0.51100000000E-03 0.  1.
</event>
<event>
 8    1  0.1180500E+005  0.1043930E+01  0.7957747E-01            NaN
         13   -1    0    0    0    0  0.00000000000E+00  0.00000000000E+00  0.74505805969E-08  0.10566000000E+00  0.10566000000E+00 0.  1.
     999900   -1    0    0    0    0 -0.00000000000E+00 -0.00000000000E+00 -0.74505805969E-08  0.93827000000E+00  0.93827000000E+00 0.  1.
     999902    2    1    2    0    0  0.18482832345E-01  0.18137493309E-01 -0.50304090721E-03  0.10180294825E+01  0.10176999511E+01 0.  0.
     999903    2    3    3    0    0 -0.12242760870E+00 -0.14951735893E-01  0.14477158555E-01  0.12607934050E+00  0.21779306765E-01 0.  0.
         14    1    1    2    0    0 -0.18482832345E-01 -0.18137493309E-01  0.50304090721E-03  0.25900517470E-01  0.00000000000E+00 0.  1.
     999901    1    3    3    0    0  0.14091044105E+00  0.33089229202E-01 -0.14980199462E-01  0.89195014203E+00  0.88000000000E+00 0.  1.
        -11    1    4    4    0    0 -0.58237070433E-01  0.31674595051E-02  0.10475576954E-01  0.59258653426E-01  0.51100000000E-03 0. -1.
         11    1    4    4    0    0 -0.64190538270E-01 -0.18119195398E-01  0.40015816002E-02  0.66820687078E-01  0.51100000000E-03 0.  1.
</event>
<event>
 8    1  0.1180500E+005  0.1043930E+01  0.7957747E-01            NaN
         13   -1    0    0    0    0  0.00000000000E+00  0.00000000000E+00  0.74505805969E-08  0.10566000000E+00  0.10566000000E+00 0.  1.
     999900   -1    0    0    0    0 -0.00000000000E+00 -0.00000000000E+00 -0.74505805969E-08  0.93827000000E+00  0.93827000000E+00 0.  1.
     999902    2    1    2    0    0 -0.18229118289E-01  0.81927114681E-02 -0.15248802037E-01  0.10187914392E+01  0.10184812465E+01 0.  0.
     999903    2    3    3    0    0 -0.91674161937E-01  0.39798061724E-02  0.89694996561E-01  0.12950795018E+00  0.17525008634E-01 0.  0.
         14    1    1    2    0    0  0.18229118289E-01 -0.81927114681E-02  0.15248802037E-01  0.25138560785E-01  0.00000000000E+00 0.  1.
     999901    1    3    3    0    0  0.73445043648E-01  0.42129052957E-02 -0.10494379860E+00  0.88928348904E+00  0.88000000000E+00 0.  1.
        -11    1    4    4    0    0 -0.21045870042E-01  0.69915925655E-02  0.15741227587E-01  0.27200337854E-01  0.51100000000E-03 0. -1.
         11    1    4    4    0    0 -0.70628291895E-01 -0.30117863931E-02  0.73953768974E-01  0.10230761233E+00  0.51100000000E-03 0.  1.
</event>
<event>
 8    1  0.1180500E+005  0.1043930E+01  0.7957747E-01            NaN
         13   -1    0    0    0    0  0.00000000000E+00  0.00000000000E+00  0.74505805969E-08  0.10566000000E+00  0.10566000000E+00 0.  1.
     999900   -1    0    0    0    0 -0.00000000000E+00 -0.00000000000E+00 -0.74505805969E-08  0.93827000000E+00  0.93827000000E+00 0. -1.
     999902    2    1    2    0    0  0.15437724551E-01 -0.14703749828E-01  0.11874011639E-02  0.10225774002E+01  0.10223544424E+01 0.  0.
     999903    2    3    3    0    0 -0.11769027567E+00  0.51063027616E-01 -0.81291138617E-02  0.13008923166E+00  0.19967271360E-01 0.  0.
         14    1    1    2    0    0 -0.15437724551E-01  0.14703749828E-01 -0.11874011639E-02  0.21352599838E-01  0.00000000000E+00 0. -1.
     999901    1    3    3    0    0  0.13312800022E+00 -0.65766777443E-01  0.93165150256E-02  0.89248816850E+00  0.88000000000E+00 0.  1.
        -11    1    4    4    0    0 -0.85664511825E-01  0.43216566495E-01  0.69469357398E-03  0.95952196046E-01  0.51100000000E-03 0. -1.
         11    1    4    4    0    0 -0.32025763847E-01  0.78464611206E-02 -0.88238074357E-02  0.34137035617E-01  0.51100000000E-03 0.  1.
</event>
<event>
 8    1  0.1180500E+005  0.1043930E+01  0.7957747E-01            NaN
         13   -1    0    0    0    0  0.00000000000E+00  0.00000000000E+00  0.74505805969E-08  0.10566000000E+00  0.10566000000E+00 0.  1.
     999900   -1    0    0    0    0 -0.00000000000E+00 -0.00000000000E+00 -0.74505805969E-08  0.93827000000E+00  0.93827000000E+00 0. -1.
     999902    2    1    2    0    0  0.25416860009E-02 -0.15423914971E-01 -0.18236426299E-01  0.10199107460E+01  0.10196278758E+01 0.  0.
     999903    2    3    3    0    0  0.11611597335E+00 -0.58447635014E-01 -0.48445046137E-05  0.13138244038E+00  0.19034187946E-01 0.  0.
         14    1    1    2    0    0 -0.25416860009E-02  0.15423914971E-01  0.18236426299E-01  0.24019254046E-01  0.00000000000E+00 0.  1.
     999901    1    3    3    0    0 -0.11357428735E+00  0.43023720043E-01 -0.18231581794E-01  0.88852830557E+00  0.88000000000E+00 0. -1.
        -11    1    4    4    0    0  0.41286421121E-01 -0.17230787701E-01  0.84565636315E-02  0.45532880463E-01  0.51100000000E-03 0. -1.
         11    1    4    4    0    0  0.74829552229E-01 -0.41216847313E-01 -0.84614081361E-02  0.85849559916E-01  0.51100000000E-03 0.  1.
</event>
<event>
 8    1  0.1180500E+005  0.1043930E+01  0.7957747E-01            NaN
         13   -1    0    0    0    0  0.00000000000E+00  0.00000000000E+00  0.74505805969E-08  0.10566000000E+00  0.10566000000E+00 0. -1.
     999900   -1    0    0    0    0 -0.00000000000E+00 -0.00000000000E+00 -0.74505805969E-08  0.93827000000E+00  0.93827000000E+00 0.  1.
     999902    2    1    2    0    0  0.22383771091E-01  0.17181786249E-02  0.59710185158E-02  0.10206998814E+01  0.10204355000E+01 0.  0.
     999903    2    3    3    0    0 -0.46468372533E-01 -0.59960075718E-01 -0.10280709789E+00  0.12919693509E+00  0.19184064582E-01 0.  0.
         14    1    1    2    0    0 -0.22383771091E-01 -0.17181786249E-02 -0.59710185158E-02  0.23230118557E-01  0.00000000000E+00 0.  1.
     999901    1    3    3    0    0  0.68852143625E-01  0.61678254343E-01  0.10877811641E+00  0.89150294635E+00  0.88000000000E+00 0. -1.
        -11    1    4    4    0    0 -0.29001597838E-01 -0.24645358744E-01 -0.41419340868E-01  0.56252193768E-01  0.51100000000E-03 0.  1.
         11    1    4    4    0    0 -0.17466774696E-01 -0.35314716974E-01 -0.61387757027E-01  0.72944741326E-01  0.51100000000E-03 0. -1.
</event>
<event>
 8    1  0.1180500E+005  0.1043930E+01  0.7957747E-01            NaN
         13   -1    0    0    0    0  0.00000000000E+00  0.00000000000E+00  0.74505805969E-08  0.10566000000E+00  0.10566000000E+00 0.  1.
     999900   -1    0    0    0    0 -0.00000000000E+00 -0.00000000000E+00 -0.74505805969E-08  0.93827000000E+00  0.93827000000E+00 0.  1.
     999902    2    1    2    0    0 -0.63567881597E-02  0.23415195745E-02  0.21731857327E-01  0.10211667601E+01  0.10209130163E+01 0.  0.
     999903    2    3    3    0    0  0.50899973118E-01  0.10432235088E+00  0.60751648395E-01  0.13257181817E+00  0.20262379740E-01 0.  0.
         14    1    1    2    0    0  0.63567881597E-02 -0.23415195745E-02 -0.21731857327E-01  0.22763239939E-01  0.00000000000E+00 0. -1.
     999901    1    3    3    0    0 -0.57256761278E-01 -0.10198083131E+00 -0.39019791068E-01  0.88859494189E+00  0.88000000000E+00 0.  1.
        -11    1    4    4    0    0  0.80730442583E-02  0.19047507135E-01  0.20095319471E-01  0.28845529243E-01  0.51100000000E-03 0. -1.
         11    1    4    4    0    0  0.42826928860E-01  0.85274843745E-01  0.40656328923E-01  0.10372628892E+00  0.51100000000E-03 0.  1.
</event>
<event>
 8    1  0.1180500E+005  0.1043930E+01  0.7957747E-01            NaN
         13   -1    0    0    0    0  0.00000000000E+00  0.00000000000E+00  0.74505805969E-08  0.10566000000E+00  0.10566000000E+00 0. -1.
     999900   -1    0    0    0    0 -0.00000000000E+00 -0.00000000000E+00 -0.74505805969E-08  0.93827000000E+00  0.93827000000E+00 0. -1.
     999902    2    1    2    0    0 -0.25404717869E-02 -0.20715458189E-01  0.62728053000E-02  0.10221370587E+01  0.10219047091E+01 0.  0.
     999903    2    3    3    0    0  0.74949949750E-01  0.10400007725E+00  0.83735147898E-02  0.12996939328E+00  0.19708282612E-01 0.  0.
         14    1    1    2    0    0  0.25404717869E-02  0.20715458189E-01 -0.62728053000E-02  0.21792941316E-01  0.00000000000E+00 0.  1.
     999901    1    3    3    0    0 -0.77490421537E-01 -0.12471553544E+00 -0.21007094898E-02  0.89216766540E+00  0.88000000000E+00 0.  1.
        -11    1    4    4    0    0  0.28510032609E-01  0.26458162270E-01 -0.22335392811E-02  0.38962881423E-01  0.51100000000E-03 0.  1.
         11    1    4    4    0    0  0.46439917141E-01  0.77541914984E-01  0.10607054071E-01  0.91006511857E-01  0.51100000000E-03 0. -1.
</event>
<event>
 8    1  0.1195050E+005  0.1043930E+01  0.7957747E-01            NaN
         13   -1    0    0    0    0  0.00000000000E+00  0.00000000000E+00  0.74505805969E-08  0.10566000000E+00  0.10566000000E+00 0. -1.
     999900   -1    0    0    0    0 -0.00000000000E+00 -0.00000000000E+00 -0.74505805969E-08  0.93827000000E+00  0.93827000000E+00 0.  1.
     999902    2    1    2    0    0  0.14986052531E-01 -0.18494776312E-01  0.35003181602E-03  0.10201232563E+01  0.10198454280E+01 0.  0.
     999903    2    3    3    0    0 -0.27972539507E-01  0.23082183920E-01  0.12277413610E+00  0.12963926122E+00  0.20435248362E-01 0.  0.
         14    1    1    2    0    0 -0.14986052531E-01  0.18494776312E-01 -0.35003181602E-03  0.23806743657E-01  0.00000000000E+00 0. -1.
     999901    1    3    3    0    0  0.42958592038E-01 -0.41576960232E-01 -0.12242410428E+00  0.89048399512E+00  0.88000000000E+00 0.  1.
        -11    1    4    4    0    0 -0.28537726879E-01  0.14651685426E-01  0.83237171732E-01  0.89206286887E-01  0.51100000000E-03 0.  1.
         11    1    4    4    0    0  0.56518737137E-03  0.84304984940E-02  0.39536964365E-01  0.40432974338E-01  0.51100000000E-03 0. -1.
</event>
<event>
 8    1  0.1180500E+005  0.1043930E+01  0.7957747E-01            NaN
         13   -1    0    0    0    0  0.00000000000E+00  0.00000000000E+00  0.74505805969E-08  0.10566000000E+00  0.10566000000E+00 0.  1.
     999900   -1    0    0    0    0 -0.00000000000E+00 -0.00000000000E+00 -0.74505805969E-08  0.93827000000E+00  0.93827000000E+00 0. -1.
     999902    2    1    2    0    0  0.15534032419E-01  0.19905839553E-04  0.17341312178E-01  0.10206485123E+01  0.10203829468E+01 0.  0.
     999903    2    3    3    0    0 -0.47766531458E-01  0.47507542583E-01 -0.10839902192E+00  0.12819533786E+00  0.12045271556E-01 0.  0.
         14    1    1    2    0    0 -0.15534032419E-01 -0.19905839553E-04 -0.17341312178E-01  0.23281487656E-01  0.00000000000E+00 0. -1.
     999901    1    3    3    0    0  0.63300563876E-01 -0.47487636743E-01  0.12574033409E+00  0.89245317448E+00  0.88000000000E+00 0.  1.
        -11    1    4    4    0    0 -0.72243421987E-02  0.10175385539E-01 -0.13051705697E-01  0.18064820334E-01  0.51100000000E-03 0. -1.
         11    1    4    4    0    0 -0.40542189259E-01  0.37332157043E-01 -0.95347316218E-01  0.11013051753E+00  0.51100000000E-03 0.  1.
</event>
<event>
 8    1  0.1180500E+005  0.1043930E+01  0.7957747E-01            NaN
         13   -1    0    0    0    0  0.00000000000E+00  0.00000000000E+00  0.74505805969E-08  0.10566000000E+00  0.10566000000E+00 0.  1.
     999900   -1    0    0    0    0 -0.00000000000E+00 -0.00000000000E+00 -0.74505805969E-08  0.93827000000E+00  0.93827000000E+00 0.  1.
     999902    2    1    2    0    0 -0.21388465211E-01 -0.10728979627E-01 -0.26290736528E-03  0.10199999651E+01  0.10197192174E+01 0.  0.
     999903    2    3    3    0    0  0.58594994439E-02 -0.12567569221E-01 -0.12809716838E+00  0.13034417200E+00  0.19708909081E-01 0.  0.
         14    1    1    2    0    0  0.21388465211E-01  0.10728979627E-01  0.26290736528E-03  0.23930034856E-01  0.00000000000E+00 0.  1.
     999901    1    3    3    0    0 -0.27247964654E-01  0.18385895941E-02  0.12783426101E+00  0.88965579315E+00  0.88000000000E+00 0. -1.
        -11    1    4    4    0    0 -0.16988973312E-03 -0.11271573748E-01 -0.30001730139E-01  0.32053738777E-01  0.51100000000E-03 0. -1.
         11    1    4    4    0    0  0.60293891770E-02 -0.12959954735E-02 -0.98095438241E-01  0.98290433221E-01  0.51100000000E-03 0.  1.
</event>
<event>
 8    1  0.1180500E+005  0.1043930E+01  0.7957747E-01            NaN
         13   -1    0    0    0    0  0.00000000000E+00  0.00000000000E+00  0.74505805969E-08  0.10566000000E+00  0.10566000000E+00 0.  1.
     999900   -1    0    0    0    0 -0.00000000000E+00 -0.00000000000E+00 -0.74505805969E-08  0.93827000000E+00  0.93827000000E+00 0. -1.
     999902    2    1    2    0    0  0.21321300403E-01 -0.10617993100E-01  0.41181398498E-02  0.10197577286E+01  0.10194711994E+01 0.  0.
     999903    2    3    3    0    0 -0.11426797186E+00  0.42520919477E-01  0.30826620747E-01  0.12738922976E+00  0.20311014939E-01 0.  0.
         14    1    1    2    0    0 -0.21321300403E-01  0.10617993100E-01 -0.41181398498E-02  0.24172271390E-01  0.00000000000E+00 0. -1.
     999901    1    3    3    0    0  0.13558927226E+00 -0.53138912577E-01 -0.26708480898E-01  0.89236849885E+00  0.88000000000E+00 0. -1.
        -11    1    4    4    0    0 -0.60799366162E-01  0.15481583144E-01  0.23611952494E-01  0.67037510126E-01  0.51100000000E-03 0.  1.
         11    1    4    4    0    0 -0.53468605694E-01  0.27039336333E-01  0.72146682531E-02  0.60351719637E-01  0.51100000000E-03 0. -1.
</event>
<event>
 8    1  0.1180500E+005  0.1043930E+01  0.7957747E-01            NaN
         13   -1    0    0    0    0  0.00000000000E+00  0.00000000000E+00  0.74505805969E-08  0.10566000000E+00  0.10566000000E+00 0. -1.
     999900   -1    0    0    0    0 -0.00000000000E+00 -0.00000000000E+00 -0.74505805969E-08  0.93827000000E+00  0.93827000000E+00 0.  1.
     999902    2    1    2    0    0  0.12321103335E-01 -0.13376099161E-01 -0.14623456518E-01  0.10205938671E+01  0.10203270390E+01 0.  0.
     999903    2    3    3    0    0  0.66686356151E-01 -0.50810883090E-01 -0.10230318961E+00  0.13377670484E+00  0.20036172707E-01 0.  0.
         14    1    1    2    0    0 -0.12321103335E-01  0.13376099161E-01  0.14623456518E-01  0.23336132857E-01  0.00000000000E+00 0. -1.
     999901    1    3    3    0    0 -0.54365252815E-01  0.37434783929E-01  0.87679733089E-01  0.88681716230E+00  0.88000000000E+00 0. -1.
        -11    1    4    4    0    0  0.35153017681E-01 -0.15008421948E-01 -0.40372405646E-01  0.55598378034E-01  0.51100000000E-03 0.  1.
         11    1    4    4    0    0  0.31533338470E-01 -0.35802461142E-01 -0.61930783962E-01  0.78178326805E-01  0.51100000000E-03 0. -1.
</event>
<event>
 8    1  0.1180500E+005  0.1043930E+01  0.7957747E-01            NaN
         13   -1    0    0    0    0  0.00000000000E+00  0.00000000000E+00  0.74505805969E-08  0.10566000000E+00  0.10566000000E+00 0. -1.
     999900   -1    0    0    0    0 -0.00000000000E+00 -0.00000000000E+00 -0.74505805969E-08  0.93827000000E+00  0.93827000000E+00 0. -1.
     999902    2    1    2    0    0 -0.87801347255E-02  0.15799034219E-01  0.23355721574E-01  0.10143971373E+01  0.10139671406E+01 0.  0.
     999903    2    3    3    0    0  0.84775769189E-01 -0.36251110197E-01  0.83288660866E-01  0.12588496413E+00  0.20222490762E-01 0.  0.
         14    1    1    2    0    0  0.87801347255E-02 -0.15799034219E-01 -0.23355721574E-01  0.29532862684E-01  0.00000000000E+00 0.  1.
     999901    1    3    3    0    0 -0.93555903915E-01  0.52050144416E-01 -0.59932939291E-01  0.88851217319E+00  0.88000000000E+00 0. -1.
        -11    1    4    4    0    0  0.27788632974E-01 -0.82372887054E-02  0.38425674742E-01  0.48133716334E-01  0.51100000000E-03 0. -1.
         11    1    4    4    0    0  0.56987136215E-01 -0.28013821492E-01  0.44862986124E-01  0.77751247794E-01  0.51100000000E-03 0.  1.
</event>
<event>
 8    1  0.1180500E+005  0.1043930E+01  0.7957747E-01            NaN
         13   -1    0    0    0    0  0.00000000000E+00  0.00000000000E+00  0.74505805969E-08  0.10566000000E+00  0.10566000000E+00 0. -1.
     999900   -1    0    0    0    0 -0.00000000000E+00 -0.00000000000E+00 -0.74505805969E-08  0.93827000000E+00  0.93827000000E+00 0. -1.
     999902    2    1    2    0    0  0.86135412395E-02  0.21867493787E-01 -0.54256372875E-02  0.10198090979E+01  0.10195237998E+01 0.  0.
     999903    2    3    3    0    0 -0.70547558218E-01 -0.78757082034E-01  0.68318558446E-01  0.12749189460E+00  0.20177259994E-01 0.  0.
         14    1    1    2    0    0 -0.86135412395E-02 -0.21867493787E-01  0.54256372875E-02  0.24120902081E-01  0.00000000000E+00 0.  1.
     999901    1    3    3    0    0  0.79161099457E-01  0.10062457582E+00 -0.73744195734E-01  0.89231720331E+00  0.88000000000E+00 0. -1.
        -11    1    4    4    0    0 -0.60359635143E-01 -0.56061509682E-01  0.56861611843E-01  0.10009836385E+00  0.51100000000E-03 0.  1.
         11    1    4    4    0    0 -0.10187923075E-01 -0.22695572351E-01  0.11456946603E-01  0.27393530758E-01  0.51100000000E-03 0. -1.
</event>
<event>
 8    1  0.1180500E+005  0.1043930E+01  0.7957747E-01            NaN
         13   -1    0    0    0    0  0.00000000000E+00  0.00000000000E+00  0.74505805969E-08  0.10566000000E+00  0.10566000000E+00 0. -1.
     999900   -1    0    0    0    0 -0.00000000000E+00 -0.00000000000E+00 -0.74505805969E-08  0.93827000000E+00  0.93827000000E+00 0. -1.
     999902    2    1    2    0    0  0.32560935827E-02  0.21927855284E-01 -0.95507431095E-02  0.10197918626E+01  0.10195061517E+01 0.  0.
     999903    2    3    3    0    0  0.96077157006E-01  0.73636130692E-01 -0.50185697372E-01  0.13246965784E+00  0.19403767335E-01 0.  0.
         14    1    1    2    0    0 -0.32560935827E-02 -0.21927855284E-01  0.95507431095E-02  0.24138137391E-01  0.00000000000E+00 0. -1.
     999901    1    3    3    0    0 -0.92821063423E-01 -0.51708275408E-01  0.40634954263E-01  0.88732220476E+00  0.88000000000E+00 0.  1.
        -11    1    4    4    0    0  0.36313402064E-01  0.20045069783E-01 -0.98676357145E-02  0.42639176208E-01  0.51100000000E-03 0. -1.
         11    1    4    4    0    0  0.59763754942E-01  0.53591060909E-01 -0.40318061658E-01  0.89830481636E-01  0.51100000000E-03 0.  1.
</event>
<event>
 8    1  0.1180500E+005  0.1043930E+01  0.7957747E-01            NaN
         13   -1    0    0    0    0  0.00000000000E+00  0.00000000000E+00  0.74505805969E-08  0.10566000000E+00  0.10566000000E+00 0. -1.
     999900   -1    0    0    0    0 -0.00000000000E+00 -0.00000000000E+00 -0.74505805969E-08  0.93827000000E+00  0.93827000000E+00 0. -1.
     999902    2    1    2    0    0  0.19998087527E-02  0.73930133457E-02 -0.23102893681E-01  0.10195907400E+01  0.10193001901E+01 0.  0.
     999903    2    3    3    0    0  0.10478537426E+00 -0.58261857723E-01 -0.48192321883E-01  0.13082478993E+00  0.20450111226E-01 0.  0.
         14    1    1    2    0    0 -0.19998087527E-02 -0.73930133457E-02  0.23102893681E-01  0.24339260010E-01  0.00000000000E+00 0. -1.
     999901    1    3    3    0    0 -0.10278556551E+00  0.65654871068E-01  0.25089428202E-01  0.88876595006E+00  0.88000000000E+00 0. -1.
        -11    1    4    4    0    0  0.17508560138E-01 -0.19223536074E-01 -0.10880483726E-01  0.28191134500E-01  0.51100000000E-03 0.  1.
         11    1    4    4    0    0  0.87276814121E-01 -0.39038321649E-01 -0.37311838157E-01  0.10263365543E+00  0.51100000000E-03 0. -1.
</event>
<event>
 8    1  0.1180500E+005  0.1043930E+01  0.7957747E-01            NaN
         13   -1    0    0    0    0  0.00000000000E+00  0.00000000000E+00  0.74505805969E-08  0.10566000000E+00  0.10566000000E+00 0. -1.
     999900   -1    0    0    0    0 -0.00000000000E+00 -0.00000000000E+00 -0.74505805969E-08  0.93827000000E+00  0.93827000000E+00 0.  1.
     999902    2    1    2    0    0 -0.11539835376E-01  0.95305093747E-02 -0.18720305522E-01  0.10199623500E+01  0.10196807084E+01 0.  0.
     999903    2    3    3    0    0 -0.10449566582E+00  0.60358176917E-01  0.47231111662E-01  0.13115763146E+00  0.20226039822E-01 0.  0.
         14    1    1    2    0    0  0.11539835376E-01 -0.95305093747E-02  0.18720305522E-01  0.23967650037E-01  0.00000000000E+00 0. -1.
     999901    1    3    3    0    0  0.92955830440E-01 -0.50827667543E-01 -0.65951417185E-01  0.88880471850E+00  0.88000000000E+00 0. -1.
        -11    1    4    4    0    0 -0.19720120210E-01  0.70611592629E-02  0.13138910135E-02  0.20993583349E-01  0.51100000000E-03 0. -1.
         11    1    4    4    0    0 -0.84775545606E-01  0.53297017654E-01  0.45917220649E-01  0.11016404811E+00  0.51100000000E-03 0.  1.
</event>
<event>
 8    1  0.1180500E+005  0.1043930E+01  0.7957747E-01            NaN
         13   -1    0    0    0    0  0.00000000000E+00  0.00000000000E+00  0.74505805969E-08  0.10566000000E+00  0.10566000000E+00 0. -1.
     999900   -1    0    0    0    0 -0.00000000000E+00 -0.00000000000E+00 -0.74505805969E-08  0.93827000000E+00  0.93827000000E+00 0. -1.
     999902    2    1    2    0    0 -0.20546418840E-01 -0.72282319622E-02  0.87721372934E-02  0.10204490916E+01  0.10201789037E+01 0.  0.
     999903    2    3    3    0    0  0.11564870572E+00  0.37349949016E-01  0.36507866650E-01  0.12842577533E+00  0.19766477054E-01 0.  0.
         14    1    1    2    0    0  0.20546418840E-01  0.72282319622E-02 -0.87721372934E-02  0.23480908354E-01  0.00000000000E+00 0. -1.
     999901    1    3    3    0    0 -0.13619512456E+00 -0.44578180978E-01 -0.27735729356E-01  0.89202331632E+00  0.88000000000E+00 0.  1.
        -11    1    4    4    0    0  0.96021787658E-01  0.30388075411E-01  0.37746142391E-01  0.10755766462E+00  0.51100000000E-03 0.  1.
         11    1    4    4    0    0  0.19626918061E-01  0.69618736047E-02 -0.12382757407E-02  0.20868110707E-01  0.51100000000E-03 0. -1.
</event>
<event>
 8    1  0.1180500E+005  0.1043930E+01  0.7957747E-01            NaN
         13   -1    0    0    0    0  0.00000000000E+00  0.00000000000E+00  0.74505805969E-08  0.10566000000E+00  0.10566000000E+00 0. -1.
     999900   -1    0    0    0    0 -0.00000000000E+00 -0.00000000000E+00 -0.74505805969E-08  0.93827000000E+00  0.93827000000E+00 0. -1.
     999902    2    1    2    0    0  0.12834967036E-01  0.20484592281E-01 -0.39542236881E-02  0.10194352907E+01  0.10191409721E+01 0.  0.
     999903    2    3    3    0    0 -0.46865851379E-01 -0.56452189665E-02  0.11832574736E+00  0.12859335965E+00  0.17521219559E-01 0.  0.
         14    1    1    2    0    0 -0.12834967036E-01 -0.20484592281E-01  0.39542236881E-02  0.24494709321E-01  0.00000000000E+00 0. -1.
     999901    1    3    3    0    0  0.59700818415E-01  0.26129811247E-01 -0.12227997105E+00  0.89084193103E+00  0.88000000000E+00 0. -1.
        -11    1    4    4    0    0 -0.33248881924E-01  0.39924227109E-02  0.83807212598E-01  0.90251524047E-01  0.51100000000E-03 0. -1.
         11    1    4    4    0    0 -0.13616969455E-01 -0.96376416774E-02  0.34518534765E-01  0.38341835605E-01  0.51100000000E-03 0.  1.
</event>
<event>
 8    1  0.1180500E+005  0.1043930E+01  0.7957747E-01            NaN
         13   -1    0    0    0    0  0.00000000000E+00  0.00000000000E+00  0.74505805969E-08  0.10566000000E+00  0.10566000000E+00 0.  1.
     999900   -1    0    0    0    0 -0.00000000000E+00 -0.00000000000E+00 -0.74505805969E-08  0.93827000000E+00  0.93827000000E+00 0.  1.
     999902    2    1    2    0    0 -0.23604046178E-01  0.26485186723E-02 -0.19958129332E-01  0.10129059356E+01  0.10124307096E+01 0.  0.
     999903    2    3    3    0    0  0.56527019902E-01  0.38846816013E-01 -0.10174439065E+00  0.12475037655E+00  0.22502362705E-01 0.  0.
         14    1    1    2    0    0  0.23604046178E-01 -0.26485186723E-02  0.19958129332E-01  0.31024064427E-01  0.00000000000E+00 0. -1.
     999901    1    3    3    0    0 -0.80131066080E-01 -0.36198297340E-01  0.81786261319E-01  0.88815555902E+00  0.88000000000E+00 0. -1.
        -11    1    4    4    0    0  0.44606544927E-01  0.20443600340E-01 -0.80101545949E-01  0.93937231328E-01  0.51100000000E-03 0. -1.
         11    1    4    4    0    0  0.11920474976E-01  0.18403215673E-01 -0.21642844702E-01  0.30813145223E-01  0.51100000000E-03 0.  1.
</event>
<event>
 8    1  0.1180500E+005  0.1043930E+01  0.7957747E-01            NaN
         13   -1    0    0    0    0  0.00000000000E+00  0.00000000000E+00  0.74505805969E-08  0.10566000000E+00  0.10566000000E+00 0. -1.
     999900   -1    0    0    0    0 -0.00000000000E+00 -0.00000000000E+00 -0.74505805969E-08  0.93827000000E+00  0.93827000000E+00 0. -1.
     999902    2    1    2    0    0 -0.16412070771E-01  0.17086927332E-01  0.21835239412E-02  0.10201374186E+01  0.10198599247E+01 0.  0.
     999903    2    3    3    0    0  0.12445248415E+00  0.37483708118E-02  0.25141358630E-01  0.12853896521E+00  0.19690265867E-01 0.  0.
         14    1    1    2    0    0  0.16412070771E-01 -0.17086927332E-01 -0.21835239412E-02  0.23792581395E-01  0.00000000000E+00 0. -1.
     999901    1    3    3    0    0 -0.14086455492E+00  0.13338556520E-01 -0.22957834689E-01  0.89159845339E+00  0.88000000000E+00 0. -1.
        -11    1    4    4    0    0  0.58956237343E-01  0.97046935497E-02  0.17886502577E-01  0.62371524704E-01  0.51100000000E-03 0. -1.
         11    1    4    4    0    0  0.65496246803E-01 -0.59563227379E-02  0.72548560536E-02  0.66167440507E-01  0.51100000000E-03 0.  1.
</event>
<event>
 8    1  0.1180500E+005  0.1043930E+01  0.7957747E-01            NaN
         13   -1    0    0    0    0  0.00000000000E+00  0.00000000000E+00  0.74505805969E-08  0.10566000000E+00  0.10566000000E+00 0.  1.
     999900   -1    0    0    0    0 -0.00000000000E+00 -0.00000000000E+00 -0.74505805969E-08  0.93827000000E+00  0.93827000000E+00 0.  1.
     999902    2    1    2    0    0 -0.22131031253E-01 -0.26763119756E-02  0.91435646679E-02  0.10198353955E+01  0.10195507265E+01 0.  0.
     999903    2    3    3    0    0  0.12230909265E+00 -0.30503574472E-01  0.22885561009E-02  0.12759983410E+00  0.19659551675E-01 0.  0.
         14    1    1    2    0    0  0.22131031253E-01  0.26763119756E-02 -0.91435646679E-02  0.24094604478E-01  0.00000000000E+00 0.  1.
     999901    1    3    3    0    0 -0.14444012390E+00  0.27827262496E-01  0.68550085670E-02  0.89223556143E+00  0.88000000000E+00 0. -1.
        -11    1    4    4    0    0  0.49326981386E-01 -0.25920492725E-02 -0.72020832279E-03  0.49402931422E-01  0.51100000000E-03 0.  1.
         11    1    4    4    0    0  0.72982111263E-01 -0.27911525200E-01  0.30087644237E-02  0.78196902674E-01  0.51100000000E-03 0. -1.
</event>
<event>
 8    1  0.1180500E+005  0.1043930E+01  0.7957747E-01            NaN
         13   -1    0    0    0    0  0.00000000000E+00  0.00000000000E+00  0.74505805969E-08  0.10566000000E+00  0.10566000000E+00 0. -1.
     999900   -1    0    0    0    0 -0.00000000000E+00 -0.00000000000E+00 -0.74505805969E-08  0.93827000000E+00  0.93827000000E+00 0.  1.
     999902    2    1    2    0    0 -0.54273622282E-03  0.21573630047E-02  0.24242404071E-01  0.10195857413E+01  0.10192950706E+01 0.  0.
     999903    2    3    3    0    0  0.67406285718E-01 -0.47515063687E-01 -0.95404339812E-01  0.12750964425E+00  0.18852922613E-01 0.  0.
         14    1    1    2    0    0  0.54273622282E-03 -0.21573630047E-02 -0.24242404071E-01  0.24344258725E-01  0.00000000000E+00 0.  1.
     999901    1    3    3    0    0 -0.67949021940E-01  0.49672426692E-01  0.11964674388E+00  0.89207609702E+00  0.88000000000E+00 0. -1.
        -11    1    4    4    0    0  0.51012249617E-02 -0.11144503661E-01 -0.16985182805E-01  0.20951849892E-01  0.51100000000E-03 0. -1.
         11    1    4    4    0    0  0.62305060756E-01 -0.36370560026E-01 -0.78419157007E-01  0.10655779436E+00  0.51100000000E-03 0.  1.
</event>
<event>
 8    1  0.1180500E+005  0.1043930E+01  0.7957747E-01            NaN
         13   -1    0    0    0    0  0.00000000000E+00  0.00000000000E+00  0.74505805969E-08  0.10566000000E+00  0.10566000000E+00 0. -1.
     999900   -1    0    0    0    0 -0.00000000000E+00 -0.00000000000E+00 -0.74505805969E-08  0.93827000000E+00  0.93827000000E+00 0.  1.
     999902    2    1    2    0    0  0.23625604451E-01 -0.91900117653E-02 -0.81513246398E-02  0.10173016393E+01  0.10169530745E+01 0.  0.
     999903    2    3    3    0    0 -0.14691206831E-01  0.98369509702E-01 -0.76972840977E-01  0.12726027517E+00  0.19441383501E-01 0.  0.
         14    1    1    2    0    0 -0.23625604451E-01  0.91900117653E-02  0.81513246398E-02  0.26628360733E-01  0.00000000000E+00 0. -1.
     999901    1    3    3    0    0  0.38316811282E-01 -0.10755952147E+00  0.68821516337E-01  0.89004136409E+00  0.88000000000E+00 0.  1.
        -11    1    4    4    0    0 -0.82587464499E-02  0.32791394072E-01 -0.15723297209E-01  0.37295651412E-01  0.51100000000E-03 0.  1.
         11    1    4    4    0    0 -0.64324603812E-02  0.65578115630E-01 -0.61249543767E-01  0.89964623763E-01  0.51100000000E-03 0. -1.
</event>
<event>
 8    1  0.1180500E+005  0.1043930E+01  0.7957747E-01            NaN
         13   -1    0    0    0    0  0.00000000000E+00  0.00000000000E+00  0.74505805969E-08  0.10566000000E+00  0.10566000000E+00 0. -1.
     999900   -1    0    0    0    0 -0.00000000000E+00 -0.00000000000E+00 -0.74505805969E-08  0.93827000000E+00  0.93827000000E+00 0. -1.
     999902    2    1    2    0    0 -0.14153499546E-01  0.31811315070E-02  0.18496442521E-01  0.10204234151E+01  0.10201526291E+01 0.  0.
     999903    2    3    3    0    0  0.11750688499E+00 -0.12352345837E-01 -0.45686345499E-01  0.12818175724E+00  0.19567121810E-01 0.  0.
         14    1    1    2    0    0  0.14153499546E-01 -0.31811315070E-02 -0.18496442521E-01  0.23506584886E-01  0.00000000000E+00 0.  1.
     999901    1    3    3    0    0 -0.13166038453E+00  0.15533477344E-01  0.64182788019E-01  0.89224165788E+00  0.88000000000E+00 0.  1.
        -11    1    4    4    0    0  0.82933173767E-02  0.82424035586E-03 -0.88601040980E-02  0.12174606807E-01  0.51100000000E-03 0. -1.
         11    1    4    4    0    0  0.10921356761E+00 -0.13176586193E-01 -0.36826241401E-01  0.11600715043E+00  0.51100000000E-03 0.  1.
</event>
<event>
 8    1  0.1180500E+005  0.1043930E+01  0.7957747E-01            NaN
         13   -1    0    0    0    0  0.00000000000E+00  0.00000000000E+00  0.74505805969E-08  0.10566000000E+00  0.10566000000E+00 0. -1.
     999900   -1    0    0    0    0 -0.00000000000E+00 -0.00000000000E+00 -0.74505805969E-08  0.93827000000E+00  0.93827000000E+00 0. -1.
     999902    2    1    2    0    0 -0.75199661705E-03 -0.19773557743E-01  0.73946347698E-02  0.10228056134E+01  0.10225874452E+01 0.  0.
     999903    2    3    3    0    0  0.38064397394E-01  0.19151006896E-01  0.12472923813E+00  0.13331742164E+00  0.20012312585E-01 0.  0.
         14    1    1    2    0    0  0.75199661705E-03  0.19773557743E-01 -0.73946347698E-02  0.21124386574E-01  0.00000000000E+00 0. -1.
     999901    1    3    3    0    0 -0.38816394011E-01 -0.38924564639E-01 -0.11733460336E+00  0.88948819178E+00  0.88000000000E+00 0. -1.
        -11    1    4    4    0    0  0.82125202072E-02  0.14672293231E-01  0.41356937923E-01  0.44647274409E-01  0.51100000000E-03 0.  1.
         11    1    4    4    0    0  0.29851877187E-01  0.44787136650E-02  0.83372300207E-01  0.88670147234E-01  0.51100000000E-03 0. -1.
</event>
<event>
 8    1  0.1180500E+005  0.1043930E+01  0.7957747E-01            NaN
         13   -1    0    0    0    0  0.00000000000E+00  0.00000000000E+00  0.74505805969E-08  0.10566000000E+00  0.10566000000E+00 0. -1.
     999900   -1    0    0    0    0 -0.00000000000E+00 -0.00000000000E+00 -0.74505805969E-08  0.93827000000E+00  0.93827000000E+00 0. -1.
     999902    2    1    2    0    0 -0.14393384842E-01  0.12603192038E-01 -0.14181881697E-01  0.10201153880E+01  0.10198373738E+01 0.  0.
     999903    2    3    3    0    0 -0.31352821318E-01 -0.12241802573E+00  0.21064917056E-01  0.12895844976E+00  0.14743764944E-01 0.  0.
         14    1    1    2    0    0  0.14393384842E-01 -0.12603192038E-01  0.14181881697E-01  0.23814612011E-01  0.00000000000E+00 0. -1.
     999901    1    3    3    0    0  0.16959436476E-01  0.13502121777E+00 -0.35246798752E-01  0.89115693823E+00  0.88000000000E+00 0.  1.
        -11    1    4    4    0    0 -0.20804906253E-01 -0.52133947195E-01  0.81855534172E-02  0.56727920640E-01  0.51100000000E-03 0.  1.
         11    1    4    4    0    0 -0.10547915065E-01 -0.70284078537E-01  0.12879363638E-01  0.72230529119E-01  0.51100000000E-03 0. -1.
</event>
<event>
 8    1  0.1180500E+005  0.1043930E+01  0.7957747E-01            NaN
         13   -1    0    0    0    0  0.00000000000E+00  0.00000000000E+00  0.74505805969E-08  0.10566000000E+00  0.10566000000E+00 0. -1.
     999900   -1    0    0    0    0 -0.00000000000E+00 -0.00000000000E+00 -0.74505805969E-08  0.93827000000E+00  0.93827000000E+00 0.  1.
     999902    2    1    2    0    0 -0.83132563660E-02  0.40849878045E-02 -0.24136964436E-01  0.10180767524E+01  0.10177484382E+01 0.  0.
     999903    2    3    3    0    0 -0.55385412884E-01  0.79512561949E-01  0.79022337970E-01  0.12760106579E+00  0.25450159604E-01 0.  0.
         14    1    1    2    0    0  0.83132563660E-02 -0.40849878045E-02  0.24136964436E-01  0.25853247552E-01  0.00000000000E+00 0. -1.
     999901    1    3    3    0    0  0.47072156518E-01 -0.75427574144E-01 -0.10315930241E+00  0.89047568666E+00  0.88000000000E+00 0.  1.
        -11    1    4    4    0    0 -0.83589278300E-02  0.78645915763E-03  0.80339314078E-02  0.11631653680E-01  0.51100000000E-03 0. -1.
         11    1    4    4    0    0 -0.47026485054E-01  0.78726102791E-01  0.70988406563E-01  0.11596941211E+00  0.51100000000E-03 0.  1.
</event>
<event>
 8    1  0.1180500E+005  0.1043930E+01  0.7957747E-01            NaN
         13   -1    0    0    0    0  0.00000000000E+00  0.00000000000E+00  0.74505805969E-08  0.10566000000E+00  0.10566000000E+00 0. -1.
     999900   -1    0    0    0    0 -0.00000000000E+00 -0.00000000000E+00 -0.74505805969E-08  0.93827000000E+00  0.93827000000E+00 0. -1.
     999902    2    1    2    0    0 -0.31967612986E-02 -0.97790647139E-02 -0.23853504965E-01  0.10179523348E+01  0.10176208119E+01 0.  0.
     999903    2    3    3    0    0  0.10101800389E+00  0.73914002618E-01 -0.17100580420E-01  0.12783388832E+00  0.19523223552E-01 0.  0.
         14    1    1    2    0    0  0.31967612986E-02  0.97790647139E-02  0.23853504965E-01  0.25977665188E-01  0.00000000000E+00 0. -1.
     999901    1    3    3    0    0 -0.10421476519E+00 -0.83693067331E-01 -0.67529245455E-02  0.89011844650E+00  0.88000000000E+00 0.  1.
        -11    1    4    4    0    0  0.55689160940E-01  0.52307063892E-01 -0.12291141131E-01  0.77386335037E-01  0.51100000000E-03 0. -1.
         11    1    4    4    0    0  0.45328842953E-01  0.21606938725E-01 -0.48094392890E-02  0.50447553279E-01  0.51100000000E-03 0.  1.
</event>
<event>
 8    1  0.1180500E+005  0.1043930E+01  0.7957747E-01            NaN
         13   -1    0    0    0    0  0.00000000000E+00  0.00000000000E+00  0.74505805969E-08  0.10566000000E+00  0.10566000000E+00 0. -1.
     999900   -1    0    0    0    0 -0.00000000000E+00 -0.00000000000E+00 -0.74505805969E-08  0.93827000000E+00  0.93827000000E+00 0. -1.
     999902    2    1    2    0    0  0.14311616847E-01 -0.49437336222E-02 -0.18776932214E-01  0.10198087218E+01  0.10195234146E+01 0.  0.
     999903    2    3    3    0    0  0.48443321191E-01  0.11721413939E+00 -0.24066890649E-01  0.13069933435E+00  0.20425252328E-01 0.  0.
         14    1    1    2    0    0 -0.14311616847E-01  0.49437336222E-02  0.18776932214E-01  0.24121278205E-01  0.00000000000E+00 0. -1.
     999901    1    3    3    0    0 -0.34131704344E-01 -0.12215787301E+00  0.52899584350E-02  0.88910938744E+00  0.88000000000E+00 0. -1.
        -11    1    4    4    0    0  0.36059882113E-01  0.60732396902E-01 -0.13859296220E-01  0.71979721756E-01  0.51100000000E-03 0.  1.
         11    1    4    4    0    0  0.12383439078E-01  0.56481742491E-01 -0.10207594429E-01  0.58719612594E-01  0.51100000000E-03 0. -1.
</event>
<event>
 8    1  0.1180500E+005  0.1043930E+01  0.7957747E-01            NaN
         13   -1    0    0    0    0  0.00000000000E+00  0.00000000000E+00  0.74505805969E-08  0.10566000000E+00  0.10566000000E+00 0.  1.
     999900   -1    0    0    0    0 -0.00000000000E+00 -0.00000000000E+00 -0.74505805969E-08  0.93827000000E+00  0.93827000000E+00 0.  1.
     999902    2    1    2    0    0 -0.15135039835E-01 -0.18392594875E-01  0.24587349211E-02  0.10199841788E+01  0.10197030561E+01 0.  0.
     999903    2    3    3    0    0  0.54627079291E-01 -0.10476428358E+00  0.54126781483E-01  0.13150434844E+00  0.20100056685E-01 0.  0.
         14    1    1    2    0    0  0.15135039835E-01  0.18392594875E-01 -0.24587349211E-02  0.23945821231E-01  0.00000000000E+00 0. -1.
     999901    1    3    3    0    0 -0.69762119125E-01  0.86371688701E-01 -0.51668046562E-01  0.88847983033E+00  0.88000000000E+00 0.  1.
        -11    1    4    4    0    0  0.38175325814E-01 -0.62042936091E-01  0.42219579792E-01  0.84198785376E-01  0.51100000000E-03 0. -1.
         11    1    4    4    0    0  0.16451753477E-01 -0.42721347484E-01  0.11907201691E-01  0.47305563060E-01  0.51100000000E-03 0.  1.
</event>
<event>
 8    1  0.1180500E+005  0.1043930E+01  0.7957747E-01            NaN
         13   -1    0    0    0    0  0.00000000000E+00  0.00000000000E+00  0.74505805969E-08  0.10566000000E+00  0.10566000000E+00 0. -1.
     999900   -1    0    0    0    0 -0.00000000000E+00 -0.00000000000E+00 -0.74505805969E-08  0.93827000000E+00  0.93827000000E+00 0. -1.
     999902    2    1    2    0    0  0.22705565371E-01  0.30010655983E-02  0.26085266796E-02  0.10208788936E+01  0.10206186173E+01 0.  0.
     999903    2    3    3    0    0 -0.78127836544E-01 -0.95122901751E-01  0.32394359528E-01  0.12920469093E+00  0.22184056204E-01 0.  0.
         14    1    1    2    0    0 -0.22705565371E-01 -0.30010655983E-02 -0.26085266796E-02  0.23051106373E-01  0.00000000000E+00 0. -1.
     999901    1    3    3    0    0  0.10083340192E+00  0.98123967349E-01 -0.29785832849E-01  0.89167420269E+00  0.88000000000E+00 0. -1.
        -11    1    4    4    0    0 -0.31988496022E-01 -0.55037021808E-01  0.12090540781E-01  0.64797993369E-01  0.51100000000E-03 0. -1.
         11    1    4    4    0    0 -0.46139340521E-01 -0.40085879943E-01  0.20303818747E-01  0.64406697565E-01  0.51100000000E-03 0.  1.
</event>
<event>
 8    1  0.1180500E+005  0.1043930E+01  0.7957747E-01            NaN
         13   -1    0    0    0    0  0.00000000000E+00  0.00000000000E+00  0.74505805969E-08  0.10566000000E+00  0.10566000000E+00 0. -1.
     999900   -1    0    0    0    0 -0.00000000000E+00 -0.00000000000E+00 -0.74505805969E-08  0.93827000000E+00  0.93827000000E+00 0.  1.
     999902    2    1    2    0    0 -0.22989248752E-01  0.53864717271E-02 -0.19172020325E-02  0.10202404390E+01  0.10199653710E+01 0.  0.
     999903    2    3    3    0    0  0.38444258244E-01 -0.11409381153E+00  0.41562517351E-01  0.12898284446E+00  0.20341398552E-01 0.  0.
         14    1    1    2    0    0  0.22989248752E-01 -0.53864717271E-02  0.19172020325E-02  0.23689560981E-01  0.00000000000E+00 0. -1.
     999901    1    3    3    0    0 -0.61433506996E-01  0.11948028325E+00 -0.43479719384E-01  0.89125759456E+00  0.88000000000E+00 0. -1.
        -11    1    4    4    0    0  0.39438343709E-01 -0.98505095675E-01  0.32782411198E-01  0.11105667217E+00  0.51100000000E-03 0.  1.
         11    1    4    4    0    0 -0.99408546476E-03 -0.15588715850E-01  0.87801061534E-02  0.17926172286E-01  0.51100000000E-03 0. -1.
</event>
<event>
 8    1  0.1180500E+005  0.1043930E+01  0.7957747E-01            NaN
         13   -1    0    0    0    0  0.00000000000E+00  0.00000000000E+00  0.74505805969E-08  0.10566000000E+00  0.10566000000E+00 0.  1.
     999900   -1    0    0    0    0 -0.00000000000E+00 -0.00000000000E+00 -0.74505805969E-08  0.93827000000E+00  0.93827000000E+00 0. -1.
     999902    2    1    2    0    0  0.11989163902E-01 -0.21203651455E-01  0.91334805992E-02  0.10179154780E+01  0.10175830015E+01 0.  0.
     999903    2    3    3    0    0  0.47160378924E-01  0.10297145503E+00 -0.52443873195E-01  0.12637285877E+00  0.19812059655E-01 0.  0.
         14    1    1    2    0    0 -0.11989163902E-01  0.21203651455E-01 -0.91334805992E-02  0.26014521982E-01  0.00000000000E+00 0. -1.
     999901    1    3    3    0    0 -0.35171215022E-01 -0.12417510648E+00  0.61577353794E-01  0.89154261925E+00  0.88000000000E+00 0.  1.
        -11    1    4    4    0    0  0.21195592656E-01  0.27478476282E-01 -0.21019995574E-01  0.40576115411E-01  0.51100000000E-03 0. -1.
         11    1    4    4    0    0  0.25964786267E-01  0.75492978743E-01 -0.31423877620E-01  0.85796743360E-01  0.51100000000E-03 0.  1.
</event>
<event>
 8    1  0.1180500E+005  0.1043930E+01  0.7957747E-01            NaN
         13   -1    0    0    0    0  0.00000000000E+00  0.00000000000E+00  0.74505805969E-08  0.10566000000E+00  0.10566000000E+00 0.  1.
     999900   -1    0    0    0    0 -0.00000000000E+00 -0.00000000000E+00 -0.74505805969E-08  0.93827000000E+00  0.93827000000E+00 0. -1.
     999902    2    1    2    0    0 -0.84156307417E-02 -0.16359717375E-01  0.15240841653E-01  0.10200396997E+01  0.10197598946E+01 0.  0.
     999903    2    3    3    0    0  0.36467154938E-01  0.55897392010E-01 -0.10716607046E+00  0.12750454274E+00  0.17845726059E-01 0.  0.
         14    1    1    2    0    0  0.84156307417E-02  0.16359717375E-01 -0.15240841653E-01  0.23890300284E-01  0.00000000000E+00 0. -1.
     999901    1    3    3    0    0 -0.44882785680E-01 -0.72257109385E-01  0.12240691211E+00  0.89253515698E+00  0.88000000000E+00 0.  1.
        -11    1    4    4    0    0  0.94519775309E-02  0.11472850302E-01 -0.12206530951E-01  0.19241275741E-01  0.51100000000E-03 0. -1.
         11    1    4    4    0    0  0.27015177407E-01  0.44424541708E-01 -0.94959539509E-01  0.10826326700E+00  0.51100000000E-03 0.  1.
</event>
<event>
 8    1  0.1180500E+005  0.1043930E+01  0.7957747E-01            NaN
         13   -1    0    0    0    0  0.00000000000E+00  0.00000000000E+00  0.74505805969E-08  0.10566000000E+00  0.10566000000E+00 0.  1.
     999900   -1    0    0    0    0 -0.00000000000E+00 -0.00000000000E+00 -0.74505805969E-08  0.93827000000E+00  0.93827000000E+00 0.  1.
     999902    2    1    2    0    0  0.16734089800E-01  0.67770570735E-02 -0.14135528743E-01  0.10210002936E+01  0.10207427825E+01 0.  0.
     999903    2    3    3    0    0  0.12250010268E+00 -0.97977124289E-02 -0.49006673017E-01  0.13382659628E+00  0.20140346233E-01 0.  0.
         14    1    1    2    0    0 -0.16734089800E-01 -0.67770570735E-02  0.14135528743E-01  0.22929706427E-01  0.00000000000E+00 0.  1.
     999901    1    3    3    0    0 -0.10576601288E+00  0.16574769502E-01  0.34871144274E-01  0.88717369729E+00  0.88000000000E+00 0. -1.
        -11    1    4    4    0    0  0.11290783716E-01  0.20304842274E-02  0.56011129595E-03  0.11496934756E-01  0.51100000000E-03 0.  1.
         11    1    4    4    0    0  0.11120931896E+00 -0.11828196656E-01 -0.49566784313E-01  0.12232966152E+00  0.51100000000E-03 0. -1.
</event>
<event>
 8    1  0.1180500E+005  0.1043930E+01  0.7957747E-01            NaN
         13   -1    0    0    0    0  0.00000000000E+00  0.00000000000E+00  0.74505805969E-08  0.10566000000E+00  0.10566000000E+00 0.  1.
     999900   -1    0    0    0    0 -0.00000000000E+00 -0.00000000000E+00 -0.74505805969E-08  0.93827000000E+00  0.93827000000E+00 0. -1.
     999902    2    1    2    0    0  0.11354536960E-01 -0.19776062153E-01 -0.56866346135E-02  0.10204277457E+01  0.10201570606E+01 0.  0.
     999903    2    3    3    0    0 -0.69893621610E-01  0.10441835531E+00 -0.13201050880E-01  0.12796935281E+00  0.20336574069E-01 0.  0.
         14    1    1    2    0    0 -0.11354536960E-01  0.19776062153E-01  0.56866346135E-02  0.23502254298E-01  0.00000000000E+00 0.  1.
     999901    1    3    3    0    0  0.81248158570E-01 -0.12419441747E+00  0.75144162665E-02  0.89245839290E+00  0.88000000000E+00 0.  1.
        -11    1    4    4    0    0 -0.86486053323E-02  0.13295864987E-01  0.50843118437E-02  0.16664025560E-01  0.51100000000E-03 0.  1.
         11    1    4    4    0    0 -0.61245016278E-01  0.91122490326E-01 -0.18285362724E-01  0.11130532724E+00  0.51100000000E-03 0. -1.
</event>
<event>
 8    1  0.1180500E+005  0.1043930E+01  0.7957747E-01            NaN
         13   -1    0    0    0    0  0.00000000000E+00  0.00000000000E+00  0.74505805969E-08  0.10566000000E+00  0.10566000000E+00 0. -1.
     999900   -1    0    0    0    0 -0.00000000000E+00 -0.00000000000E+00 -0.74505805969E-08  0.93827000000E+00  0.93827000000E+00 0.  1.
     999902    2    1    2    0    0 -0.40264503578E-02  0.18955894542E-01 -0.14747762575E-01  0.10195776954E+01  0.10192868302E+01 0.  0.
     999903    2    3    3    0    0  0.85037645911E-01 -0.23711098741E-01 -0.94031136666E-01  0.13051147793E+00  0.19944266947E-01 0.  0.
         14    1    1    2    0    0  0.40264503578E-02 -0.18955894542E-01  0.14747762575E-01  0.24352304642E-01  0.00000000000E+00 0.  1.
     999901    1    3    3    0    0 -0.89064096269E-01  0.42666993283E-01  0.79283374090E-01  0.88906621743E+00  0.88000000000E+00 0. -1.
        -11    1    4    4    0    0  0.81449601168E-01 -0.21319870849E-01 -0.93966888168E-01  0.12616898041E+00  0.51100000000E-03 0. -1.
         11    1    4    4    0    0  0.35880447428E-02 -0.23912278926E-02 -0.64248497426E-04  0.43424975279E-02  0.51100000000E-03 0.  1.
</event>
<event>
 8    1  0.1180500E+005  0.1043930E+01  0.7957747E-01            NaN
         13   -1    0    0    0    0  0.00000000000E+00  0.00000000000E+00  0.74505805969E-08  0.10566000000E+00  0.10566000000E+00 0.  1.
     999900   -1    0    0    0    0 -0.00000000000E+00 -0.00000000000E+00 -0.74505805969E-08  0.93827000000E+00  0.93827000000E+00 0.  1.
     999902    2    1    2    0    0 -0.24381606867E-01  0.51354777837E-02  0.48231398595E-02  0.10185509030E+01  0.10182346701E+01 0.  0.
     999903    2    3    3    0    0  0.96798450094E-01  0.61674387009E-01  0.50440978758E-01  0.12728088687E+00  0.21965014702E-01 0.  0.
         14    1    1    2    0    0  0.24381606867E-01 -0.51354777837E-02 -0.48231398595E-02  0.25379096981E-01  0.00000000000E+00 0. -1.
     999901    1    3    3    0    0 -0.12118005696E+00 -0.56538909225E-01 -0.45617838898E-01  0.89127001615E+00  0.88000000000E+00 0.  1.
        -11    1    4    4    0    0  0.52399937631E-01  0.22287104274E-01  0.18476610753E-01  0.59867476534E-01  0.51100000000E-03 0. -1.
         11    1    4    4    0    0  0.44398512463E-01  0.39387282735E-01  0.31964368004E-01  0.67413410336E-01  0.51100000000E-03 0.  1.
</event>
<event>
 8    1  0.1180500E+005  0.1043930E+01  0.7957747E-01            NaN
         13   -1    0    0    0    0  0.00000000000E+00  0.00000000000E+00  0.74505805969E-08  0.10566000000E+00  0.10566000000E+00 0.  1.
     999900   -1    0    0    0    0 -0.00000000000E+00 -0.00000000000E+00 -0.74505805969E-08  0.93827000000E+00  0.93827000000E+00 0. -1.
     999902    2    1    2    0    0 -0.17977327144E-01  0.14217371733E-01 -0.90148926002E-02  0.10193010285E+01  0.10190034349E+01 0.  0.
     999903    2    3    3    0    0 -0.92711921251E-01 -0.19233615027E-01  0.84424290988E-01  0.13057434995E+00  0.30931661251E-01 0.  0.
         14    1    1    2    0    0  0.17977327144E-01 -0.14217371733E-01  0.90148926002E-02  0.24628971534E-01  0.00000000000E+00 0.  1.
     999901    1    3    3    0    0  0.74734594107E-01  0.33450986760E-01 -0.93439183589E-01  0.88872667851E+00  0.88000000000E+00 0. -1.
        -11    1    4    4    0    0 -0.20371643444E-02 -0.74782260927E-02  0.36991685190E-02  0.86034221558E-02  0.51100000000E-03 0. -1.
         11    1    4    4    0    0 -0.90674756906E-01 -0.11755388934E-01  0.80725122469E-01  0.12197092780E+00  0.51100000000E-03 0.  1.
</event>
<event>
 8    1  0.1180500E+005  0.1043930E+01  0.7957747E-01            NaN
         13   -1    0    0    0    0  0.00000000000E+00  0.00000000000E+00  0.74505805969E-08  0.10566000000E+00  0.10566000000E+00 0. -1.
     999900   -1    0    0    0    0 -0.00000000000E+00 -0.00000000000E+00 -0.74505805969E-08  0.93827000000E+00  0.93827000000E+00 0.  1.
     999902    2    1    2    0    0 -0.11329289014E-01  0.69646563439E-02 -0.19545541315E-01  0.10202892002E+01  0.10200152767E+01 0.  0.
     999903    2    3    3    0    0 -0.44542516418E-01 -0.11440447642E+00  0.34794564776E-01  0.12967905434E+00  0.23099251155E-01 0.  0.
         14    1    1    2    0    0  0.11329289014E-01 -0.69646563439E-02  0.19545541315E-01  0.23640799751E-01  0.00000000000E+00 0. -1.
     999901    1    3    3    0    0  0.33213227403E-01  0.12136913276E+00 -0.54340106091E-01  0.89061014591E+00  0.88000000000E+00 0. -1.
        -11    1    4    4    0    0 -0.32274653381E-01 -0.57602205773E-01  0.11272871900E-01  0.66985118666E-01  0.51100000000E-03 0.  1.
         11    1    4    4    0    0 -0.12267863037E-01 -0.56802270645E-01  0.23521692876E-01  0.62693935677E-01  0.51100000000E-03 0. -1.
</event>
<event>
 8    1  0.1180500E+005  0.1043930E+01  0.7957747E-01            NaN
         13   -1    0    0    0    0  0.00000000000E+00  0.00000000000E+00  0.74505805969E-08  0.10566000000E+00  0.10566000000E+00 0.  1.
     999900   -1    0    0    0    0 -0.00000000000E+00 -0.00000000000E+00 -0.74505805969E-08  0.93827000000E+00  0.93827000000E+00 0. -1.
     999902    2    1    2    0    0 -0.12192578849E-01  0.16842905428E-01  0.10970294859E-01  0.10204206442E+01  0.10201497935E+01 0.  0.
     999903    2    3    3    0    0  0.20329839911E-01  0.12461122003E+00 -0.33939620740E-01  0.13211404289E+00  0.18999050624E-01 0.  0.
         14    1    1    2    0    0  0.12192578849E-01 -0.16842905428E-01 -0.10970294859E-01  0.23509355830E-01  0.00000000000E+00 0. -1.
     999901    1    3    3    0    0 -0.32522418760E-01 -0.10776831460E+00  0.44909915599E-01  0.88830660128E+00  0.88000000000E+00 0.  1.
        -11    1    4    4    0    0  0.15005067660E-01  0.62540759136E-01 -0.87346608880E-02  0.64908042880E-01  0.51100000000E-03 0.  1.
         11    1    4    4    0    0  0.53247722515E-02  0.62070460897E-01 -0.25204959852E-01  0.67206000012E-01  0.51100000000E-03 0. -1.
</event>
<event>
 8    1  0.1180500E+005  0.1043930E+01  0.7957747E-01            NaN
         13   -1    0    0    0    0  0.00000000000E+00  0.00000000000E+00  0.74505805969E-08  0.10566000000E+00  0.10566000000E+00 0.  1.
     999900   -1    0    0    0    0 -0.00000000000E+00 -0.00000000000E+00 -0.74505805969E-08  0.93827000000E+00  0.93827000000E+00 0. -1.
     999902    2    1    2    0    0 -0.13885276945E-01  0.18103932160E-01 -0.11134707758E-02  0.10210872092E+01  0.10208316686E+01 0.  0.
     999903    2    3    3    0    0 -0.71703817786E-01 -0.10536224771E+00  0.18714325677E-01  0.13036838556E+00  0.20076086241E-01 0.  0.
         14    1    1    2    0    0  0.13885276945E-01 -0.18103932160E-01  0.11134707758E-02  0.22842790824E-01  0.00000000000E+00 0.  1.
     999901    1    3    3    0    0  0.57818540841E-01  0.12346617987E+00 -0.19827796452E-01  0.89071882362E+00  0.88000000000E+00 0.  1.
        -11    1    4    4    0    0 -0.33757484356E-01 -0.39568872808E-01  0.15789856441E-01  0.54358478021E-01  0.51100000000E-03 0. -1.
         11    1    4    4    0    0 -0.37946333429E-01 -0.65793374905E-01  0.29244692355E-02  0.76009907535E-01  0.51100000000E-03 0.  1.
</event>
<event>
 8    1  0.1180500E+005  0.1043930E+01  0.7957747E-01            NaN
         13   -1    0    0    0    0  0.00000000000E+00  0.00000000000E+00  0.74505805969E-08  0.10566000000E+00  0.10566000000E+00 0.  1.
     999900   -1    0    0    0    0 -0.00000000000E+00 -0.00000000000E+00 -0.74505805969E-08  0.93827000000E+00  0.93827000000E+00 0.  1.
     999902    2    1    2    0    0  0.10192350298E-01 -0.19913977086E-01  0.81273568004E-02  0.10201286467E+01  0.10198509457E+01 0.  0.
     999903    2    3    3    0    0  0.73213693345E-01  0.51944031311E-01 -0.90864402651E-01  0.12943530362E+00  0.20945903487E-01 0.  0.
         14    1    1    2    0    0 -0.10192350298E-01  0.19913977086E-01 -0.81273568004E-02  0.23801353250E-01  0.00000000000E+00 0. -1.
     999901    1    3    3    0    0 -0.63021343047E-01 -0.71858008397E-01  0.98991759452E-01  0.89069334313E+00  0.88000000000E+00 0.  1.
        -11    1    4    4    0    0  0.15795000138E-01  0.16001188538E-01 -0.35129557604E-01  0.41711713012E-01  0.51100000000E-03 0.  1.
         11    1    4    4    0    0  0.57418693208E-01  0.35942842773E-01 -0.55734845047E-01  0.87723590611E-01  0.51100000000E-03 0. -1.
</event>
<event>
 8    1  0.1180500E+005  0.1043930E+01  0.7957747E-01            NaN
         13   -1    0    0    0    0  0.00000000000E+00  0.00000000000E+00  0.74505805969E-08  0.10566000000E+00  0.10566000000E+00 0.  1.
     999900   -1    0    0    0    0 -0.00000000000E+00 -0.00000000000E+00 -0.74505805969E-08  0.93827000000E+00  0.93827000000E+00 0.  1.
     999902    2    1    2    0    0 -0.35649693384E-02 -0.47851281401E-02 -0.22659779520E-01  0.10204977132E+01  0.10202286560E+01 0.  0.
     999903    2    3    3    0    0 -0.47743990638E-02 -0.12243913376E+00 -0.45619034780E-01  0.13236987601E+00  0.20653120277E-01 0.  0.
         14    1    1    2    0    0  0.35649693384E-02  0.47851281401E-02  0.22659779520E-01  0.23432286820E-01  0.00000000000E+00 0.  1.
     999901    1    3    3    0    0  0.12094297254E-02  0.11765400562E+00  0.22959255260E-01  0.88812783717E+00  0.88000000000E+00 0. -1.
        -11    1    4    4    0    0 -0.10184786983E-01 -0.94739732857E-01 -0.41142041034E-01  0.10378957332E+00  0.51100000000E-03 0. -1.
         11    1    4    4    0    0  0.54103879190E-02 -0.27699400904E-01 -0.44769937460E-02  0.28580302691E-01  0.51100000000E-03 0.  1.
</event>
<event>
 8    1  0.1180500E+005  0.1043930E+01  0.7957747E-01            NaN
         13   -1    0    0    0    0  0.00000000000E+00  0.00000000000E+00  0.74505805969E-08  0.10566000000E+00  0.10566000000E+00 0. -1.
     999900   -1    0    0    0    0 -0.00000000000E+00 -0.00000000000E+00 -0.74505805969E-08  0.93827000000E+00  0.93827000000E+00 0. -1.
     999902    2    1    2    0    0  0.15717563497E-01  0.17627110471E-01  0.17362908268E-02  0.10202493849E+01  0.10199745271E+01 0.  0.
     999903    2    3    3    0    0  0.15858496124E-01  0.11382400671E+00  0.63403583586E-01  0.13286180458E+00  0.20611848558E-01 0.  0.
         14    1    1    2    0    0 -0.15717563497E-01 -0.17627110471E-01 -0.17362908268E-02  0.23680615103E-01  0.00000000000E+00 0.  1.
     999901    1    3    3    0    0 -0.14093262645E-03 -0.96196896240E-01 -0.61667292760E-01  0.88738758032E+00  0.88000000000E+00 0. -1.
        -11    1    4    4    0    0  0.24177417859E-02  0.67289132896E-01  0.45277412454E-01  0.81141716033E-01  0.51100000000E-03 0. -1.
         11    1    4    4    0    0  0.13440754338E-01  0.46534873815E-01  0.18126171132E-01  0.51720088545E-01  0.51100000000E-03 0.  1.
</event>
<event>
 8    1  0.1180500E+005  0.1043930E+01  0.7957747E-01            NaN
         13   -1    0    0    0    0  0.00000000000E+00  0.00000000000E+00  0.74505805969E-08  0.10566000000E+00  0.10566000000E+00 0.  1.
     999900   -1    0    0    0    0 -0.00000000000E+00 -0.00000000000E+00 -0.74505805969E-08  0.93827000000E+00  0.93827000000E+00 0. -1.
     999902    2    1    2    0    0  0.17825567917E-02  0.14695719258E-01 -0.18590258992E-01  0.10201657537E+01  0.10198889281E+01 0.  0.
     999903    2    3    3    0    0  0.12094931922E+00 -0.35194727176E-01  0.23996859671E-01  0.12971449922E+00  0.19560045814E-01 0.  0.
         14    1    1    2    0    0 -0.17825567917E-02 -0.14695719258E-01  0.18590258992E-01  0.23764246309E-01  0.00000000000E+00 0.  1.
     999901    1    3    3    0    0 -0.11916676243E+00  0.49890446434E-01 -0.42587118663E-01  0.89045125447E+00  0.88000000000E+00 0.  1.
        -11    1    4    4    0    0  0.14693560152E-01 -0.41080592521E-02  0.96938701553E-02  0.18083392943E-01  0.51100000000E-03 0.  1.
         11    1    4    4    0    0  0.10625575907E+00 -0.31086667924E-01  0.14302989515E-01  0.11163110628E+00  0.51100000000E-03 0. -1.
</event>
<event>
 8    1  0.1180500E+005  0.1043930E+01  0.7957747E-01            NaN
         13   -1    0    0    0    0  0.00000000000E+00  0.00000000000E+00  0.74505805969E-08  0.10566000000E+00  0.10566000000E+00 0.  1.
     999900   -1    0    0    0    0 -0.00000000000E+00 -0.00000000000E+00 -0.74505805969E-08  0.93827000000E+00  0.93827000000E+00 0.  1.
     999902    2    1    2    0    0  0.16961225758E-01  0.16752102213E-01 -0.21500685927E-01  0.10118271091E+01  0.10113177063E+01 0.  0.
     999903    2    3    3    0    0  0.11413893059E+00 -0.21688977765E-01  0.37591986076E-01  0.12367556415E+00  0.19605624653E-01 0.  0.
         14    1    1    2    0    0 -0.16961225758E-01 -0.16752102213E-01  0.21500685927E-01  0.32102890884E-01  0.00000000000E+00 0.  1.
     999901    1    3    3    0    0 -0.97177704829E-01  0.38441079978E-01 -0.59092672003E-01  0.88815154497E+00  0.88000000000E+00 0.  1.
        -11    1    4    4    0    0  0.60219496365E-01 -0.21290965027E-01  0.19085587510E-01  0.66664936105E-01  0.51100000000E-03 0.  1.
         11    1    4    4    0    0  0.53919434222E-01 -0.39801273806E-03  0.18506398566E-01  0.57010628043E-01  0.51100000000E-03 0. -1.
</event>
<event>
 8    1  0.1180500E+005  0.1043930E+01  0.7957747E-01            NaN
         13   -1    0    0    0    0  0.00000000000E+00  0.00000000000E+00  0.74505805969E-08  0.10566000000E+00  0.10566000000E+00 0.  1.
     999900   -1    0    0    0    0 -0.00000000000E+00 -0.00000000000E+00 -0.74505805969E-08  0.93827000000E+00  0.93827000000E+00 0.  1.
     999902    2    1    2    0    0 -0.23610481929E-01  0.54198072713E-04 -0.28672512366E-02  0.10201459944E+01  0.10198687028E+01 0.  0.
     999903    2    3    3    0    0 -0.33032383523E-01 -0.10848186636E-02 -0.12547417385E+00  0.13159519275E+00  0.21936527957E-01 0.  0.
         14    1    1    2    0    0  0.23610481929E-01 -0.54198072713E-04  0.28672512366E-02  0.23784005634E-01  0.00000000000E+00 0.  1.
     999901    1    3    3    0    0  0.94219015940E-02  0.11390167363E-02  0.12260692261E+00  0.88855080162E+00  0.88000000000E+00 0. -1.
        -11    1    4    4    0    0 -0.52114409182E-02 -0.36891792043E-03 -0.62787773717E-01  0.63006831901E-01  0.51100000000E-03 0. -1.
         11    1    4    4    0    0 -0.27820942604E-01 -0.71590074321E-03 -0.62686400129E-01  0.68588360845E-01  0.51100000000E-03 0.  1.
</event>
<event>
 8    1  0.1180500E+005  0.1043930E+01  0.7957747E-01            NaN
         13   -1    0    0    0    0  0.00000000000E+00  0.00000000000E+00  0.74505805969E-08  0.10566000000E+00  0.10566000000E+00 0.  1.
     999900   -1    0    0    0    0 -0.00000000000E+00 -0.00000000000E+00 -0.74505805969E-08  0.93827000000E+00  0.93827000000E+00 0. -1.
     999902    2    1    2    0    0  0.76960202076E-02 -0.16649227949E-01 -0.14533664930E-01  0.10205280143E+01  0.10202596606E+01 0.  0.
     999903    2    3    3    0    0  0.10087308361E+00  0.40635911296E-02 -0.83190504288E-01  0.13270779173E+00  0.22333969910E-01 0.  0.
         14    1    1    2    0    0 -0.76960202076E-02  0.16649227949E-01  0.14533664930E-01  0.23401985699E-01  0.00000000000E+00 0.  1.
     999901    1    3    3    0    0 -0.93177063402E-01 -0.20712819079E-01  0.68656839357E-01  0.88782022257E+00  0.88000000000E+00 0.  1.
        -11    1    4    4    0    0  0.64780421197E-01  0.60945274765E-02 -0.65978072618E-01  0.92666139571E-01  0.51100000000E-03 0.  1.
         11    1    4    4    0    0  0.36092662413E-01 -0.20309363469E-02 -0.17212431669E-01  0.40041652157E-01  0.51100000000E-03 0. -1.
</event>
<event>
 8    1  0.1180500E+005  0.1043930E+01  0.7957747E-01            NaN
         13   -1    0    0    0    0  0.00000000000E+00  0.00000000000E+00  0.74505805969E-08  0.10566000000E+00  0.10566000000E+00 0. -1.
     999900   -1    0    0    0    0 -0.00000000000E+00 -0.00000000000E+00 -0.74505805969E-08  0.93827000000E+00  0.93827000000E+00 0. -1.
     999902    2    1    2    0    0 -0.69319476191E-03 -0.24157035029E-01 -0.22249200435E-03  0.10197619971E+01  0.10194755703E+01 0.  0.
     999903    2    3    3    0    0 -0.96179487051E-01 -0.76420571257E-01  0.43904975925E-01  0.13195777171E+00  0.19864771922E-01 0.  0.
         14    1    1    2    0    0  0.69319476191E-03  0.24157035029E-01  0.22249200435E-03  0.24168002877E-01  0.00000000000E+00 0.  1.
     999901    1    3    3    0    0  0.95486292289E-01  0.52263536228E-01 -0.44127467929E-01  0.88780422541E+00  0.88000000000E+00 0. -1.
        -11    1    4    4    0    0 -0.55722236097E-01 -0.56375470363E-01  0.29043897837E-01  0.84421385779E-01  0.51100000000E-03 0. -1.
         11    1    4    4    0    0 -0.40457250953E-01 -0.20045100894E-01  0.14861078088E-01  0.47536385932E-01  0.51100000000E-03 0.  1.
</event>
<event>
 8    1  0.1180500E+005  0.1043930E+01  0.7957747E-01            NaN
         13   -1    0    0    0    0  0.00000000000E+00  0.00000000000E+00  0.74505805969E-08  0.10566000000E+00  0.10566000000E+00 0. -1.
     999900   -1    0    0    0    0 -0.00000000000E+00 -0.00000000000E+00 -0.74505805969E-08  0.93827000000E+00  0.93827000000E+00 0. -1.
     999902    2    1    2    0    0 -0.20602635618E-01 -0.14730669375E-02  0.12819843978E-01  0.10196197775E+01  0.10193299288E+01 0.  0.
     999903    2    3    3    0    0  0.18275446727E-01 -0.12756359624E+00 -0.64030035627E-02  0.12957492199E+00  0.11924718756E-01 0.  0.
         14    1    1    2    0    0  0.20602635618E-01  0.14730669375E-02 -0.12819843978E-01  0.24310222545E-01  0.00000000000E+00 0.  1.
     999901    1    3    3    0    0 -0.38878082345E-01  0.12609052930E+00  0.19222847540E-01  0.89004485546E+00  0.88000000000E+00 0.  1.
        -11    1    4    4    0    0  0.25756033349E-02 -0.57082925714E-01 -0.48432601253E-02  0.57348168499E-01  0.51100000000E-03 0. -1.
         11    1    4    4    0    0  0.15699843392E-01 -0.70480670522E-01 -0.15597434374E-02  0.72226753494E-01  0.51100000000E-03 0.  1.
</event>
<event>
 8    1  0.1180500E+005  0.1043930E+01  0.7957747E-01            NaN
         13   -1    0    0    0    0  0.00000000000E+00  0.00000000000E+00  0.74505805969E-08  0.10566000000E+00  0.10566000000E+00 0.  1.
     999900   -1    0    0    0    0 -0.00000000000E+00 -0.00000000000E+00 -0.74505805969E-08  0.93827000000E+00  0.93827000000E+00 0.  1.
     999902    2    1    2    0    0 -0.78176571025E-02 -0.19078001031E-01 -0.12422018355E-01  0.10198594282E+01  0.10195753336E+01 0.  0.
     999903    2    3    3    0    0 -0.54470325592E-01 -0.31517601787E-01  0.11161981289E+00  0.12984954566E+00  0.21013002803E-01 0.  0.
         14    1    1    2    0    0  0.78176571025E-02  0.19078001031E-01  0.12422018355E-01  0.24070571782E-01  0.00000000000E+00 0.  1.
     999901    1    3    3    0    0  0.46652668489E-01  0.12439600756E-01 -0.12404183125E+00  0.89000988255E+00  0.88000000000E+00 0.  1.
        -11    1    4    4    0    0 -0.21394533935E-01 -0.23581089388E-01  0.46168498122E-01  0.56085516836E-01  0.51100000000E-03 0.  1.
         11    1    4    4    0    0 -0.33075791657E-01 -0.79365123995E-02  0.65451314770E-01  0.73764028828E-01  0.51100000000E-03 0. -1.
</event>
<event>
 8    1  0.1180500E+005  0.1043930E+01  0.7957747E-01            NaN
         13   -1    0    0    0    0  0.00000000000E+00  0.00000000000E+00  0.74505805969E-08  0.10566000000E+00  0.10566000000E+00 0. -1.
     999900   -1    0    0    0    0 -0.00000000000E+00 -0.00000000000E+00 -0.74505805969E-08  0.93827000000E+00  0.93827000000E+00 0. -1.
     999902    2    1    2    0    0 -0.79834158002E-02  0.16913243480E-01 -0.14087741393E-01  0.10205151075E+01  0.10202464543E+01 0.  0.
     999903    2    3    3    0    0  0.47084093068E-01  0.33224951135E-01 -0.11753161332E+00  0.13259667827E+00  0.21151590046E-01 0.  0.
         14    1    1    2    0    0  0.79834158002E-02 -0.16913243480E-01  0.14087741393E-01  0.23414892492E-01  0.00000000000E+00 0. -1.
     999901    1    3    3    0    0 -0.55067508869E-01 -0.16311707655E-01  0.10344387193E+00  0.88791842924E+00  0.88000000000E+00 0.  1.
        -11    1    4    4    0    0  0.14600312999E-01  0.20558737886E-01 -0.63102438070E-01  0.67955939068E-01  0.51100000000E-03 0.  1.
         11    1    4    4    0    0  0.32483780069E-01  0.12666213248E-01 -0.54429175248E-01  0.64640739204E-01  0.51100000000E-03 0. -1.
</event>
<event>
 8    1  0.1180500E+005  0.1043930E+01  0.7957747E-01            NaN
         13   -1    0    0    0    0  0.00000000000E+00  0.00000000000E+00  0.74505805969E-08  0.10566000000E+00  0.10566000000E+00 0. -1.
     999900   -1    0    0    0    0 -0.00000000000E+00 -0.00000000000E+00 -0.74505805969E-08  0.93827000000E+00  0.93827000000E+00 0. -1.
     999902    2    1    2    0    0 -0.12893865916E-02 -0.91997298210E-02 -0.22611614310E-01  0.10194844964E+01  0.10191913734E+01 0.  0.
     999903    2    3    3    0    0  0.75795106158E-02  0.94437613667E-01  0.82408043259E-01  0.12715693051E+00  0.20047132613E-01 0.  0.
         14    1    1    2    0    0  0.12893865916E-02  0.91997298210E-02  0.22611614310E-01  0.24445503641E-01  0.00000000000E+00 0. -1.
     999901    1    3    3    0    0 -0.88688972074E-02 -0.10363734349E+00 -0.10501965757E+00  0.89232756585E+00  0.88000000000E+00 0. -1.
        -11    1    4    4    0    0 -0.47221480300E-02  0.61213491216E-01  0.51395513783E-01  0.80069658092E-01  0.51100000000E-03 0. -1.
         11    1    4    4    0    0  0.12301658646E-01  0.33224122451E-01  0.31012529475E-01  0.47087272415E-01  0.51100000000E-03 0.  1.
</event>
<event>
 8    1  0.1180500E+005  0.1043930E+01  0.7957747E-01            NaN
         13   -1    0    0    0    0  0.00000000000E+00  0.00000000000E+00  0.74505805969E-08  0.10566000000E+00  0.10566000000E+00 0. -1.
     999900   -1    0    0    0    0 -0.00000000000E+00 -0.00000000000E+00 -0.74505805969E-08  0.93827000000E+00  0.93827000000E+00 0.  1.
     999902    2    1    2    0    0  0.19790709188E-01  0.11901796982E-01  0.71243103051E-02  0.10197622376E+01  0.10194758165E+01 0.  0.
     999903    2    3    3    0    0 -0.89476712396E-01 -0.80913324284E-01 -0.35029847666E-01  0.12716434988E+00  0.19764451517E-01 0.  0.
         14    1    1    2    0    0 -0.19790709188E-01 -0.11901796982E-01 -0.71243103051E-02  0.24167762389E-01  0.00000000000E+00 0.  1.
     999901    1    3    3    0    0  0.10926742158E+00  0.92815121266E-01  0.42154157971E-01  0.89259788774E+00  0.88000000000E+00 0.  1.
        -11    1    4    4    0    0 -0.84031409848E-01 -0.67613552216E-01 -0.30470683799E-01  0.11207851702E+00  0.51100000000E-03 0. -1.
         11    1    4    4    0    0 -0.54453025488E-02 -0.13299772068E-01 -0.45591638673E-02  0.15085832860E-01  0.51100000000E-03 0.  1.
</event>
<event>
 8    1  0.1180500E+005  0.1043930E+01  0.7957747E-01            NaN
         13   -1    0    0    0    0  0.00000000000E+00  0.00000000000E+00  0.74505805969E-08  0.10566000000E+00  0.10566000000E+00 0.  1.
     999900   -1    0    0    0    0 -0.00000000000E+00 -0.00000000000E+00 -0.74505805969E-08  0.93827000000E+00  0.93827000000E+00 0.  1.
     999902    2    1    2    0    0 -0.20536833070E-01 -0.60848021796E-03  0.10779806505E-01  0.10207279314E+01  0.10204641953E+01 0.  0.
     999903    2    3    3    0    0  0.93836435607E-01  0.82884873157E-01  0.20067744838E-01  0.12935895589E+00  0.25609495102E-01 0.  0.
         14    1    1    2    0    0  0.20536833070E-01  0.60848021796E-03 -0.10779806505E-01  0.23202068637E-01  0.00000000000E+00 0. -1.
     999901    1    3    3    0    0 -0.11437326868E+00 -0.83493353375E-01 -0.92879383332E-02  0.89136897548E+00  0.88000000000E+00 0.  1.
        -11    1    4    4    0    0  0.38690324153E-01  0.36584739613E-01 -0.40892011955E-02  0.53407556049E-01  0.51100000000E-03 0.  1.
         11    1    4    4    0    0  0.55146111454E-01  0.46300133543E-01  0.24156946033E-01  0.75951399837E-01  0.51100000000E-03 0. -1.
</event>
<event>
 8    1  0.1180500E+005  0.1043930E+01  0.7957747E-01            NaN
         13   -1    0    0    0    0  0.00000000000E+00  0.00000000000E+00  0.74505805969E-08  0.10566000000E+00  0.10566000000E+00 0. -1.
     999900   -1    0    0    0    0 -0.00000000000E+00 -0.00000000000E+00 -0.74505805969E-08  0.93827000000E+00  0.93827000000E+00 0.  1.
     999902    2    1    2    0    0 -0.19151711070E-01 -0.10089339093E-01 -0.51746036167E-02  0.10216733308E+01  0.10214308766E+01 0.  0.
     999903    2    3    3    0    0 -0.10443563119E+00  0.66276245638E-01  0.44287847655E-01  0.13288112584E+00  0.19915781566E-01 0.  0.
         14    1    1    2    0    0  0.19151711070E-01  0.10089339093E-01  0.51746036167E-02  0.22256669176E-01  0.00000000000E+00 0. -1.
     999901    1    3    3    0    0  0.85283920121E-01 -0.76365584731E-01 -0.49462451272E-01  0.88879220499E+00  0.88000000000E+00 0. -1.
        -11    1    4    4    0    0 -0.80425019283E-01  0.52151302116E-01  0.42808882746E-01  0.10498001525E+00  0.51100000000E-03 0. -1.
         11    1    4    4    0    0 -0.24010611907E-01  0.14124943522E-01  0.14789649093E-02  0.27901110584E-01  0.51100000000E-03 0.  1.
</event>
<event>
 8    1  0.1180500E+005  0.1043930E+01  0.7957747E-01            NaN
         13   -1    0    0    0    0  0.00000000000E+00  0.00000000000E+00  0.74505805969E-08  0.10566000000E+00  0.10566000000E+00 0. -1.
     999900   -1    0    0    0    0 -0.00000000000E+00 -0.00000000000E+00 -0.74505805969E-08  0.93827000000E+00  0.93827000000E+00 0.  1.
     999902    2    1    2    0    0  0.60760203260E-02  0.28111808455E-02  0.23109429779E-01  0.10198703553E+01  0.10195865216E+01 0.  0.
     999903    2    3    3    0    0 -0.10754849511E+00 -0.26488153192E-01  0.66874088076E-01  0.13100347725E+00  0.20529645305E-01 0.  0.
         14    1    1    2    0    0 -0.60760203260E-02 -0.28111808455E-02 -0.23109429779E-01  0.24059644749E-01  0.00000000000E+00 0.  1.
     999901    1    3    3    0    0  0.11362451544E+00  0.29299334037E-01 -0.43764658297E-01  0.88886687800E+00  0.88000000000E+00 0. -1.
        -11    1    4    4    0    0 -0.16543371040E-01  0.21582081651E-02  0.14805276100E-01  0.22311394157E-01  0.51100000000E-03 0. -1.
         11    1    4    4    0    0 -0.91005124072E-01 -0.28646361357E-01  0.52068811976E-01  0.10869208310E+00  0.51100000000E-03 0.  1.
</event>
<event>
 8    1  0.1180500E+005  0.1043930E+01  0.7957747E-01            NaN
         13   -1    0    0    0    0  0.00000000000E+00  0.00000000000E+00  0.74505805969E-08  0.10566000000E+00  0.10566000000E+00 0.  1.
     999900   -1    0    0    0    0 -0.00000000000E+00 -0.00000000000E+00 -0.74505805969E-08  0.93827000000E+00  0.93827000000E+00 0.  1.
     999902    2    1    2    0    0  0.14291861334E-01  0.87294751878E-02 -0.15282466419E-01  0.10212581051E+01  0.10210064165E+01 0.  0.
     999903    2    3    3    0    0 -0.31864918075E-01 -0.93019231386E-01 -0.85146818547E-01  0.13144673451E+00  0.18981909625E-01 0.  0.
         14    1    1    2    0    0 -0.14291861334E-01 -0.87294751878E-02  0.15282466419E-01  0.22671894877E-01  0.00000000000E+00 0.  1.
     999901    1    3    3    0    0  0.46156779409E-01  0.10174870657E+00  0.69864352129E-01  0.88981137061E+00  0.88000000000E+00 0.  1.
        -11    1    4    4    0    0 -0.13523934380E-01 -0.19720817645E-01 -0.14293765389E-01  0.27863601701E-01  0.51100000000E-03 0. -1.
         11    1    4    4    0    0 -0.18340983695E-01 -0.73298413740E-01 -0.70853053158E-01  0.10358313281E+00  0.51100000000E-03 0.  1.
</event>
<event>
 8    1  0.1180500E+005  0.1043930E+01  0.7957747E-01            NaN
         13   -1    0    0    0    0  0.00000000000E+00  0.00000000000E+00  0.74505805969E-08  0.10566000000E+00  0.10566000000E+00 0. -1.
     999900   -1    0    0    0    0 -0.00000000000E+00 -0.00000000000E+00 -0.74505805969E-08  0.93827000000E+00  0.93827000000E+00 0.  1.
     999902    2    1    2    0    0 -0.89711306169E-02 -0.11907433062E-01 -0.18988647395E-01  0.10197879852E+01  0.10195021814E+01 0.  0.
     999903    2    3    3    0    0  0.10628222547E+00  0.42298294710E-01 -0.57858823846E-01  0.12976973395E+00  0.20186212305E-01 0.  0.
         14    1    1    2    0    0  0.89711306169E-02  0.11907433062E-01  0.18988647395E-01  0.24142014758E-01  0.00000000000E+00 0. -1.
     999901    1    3    3    0    0 -0.11525335609E+00 -0.54205727772E-01  0.38870176452E-01  0.89001825129E+00  0.88000000000E+00 0.  1.
        -11    1    4    4    0    0  0.90218434558E-01  0.31261467822E-01 -0.54634375054E-01  0.11000827861E+00  0.51100000000E-03 0. -1.
         11    1    4    4    0    0  0.16063790911E-01  0.11036826888E-01 -0.32244487923E-02  0.19761455341E-01  0.51100000000E-03 0.  1.
</event>
<event>
 8    1  0.1180500E+005  0.1043930E+01  0.7957747E-01            NaN
         13   -1    0    0    0    0  0.00000000000E+00  0.00000000000E+00  0.74505805969E-08  0.10566000000E+00  0.10566000000E+00 0. -1.
     999900   -1    0    0    0    0 -0.00000000000E+00 -0.00000000000E+00 -0.74505805969E-08  0.93827000000E+00  0.93827000000E+00 0.  1.
     999902    2    1    2    0    0 -0.22974177722E-01 -0.18775813948E-02 -0.87750414542E-02  0.10192654605E+01  0.10189669963E+01 0.  0.
     999903    2    3    3    0    0  0.12501687367E+00 -0.82510912466E-02 -0.22933887334E-02  0.12686197291E+00  0.19783865390E-01 0.  0.
         14    1    1    2    0    0  0.22974177722E-01  0.18775813948E-02  0.87750414542E-02  0.24664539453E-01  0.00000000000E+00 0. -1.
     999901    1    3    3    0    0 -0.14799105139E+00  0.63735098518E-02 -0.64816527208E-02  0.89240348763E+00  0.88000000000E+00 0. -1.
        -11    1    4    4    0    0  0.10297313942E+00 -0.52915209932E-03 -0.62559027574E-02  0.10316561872E+00  0.51100000000E-03 0. -1.
         11    1    4    4    0    0  0.22043734249E-01 -0.77219391472E-02  0.39625140240E-02  0.23696354197E-01  0.51100000000E-03 0.  1.
</event>
<event>
 8    1  0.1180500E+005  0.1043930E+01  0.7957747E-01            NaN
         13   -1    0    0    0    0  0.00000000000E+00  0.00000000000E+00  0.74505805969E-08  0.10566000000E+00  0.10566000000E+00 0. -1.
     999900   -1    0    0    0    0 -0.00000000000E+00 -0.00000000000E+00 -0.74505805969E-08  0.93827000000E+00  0.93827000000E+00 0.  1.
     999902    2    1    2    0    0 -0.69547424784E-02  0.28846332948E-01  0.59213617850E-02  0.10136720772E+01  0.10132203799E+01 0.  0.
     999903    2    3    3    0    0 -0.67903493629E-01 -0.68731598269E-01 -0.73016088811E-01  0.12267975172E+00  0.19597326613E-01 0.  0.
         14    1    1    2    0    0  0.69547424784E-02 -0.28846332948E-01 -0.59213617850E-02  0.30257922812E-01  0.00000000000E+00 0.  1.
     999901    1    3    3    0    0  0.60948751150E-01  0.97577931218E-01  0.78937450596E-01  0.89099232546E+00  0.88000000000E+00 0. -1.
        -11    1    4    4    0    0 -0.63393124800E-01 -0.54826664039E-01 -0.64445286948E-01  0.10572656947E+00  0.51100000000E-03 0. -1.
         11    1    4    4    0    0 -0.45103688292E-02 -0.13904934230E-01 -0.85708018632E-02  0.16953182253E-01  0.51100000000E-03 0.  1.
</event>
<event>
 8    1  0.1180500E+005  0.1043930E+01  0.7957747E-01            NaN
         13   -1    0    0    0    0  0.00000000000E+00  0.00000000000E+00  0.74505805969E-08  0.10566000000E+00  0.10566000000E+00 0.  1.
     999900   -1    0    0    0    0 -0.00000000000E+00 -0.00000000000E+00 -0.74505805969E-08  0.93827000000E+00  0.93827000000E+00 0.  1.
     999902    2    1    2    0    0 -0.37548184371E-02 -0.42965212142E-02  0.22638122890E-01  0.10205838362E+01  0.10203167760E+01 0.  0.
     999903    2    3    3    0    0  0.18424467126E-01 -0.69214502088E-01 -0.10503951365E+00  0.12872743306E+00  0.20182772542E-01 0.  0.
         14    1    1    2    0    0  0.37548184371E-02  0.42965212142E-02 -0.22638122890E-01  0.23346163797E-01  0.00000000000E+00 0. -1.
     999901    1    3    3    0    0 -0.22179285563E-01  0.64917980874E-01  0.12767763654E+00  0.89185640314E+00  0.88000000000E+00 0. -1.
        -11    1    4    4    0    0  0.19952890957E-01 -0.43456316586E-01 -0.76796955786E-01  0.90468794884E-01  0.51100000000E-03 0.  1.
         11    1    4    4    0    0 -0.15284238304E-02 -0.25758185502E-01 -0.28242557862E-01  0.38258638179E-01  0.51100000000E-03 0. -1.
</event>
<event>
 7    1  0.1180500E+005  0.1043930E+01  0.7957747E-01            NaN
         13   -1    0    0    0    0  0.00000000000E+00  0.00000000000E+00  0.74505805969E-08  0.10566000000E+00  0.10566000000E+00 0. -1.
     999900   -1    0    0    0    0 -0.00000000000E+00 -0.00000000000E+00 -0.74505805969E-08  0.93827000000E+00  0.93827000000E+00 0.  1.
     999903    2    1    2    0    0  0.76780514355E-01  0.29570952404E-02  0.73975197658E-01  0.10861126937E+00  0.20496003701E-01 0.  0.
         14    1    1    2    0    0  0.72060561138E-02  0.10240606903E-01  0.41834827461E-01  0.43668639355E-01  0.00000000000E+00 0. -1.
     999901    1    1    2    0    0 -0.83986570468E-01 -0.13197702144E-01 -0.11581002512E+00  0.89165009128E+00  0.88000000000E+00 0.  1.
        -11    1    3    3    0    0  0.61545272506E-02  0.89210910090E-03  0.16131187658E-01  0.17295964864E-01  0.51100000000E-03 0. -1.
         11    1    3    3    0    0  0.70625987104E-01  0.20649861395E-02  0.57844010000E-01  0.91315304501E-01  0.51100000000E-03 0.  1.
</event>
<event>
 8    1  0.1180500E+005  0.1043930E+01  0.7957747E-01            NaN
         13   -1    0    0    0    0  0.00000000000E+00  0.00000000000E+00  0.74505805969E-08  0.10566000000E+00  0.10566000000E+00 0.  1.
     999900   -1    0    0    0    0 -0.00000000000E+00 -0.00000000000E+00 -0.74505805969E-08  0.93827000000E+00  0.93827000000E+00 0. -1.
     999902    2    1    2    0    0 -0.56902831078E-02  0.22647517281E-01 -0.72023449011E-02  0.10194930785E+01  0.10192001638E+01 0.  0.
     999903    2    3    3    0    0 -0.24384427773E-01 -0.40665907814E-01  0.11763960640E+00  0.12823353512E+00  0.18879781732E-01 0.  0.
         14    1    1    2    0    0  0.56902831078E-02 -0.22647517281E-01  0.72023449011E-02  0.24436921510E-01  0.00000000000E+00 0. -1.
     999901    1    3    3    0    0  0.18694144665E-01  0.63313425095E-01 -0.12484195131E+00  0.89125954337E+00  0.88000000000E+00 0. -1.
        -11    1    4    4    0    0 -0.10841546781E-01 -0.31713108580E-01  0.91635737144E-01  0.97573714879E-01  0.51100000000E-03 0. -1.
         11    1    4    4    0    0 -0.13542880992E-01 -0.89527992334E-02  0.26003869260E-01  0.30659820240E-01  0.51100000000E-03 0.  1.
</event>
<event>
 8    1  0.1180500E+005  0.1043930E+01  0.7957747E-01            NaN
         13   -1    0    0    0    0  0.00000000000E+00  0.00000000000E+00  0.74505805969E-08  0.10566000000E+00  0.10566000000E+00 0.  1.
     999900   -1    0    0    0    0 -0.00000000000E+00 -0.00000000000E+00 -0.74505805969E-08  0.93827000000E+00  0.93827000000E+00 0.  1.
     999902    2    1    2    0    0  0.47555507626E-03  0.22950447847E-01 -0.35260243252E-02  0.10207053998E+01  0.10204411453E+01 0.  0.
     999903    2    3    3    0    0 -0.34355872568E-01 -0.48107502772E-02 -0.12497855522E+00  0.13124790795E+00  0.20072488088E-01 0.  0.
         14    1    1    2    0    0 -0.47555507626E-03 -0.22950447847E-01  0.35260243252E-02  0.23224600245E-01  0.00000000000E+00 0.  1.
     999901    1    3    3    0    0  0.34831427644E-01  0.27761198124E-01  0.12145253089E+00  0.88945749181E+00  0.88000000000E+00 0. -1.
        -11    1    4    4    0    0 -0.28840306700E-01  0.31813052356E-02 -0.76844791904E-01  0.82141750392E-01  0.51100000000E-03 0.  1.
         11    1    4    4    0    0 -0.55155658676E-02 -0.79920555128E-02 -0.48133763313E-01  0.49106157555E-01  0.51100000000E-03 0. -1.
</event>
<event>
 8    1  0.1180500E+005  0.1043930E+01  0.7957747E-01            NaN
         13   -1    0    0    0    0  0.00000000000E+00  0.00000000000E+00  0.74505805969E-08  0.10566000000E+00  0.10566000000E+00 0.  1.
     999900   -1    0    0    0    0 -0.00000000000E+00 -0.00000000000E+00 -0.74505805969E-08  0.93827000000E+00  0.93827000000E+00 0.  1.
     999902    2    1    2    0    0 -0.18253629901E-01 -0.15984427732E-02  0.14367860293E-01  0.10206451244E+01  0.10203794806E+01 0.  0.
     999903    2    3    3    0    0  0.97493381185E-01 -0.28947681510E-01 -0.75402380205E-01  0.12811834745E+00  0.19643430788E-01 0.  0.
         14    1    1    2    0    0  0.18253629901E-01  0.15984427732E-02 -0.14367860293E-01  0.23284875633E-01  0.00000000000E+00 0. -1.
     999901    1    3    3    0    0 -0.11574701109E+00  0.27349238737E-01  0.89770240498E-01  0.89252677692E+00  0.88000000000E+00 0. -1.
        -11    1    4    4    0    0  0.82082917098E-01 -0.27903656194E-01 -0.55580280549E-01  0.10298372694E+00  0.51100000000E-03 0.  1.
         11    1    4    4    0    0  0.15410464086E-01 -0.10440253161E-02 -0.19822099655E-01  0.25134620506E-01  0.51100000000E-03 0. -1.
</event>
<event>
 8    1  0.1180500E+005  0.1043930E+01  0.7957747E-01            NaN
         13   -1    0    0    0    0  0.00000000000E+00  0.00000000000E+00  0.74505805969E-08  0.10566000000E+00  0.10566000000E+00 0. -1.
     999900   -1    0    0    0    0 -0.00000000000E+00 -0.00000000000E+00 -0.74505805969E-08  0.93827000000E+00  0.93827000000E+00 0. -1.
     999902    2    1    2    0    0  0.13322878791E-01 -0.76918548276E-02  0.16072118160E-01  0.10216819279E+01  0.10214396630E+01 0.  0.
     999903    2    3    3    0    0 -0.12085533656E+00  0.36283404780E-01  0.26447344034E-01  0.13036533867E+00  0.19317393231E-01 0.  0.
         14    1    1    2    0    0 -0.13322878791E-01  0.76918548276E-02 -0.16072118160E-01  0.22248072099E-01  0.00000000000E+00 0.  1.
     999901    1    3    3    0    0  0.13417821535E+00 -0.43975259608E-01 -0.10375225874E-01  0.89131658923E+00  0.88000000000E+00 0.  1.
        -11    1    4    4    0    0 -0.30517522312E-01  0.14937110803E-02  0.26256868150E-02  0.30670925860E-01  0.51100000000E-03 0.  1.
         11    1    4    4    0    0 -0.90337814250E-01  0.34789693700E-01  0.23821657219E-01  0.99694412806E-01  0.51100000000E-03 0. -1.
</event>
<event>
 8    1  0.1180500E+005  0.1043930E+01  0.7957747E-01            NaN
         13   -1    0    0    0    0  0.00000000000E+00  0.00000000000E+00  0.74505805969E-08  0.10566000000E+00  0.10566000000E+00 0.  1.
     999900   -1    0    0    0    0 -0.00000000000E+00 -0.00000000000E+00 -0.74505805969E-08  0.93827000000E+00  0.93827000000E+00 0.  1.
     999902    2    1    2    0    0  0.91954553540E-02  0.15425159278E-01 -0.15415714158E-01  0.10202628037E+01  0.10199882609E+01 0.  0.
     999903    2    3    3    0    0  0.11279706981E+00  0.45201682806E-01  0.45947851126E-01  0.13156407915E+00  0.20773319712E-01 0.  0.
         14    1    1    2    0    0 -0.91954553540E-02 -0.15425159278E-01  0.15415714158E-01  0.23667196304E-01  0.00000000000E+00 0.  1.
     999901    1    3    3    0    0 -0.10360161446E+00 -0.29776523528E-01 -0.61363565284E-01  0.88869872455E+00  0.88000000000E+00 0.  1.
        -11    1    4    4    0    0  0.90411174289E-01  0.37192520679E-01  0.27769616043E-01  0.10163108150E+00  0.51100000000E-03 0.  1.
         11    1    4    4    0    0  0.22385895522E-01  0.80091621270E-02  0.18178235083E-01  0.29932997645E-01  0.51100000000E-03 0. -1.
</event>
<event>
 8    1  0.1180500E+005  0.1043930E+01  0.7957747E-01            NaN
         13   -1    0    0    0    0  0.00000000000E+00  0.00000000000E+00  0.74505805969E-08  0.10566000000E+00  0.10566000000E+00 0. -1.
     999900   -1    0    0    0    0 -0.00000000000E+00 -0.00000000000E+00 -0.74505805969E-08  0.93827000000E+00  0.93827000000E+00 0. -1.
     999902    2    1    2    0    0  0.58841535323E-02 -0.18004336730E-01 -0.17904753921E-01  0.10178654721E+01  0.10175316996E+01 0.  0.
     999903    2    3    3    0    0  0.26102303568E-01 -0.10319594478E-01  0.12177515061E+00  0.12658644471E+00  0.20177125614E-01 0.  0.
         14    1    1    2    0    0 -0.58841535323E-02  0.18004336730E-01  0.17904753921E-01  0.26064527942E-01  0.00000000000E+00 0.  1.
     999901    1    3    3    0    0 -0.20218150036E-01 -0.76847422521E-02 -0.13967990453E+00  0.89127902734E+00  0.88000000000E+00 0. -1.
        -11    1    4    4    0    0  0.77747713350E-03  0.27299389444E-02  0.37778725736E-01  0.37888656305E-01  0.51100000000E-03 0.  1.
         11    1    4    4    0    0  0.25324826435E-01 -0.13049533423E-01  0.83996424871E-01  0.88697788409E-01  0.51100000000E-03 0. -1.
</event>
<event>
 8    1  0.1180500E+005  0.1043930E+01  0.7957747E-01            NaN
         13   -1    0    0    0    0  0.00000000000E+00  0.00000000000E+00  0.74505805969E-08  0.10566000000E+00  0.10566000000E+00 0. -1.
     999900   -1    0    0    0    0 -0.00000000000E+00 -0.00000000000E+00 -0.74505805969E-08  0.93827000000E+00  0.93827000000E+00 0.  1.
     999902    2    1    2    0    0  0.16159656657E-01 -0.16198735025E-01 -0.56571631271E-02  0.10203601673E+01  0.10200879050E+01 0.  0.
     999903    2    3    3    0    0  0.11231151681E+00  0.65135649814E-01 -0.34032738273E-02  0.13139135884E+00  0.19889123173E-01 0.  0.
         14    1    1    2    0    0 -0.16159656657E-01  0.16198735025E-01  0.56571631271E-02  0.23569832718E-01  0.00000000000E+00 0. -1.
     999901    1    3    3    0    0 -0.96151860151E-01 -0.81334384839E-01 -0.22538892998E-02  0.88896880844E+00  0.88000000000E+00 0. -1.
        -11    1    4    4    0    0  0.92662824849E-01  0.60778255678E-01 -0.65633766108E-02  0.11101231691E+00  0.51100000000E-03 0.  1.
         11    1    4    4    0    0  0.19648691959E-01  0.43573941362E-02  0.31601027836E-02  0.20379041930E-01  0.51100000000E-03 0. -1.
</event>
<event>
 8    1  0.1180500E+005  0.1043930E+01  0.7957747E-01            NaN
         13   -1    0    0    0    0  0.00000000000E+00  0.00000000000E+00  0.74505805969E-08  0.10566000000E+00  0.10566000000E+00 0. -1.
     999900   -1    0    0    0    0 -0.00000000000E+00 -0.00000000000E+00 -0.74505805969E-08  0.93827000000E+00  0.93827000000E+00 0.  1.
     999902    2    1    2    0    0  0.12432117706E-01  0.10609950817E-01  0.17219592097E-01  0.10201888341E+01  0.10199125522E+01 0.  0.
     999903    2    3    3    0    0 -0.79237806697E-01 -0.73522900375E-01  0.68801861256E-01  0.12994030576E+00  0.21599538416E-01 0.  0.
         14    1    1    2    0    0 -0.12432117706E-01 -0.10609950817E-01 -0.17219592097E-01  0.23741165914E-01  0.00000000000E+00 0.  1.
     999901    1    3    3    0    0  0.91669924402E-01  0.84132851192E-01 -0.51582269159E-01  0.89024852832E+00  0.88000000000E+00 0. -1.
        -11    1    4    4    0    0 -0.56791052745E-01 -0.40945751888E-01  0.50624084060E-01  0.86399289797E-01  0.51100000000E-03 0.  1.
         11    1    4    4    0    0 -0.22446753951E-01 -0.32577148487E-01  0.18177777196E-01  0.43541015965E-01  0.51100000000E-03 0. -1.
</event>
<event>
 8    1  0.1180500E+005  0.1043930E+01  0.7957747E-01            NaN
         13   -1    0    0    0    0  0.00000000000E+00  0.00000000000E+00  0.74505805969E-08  0.10566000000E+00  0.10566000000E+00 0. -1.
     999900   -1    0    0    0    0 -0.00000000000E+00 -0.00000000000E+00 -0.74505805969E-08  0.93827000000E+00  0.93827000000E+00 0. -1.
     999902    2    1    2    0    0  0.24377702419E-02  0.21535513752E-01 -0.85228557220E-02  0.10206413730E+01  0.10203756427E+01 0.  0.
     999903    2    3    3    0    0 -0.62191439007E-01  0.87380845390E-01  0.74242789982E-01  0.13195543610E+00  0.19926314922E-01 0.  0.
         14    1    1    2    0    0 -0.24377702419E-02 -0.21535513752E-01  0.85228557220E-02  0.23288626967E-01  0.00000000000E+00 0.  1.
     999901    1    3    3    0    0  0.64629209249E-01 -0.65845331637E-01 -0.82765645704E-01  0.88868593693E+00  0.88000000000E+00 0. -1.
        -11    1    4    4    0    0 -0.27288558246E-01  0.33414540833E-01  0.41331918271E-01  0.59747682291E-01  0.51100000000E-03 0. -1.
         11    1    4    4    0    0 -0.34902880761E-01  0.53966304557E-01  0.32910871711E-01  0.72207753813E-01  0.51100000000E-03 0.  1.
</event>
<event>
 8    1  0.1180500E+005  0.1043930E+01  0.7957747E-01            NaN
         13   -1    0    0    0    0  0.00000000000E+00  0.00000000000E+00  0.74505805969E-08  0.10566000000E+00  0.10566000000E+00 0.  1.
     999900   -1    0    0    0    0 -0.00000000000E+00 -0.00000000000E+00 -0.74505805969E-08  0.93827000000E+00  0.93827000000E+00 0.  1.
     999902    2    1    2    0    0 -0.14042031696E-01  0.99557724409E-02  0.15968663663E-01  0.10204503433E+01  0.10201801845E+01 0.  0.
     999903    2    3    3    0    0 -0.12694900741E+00 -0.33414457016E-02 -0.29578105091E-01  0.13196888075E+00  0.20339750355E-01 0.  0.
         14    1    1    2    0    0  0.14042031696E-01 -0.99557724409E-02 -0.15968663663E-01  0.23479656689E-01  0.00000000000E+00 0.  1.
     999901    1    3    3    0    0  0.11290697571E+00  0.13297218143E-01  0.45546768754E-01  0.88848146256E+00  0.88000000000E+00 0. -1.
        -11    1    4    4    0    0 -0.10930657192E+00 -0.76109128842E-02 -0.19807717674E-01  0.11134836982E+00  0.51100000000E-03 0. -1.
         11    1    4    4    0    0 -0.17642435482E-01  0.42694671827E-02 -0.97703874166E-02  0.20620510931E-01  0.51100000000E-03 0.  1.
</event>
<event>
 8    1  0.1180500E+005  0.1043930E+01  0.7957747E-01            NaN
         13   -1    0    0    0    0  0.00000000000E+00  0.00000000000E+00  0.74505805969E-08  0.10566000000E+00  0.10566000000E+00 0.  1.
     999900   -1    0    0    0    0 -0.00000000000E+00 -0.00000000000E+00 -0.74505805969E-08  0.93827000000E+00  0.93827000000E+00 0.  1.
     999902    2    1    2    0    0  0.17214666260E-02  0.19547297769E-01  0.12927132857E-01  0.10204316796E+01  0.10201610861E+01 0.  0.
     999903    2    3    3    0    0  0.51362186808E-01 -0.11513223093E+00 -0.11937889998E-01  0.12845575733E+00  0.21560694362E-01 0.  0.
         14    1    1    2    0    0 -0.17214666260E-02 -0.19547297769E-01 -0.12927132857E-01  0.23498320394E-01  0.00000000000E+00 0. -1.
     999901    1    3    3    0    0 -0.49640720182E-01  0.13467952870E+00  0.24865022856E-01  0.89197592227E+00  0.88000000000E+00 0. -1.
        -11    1    4    4    0    0  0.33809313521E-01 -0.95778806578E-01 -0.66219481348E-02  0.10178782240E+00  0.51100000000E-03 0. -1.
         11    1    4    4    0    0  0.17552873287E-01 -0.19353424355E-01 -0.53159418636E-02  0.26667934937E-01  0.51100000000E-03 0.  1.
</event>
<event>
 8    1  0.1180500E+005  0.1043930E+01  0.7957747E-01            NaN
         13   -1    0    0    0    0  0.00000000000E+00  0.00000000000E+00  0.74505805969E-08  0.10566000000E+00  0.10566000000E+00 0. -1.
     999900   -1    0    0    0    0 -0.00000000000E+00 -0.00000000000E+00 -0.74505805969E-08  0.93827000000E+00  0.93827000000E+00 0. -1.
     999902    2    1    2    0    0  0.13778546173E-01 -0.20675989632E-01  0.35680285709E-02  0.10188286911E+01  0.10185194284E+01 0.  0.
     999903    2    3    3    0    0  0.12819682215E+00 -0.18483987895E-01  0.87428952258E-02  0.13140369368E+00  0.20357049857E-01 0.  0.
         14    1    1    2    0    0 -0.13778546173E-01  0.20675989632E-01 -0.35680285709E-02  0.25101308926E-01  0.00000000000E+00 0. -1.
     999901    1    3    3    0    0 -0.11441827598E+00 -0.21920017369E-02 -0.51748666549E-02  0.88742499739E+00  0.88000000000E+00 0. -1.
        -11    1    4    4    0    0  0.85864126515E-01 -0.20116387313E-01  0.11549319844E-01  0.88943606687E-01  0.51100000000E-03 0. -1.
         11    1    4    4    0    0  0.42332695635E-01  0.16323994177E-02 -0.28064246184E-02  0.42460086996E-01  0.51100000000E-03 0.  1.
</event>
<event>
 8    1  0.1180500E+005  0.1043930E+01  0.7957747E-01            NaN
         13   -1    0    0    0    0  0.00000000000E+00  0.00000000000E+00  0.74505805969E-08  0.10566000000E+00  0.10566000000E+00 0.  1.
     999900   -1    0    0    0    0 -0.00000000000E+00 -0.00000000000E+00 -0.74505805969E-08  0.93827000000E+00  0.93827000000E+00 0. -1.
     999902    2    1    2    0    0  0.56319564682E-02 -0.16744140913E-01  0.15299156198E-01  0.10205601611E+01  0.10202925527E+01 0.  0.
     999903    2    3    3    0    0 -0.40015085240E-01 -0.25449843267E-01  0.12244336945E+00  0.13284437097E+00  0.20158040752E-01 0.  0.
         14    1    1    2    0    0 -0.56319564682E-02  0.16744140913E-01 -0.15299156198E-01  0.23369838873E-01  0.00000000000E+00 0. -1.
     999901    1    3    3    0    0  0.45647041708E-01  0.87057023538E-02 -0.10714421325E+00  0.88771579016E+00  0.88000000000E+00 0. -1.
        -11    1    4    4    0    0 -0.50472550132E-02 -0.38540996993E-02  0.42286985195E-01  0.42764226938E-01  0.51100000000E-03 0.  1.
         11    1    4    4    0    0 -0.34967830226E-01 -0.21595743568E-01  0.80156384250E-01  0.90080144028E-01  0.51100000000E-03 0. -1.
</event>
<event>
 8    1  0.1180500E+005  0.1043930E+01  0.7957747E-01            NaN
         13   -1    0    0    0    0  0.00000000000E+00  0.00000000000E+00  0.74505805969E-08  0.10566000000E+00  0.10566000000E+00 0.  1.
     999900   -1    0    0    0    0 -0.00000000000E+00 -0.00000000000E+00 -0.74505805969E-08  0.93827000000E+00  0.93827000000E+00 0.  1.
     999902    2    1    2    0    0 -0.21134533871E-01  0.62773264311E-02 -0.85933852107E-02  0.10202673793E+01  0.10199929439E+01 0.  0.
     999903    2    3    3    0    0 -0.11661542356E+00 -0.21298544194E-01  0.55839640843E-01  0.13233233450E+00  0.18466084262E-01 0.  0.
         14    1    1    2    0    0  0.21134533871E-01 -0.62773264311E-02  0.85933852107E-02  0.23662620701E-01  0.00000000000E+00 0. -1.
     999901    1    3    3    0    0  0.95480889688E-01  0.27575870626E-01 -0.64433026054E-01  0.88793504480E+00  0.88000000000E+00 0.  1.
        -11    1    4    4    0    0 -0.56624219396E-01 -0.51110066992E-02  0.18275509536E-01  0.59721687698E-01  0.51100000000E-03 0. -1.
         11    1    4    4    0    0 -0.59991204163E-01 -0.16187537495E-01  0.37564131307E-01  0.72610646801E-01  0.51100000000E-03 0.  1.
</event>
<event>
 8    1  0.1180500E+005  0.1043930E+01  0.7957747E-01            NaN
         13   -1    0    0    0    0  0.00000000000E+00  0.00000000000E+00  0.74505805969E-08  0.10566000000E+00  0.10566000000E+00 0.  1.
     999900   -1    0    0    0    0 -0.00000000000E+00 -0.00000000000E+00 -0.74505805969E-08  0.93827000000E+00  0.93827000000E+00 0.  1.
     999902    2    1    2    0    0 -0.65513516702E-02 -0.10547290863E-01 -0.19934361481E-01  0.10204450192E+01  0.10201747365E+01 0.  0.
     999903    2    3    3    0    0 -0.11081519109E+00  0.31284618647E-01  0.56808046300E-01  0.12998993671E+00  0.20285353888E-01 0.  0.
         14    1    1    2    0    0  0.65513516702E-02  0.10547290863E-01  0.19934361481E-01  0.23484980752E-01  0.00000000000E+00 0.  1.
     999901    1    3    3    0    0  0.10426383942E+00 -0.41831909510E-01 -0.76742407781E-01  0.89045508254E+00  0.88000000000E+00 0.  1.
        -11    1    4    4    0    0 -0.67276214341E-01  0.27730345113E-01  0.29838272492E-01  0.78648869557E-01  0.51100000000E-03 0.  1.
         11    1    4    4    0    0 -0.43538976746E-01  0.35542735344E-02  0.26969773807E-01  0.51341067155E-01  0.51100000000E-03 0. -1.
</event>
<event>
 8    1  0.1180500E+005  0.1043930E+01  0.7957747E-01            NaN
         13   -1    0    0    0    0  0.00000000000E+00  0.00000000000E+00  0.74505805969E-08  0.10566000000E+00  0.10566000000E+00 0. -1.
     999900   -1    0    0    0    0 -0.00000000000E+00 -0.00000000000E+00 -0.74505805969E-08  0.93827000000E+00  0.93827000000E+00 0. -1.
     999902    2    1    2    0    0  0.68155404132E-03 -0.23534934252E-01 -0.25887138102E-03  0.10203837761E+01  0.10201120653E+01 0.  0.
     999903    2    3    3    0    0  0.66811174602E-01  0.85381831162E-01  0.66456774653E-01  0.12870728434E+00  0.19881448676E-01 0.  0.
         14    1    1    2    0    0 -0.68155404132E-03  0.23534934252E-01  0.25887138102E-03  0.23546223913E-01  0.00000000000E+00 0. -1.
     999901    1    3    3    0    0 -0.66129620560E-01 -0.10891676541E+00 -0.66715646034E-01  0.89167649174E+00  0.88000000000E+00 0.  1.
        -11    1    4    4    0    0  0.44405105277E-01  0.61641372535E-01  0.56153419383E-01  0.94471899590E-01  0.51100000000E-03 0. -1.
         11    1    4    4    0    0  0.22406069324E-01  0.23740458627E-01  0.10303355270E-01  0.34235384753E-01  0.51100000000E-03 0.  1.
</event>
<event>
 8    1  0.1180500E+005  0.1043930E+01  0.7957747E-01            NaN
         13   -1    0    0    0    0  0.00000000000E+00  0.00000000000E+00  0.74505805969E-08  0.10566000000E+00  0.10566000000E+00 0.  1.
     999900   -1    0    0    0    0 -0.00000000000E+00 -0.00000000000E+00 -0.74505805969E-08  0.93827000000E+00  0.93827000000E+00 0.  1.
     999902    2    1    2    0    0  0.72727123225E-02  0.98584573463E-02  0.20358702126E-01  0.10201695649E+01  0.10198928291E+01 0.  0.
     999903    2    3    3    0    0 -0.21579556389E-01 -0.72310319041E-01  0.10621065437E+00  0.13171319625E+00  0.19318474856E-01 0.  0.
         14    1    1    2    0    0 -0.72727123225E-02 -0.98584573463E-02 -0.20358702126E-01  0.23760435140E-01  0.00000000000E+00 0. -1.
     999901    1    3    3    0    0  0.28852268711E-01  0.82168776387E-01 -0.85851952243E-01  0.88845636861E+00  0.88000000000E+00 0. -1.
        -11    1    4    4    0    0 -0.33236153423E-02 -0.24279532575E-01  0.49164288374E-01  0.54935694164E-01  0.51100000000E-03 0.  1.
         11    1    4    4    0    0 -0.18255941046E-01 -0.48030786466E-01  0.57046365995E-01  0.76777502084E-01  0.51100000000E-03 0. -1.
</event>
<event>
 8    1  0.1180500E+005  0.1043930E+01  0.7957747E-01            NaN
         13   -1    0    0    0    0  0.00000000000E+00  0.00000000000E+00  0.74505805969E-08  0.10566000000E+00  0.10566000000E+00 0. -1.
     999900   -1    0    0    0    0 -0.00000000000E+00 -0.00000000000E+00 -0.74505805969E-08  0.93827000000E+00  0.93827000000E+00 0. -1.
     999902    2    1    2    0    0 -0.16410093408E-01 -0.63809863587E-03  0.17040514395E-01  0.10202640441E+01  0.10199895305E+01 0.  0.
     999903    2    3    3    0    0  0.53225165937E-02 -0.10161745619E-01 -0.12582228596E+00  0.12842729568E+00  0.23037629560E-01 0.  0.
         14    1    1    2    0    0  0.16410093408E-01  0.63809863587E-03 -0.17040514395E-01  0.23665955852E-01  0.00000000000E+00 0.  1.
     999901    1    3    3    0    0 -0.21732610002E-01  0.95236469836E-02  0.14286280035E+00  0.89183674847E+00  0.88000000000E+00 0.  1.
        -11    1    4    4    0    0  0.51646586477E-02 -0.14348674274E-01 -0.45423384239E-01  0.47917670113E-01  0.51100000000E-03 0. -1.
         11    1    4    4    0    0  0.15785794607E-03  0.41869286545E-02 -0.80398901719E-01  0.80509625569E-01  0.51100000000E-03 0.  1.
</event>
<event>
 8    1  0.1180500E+005  0.1043930E+01  0.7957747E-01            NaN
         13   -1    0    0    0    0  0.00000000000E+00  0.00000000000E+00  0.74505805969E-08  0.10566000000E+00  0.10566000000E+00 0.  1.
     999900   -1    0    0    0    0 -0.00000000000E+00 -0.00000000000E+00 -0.74505805969E-08  0.93827000000E+00  0.93827000000E+00 0. -1.
     999902    2    1    2    0    0  0.14605650008E-01  0.23606360447E-02 -0.17879266548E-01  0.10207229798E+01  0.10204591298E+01 0.  0.
     999903    2    3    3    0    0  0.53447760511E-01 -0.28382521553E-01  0.11299525740E+00  0.12966630802E+00  0.19575306041E-01 0.  0.
         14    1    1    2    0    0 -0.14605650008E-01 -0.23606360447E-02  0.17879266548E-01  0.23207020209E-01  0.00000000000E+00 0.  1.
     999901    1    3    3    0    0 -0.38842110504E-01  0.30743157598E-01 -0.13087452395E+00  0.89105667177E+00  0.88000000000E+00 0. -1.
        -11    1    4    4    0    0  0.15596909079E-01 -0.64215535799E-02  0.15995589302E-01  0.23251234834E-01  0.51100000000E-03 0. -1.
         11    1    4    4    0    0  0.37850851433E-01 -0.21960967973E-01  0.96999668102E-01  0.10641507319E+00  0.51100000000E-03 0.  1.
</event>
<event>
 8    1  0.1180500E+005  0.1043930E+01  0.7957747E-01            NaN
         13   -1    0    0    0    0  0.00000000000E+00  0.00000000000E+00  0.74505805969E-08  0.10566000000E+00  0.10566000000E+00 0. -1.
     999900   -1    0    0    0    0 -0.00000000000E+00 -0.00000000000E+00 -0.74505805969E-08  0.93827000000E+00  0.93827000000E+00 0.  1.
     999902    2    1    2    0    0 -0.55520919684E-02  0.16573992849E-01  0.14610935629E-01  0.10211483757E+01  0.10208942173E+01 0.  0.
     999903    2    3    3    0    0  0.94296862593E-01  0.89201106535E-01  0.18122472389E-01  0.13252199628E+00  0.19619372858E-01 0.  0.
         14    1    1    2    0    0  0.55520919684E-02 -0.16573992849E-01 -0.14610935629E-01  0.22781624265E-01  0.00000000000E+00 0.  1.
     999901    1    3    3    0    0 -0.99848954561E-01 -0.72627113686E-01 -0.35115367601E-02  0.88862637945E+00  0.88000000000E+00 0. -1.
        -11    1    4    4    0    0  0.80968715625E-01  0.72937143241E-01  0.21888963960E-01  0.11115371176E+00  0.51100000000E-03 0. -1.
         11    1    4    4    0    0  0.13328146967E-01  0.16263963294E-01 -0.37664915709E-02  0.21368284521E-01  0.51100000000E-03 0.  1.
</event>
<event>
 8    1  0.1180500E+005  0.1043930E+01  0.7957747E-01            NaN
         13   -1    0    0    0    0  0.00000000000E+00  0.00000000000E+00  0.74505805969E-08  0.10566000000E+00  0.10566000000E+00 0. -1.
     999900   -1    0    0    0    0 -0.00000000000E+00 -0.00000000000E+00 -0.74505805969E-08  0.93827000000E+00  0.93827000000E+00 0. -1.
     999902    2    1    2    0    0 -0.42007439857E-02 -0.21557570090E-01 -0.54351971922E-02  0.10213044294E+01  0.10210537797E+01 0.  0.
     999903    2    3    3    0    0  0.79272552545E-01  0.47100976106E-01 -0.90342182670E-01  0.13063558889E+00  0.20032662794E-01 0.  0.
         14    1    1    2    0    0  0.42007439857E-02  0.21557570090E-01  0.54351971922E-02  0.22625570639E-01  0.00000000000E+00 0. -1.
     999901    1    3    3    0    0 -0.83473296530E-01 -0.68658546196E-01  0.84906985478E-01  0.89066884047E+00  0.88000000000E+00 0.  1.
        -11    1    4    4    0    0  0.49229619113E-01  0.18742735996E-01 -0.56289277169E-01  0.77094678129E-01  0.51100000000E-03 0. -1.
         11    1    4    4    0    0  0.30042933432E-01  0.28358240110E-01 -0.34052905501E-01  0.53540910764E-01  0.51100000000E-03 0.  1.
</event>
<event>
 8    1  0.1180500E+005  0.1043930E+01  0.7957747E-01            NaN
         13   -1    0    0    0    0  0.00000000000E+00  0.00000000000E+00  0.74505805969E-08  0.10566000000E+00  0.10566000000E+00 0.  1.
     999900   -1    0    0    0    0 -0.00000000000E+00 -0.00000000000E+00 -0.74505805969E-08  0.93827000000E+00  0.93827000000E+00 0.  1.
     999902    2    1    2    0    0  0.16756931971E-01 -0.34084058735E-02  0.14763504078E-01  0.10213385624E+01  0.10210886769E+01 0.  0.
     999903    2    3    3    0    0 -0.64368941735E-01 -0.10259092489E+00 -0.43333982531E-01  0.13016299194E+00  0.19907583914E-01 0.  0.
         14    1    1    2    0    0 -0.16756931971E-01  0.34084058735E-02 -0.14763504078E-01  0.22591437589E-01  0.00000000000E+00 0. -1.
     999901    1    3    3    0    0  0.81125873706E-01  0.99182519018E-01  0.58097486608E-01  0.89117557048E+00  0.88000000000E+00 0.  1.
        -11    1    4    4    0    0 -0.16529199892E-01 -0.42995446770E-01 -0.20328850442E-01  0.50352221136E-01  0.51100000000E-03 0.  1.
         11    1    4    4    0    0 -0.47839741843E-01 -0.59595478122E-01 -0.23005132089E-01  0.79810770799E-01  0.51100000000E-03 0. -1.
</event>
<event>
 8    1  0.1180500E+005  0.1043930E+01  0.7957747E-01            NaN
         13   -1    0    0    0    0  0.00000000000E+00  0.00000000000E+00  0.74505805969E-08  0.10566000000E+00  0.10566000000E+00 0.  1.
     999900   -1    0    0    0    0 -0.00000000000E+00 -0.00000000000E+00 -0.74505805969E-08  0.93827000000E+00  0.93827000000E+00 0.  1.
     999902    2    1    2    0    0  0.21506795562E-01  0.96266423616E-02 -0.16320379102E-02  0.10203105579E+01  0.10200371348E+01 0.  0.
     999903    2    3    3    0    0 -0.54707701817E-01 -0.10289205345E+00 -0.51005239509E-01  0.12851079360E+00  0.18269710295E-01 0.  0.
         14    1    1    2    0    0 -0.21506795562E-01 -0.96266423616E-02  0.16320379102E-02  0.23619442124E-01  0.00000000000E+00 0.  1.
     999901    1    3    3    0    0  0.76214497379E-01  0.11251869581E+00  0.49373201598E-01  0.89179976427E+00  0.88000000000E+00 0.  1.
        -11    1    4    4    0    0 -0.35631590797E-01 -0.69888336937E-01 -0.24899822223E-01  0.82305845299E-01  0.51100000000E-03 0.  1.
         11    1    4    4    0    0 -0.19076111020E-01 -0.33003716513E-01 -0.26105417285E-01  0.46204948306E-01  0.51100000000E-03 0. -1.
</event>
<event>
 8    1  0.1180500E+005  0.1043930E+01  0.7957747E-01            NaN
         13   -1    0    0    0    0  0.00000000000E+00  0.00000000000E+00  0.74505805969E-08  0.10566000000E+00  0.10566000000E+00 0.  1.
     999900   -1    0    0    0    0 -0.00000000000E+00 -0.00000000000E+00 -0.74505805969E-08  0.93827000000E+00  0.93827000000E+00 0.  1.
     999902    2    1    2    0    0 -0.26666021989E-01 -0.47133518367E-02  0.86367922038E-02  0.10155066541E+01  0.10151088010E+01 0.  0.
     999903    2    3    3    0    0 -0.44875658559E-01 -0.76909484640E-01 -0.88575394684E-01  0.12702813338E+00  0.19017165063E-01 0.  0.
         14    1    1    2    0    0  0.26666021989E-01  0.47133518367E-02 -0.86367922038E-02  0.28423345929E-01  0.00000000000E+00 0.  1.
     999901    1    3    3    0    0  0.18209636570E-01  0.72196132803E-01  0.97212186888E-01  0.88847852069E+00  0.88000000000E+00 0. -1.
        -11    1    4    4    0    0 -0.20742917780E-01 -0.52855389178E-01 -0.51304439977E-01  0.76526906938E-01  0.51100000000E-03 0.  1.
         11    1    4    4    0    0 -0.24132740779E-01 -0.24054095462E-01 -0.37270954707E-01  0.50501226439E-01  0.51100000000E-03 0. -1.
</event>
<event>
 8    1  0.1180500E+005  0.1043930E+01  0.7957747E-01            NaN
         13   -1    0    0    0    0  0.00000000000E+00  0.00000000000E+00  0.74505805969E-08  0.10566000000E+00  0.10566000000E+00 0. -1.
     999900   -1    0    0    0    0 -0.00000000000E+00 -0.00000000000E+00 -0.74505805969E-08  0.93827000000E+00  0.93827000000E+00 0.  1.
     999902    2    1    2    0    0 -0.52322969521E-02  0.39665388794E-02 -0.21971310425E-01  0.10209986057E+01  0.10207410563E+01 0.  0.
     999903    2    3    3    0    0 -0.77969078992E-01 -0.93857911861E-01 -0.46959596505E-01  0.13224404057E+00  0.19869515963E-01 0.  0.
         14    1    1    2    0    0  0.52322969521E-02 -0.39665388794E-02  0.21971310425E-01  0.22931394285E-01  0.00000000000E+00 0.  1.
     999901    1    3    3    0    0  0.72736782040E-01  0.97824450741E-01  0.24988286080E-01  0.88875456514E+00  0.88000000000E+00 0.  1.
        -11    1    4    4    0    0 -0.40203310862E-01 -0.40578547965E-01 -0.12797676003E-01  0.58540297158E-01  0.51100000000E-03 0.  1.
         11    1    4    4    0    0 -0.37765768130E-01 -0.53279363896E-01 -0.34161920502E-01  0.73703743413E-01  0.51100000000E-03 0. -1.
</event>
<event>
 8    1  0.1180500E+005  0.1043930E+01  0.7957747E-01            NaN
         13   -1    0    0    0    0  0.00000000000E+00  0.00000000000E+00  0.74505805969E-08  0.10566000000E+00  0.10566000000E+00 0.  1.
     999900   -1    0    0    0    0 -0.00000000000E+00 -0.00000000000E+00 -0.74505805969E-08  0.93827000000E+00  0.93827000000E+00 0.  1.
     999902    2    1    2    0    0  0.13501564329E-01 -0.16131501986E-01  0.11118295694E-01  0.10201364274E+01  0.10198589101E+01 0.  0.
     999903    2    3    3    0    0  0.77834575226E-01 -0.89638525352E-01  0.57996769064E-01  0.13349128420E+00  0.19052858271E-01 0.  0.
         14    1    1    2    0    0 -0.13501564329E-01  0.16131501986E-01 -0.11118295694E-01  0.23793572552E-01  0.00000000000E+00 0.  1.
     999901    1    3    3    0    0 -0.64333010898E-01  0.73507023366E-01 -0.46878473371E-01  0.88664514325E+00  0.88000000000E+00 0.  1.
        -11    1    4    4    0    0  0.28322344262E-01 -0.36777731297E-01  0.12942642703E-01  0.48192632476E-01  0.51100000000E-03 0.  1.
         11    1    4    4    0    0  0.49512230965E-01 -0.52860794055E-01  0.45054126362E-01  0.85298651727E-01  0.51100000000E-03 0. -1.
</event>
<event>
 8    1  0.1180500E+005  0.1043930E+01  0.7957747E-01            NaN
         13   -1    0    0    0    0  0.00000000000E+00  0.00000000000E+00  0.74505805969E-08  0.10566000000E+00  0.10566000000E+00 0.  1.
     999900   -1    0    0    0    0 -0.00000000000E+00 -0.00000000000E+00 -0.74505805969E-08  0.93827000000E+00  0.93827000000E+00 0. -1.
     999902    2    1    2    0    0 -0.11203178608E-01  0.20621289016E-01  0.75939400091E-02  0.10192638958E+01  0.10189653932E+01 0.  0.
     999903    2    3    3    0    0  0.10220187168E+00  0.64246674867E-01  0.44988174923E-01  0.13012824331E+00  0.18345735714E-01 0.  0.
         14    1    1    2    0    0  0.11203178608E-01 -0.20621289016E-01 -0.75939400091E-02  0.24666104201E-01  0.00000000000E+00 0.  1.
     999901    1    3    3    0    0 -0.11340505028E+00 -0.43625385852E-01 -0.37394234914E-01  0.88913565249E+00  0.88000000000E+00 0. -1.
        -11    1    4    4    0    0  0.89192488119E-01  0.50488892731E-01  0.42765891458E-01  0.11105679096E+00  0.51100000000E-03 0.  1.
         11    1    4    4    0    0  0.13009383556E-01  0.13757782136E-01  0.22222834650E-02  0.19071452347E-01  0.51100000000E-03 0. -1.
</event>
<event>
 8    1  0.1180500E+005  0.1043930E+01  0.7957747E-01            NaN
         13   -1    0    0    0    0  0.00000000000E+00  0.00000000000E+00  0.74505805969E-08  0.10566000000E+00  0.10566000000E+00 0.  1.
     999900   -1    0    0    0    0 -0.00000000000E+00 -0.00000000000E+00 -0.74505805969E-08  0.93827000000E+00  0.93827000000E+00 0.  1.
     999902    2    1    2    0    0 -0.18370385110E-01 -0.21006932047E-02  0.13950686586E-01  0.10207674091E+01  0.10205045800E+01 0.  0.
     999903    2    3    3    0    0 -0.75413780769E-01 -0.62511095831E-01 -0.85167905663E-01  0.13131372224E+00  0.19870733816E-01 0.  0.
         14    1    1    2    0    0  0.18370385110E-01  0.21006932047E-02 -0.13950686586E-01  0.23162590901E-01  0.00000000000E+00 0. -1.
     999901    1    3    3    0    0  0.57043395659E-01  0.60410402627E-01  0.99118592248E-01  0.88945368686E+00  0.88000000000E+00 0. -1.
        -11    1    4    4    0    0 -0.58478269806E-01 -0.45441587670E-01 -0.74349894167E-01  0.10494195449E+00  0.51100000000E-03 0. -1.
         11    1    4    4    0    0 -0.16935510963E-01 -0.17069508162E-01 -0.10818011496E-01  0.26371767748E-01  0.51100000000E-03 0.  1.
</event>
<event>
 7    1  0.1180500E+005  0.1043930E+01  0.7957747E-01            NaN
         13   -1    0    0    0    0  0.00000000000E+00  0.00000000000E+00  0.74505805969E-08  0.10566000000E+00  0.10566000000E+00 0. -1.
     999900   -1    0    0    0    0 -0.00000000000E+00 -0.00000000000E+00 -0.74505805969E-08  0.93827000000E+00  0.93827000000E+00 0. -1.
     999903    2    1    2    0    0 -0.49419618147E-01 -0.46098155891E-01 -0.62279800518E-01  0.94023209886E-01  0.19855775238E-01 0.  0.
         14    1    1    2    0    0 -0.52005286997E-01 -0.27339608078E-01  0.90844895819E-02  0.59451930132E-01  0.00000000000E+00 0. -1.
     999901    1    1    2    0    0  0.10142490514E+00  0.73437763970E-01  0.53195310936E-01  0.89045485998E+00  0.88000000000E+00 0. -1.
        -11    1    3    3    0    0 -0.22181428931E-02 -0.11084669893E-01 -0.68041539076E-02  0.13204078761E-01  0.51100000000E-03 0. -1.
         11    1    3    3    0    0 -0.47201475254E-01 -0.35013485998E-01 -0.55475646610E-01  0.80819131124E-01  0.51100000000E-03 0.  1.
</event>
<event>
 8    1  0.1180500E+005  0.1043930E+01  0.7957747E-01            NaN
         13   -1    0    0    0    0  0.00000000000E+00  0.00000000000E+00  0.74505805969E-08  0.10566000000E+00  0.10566000000E+00 0.  1.
     999900   -1    0    0    0    0 -0.00000000000E+00 -0.00000000000E+00 -0.74505805969E-08  0.93827000000E+00  0.93827000000E+00 0. -1.
     999902    2    1    2    0    0 -0.47768859728E-03  0.15687690739E-01 -0.14564443721E-01  0.10225184413E+01  0.10222942374E+01 0.  0.
     999903    2    3    3    0    0 -0.18421301494E-01 -0.66618757139E-01  0.10908317705E+00  0.12989026629E+00  0.13962041811E-01 0.  0.
         14    1    1    2    0    0  0.47768859728E-03 -0.15687690739E-01  0.14564443721E-01  0.21411558748E-01  0.00000000000E+00 0.  1.
     999901    1    3    3    0    0  0.17943612897E-01  0.82306447877E-01 -0.12364762077E+00  0.89262817496E+00  0.88000000000E+00 0. -1.
        -11    1    4    4    0    0 -0.14143056246E-01 -0.57496984574E-01  0.83277907662E-01  0.10218317034E+00  0.51100000000E-03 0. -1.
         11    1    4    4    0    0 -0.42782452484E-02 -0.91217725647E-02  0.25805269387E-01  0.27707095955E-01  0.51100000000E-03 0.  1.
</event>
<event>
 8    1  0.1180500E+005  0.1043930E+01  0.7957747E-01            NaN
         13   -1    0    0    0    0  0.00000000000E+00  0.00000000000E+00  0.74505805969E-08  0.10566000000E+00  0.10566000000E+00 0.  1.
     999900   -1    0    0    0    0 -0.00000000000E+00 -0.00000000000E+00 -0.74505805969E-08  0.93827000000E+00  0.93827000000E+00 0.  1.
     999902    2    1    2    0    0 -0.10684063115E-01 -0.16079692817E-01  0.12307458109E-01  0.10210350387E+01  0.10207783163E+01 0.  0.
     999903    2    3    3    0    0 -0.26794265352E-01  0.84044732795E-01  0.94881358401E-01  0.13137055804E+00  0.21778466000E-01 0.  0.
         14    1    1    2    0    0  0.10684063115E-01  0.16079692817E-01 -0.12307458109E-01  0.22894961254E-01  0.00000000000E+00 0. -1.
     999901    1    3    3    0    0  0.16110202238E-01 -0.10012442561E+00 -0.82573900292E-01  0.88966448071E+00  0.88000000000E+00 0.  1.
        -11    1    4    4    0    0 -0.23474025998E-01  0.80599183498E-01  0.94703073365E-01  0.12655509276E+00  0.51100000000E-03 0. -1.
         11    1    4    4    0    0 -0.33202393544E-02  0.34455492972E-02  0.17828503573E-03  0.48154652822E-02  0.51100000000E-03 0.  1.
</event>
<event>
 8    1  0.1180500E+005  0.1043930E+01  0.7957747E-01            NaN
         13   -1    0    0    0    0  0.00000000000E+00  0.00000000000E+00  0.74505805969E-08  0.10566000000E+00  0.10566000000E+00 0. -1.
     999900   -1    0    0    0    0 -0.00000000000E+00 -0.00000000000E+00 -0.74505805969E-08  0.93827000000E+00  0.93827000000E+00 0. -1.
     999902    2    1    2    0    0 -0.45149481249E-03  0.92419644758E-02  0.21964023927E-01  0.10200964920E+01  0.10198180313E+01 0.  0.
     999903    2    3    3    0    0 -0.24270200181E-01  0.36469944245E-01 -0.11880346267E+00  0.12817487054E+00  0.19885553685E-01 0.  0.
         14    1    1    2    0    0  0.45149481249E-03 -0.92419644758E-02 -0.21964023927E-01  0.23833507967E-01  0.00000000000E+00 0.  1.
     999901    1    3    3    0    0  0.23818705369E-01 -0.27227979769E-01  0.14076748660E+00  0.89192162149E+00  0.88000000000E+00 0.  1.
        -11    1    4    4    0    0 -0.17856084278E-01  0.20707040189E-01 -0.46969826902E-01  0.54351145520E-01  0.51100000000E-03 0. -1.
         11    1    4    4    0    0 -0.64141159031E-02  0.15762904056E-01 -0.71833635766E-01  0.73823725017E-01  0.51100000000E-03 0.  1.
</event>
<event>
 8    1  0.1180500E+005  0.1043930E+01  0.7957747E-01            NaN
         13   -1    0    0    0    0  0.00000000000E+00  0.00000000000E+00  0.74505805969E-08  0.10566000000E+00  0.10566000000E+00 0. -1.
     999900   -1    0    0    0    0 -0.00000000000E+00 -0.00000000000E+00 -0.74505805969E-08  0.93827000000E+00  0.93827000000E+00 0.  1.
     999902    2    1    2    0    0  0.33804128623E-02  0.21365899492E-01  0.88825764368E-02  0.10205456245E+01  0.10202776792E+01 0.  0.
     999903    2    3    3    0    0 -0.10450563335E+00 -0.64763397970E-01  0.33802437766E-01  0.12943471429E+00  0.22248940325E-01 0.  0.
         14    1    1    2    0    0 -0.33804128623E-02 -0.21365899492E-01 -0.88825764368E-02  0.23384375475E-01  0.00000000000E+00 0. -1.
     999901    1    3    3    0    0  0.10788604622E+00  0.86129297461E-01 -0.24919861330E-01  0.89111091023E+00  0.88000000000E+00 0. -1.
        -11    1    4    4    0    0 -0.34577373805E-01 -0.33898805582E-01  0.15362267840E-01  0.50803387616E-01  0.51100000000E-03 0.  1.
         11    1    4    4    0    0 -0.69928259548E-01 -0.30864592388E-01  0.18440169926E-01  0.78631326675E-01  0.51100000000E-03 0. -1.
</event>
<event>
 8    1  0.1180500E+005  0.1043930E+01  0.7957747E-01            NaN
         13   -1    0    0    0    0  0.00000000000E+00  0.00000000000E+00  0.74505805969E-08  0.10566000000E+00  0.10566000000E+00 0. -1.
     999900   -1    0    0    0    0 -0.00000000000E+00 -0.00000000000E+00 -0.74505805969E-08  0.93827000000E+00  0.93827000000E+00 0.  1.
     999902    2    1    2    0    0  0.31857588326E-02 -0.41802568482E-02  0.22771745057E-01  0.10205595918E+01  0.10202919702E+01 0.  0.
     999903    2    3    3    0    0  0.71032558837E-01  0.10020194118E+00  0.42772686016E-01  0.13157203892E+00  0.19890835197E-01 0.  0.
         14    1    1    2    0    0 -0.31857588326E-02  0.41802568482E-02 -0.22771745057E-01  0.23370408203E-01  0.00000000000E+00 0.  1.
     999901    1    3    3    0    0 -0.67846800005E-01 -0.10438219803E+00 -0.20000940959E-01  0.88898755288E+00  0.88000000000E+00 0.  1.
        -11    1    4    4    0    0  0.51037419667E-01  0.56807119799E-01  0.22038249599E-01  0.79484669166E-01  0.51100000000E-03 0. -1.
         11    1    4    4    0    0  0.19995139171E-01  0.43394821380E-01  0.20734436417E-01  0.52087369751E-01  0.51100000000E-03 0.  1.
</event>
<event>
 8    1  0.1180500E+005  0.1043930E+01  0.7957747E-01            NaN
         13   -1    0    0    0    0  0.00000000000E+00  0.00000000000E+00  0.74505805969E-08  0.10566000000E+00  0.10566000000E+00 0. -1.
     999900   -1    0    0    0    0 -0.00000000000E+00 -0.00000000000E+00 -0.74505805969E-08  0.93827000000E+00  0.93827000000E+00 0.  1.
     999902    2    1    2    0    0  0.66090820480E-02 -0.16604452091E-01 -0.14857399169E-02  0.10259969239E+01  0.10258401887E+01 0.  0.
     999903    2    3    3    0    0 -0.12932104377E+00  0.24014334754E-01 -0.18455685819E-01  0.13447302406E+00  0.21018116609E-01 0.  0.
         14    1    1    2    0    0 -0.66090820480E-02  0.16604452091E-01  0.14857399169E-02  0.17933076085E-01  0.00000000000E+00 0. -1.
     999901    1    3    3    0    0  0.13593012582E+00 -0.40618786845E-01  0.16969945902E-01  0.89152389986E+00  0.88000000000E+00 0. -1.
        -11    1    4    4    0    0 -0.67321904144E-01  0.16823117672E-01 -0.32337099929E-04  0.69393935128E-01  0.51100000000E-03 0.  1.
         11    1    4    4    0    0 -0.61999139624E-01  0.71912170820E-02 -0.18423348719E-01  0.65079088932E-01  0.51100000000E-03 0. -1.
</event>
<event>
 8    1  0.1180500E+005  0.1043930E+01  0.7957747E-01            NaN
         13   -1    0    0    0    0  0.00000000000E+00  0.00000000000E+00  0.74505805969E-08  0.10566000000E+00  0.10566000000E+00 0.  1.
     999900   -1    0    0    0    0 -0.00000000000E+00 -0.00000000000E+00 -0.74505805969E-08  0.93827000000E+00  0.93827000000E+00 0. -1.
     999902    2    1    2    0    0  0.15811467845E-01 -0.63752029925E-04 -0.16308348952E-01  0.10212150528E+01  0.10209623966E+01 0.  0.
     999903    2    3    3    0    0  0.10451981989E-01  0.23111615498E-02  0.12755050240E+00  0.12951457990E+00  0.19756273656E-01 0.  0.
         14    1    1    2    0    0 -0.15811467845E-01  0.63752029925E-04  0.16308348952E-01  0.22714947177E-01  0.00000000000E+00 0.  1.
     999901    1    3    3    0    0  0.53594858558E-02 -0.23749135798E-02 -0.14385885135E+00  0.89170047293E+00  0.88000000000E+00 0. -1.
        -11    1    4    4    0    0  0.77979608091E-03  0.97852045179E-02  0.44885937480E-01  0.45949611683E-01  0.51100000000E-03 0.  1.
         11    1    4    4    0    0  0.96721859080E-02 -0.74740429681E-02  0.82664564918E-01  0.83564968214E-01  0.51100000000E-03 0. -1.
</event>
<event>
 8    1  0.1180500E+005  0.1043930E+01  0.7957747E-01            NaN
         13   -1    0    0    0    0  0.00000000000E+00  0.00000000000E+00  0.74505805969E-08  0.10566000000E+00  0.10566000000E+00 0.  1.
     999900   -1    0    0    0    0 -0.00000000000E+00 -0.00000000000E+00 -0.74505805969E-08  0.93827000000E+00  0.93827000000E+00 0.  1.
     999902    2    1    2    0    0 -0.33105379827E-02  0.23071708899E-01 -0.31674652757E-03  0.10206198361E+01  0.10203536084E+01 0.  0.
     999903    2    3    3    0    0  0.10334636636E+00  0.58661793288E-01 -0.53196453082E-01  0.13189118643E+00  0.21065255890E-01 0.  0.
         14    1    1    2    0    0  0.33105379827E-02 -0.23071708899E-01  0.31674652757E-03  0.23310163912E-01  0.00000000000E+00 0.  1.
     999901    1    3    3    0    0 -0.10665690435E+00 -0.35590084389E-01  0.52879706554E-01  0.88872864965E+00  0.88000000000E+00 0. -1.
        -11    1    4    4    0    0  0.29380051751E-01  0.24969801365E-01 -0.24541543971E-01  0.45708061899E-01  0.51100000000E-03 0.  1.
         11    1    4    4    0    0  0.73966314614E-01  0.33691991923E-01 -0.28654909111E-01  0.86183124534E-01  0.51100000000E-03 0. -1.
</event>
<event>
 7    1  0.1180500E+005  0.1043930E+01  0.7957747E-01            NaN
         13   -1    0    0    0    0  0.00000000000E+00  0.00000000000E+00  0.74505805969E-08  0.10566000000E+00  0.10566000000E+00 0.  1.
     999900   -1    0    0    0    0 -0.00000000000E+00 -0.00000000000E+00 -0.74505805969E-08  0.93827000000E+00  0.93827000000E+00 0. -1.
     999903    2    1    2    0    0 -0.10622740495E+00  0.69868205057E-01  0.68927186003E-01  0.14721964176E+00  0.27510694454E-01 0.  0.
         14    1    1    2    0    0 -0.32037957591E-02 -0.30019398136E-02  0.14775170103E-02  0.46323866879E-02  0.00000000000E+00 0.  1.
     999901    1    1    2    0    0  0.10943120071E+00 -0.66866265244E-01 -0.70404703014E-01  0.89207797155E+00  0.88000000000E+00 0. -1.
        -11    1    3    3    0    0 -0.81766451873E-01  0.43912592078E-01  0.59769919491E-01  0.11039371718E+00  0.51100000000E-03 0. -1.
         11    1    3    3    0    0 -0.24460953081E-01  0.25955612979E-01  0.91572665128E-02  0.36825924587E-01  0.51100000000E-03 0.  1.
</event>
<event>
 8    1  0.1180500E+005  0.1043930E+01  0.7957747E-01            NaN
         13   -1    0    0    0    0  0.00000000000E+00  0.00000000000E+00  0.74505805969E-08  0.10566000000E+00  0.10566000000E+00 0. -1.
     999900   -1    0    0    0    0 -0.00000000000E+00 -0.00000000000E+00 -0.74505805969E-08  0.93827000000E+00  0.93827000000E+00 0.  1.
     999902    2    1    2    0    0 -0.81115608225E-02 -0.15431512611E-01  0.15101078838E-01  0.10208654908E+01  0.10206049083E+01 0.  0.
     999903    2    3    3    0    0 -0.30178415430E-01 -0.12796020594E+00  0.75800351935E-02  0.13339367778E+00  0.21257122942E-01 0.  0.
         14    1    1    2    0    0  0.81115608225E-02  0.15431512611E-01 -0.15101078838E-01  0.23064509154E-01  0.00000000000E+00 0. -1.
     999901    1    3    3    0    0  0.22066854608E-01  0.11252869333E+00  0.75210436449E-02  0.88747181307E+00  0.88000000000E+00 0. -1.
        -11    1    4    4    0    0 -0.10946216363E-01 -0.48519808970E-01 -0.74187754629E-02  0.50292055689E-01  0.51100000000E-03 0.  1.
         11    1    4    4    0    0 -0.19232199068E-01 -0.79440396968E-01  0.14998810656E-01  0.83101622087E-01  0.51100000000E-03 0. -1.
</event>
<event>
 8    1  0.1180500E+005  0.1043930E+01  0.7957747E-01            NaN
         13   -1    0    0    0    0  0.00000000000E+00  0.00000000000E+00  0.74505805969E-08  0.10566000000E+00  0.10566000000E+00 0. -1.
     999900   -1    0    0    0    0 -0.00000000000E+00 -0.00000000000E+00 -0.74505805969E-08  0.93827000000E+00  0.93827000000E+00 0. -1.
     999902    2    1    2    0    0 -0.41639037981E-02 -0.18056497790E-01 -0.14160097021E-01  0.10206086888E+01  0.10203422035E+01 0.  0.
     999903    2    3    3    0    0 -0.11996045991E+00  0.16766741045E-02  0.45826743822E-01  0.13077912000E+00  0.24693412079E-01 0.  0.
         14    1    1    2    0    0  0.41639037981E-02  0.18056497790E-01  0.14160097021E-01  0.23321311176E-01  0.00000000000E+00 0. -1.
     999901    1    3    3    0    0  0.11579655611E+00 -0.19733171895E-01 -0.59986840843E-01  0.88982956882E+00  0.88000000000E+00 0. -1.
        -11    1    4    4    0    0 -0.50809875233E-01  0.12880856800E-01  0.18665696398E-01  0.55643770865E-01  0.51100000000E-03 0. -1.
         11    1    4    4    0    0 -0.69150584680E-01 -0.11204182695E-01  0.27161047424E-01  0.75135349134E-01  0.51100000000E-03 0.  1.
</event>
<event>
 8    1  0.1180500E+005  0.1043930E+01  0.7957747E-01            NaN
         13   -1    0    0    0    0  0.00000000000E+00  0.00000000000E+00  0.74505805969E-08  0.10566000000E+00  0.10566000000E+00 0. -1.
     999900   -1    0    0    0    0 -0.00000000000E+00 -0.00000000000E+00 -0.74505805969E-08  0.93827000000E+00  0.93827000000E+00 0.  1.
     999902    2    1    2    0    0 -0.16946834902E-01 -0.64642515325E-02  0.15544361047E-01  0.10200425782E+01  0.10197628412E+01 0.  0.
     999903    2    3    3    0    0  0.19606569292E-02  0.12798229488E+00  0.22491238429E-02  0.12953141574E+00  0.19748851255E-01 0.  0.
         14    1    1    2    0    0  0.16946834902E-01  0.64642515325E-02 -0.15544361047E-01  0.23887421825E-01  0.00000000000E+00 0.  1.
     999901    1    3    3    0    0 -0.18907491831E-01 -0.13444654642E+00  0.13295237204E-01  0.89051116244E+00  0.88000000000E+00 0.  1.
        -11    1    4    4    0    0  0.82427948722E-02  0.48025912644E-01  0.67743250784E-02  0.49199436520E-01  0.51100000000E-03 0. -1.
         11    1    4    4    0    0 -0.62821379430E-02  0.79956382241E-01 -0.45252012355E-02  0.80331979220E-01  0.51100000000E-03 0.  1.
</event>
<event>
 8    1  0.1180500E+005  0.1043930E+01  0.7957747E-01            NaN
         13   -1    0    0    0    0  0.00000000000E+00  0.00000000000E+00  0.74505805969E-08  0.10566000000E+00  0.10566000000E+00 0. -1.
     999900   -1    0    0    0    0 -0.00000000000E+00 -0.00000000000E+00 -0.74505805969E-08  0.93827000000E+00  0.93827000000E+00 0.  1.
     999902    2    1    2    0    0 -0.22469483066E-02 -0.17444067823E-01 -0.15505737118E-01  0.10204827792E+01  0.10202133750E+01 0.  0.
     999903    2    3    3    0    0 -0.87196839085E-01  0.20622752266E-01 -0.94911692149E-01  0.13201731988E+00  0.19792846810E-01 0.  0.
         14    1    1    2    0    0  0.22469483066E-02  0.17444067823E-01  0.15505737118E-01  0.23447220784E-01  0.00000000000E+00 0. -1.
     999901    1    3    3    0    0  0.84949890778E-01 -0.38066820089E-01  0.79405955031E-01  0.88846545933E+00  0.88000000000E+00 0.  1.
        -11    1    4    4    0    0 -0.71179326048E-01  0.20806706094E-01 -0.86428270209E-01  0.11388381135E+00  0.51100000000E-03 0. -1.
         11    1    4    4    0    0 -0.16017513036E-01 -0.18395382846E-03 -0.84834219404E-02  0.18133508533E-01  0.51100000000E-03 0.  1.
</event>
<event>
 8    1  0.1180500E+005  0.1043930E+01  0.7957747E-01            NaN
         13   -1    0    0    0    0  0.00000000000E+00  0.00000000000E+00  0.74505805969E-08  0.10566000000E+00  0.10566000000E+00 0.  1.
     999900   -1    0    0    0    0 -0.00000000000E+00 -0.00000000000E+00 -0.74505805969E-08  0.93827000000E+00  0.93827000000E+00 0. -1.
     999902    2    1    2    0    0  0.41302012423E-02 -0.23410076162E-01 -0.47426050115E-02  0.10196898983E+01  0.10194017393E+01 0.  0.
     999903    2    3    3    0    0 -0.37638178864E-01  0.63979771610E-01 -0.10369452048E+00  0.12886271829E+00  0.18520337571E-01 0.  0.
         14    1    1    2    0    0 -0.41302012423E-02  0.23410076162E-01  0.47426050115E-02  0.24240101701E-01  0.00000000000E+00 0. -1.
     999901    1    3    3    0    0  0.41768380106E-01 -0.87389847772E-01  0.98951915468E-01  0.89082718001E+00  0.88000000000E+00 0.  1.
        -11    1    4    4    0    0 -0.26681046564E-03  0.14094120090E-01 -0.17116915463E-01  0.22180291362E-01  0.51100000000E-03 0. -1.
         11    1    4    4    0    0 -0.37371368398E-01  0.49885651521E-01 -0.86577605016E-01  0.10668242693E+00  0.51100000000E-03 0.  1.
</event>
<event>
 8    1  0.1180500E+005  0.1043930E+01  0.7957747E-01            NaN
         13   -1    0    0    0    0  0.00000000000E+00  0.00000000000E+00  0.74505805969E-08  0.10566000000E+00  0.10566000000E+00 0. -1.
     999900   -1    0    0    0    0 -0.00000000000E+00 -0.00000000000E+00 -0.74505805969E-08  0.93827000000E+00  0.93827000000E+00 0. -1.
     999902    2    1    2    0    0  0.17383462895E-01 -0.13443592266E-01 -0.78168320127E-02  0.10206058105E+01  0.10203392585E+01 0.  0.
     999903    2    3    3    0    0 -0.82872486265E-01  0.46785215970E-01  0.83661444921E-01  0.12816699472E+00  0.19257096236E-01 0.  0.
         14    1    1    2    0    0 -0.17383462895E-01  0.13443592266E-01  0.78168320127E-02  0.23324189545E-01  0.00000000000E+00 0. -1.
     999901    1    3    3    0    0  0.10025594916E+00 -0.60228808237E-01 -0.91478276934E-01  0.89243881574E+00  0.88000000000E+00 0. -1.
        -11    1    4    4    0    0 -0.38950309304E-01  0.29717491952E-01  0.51689636908E-01  0.71220331420E-01  0.51100000000E-03 0. -1.
         11    1    4    4    0    0 -0.43922176961E-01  0.17067724019E-01  0.31971808013E-01  0.56946663298E-01  0.51100000000E-03 0.  1.
</event>
<event>
 8    1  0.1180500E+005  0.1043930E+01  0.7957747E-01            NaN
         13   -1    0    0    0    0  0.00000000000E+00  0.00000000000E+00  0.74505805969E-08  0.10566000000E+00  0.10566000000E+00 0.  1.
     999900   -1    0    0    0    0 -0.00000000000E+00 -0.00000000000E+00 -0.74505805969E-08  0.93827000000E+00  0.93827000000E+00 0.  1.
     999902    2    1    2    0    0  0.52710103731E-03  0.17274736786E-01  0.16992093425E-01  0.10196931354E+01  0.10194050543E+01 0.  0.
     999903    2    3    3    0    0  0.27332714826E-01 -0.10621554221E+00  0.64626860416E-01  0.12939124224E+00  0.23165573089E-01 0.  0.
         14    1    1    2    0    0 -0.52710103731E-03 -0.17274736786E-01 -0.16992093425E-01  0.24236864597E-01  0.00000000000E+00 0. -1.
     999901    1    3    3    0    0 -0.26805613789E-01  0.12349027899E+00 -0.47634766991E-01  0.89030189316E+00  0.88000000000E+00 0.  1.
        -11    1    4    4    0    0  0.52848459982E-02 -0.20150942957E-01  0.25202934640E-02  0.20990547859E-01  0.51100000000E-03 0.  1.
         11    1    4    4    0    0  0.22047868828E-01 -0.86064599248E-01  0.62106566952E-01  0.10840069439E+00  0.51100000000E-03 0. -1.
</event>
<event>
 8    1  0.1180500E+005  0.1043930E+01  0.7957747E-01            NaN
         13   -1    0    0    0    0  0.00000000000E+00  0.00000000000E+00  0.74505805969E-08  0.10566000000E+00  0.10566000000E+00 0.  1.
     999900   -1    0    0    0    0 -0.00000000000E+00 -0.00000000000E+00 -0.74505805969E-08  0.93827000000E+00  0.93827000000E+00 0. -1.
     999902    2    1    2    0    0 -0.33894317067E-02 -0.16862290655E-01 -0.16606481274E-01  0.10200218358E+01  0.10197416071E+01 0.  0.
     999903    2    3    3    0    0 -0.61899770564E-01  0.63804533304E-01 -0.94477708189E-01  0.13098048459E+00  0.18090050661E-01 0.  0.
         14    1    1    2    0    0  0.33894317067E-02  0.16862290655E-01  0.16606481274E-01  0.23908164165E-01  0.00000000000E+00 0. -1.
     999901    1    3    3    0    0  0.58510338858E-01 -0.80666823959E-01  0.77871226915E-01  0.88904135124E+00  0.88000000000E+00 0.  1.
        -11    1    4    4    0    0 -0.19435086214E-01  0.31299221132E-01 -0.32631650527E-01  0.49218386369E-01  0.51100000000E-03 0.  1.
         11    1    4    4    0    0 -0.42464684350E-01  0.32505312172E-01 -0.61846057662E-01  0.81762098222E-01  0.51100000000E-03 0. -1.
</event>
<event>
 8    1  0.1180500E+005  0.1043930E+01  0.7957747E-01            NaN
         13   -1    0    0    0    0  0.00000000000E+00  0.00000000000E+00  0.74505805969E-08  0.10566000000E+00  0.10566000000E+00 0. -1.
     999900   -1    0    0    0    0 -0.00000000000E+00 -0.00000000000E+00 -0.74505805969E-08  0.93827000000E+00  0.93827000000E+00 0. -1.
     999902    2    1    2    0    0 -0.25312932839E-02  0.20506717384E-02 -0.22527447732E-01  0.10211682206E+01  0.10209145097E+01 0.  0.
     999903    2    3    3    0    0  0.76456683322E-01  0.47782818837E-01 -0.96371315386E-01  0.13337125816E+00  0.19277963389E-01 0.  0.
         14    1    1    2    0    0  0.25312932839E-02 -0.20506717384E-02  0.22527447732E-01  0.22761779403E-01  0.00000000000E+00 0. -1.
     999901    1    3    3    0    0 -0.78987976606E-01 -0.45732147099E-01  0.73843867654E-01  0.88779696244E+00  0.88000000000E+00 0.  1.
        -11    1    4    4    0    0  0.46205102449E-01  0.39461438151E-01 -0.65690486703E-01  0.89485293527E-01  0.51100000000E-03 0. -1.
         11    1    4    4    0    0  0.30251580873E-01  0.83213806865E-02 -0.30680828683E-01  0.43885964630E-01  0.51100000000E-03 0.  1.
</event>
<event>
 8    1  0.1180500E+005  0.1043930E+01  0.7957747E-01            NaN
         13   -1    0    0    0    0  0.00000000000E+00  0.00000000000E+00  0.74505805969E-08  0.10566000000E+00  0.10566000000E+00 0.  1.
     999900   -1    0    0    0    0 -0.00000000000E+00 -0.00000000000E+00 -0.74505805969E-08  0.93827000000E+00  0.93827000000E+00 0.  1.
     999902    2    1    2    0    0 -0.94092749827E-02  0.21135308521E-02 -0.21657327005E-01  0.10202225902E+01  0.10199471026E+01 0.  0.
     999903    2    3    3    0    0  0.59819009371E-01  0.97997082081E-01 -0.60872218357E-01  0.13144589241E+00  0.19770019887E-01 0.  0.
         14    1    1    2    0    0  0.94092749827E-02 -0.21135308521E-02  0.21657327005E-01  0.23707409841E-01  0.00000000000E+00 0.  1.
     999901    1    3    3    0    0 -0.69228284353E-01 -0.95883551229E-01  0.39214891353E-01  0.88877669775E+00  0.88000000000E+00 0. -1.
        -11    1    4    4    0    0  0.23564300490E-01  0.21965109990E-01 -0.18548664661E-01  0.37176019100E-01  0.51100000000E-03 0.  1.
         11    1    4    4    0    0  0.36254708881E-01  0.76031972092E-01 -0.42323553697E-01  0.94269873314E-01  0.51100000000E-03 0. -1.
</event>
<event>
 8    1  0.1180500E+005  0.1043930E+01  0.7957747E-01            NaN
         13   -1    0    0    0    0  0.00000000000E+00  0.00000000000E+00  0.74505805969E-08  0.10566000000E+00  0.10566000000E+00 0. -1.
     999900   -1    0    0    0    0 -0.00000000000E+00 -0.00000000000E+00 -0.74505805969E-08  0.93827000000E+00  0.93827000000E+00 0.  1.
     999902    2    1    2    0    0 -0.31529731276E-03 -0.65897864567E-03 -0.23160230627E-01  0.10207582511E+01  0.10204952117E+01 0.  0.
     999903    2    3    3    0    0 -0.98345930852E-01 -0.65905904500E-01  0.49665241544E-01  0.12993238940E+00  0.20006979636E-01 0.  0.
         14    1    1    2    0    0  0.31529731276E-03  0.65897864567E-03  0.23160230627E-01  0.23171748919E-01  0.00000000000E+00 0. -1.
     999901    1    3    3    0    0  0.98030633540E-01  0.65246925854E-01 -0.72825472171E-01  0.89082586168E+00  0.88000000000E+00 0. -1.
        -11    1    4    4    0    0 -0.14990503500E-01 -0.51192693670E-02  0.10463143539E-02  0.15883261906E-01  0.51100000000E-03 0.  1.
         11    1    4    4    0    0 -0.83355427352E-01 -0.60786635133E-01  0.48618927190E-01  0.11404912749E+00  0.51100000000E-03 0. -1.
</event>
<event>
 8    1  0.1180500E+005  0.1043930E+01  0.7957747E-01            NaN
         13   -1    0    0    0    0  0.00000000000E+00  0.00000000000E+00  0.74505805969E-08  0.10566000000E+00  0.10566000000E+00 0.  1.
     999900   -1    0    0    0    0 -0.00000000000E+00 -0.00000000000E+00 -0.74505805969E-08  0.93827000000E+00  0.93827000000E+00 0.  1.
     999902    2    1    2    0    0 -0.22144818820E-01 -0.63789118606E-02  0.89659073443E-02  0.10192020601E+01  0.10189020406E+01 0.  0.
     999903    2    3    3    0    0  0.37785571320E-01 -0.32789132487E-01  0.11840087211E+00  0.13000851372E+00  0.19508216586E-01 0.  0.
         14    1    1    2    0    0  0.22144818820E-01  0.63789118606E-02 -0.89659073443E-02  0.24727939898E-01  0.00000000000E+00 0. -1.
     999901    1    3    3    0    0 -0.59930390140E-01  0.26410220626E-01 -0.10943496476E+00  0.88919354638E+00  0.88000000000E+00 0.  1.
        -11    1    4    4    0    0  0.32369994683E-01 -0.33131614896E-01  0.11383244635E+00  0.12289673480E+00  0.51100000000E-03 0.  1.
         11    1    4    4    0    0  0.54155766370E-02  0.34248240952E-03  0.45684257619E-02  0.71117789233E-02  0.51100000000E-03 0. -1.
</event>
<event>
 8    1  0.1180500E+005  0.1043930E+01  0.7957747E-01            NaN
         13   -1    0    0    0    0  0.00000000000E+00  0.00000000000E+00  0.74505805969E-08  0.10566000000E+00  0.10566000000E+00 0.  1.
     999900   -1    0    0    0    0 -0.00000000000E+00 -0.00000000000E+00 -0.74505805969E-08  0.93827000000E+00  0.93827000000E+00 0. -1.
     999902    2    1    2    0    0  0.25589356344E-01 -0.65733673694E-03 -0.14984476515E-01  0.10142688843E+01  0.10138350891E+01 0.  0.
     999903    2    3    3    0    0 -0.63823068572E-01  0.10183595237E+00 -0.22576572289E-01  0.12378749988E+00  0.19227538390E-01 0.  0.
         14    1    1    2    0    0 -0.25589356344E-01  0.65733673694E-03  0.14984476515E-01  0.29661115726E-01  0.00000000000E+00 0.  1.
     999901    1    3    3    0    0  0.89412424916E-01 -0.10249328911E+00  0.75920957742E-02  0.89048138440E+00  0.88000000000E+00 0.  1.
        -11    1    4    4    0    0 -0.18438153023E-01  0.39737901837E-01 -0.68347995472E-03  0.43815460686E-01  0.51100000000E-03 0. -1.
         11    1    4    4    0    0 -0.45384915549E-01  0.62098050531E-01 -0.21893092335E-01  0.79972039190E-01  0.51100000000E-03 0.  1.
</event>
<event>
 8    1  0.1180500E+005  0.1043930E+01  0.7957747E-01            NaN
         13   -1    0    0    0    0  0.00000000000E+00  0.00000000000E+00  0.74505805969E-08  0.10566000000E+00  0.10566000000E+00 0.  1.
     999900   -1    0    0    0    0 -0.00000000000E+00 -0.00000000000E+00 -0.74505805969E-08  0.93827000000E+00  0.93827000000E+00 0. -1.
     999902    2    1    2    0    0  0.10463466941E-01  0.30658957083E-02  0.20504873141E-01  0.10207064413E+01  0.10204422108E+01 0.  0.
     999903    2    3    3    0    0  0.78268501209E-01 -0.68988716976E-02  0.10647710136E+00  0.13386483012E+00  0.20220457923E-01 0.  0.
         14    1    1    2    0    0 -0.10463466941E-01 -0.30658957083E-02 -0.20504873141E-01  0.23223558716E-01  0.00000000000E+00 0. -1.
     999901    1    3    3    0    0 -0.67805034269E-01  0.99647674059E-02 -0.85972228214E-01  0.88684161116E+00  0.88000000000E+00 0. -1.
        -11    1    4    4    0    0  0.61685746265E-01 -0.13605325577E-01  0.85178496737E-01  0.10604656338E+00  0.51100000000E-03 0. -1.
         11    1    4    4    0    0  0.16582754944E-01  0.67064538789E-02  0.21298604619E-01  0.27818266748E-01  0.51100000000E-03 0.  1.
</event>
<event>
 8    1  0.1180500E+005  0.1043930E+01  0.7957747E-01            NaN
         13   -1    0    0    0    0  0.00000000000E+00  0.00000000000E+00  0.74505805969E-08  0.10566000000E+00  0.10566000000E+00 0. -1.
     999900   -1    0    0    0    0 -0.00000000000E+00 -0.00000000000E+00 -0.74505805969E-08  0.93827000000E+00  0.93827000000E+00 0.  1.
     999902    2    1    2    0    0 -0.22507724454E-01 -0.60140557040E-02 -0.70872515324E-02  0.10195784978E+01  0.10192876520E+01 0.  0.
     999903    2    3    3    0    0  0.77668563112E-01 -0.23760889604E-01  0.95580297630E-01  0.12778767906E+00  0.24435876360E-01 0.  0.
         14    1    1    2    0    0  0.22507724454E-01  0.60140557040E-02  0.70872515324E-02  0.24351502220E-01  0.00000000000E+00 0.  1.
     999901    1    3    3    0    0 -0.10017628757E+00  0.17746833899E-01 -0.10266754916E+00  0.89179081872E+00  0.88000000000E+00 0.  1.
        -11    1    4    4    0    0  0.50683325968E-01 -0.40719267169E-02  0.64728413248E-01  0.82312870931E-01  0.51100000000E-03 0. -1.
         11    1    4    4    0    0  0.26985237145E-01 -0.19688962887E-01  0.30851884382E-01  0.45474808127E-01  0.51100000000E-03 0.  1.
</event>
<event>
 8    1  0.1180500E+005  0.1043930E+01  0.7957747E-01            NaN
         13   -1    0    0    0    0  0.00000000000E+00  0.00000000000E+00  0.74505805969E-08  0.10566000000E+00  0.10566000000E+00 0.  1.
     999900   -1    0    0    0    0 -0.00000000000E+00 -0.00000000000E+00 -0.74505805969E-08  0.93827000000E+00  0.93827000000E+00 0. -1.
     999902    2    1    2    0    0  0.31039275569E-02  0.18377545984E-01 -0.16224181874E-01  0.10192198272E+01  0.10189202439E+01 0.  0.
     999903    2    3    3    0    0  0.86951487026E-01 -0.84326957845E-01  0.31893993506E-01  0.12798810248E+00  0.26308375830E-01 0.  0.
         14    1    1    2    0    0 -0.31039275569E-02 -0.18377545984E-01  0.16224181874E-01  0.24710172807E-01  0.00000000000E+00 0.  1.
     999901    1    3    3    0    0 -0.83847559469E-01  0.10270450383E+00 -0.48118175380E-01  0.89123172471E+00  0.88000000000E+00 0.  1.
        -11    1    4    4    0    0  0.66069374851E-01 -0.73287892058E-01  0.17189564449E-01  0.10015997036E+00  0.51100000000E-03 0. -1.
         11    1    4    4    0    0  0.20882112175E-01 -0.11039065788E-01  0.14704429057E-01  0.27828132119E-01  0.51100000000E-03 0.  1.
</event>
<event>
 8    1  0.1180500E+005  0.1043930E+01  0.7957747E-01            NaN
         13   -1    0    0    0    0  0.00000000000E+00  0.00000000000E+00  0.74505805969E-08  0.10566000000E+00  0.10566000000E+00 0. -1.
     999900   -1    0    0    0    0 -0.00000000000E+00 -0.00000000000E+00 -0.74505805969E-08  0.93827000000E+00  0.93827000000E+00 0.  1.
     999902    2    1    2    0    0  0.18518889207E-02 -0.27378380106E-02  0.23534897675E-01  0.10201641283E+01  0.10198872644E+01 0.  0.
     999903    2    3    3    0    0 -0.35368518827E-01 -0.96114286684E-01 -0.77653570117E-01  0.12868018231E+00  0.62947708325E-02 0.  0.
         14    1    1    2    0    0 -0.18518889207E-02  0.27378380106E-02 -0.23534897675E-01  0.23765871709E-01  0.00000000000E+00 0.  1.
     999901    1    3    3    0    0  0.37220407748E-01  0.93376448673E-01  0.10118846779E+00  0.89148394598E+00  0.88000000000E+00 0. -1.
        -11    1    4    4    0    0 -0.19488443685E-01 -0.51613830296E-01 -0.45657516224E-01  0.71614641127E-01  0.51100000000E-03 0.  1.
         11    1    4    4    0    0 -0.15880075142E-01 -0.44500456388E-01 -0.31996053893E-01  0.57065541187E-01  0.51100000000E-03 0. -1.
</event>
<event>
 8    1  0.1180500E+005  0.1043930E+01  0.7957747E-01            NaN
         13   -1    0    0    0    0  0.00000000000E+00  0.00000000000E+00  0.74505805969E-08  0.10566000000E+00  0.10566000000E+00 0.  1.
     999900   -1    0    0    0    0 -0.00000000000E+00 -0.00000000000E+00 -0.74505805969E-08  0.93827000000E+00  0.93827000000E+00 0.  1.
     999902    2    1    2    0    0  0.22035202388E-01 -0.82273458150E-02  0.66166796584E-02  0.10194960111E+01  0.10192031676E+01 0.  0.
     999903    2    3    3    0    0  0.14124594504E-02 -0.50122791863E-01 -0.11768528195E+00  0.12953449307E+00  0.20373266863E-01 0.  0.
         14    1    1    2    0    0 -0.22035202388E-01  0.82273458150E-02 -0.66166796584E-02  0.24433988892E-01  0.00000000000E+00 0.  1.
     999901    1    3    3    0    0  0.20622742938E-01  0.41895446048E-01  0.12430196161E+00  0.88996151804E+00  0.88000000000E+00 0. -1.
        -11    1    4    4    0    0  0.89814719742E-02 -0.14006241790E-01 -0.45763068207E-01  0.48696623914E-01  0.51100000000E-03 0. -1.
         11    1    4    4    0    0 -0.75690125238E-02 -0.36116550073E-01 -0.71922213741E-01  0.80837869159E-01  0.51100000000E-03 0.  1.
</event>
<event>
 8    1  0.1180500E+005  0.1043930E+01  0.7957747E-01            NaN
         13   -1    0    0    0    0  0.00000000000E+00  0.00000000000E+00  0.74505805969E-08  0.10566000000E+00  0.10566000000E+00 0. -1.
     999900   -1    0    0    0    0 -0.00000000000E+00 -0.00000000000E+00 -0.74505805969E-08  0.93827000000E+00  0.93827000000E+00 0. -1.
     999902    2    1    2    0    0  0.87940721230E-02  0.62250245996E-02  0.20156288709E-01  0.10210747465E+01  0.10208189239E+01 0.  0.
     999903    2    3    3    0    0 -0.87993435990E-02 -0.85884746613E-01 -0.93296993738E-01  0.12884978303E+00  0.21078885117E-01 0.  0.
         14    1    1    2    0    0 -0.87940721230E-02 -0.62250245996E-02 -0.20156288709E-01  0.22855253450E-01  0.00000000000E+00 0.  1.
     999901    1    3    3    0    0  0.17593415722E-01  0.92109771213E-01  0.11345328245E+00  0.89222496352E+00  0.88000000000E+00 0. -1.
        -11    1    4    4    0    0 -0.66963828731E-02 -0.68426593373E-01 -0.60278830752E-01  0.91437622355E-01  0.51100000000E-03 0. -1.
         11    1    4    4    0    0 -0.21029607259E-02 -0.17458153240E-01 -0.33018162986E-01  0.37412160675E-01  0.51100000000E-03 0.  1.
</event>
<event>
 8    1  0.1180500E+005  0.1043930E+01  0.7957747E-01            NaN
         13   -1    0    0    0    0  0.00000000000E+00  0.00000000000E+00  0.74505805969E-08  0.10566000000E+00  0.10566000000E+00 0. -1.
     999900   -1    0    0    0    0 -0.00000000000E+00 -0.00000000000E+00 -0.74505805969E-08  0.93827000000E+00  0.93827000000E+00 0.  1.
     999902    2    1    2    0    0 -0.83660016294E-02 -0.15754545194E-01 -0.14151426548E-01  0.10211603151E+01  0.10209064260E+01 0.  0.
     999903    2    3    3    0    0  0.30353247806E-02 -0.11985852597E+00  0.52413065296E-01  0.13245425534E+00  0.20535844312E-01 0.  0.
         14    1    1    2    0    0  0.83660016294E-02  0.15754545194E-01  0.14151426548E-01  0.22769684909E-01  0.00000000000E+00 0. -1.
     999901    1    3    3    0    0 -0.11401326410E-01  0.10410398077E+00 -0.66564491845E-01  0.88870605975E+00  0.88000000000E+00 0.  1.
        -11    1    4    4    0    0 -0.51049706026E-02 -0.67465060302E-01  0.21097337747E-01  0.70872800618E-01  0.51100000000E-03 0. -1.
         11    1    4    4    0    0  0.81402953832E-02 -0.52393465664E-01  0.31315727549E-01  0.61581454726E-01  0.51100000000E-03 0.  1.
</event>
<event>
 8    1  0.1180500E+005  0.1043930E+01  0.7957747E-01            NaN
         13   -1    0    0    0    0  0.00000000000E+00  0.00000000000E+00  0.74505805969E-08  0.10566000000E+00  0.10566000000E+00 0. -1.
     999900   -1    0    0    0    0 -0.00000000000E+00 -0.00000000000E+00 -0.74505805969E-08  0.93827000000E+00  0.93827000000E+00 0.  1.
     999902    2    1    2    0    0 -0.10877018776E-01 -0.19476039043E-01 -0.90309409465E-02  0.10198637679E+01  0.10195797769E+01 0.  0.
     999903    2    3    3    0    0 -0.10486031895E-01 -0.13081660728E+00  0.50681123781E-03  0.13279677845E+00  0.20292508609E-01 0.  0.
         14    1    1    2    0    0  0.10877018776E-01  0.19476039043E-01  0.90309409465E-02  0.24066232124E-01  0.00000000000E+00 0. -1.
     999901    1    3    3    0    0 -0.39098688114E-03  0.11134056823E+00 -0.95377521843E-02  0.88706698942E+00  0.88000000000E+00 0.  1.
        -11    1    4    4    0    0  0.54486834191E-03 -0.10095556195E+00  0.42012317917E-03  0.10095919965E+00  0.51100000000E-03 0.  1.
         11    1    4    4    0    0 -0.11030900237E-01 -0.29861045332E-01  0.86688058644E-04  0.31837578805E-01  0.51100000000E-03 0. -1.
</event>
<event>
 8    1  0.1180500E+005  0.1043930E+01  0.7957747E-01            NaN
         13   -1    0    0    0    0  0.00000000000E+00  0.00000000000E+00  0.74505805969E-08  0.10566000000E+00  0.10566000000E+00 0. -1.
     999900   -1    0    0    0    0 -0.00000000000E+00 -0.00000000000E+00 -0.74505805969E-08  0.93827000000E+00  0.93827000000E+00 0. -1.
     999902    2    1    2    0    0  0.24120542621E-01 -0.22370262116E-01  0.80883947318E-02  0.10100529970E+01  0.10094847227E+01 0.  0.
     999903    2    3    3    0    0 -0.46993460678E-01 -0.93098618559E-01 -0.60373433581E-01  0.12171369030E+00  0.17132798992E-01 0.  0.
         14    1    1    2    0    0 -0.24120542621E-01  0.22370262116E-01 -0.80883947318E-02  0.33877003008E-01  0.00000000000E+00 0. -1.
     999901    1    3    3    0    0  0.71114003298E-01  0.70728356443E-01  0.68461828312E-01  0.88833930669E+00  0.88000000000E+00 0.  1.
        -11    1    4    4    0    0 -0.12308978496E-01 -0.10836169099E-01 -0.92236715379E-02  0.18822081447E-01  0.51100000000E-03 0. -1.
         11    1    4    4    0    0 -0.34684482181E-01 -0.82262449460E-01 -0.51149762043E-01  0.10289160886E+00  0.51100000000E-03 0.  1.
</event>
<event>
 8    1  0.1180500E+005  0.1043930E+01  0.7957747E-01            NaN
         13   -1    0    0    0    0  0.00000000000E+00  0.00000000000E+00  0.74505805969E-08  0.10566000000E+00  0.10566000000E+00 0. -1.
     999900   -1    0    0    0    0 -0.00000000000E+00 -0.00000000000E+00 -0.74505805969E-08  0.93827000000E+00  0.93827000000E+00 0.  1.
     999902    2    1    2    0    0 -0.10406328464E-02 -0.33202082740E-01  0.73259080117E-02  0.10099133843E+01  0.10093403359E+01 0.  0.
     999903    2    3    3    0    0  0.65462060433E-01 -0.17085013009E-01  0.99981473569E-01  0.12240709026E+00  0.20248991640E-01 0.  0.
         14    1    1    2    0    0  0.10406328464E-02  0.33202082740E-01 -0.73259080117E-02  0.34016615693E-01  0.00000000000E+00 0.  1.
     999901    1    3    3    0    0 -0.66502693280E-01 -0.16117069731E-01 -0.92655565557E-01  0.88750629405E+00  0.88000000000E+00 0.  1.
        -11    1    4    4    0    0  0.47919261452E-01 -0.36038991242E-02  0.61940783760E-01  0.78397484149E-01  0.51100000000E-03 0. -1.
         11    1    4    4    0    0  0.17542798981E-01 -0.13481113885E-01  0.38040689809E-01  0.44009606108E-01  0.51100000000E-03 0.  1.
</event>
<event>
 8    1  0.1180500E+005  0.1043930E+01  0.7957747E-01            NaN
         13   -1    0    0    0    0  0.00000000000E+00  0.00000000000E+00  0.74505805969E-08  0.10566000000E+00  0.10566000000E+00 0. -1.
     999900   -1    0    0    0    0 -0.00000000000E+00 -0.00000000000E+00 -0.74505805969E-08  0.93827000000E+00  0.93827000000E+00 0. -1.
     999902    2    1    2    0    0 -0.40972309159E-02  0.19324343634E-01  0.13291052987E-01  0.10201209755E+01  0.10198430933E+01 0.  0.
     999903    2    3    3    0    0  0.10051988575E+00 -0.77587049825E-01 -0.15447169235E-02  0.12851755506E+00  0.19757987653E-01 0.  0.
         14    1    1    2    0    0  0.40972309159E-02 -0.19324343634E-01 -0.13291052987E-01  0.23809024498E-01  0.00000000000E+00 0.  1.
     999901    1    3    3    0    0 -0.10461711666E+00  0.96911393459E-01  0.14835769910E-01  0.89160342045E+00  0.88000000000E+00 0. -1.
        -11    1    4    4    0    0  0.73520018428E-01 -0.64574350179E-01 -0.67773495871E-02  0.98087886098E-01  0.51100000000E-03 0.  1.
         11    1    4    4    0    0  0.26999867319E-01 -0.13012699646E-01  0.52326326635E-02  0.30429668958E-01  0.51100000000E-03 0. -1.
</event>
<event>
 8    1  0.1180500E+005  0.1043930E+01  0.7957747E-01            NaN
         13   -1    0    0    0    0  0.00000000000E+00  0.00000000000E+00  0.74505805969E-08  0.10566000000E+00  0.10566000000E+00 0. -1.
     999900   -1    0    0    0    0 -0.00000000000E+00 -0.00000000000E+00 -0.74505805969E-08  0.93827000000E+00  0.93827000000E+00 0. -1.
     999902    2    1    2    0    0  0.59149987405E-02  0.19527917230E-01  0.13127373034E-01  0.10196677931E+01  0.10193791020E+01 0.  0.
     999903    2    3    3    0    0 -0.68449562182E-01  0.31891087347E-01  0.10599391756E+00  0.13157594480E+00  0.19368393734E-01 0.  0.
         14    1    1    2    0    0 -0.59149987405E-02 -0.19527917230E-01 -0.13127373034E-01  0.24262206912E-01  0.00000000000E+00 0.  1.
     999901    1    3    3    0    0  0.74364560923E-01 -0.12363170117E-01 -0.92866544528E-01  0.88809184828E+00  0.88000000000E+00 0. -1.
        -11    1    4    4    0    0 -0.26931029268E-02  0.13881296847E-02  0.14626384601E-01  0.14945633305E-01  0.51100000000E-03 0. -1.
         11    1    4    4    0    0 -0.65756459255E-01  0.30502957662E-01  0.91367532961E-01  0.11663031150E+00  0.51100000000E-03 0.  1.
</event>
<event>
 8    1  0.1180500E+005  0.1043930E+01  0.7957747E-01            NaN
         13   -1    0    0    0    0  0.00000000000E+00  0.00000000000E+00  0.74505805969E-08  0.10566000000E+00  0.10566000000E+00 0.  1.
     999900   -1    0    0    0    0 -0.00000000000E+00 -0.00000000000E+00 -0.74505805969E-08  0.93827000000E+00  0.93827000000E+00 0. -1.
     999902    2    1    2    0    0  0.13532907472E-01  0.89038054901E-03 -0.19191645357E-01  0.10204299657E+01  0.10201593323E+01 0.  0.
     999903    2    3    3    0    0 -0.79715522499E-01 -0.61463877326E-01  0.76807511610E-01  0.12813003778E+00  0.19635172488E-01 0.  0.
         14    1    1    2    0    0 -0.13532907472E-01 -0.89038054901E-03  0.19191645357E-01  0.23500034333E-01  0.00000000000E+00 0.  1.
     999901    1    3    3    0    0  0.93248429971E-01  0.62354257876E-01 -0.95999156966E-01  0.89229992789E+00  0.88000000000E+00 0. -1.
        -11    1    4    4    0    0 -0.30442123181E-01 -0.12286407165E-01  0.27383434994E-01  0.42752687610E-01  0.51100000000E-03 0.  1.
         11    1    4    4    0    0 -0.49273399317E-01 -0.49177470161E-01  0.49424076615E-01  0.85377350170E-01  0.51100000000E-03 0. -1.
</event>
<event>
 8    1  0.1180500E+005  0.1043930E+01  0.7957747E-01            NaN
         13   -1    0    0    0    0  0.00000000000E+00  0.00000000000E+00  0.74505805969E-08  0.10566000000E+00  0.10566000000E+00 0.  1.
     999900   -1    0    0    0    0 -0.00000000000E+00 -0.00000000000E+00 -0.74505805969E-08  0.93827000000E+00  0.93827000000E+00 0. -1.
     999902    2    1    2    0    0  0.19001072966E-01  0.12806467864E-01  0.53660838623E-04  0.10210160463E+01  0.10207588930E+01 0.  0.
     999903    2    3    3    0    0 -0.10433561269E+00  0.75124712683E-01  0.29387332593E-02  0.13022772956E+00  0.20517866879E-01 0.  0.
         14    1    1    2    0    0 -0.19001072966E-01 -0.12806467864E-01 -0.53660838623E-04  0.22913953664E-01  0.00000000000E+00 0.  1.
     999901    1    3    3    0    0  0.12333668566E+00 -0.62318244819E-01 -0.28850724207E-02  0.89078831678E+00  0.88000000000E+00 0. -1.
        -11    1    4    4    0    0 -0.29138408802E-01  0.12970065336E-01 -0.52342163755E-02  0.32325339974E-01  0.51100000000E-03 0. -1.
         11    1    4    4    0    0 -0.75197203889E-01  0.62154647347E-01  0.81729496348E-02  0.97902389584E-01  0.51100000000E-03 0.  1.
</event>
<event>
 8    1  0.1180500E+005  0.1043930E+01  0.7957747E-01            NaN
         13   -1    0    0    0    0  0.00000000000E+00  0.00000000000E+00  0.74505805969E-08  0.10566000000E+00  0.10566000000E+00 0.  1.
     999900   -1    0    0    0    0 -0.00000000000E+00 -0.00000000000E+00 -0.74505805969E-08  0.93827000000E+00  0.93827000000E+00 0.  1.
     999902    2    1    2    0    0 -0.10980082694E-01 -0.19999917309E-01 -0.62495492730E-02  0.10202738005E+01  0.10199995158E+01 0.  0.
     999903    2    3    3    0    0  0.89863392494E-01 -0.83347689226E-01  0.40680428516E-01  0.13101300102E+00  0.22073571560E-01 0.  0.
         14    1    1    2    0    0  0.10980082694E-01  0.19999917309E-01  0.62495492730E-02  0.23656199493E-01  0.00000000000E+00 0. -1.
     999901    1    3    3    0    0 -0.10084347519E+00  0.63347771917E-01 -0.46929977789E-01  0.88926079949E+00  0.88000000000E+00 0.  1.
        -11    1    4    4    0    0  0.69167802418E-01 -0.75343021330E-01  0.31824281028E-01  0.10711583328E+00  0.51100000000E-03 0.  1.
         11    1    4    4    0    0  0.20695590076E-01 -0.80046678962E-02  0.88561474872E-02  0.23897167741E-01  0.51100000000E-03 0. -1.
</event>
<event>
 8    1  0.1180500E+005  0.1043930E+01  0.7957747E-01            NaN
         13   -1    0    0    0    0  0.00000000000E+00  0.00000000000E+00  0.74505805969E-08  0.10566000000E+00  0.10566000000E+00 0.  1.
     999900   -1    0    0    0    0 -0.00000000000E+00 -0.00000000000E+00 -0.74505805969E-08  0.93827000000E+00  0.93827000000E+00 0. -1.
     999902    2    1    2    0    0 -0.19849289344E-01 -0.68918481352E-02  0.11840622518E-01  0.10198117040E+01  0.10195264683E+01 0.  0.
     999903    2    3    3    0    0  0.66216518288E-01 -0.31067506606E-01 -0.10281609407E+00  0.12788236359E+00  0.20807029015E-01 0.  0.
         14    1    1    2    0    0  0.19849289344E-01  0.68918481352E-02 -0.11840622518E-01  0.24118295955E-01  0.00000000000E+00 0.  1.
     999901    1    3    3    0    0 -0.86065807632E-01  0.24175658471E-01  0.11465671659E+00  0.89192934046E+00  0.88000000000E+00 0.  1.
        -11    1    4    4    0    0  0.39126331295E-01 -0.90040417386E-02 -0.64939406543E-01  0.76350050500E-01  0.51100000000E-03 0.  1.
         11    1    4    4    0    0  0.27090186993E-01 -0.22063464868E-01 -0.37876687528E-01  0.51532313090E-01  0.51100000000E-03 0. -1.
</event>
<event>
 8    1  0.1180500E+005  0.1043930E+01  0.7957747E-01            NaN
         13   -1    0    0    0    0  0.00000000000E+00  0.00000000000E+00  0.74505805969E-08  0.10566000000E+00  0.10566000000E+00 0. -1.
     999900   -1    0    0    0    0 -0.00000000000E+00 -0.00000000000E+00 -0.74505805969E-08  0.93827000000E+00  0.93827000000E+00 0.  1.
     999902    2    1    2    0    0  0.15916559917E-01  0.16929933575E-01 -0.64115552878E-02  0.10198246568E+01  0.10195397310E+01 0.  0.
     999903    2    3    3    0    0 -0.37185262449E-01 -0.88926030951E-01  0.81121879102E-01  0.12758736161E+00  0.20179020019E-01 0.  0.
         14    1    1    2    0    0 -0.15916559917E-01 -0.16929933575E-01  0.64115552878E-02  0.24105343218E-01  0.00000000000E+00 0. -1.
     999901    1    3    3    0    0  0.53101822366E-01  0.10585596453E+00 -0.87533434389E-01  0.89223729517E+00  0.88000000000E+00 0. -1.
        -11    1    4    4    0    0 -0.25798531177E-01 -0.43434134583E-01  0.51358540911E-01  0.72041995414E-01  0.51100000000E-03 0. -1.
         11    1    4    4    0    0 -0.11386731272E-01 -0.45491896369E-01  0.29763338191E-01  0.55545366193E-01  0.51100000000E-03 0.  1.
</event>
<event>
 8    1  0.1180500E+005  0.1043930E+01  0.7957747E-01            NaN
         13   -1    0    0    0    0  0.00000000000E+00  0.00000000000E+00  0.74505805969E-08  0.10566000000E+00  0.10566000000E+00 0.  1.
     999900   -1    0    0    0    0 -0.00000000000E+00 -0.00000000000E+00 -0.74505805969E-08  0.93827000000E+00  0.93827000000E+00 0. -1.
     999902    2    1    2    0    0 -0.10386161378E-01  0.20926155470E-01  0.43213188121E-02  0.10201718408E+01  0.10198951587E+01 0.  0.
     999903    2    3    3    0    0 -0.13290679891E-01 -0.11616678786E+00 -0.47941773180E-01  0.12802031663E+00  0.20479821326E-01 0.  0.
         14    1    1    2    0    0  0.10386161378E-01 -0.20926155470E-01 -0.43213188121E-02  0.23758159172E-01  0.00000000000E+00 0. -1.
     999901    1    3    3    0    0  0.29045185130E-02  0.13709294333E+00  0.52263091992E-01  0.89215152419E+00  0.88000000000E+00 0. -1.
        -11    1    4    4    0    0 -0.12082292049E-01 -0.42394488671E-01 -0.25354254993E-01  0.50856403904E-01  0.51100000000E-03 0.  1.
         11    1    4    4    0    0 -0.12083878426E-02 -0.73772299190E-01 -0.22587518188E-01  0.77163912730E-01  0.51100000000E-03 0. -1.
</event>
<event>
 8    1  0.1180500E+005  0.1043930E+01  0.7957747E-01            NaN
         13   -1    0    0    0    0  0.00000000000E+00  0.00000000000E+00  0.74505805969E-08  0.10566000000E+00  0.10566000000E+00 0. -1.
     999900   -1    0    0    0    0 -0.00000000000E+00 -0.00000000000E+00 -0.74505805969E-08  0.93827000000E+00  0.93827000000E+00 0.  1.
     999902    2    1    2    0    0 -0.25906251493E-01  0.12426492574E-01 -0.21344479666E-01  0.10081370063E+01  0.10075014070E+01 0.  0.
     999903    2    3    3    0    0 -0.10242060329E-01 -0.91787329278E-02 -0.11969616887E+00  0.12225597175E+00  0.20741283684E-01 0.  0.
         14    1    1    2    0    0  0.25906251493E-01 -0.12426492574E-01  0.21344479666E-01  0.35792993676E-01  0.00000000000E+00 0. -1.
     999901    1    3    3    0    0 -0.15664191164E-01  0.21605225501E-01  0.98351689199E-01  0.88588103458E+00  0.88000000000E+00 0. -1.
        -11    1    4    4    0    0 -0.10473782335E-01 -0.12937100033E-02 -0.23864662032E-01  0.26098984978E-01  0.51100000000E-03 0.  1.
         11    1    4    4    0    0  0.23172200642E-03 -0.78850229245E-02 -0.95831506833E-01  0.96156986769E-01  0.51100000000E-03 0. -1.
</event>
<event>
 8    1  0.1180500E+005  0.1043930E+01  0.7957747E-01            NaN
         13   -1    0    0    0    0  0.00000000000E+00  0.00000000000E+00  0.74505805969E-08  0.10566000000E+00  0.10566000000E+00 0. -1.
     999900   -1    0    0    0    0 -0.00000000000E+00 -0.00000000000E+00 -0.74505805969E-08  0.93827000000E+00  0.93827000000E+00 0.  1.
     999902    2    1    2    0    0  0.14627980222E-01 -0.20304779492E-01  0.35515472193E-02  0.10186540161E+01  0.10183403798E+01 0.  0.
     999903    2    3    3    0    0 -0.85542887138E-01  0.80948176605E-01  0.41077423081E-01  0.12641270615E+00  0.20557839214E-01 0.  0.
         14    1    1    2    0    0 -0.14627980222E-01  0.20304779492E-01 -0.35515472193E-02  0.25275983922E-01  0.00000000000E+00 0. -1.
     999901    1    3    3    0    0  0.10017086736E+00 -0.10125295610E+00 -0.37525875862E-01  0.89224130993E+00  0.88000000000E+00 0. -1.
        -11    1    4    4    0    0 -0.55396603269E-01  0.38874177331E-01  0.25996812618E-01  0.72498832433E-01  0.51100000000E-03 0.  1.
         11    1    4    4    0    0 -0.30146283870E-01  0.42073999274E-01  0.15080610463E-01  0.53913873715E-01  0.51100000000E-03 0. -1.
</event>
<event>
 8    1  0.1180500E+005  0.1043930E+01  0.7957747E-01            NaN
         13   -1    0    0    0    0  0.00000000000E+00  0.00000000000E+00  0.74505805969E-08  0.10566000000E+00  0.10566000000E+00 0.  1.
     999900   -1    0    0    0    0 -0.00000000000E+00 -0.00000000000E+00 -0.74505805969E-08  0.93827000000E+00  0.93827000000E+00 0. -1.
     999902    2    1    2    0    0  0.34239826311E-02 -0.43897432892E-02  0.22985926804E-01  0.10202794961E+01  0.10200053450E+01 0.  0.
     999903    2    3    3    0    0 -0.98187835239E-01  0.79033076267E-01  0.28201713926E-01  0.13049776288E+00  0.18634680453E-01 0.  0.
         14    1    1    2    0    0 -0.34239826311E-02  0.43897432892E-02 -0.22985926804E-01  0.23650503889E-01  0.00000000000E+00 0. -1.
     999901    1    3    3    0    0  0.10161181787E+00 -0.83422819556E-01 -0.52157871220E-02  0.88978173323E+00  0.88000000000E+00 0. -1.
        -11    1    4    4    0    0 -0.51226387336E-01  0.32226023167E-01  0.19705456197E-01  0.63649237651E-01  0.51100000000E-03 0.  1.
         11    1    4    4    0    0 -0.46961447903E-01  0.46807053100E-01  0.84962577287E-02  0.66848525230E-01  0.51100000000E-03 0. -1.
</event>
<event>
 8    1  0.1180500E+005  0.1043930E+01  0.7957747E-01            NaN
         13   -1    0    0    0    0  0.00000000000E+00  0.00000000000E+00  0.74505805969E-08  0.10566000000E+00  0.10566000000E+00 0. -1.
     999900   -1    0    0    0    0 -0.00000000000E+00 -0.00000000000E+00 -0.74505805969E-08  0.93827000000E+00  0.93827000000E+00 0. -1.
     999902    2    1    2    0    0 -0.16660295946E-01 -0.62357425427E-02  0.15855536558E-01  0.10201004388E+01  0.10198220714E+01 0.  0.
     999903    2    3    3    0    0 -0.28979750522E-01  0.12528284977E+00  0.15518260970E-02  0.13012655988E+00  0.19871966006E-01 0.  0.
         14    1    1    2    0    0  0.16660295946E-01  0.62357425427E-02 -0.15855536558E-01  0.23829561171E-01  0.00000000000E+00 0.  1.
     999901    1    3    3    0    0  0.12319454576E-01 -0.13151859232E+00  0.14303710461E-01  0.88997387895E+00  0.88000000000E+00 0.  1.
        -11    1    4    4    0    0 -0.18897632353E-01  0.45869055079E-01  0.58655997983E-02  0.49957553026E-01  0.51100000000E-03 0.  1.
         11    1    4    4    0    0 -0.10082118170E-01  0.79413794695E-01 -0.43137737013E-02  0.80169006849E-01  0.51100000000E-03 0. -1.
</event>
<event>
 8    1  0.1180500E+005  0.1043930E+01  0.7957747E-01            NaN
         13   -1    0    0    0    0  0.00000000000E+00  0.00000000000E+00  0.74505805969E-08  0.10566000000E+00  0.10566000000E+00 0. -1.
     999900   -1    0    0    0    0 -0.00000000000E+00 -0.00000000000E+00 -0.74505805969E-08  0.93827000000E+00  0.93827000000E+00 0. -1.
     999902    2    1    2    0    0  0.19075870989E-01  0.73686609692E-02  0.12297011481E-01  0.10200678436E+01  0.10197887051E+01 0.  0.
     999903    2    3    3    0    0 -0.30552878946E-01  0.61283239762E-01 -0.10743755713E+00  0.12894149924E+00  0.19848618502E-01 0.  0.
         14    1    1    2    0    0 -0.19075870989E-01 -0.73686609692E-02 -0.12297011481E-01  0.23862156437E-01  0.00000000000E+00 0.  1.
     999901    1    3    3    0    0  0.49628749935E-01 -0.53914578793E-01  0.11973456861E+00  0.89112634432E+00  0.88000000000E+00 0.  1.
        -11    1    4    4    0    0 -0.16464099001E-01  0.35752026089E-01 -0.43502770219E-01  0.58668782697E-01  0.51100000000E-03 0.  1.
         11    1    4    4    0    0 -0.14088779945E-01  0.25531213673E-01 -0.63934786910E-01  0.70272716542E-01  0.51100000000E-03 0. -1.
</event>
<event>
 8    1  0.1180500E+005  0.1043930E+01  0.7957747E-01            NaN
         13   -1    0    0    0    0  0.00000000000E+00  0.00000000000E+00  0.74505805969E-08  0.10566000000E+00  0.10566000000E+00 0.  1.
     999900   -1    0    0    0    0 -0.00000000000E+00 -0.00000000000E+00 -0.74505805969E-08  0.93827000000E+00  0.93827000000E+00 0.  1.
     999902    2    1    2    0    0  0.18608508887E-01 -0.17480122627E-01  0.13993385084E-01  0.10148156373E+01  0.10143979158E+01 0.  0.
     999903    2    3    3    0    0  0.80805938835E-01 -0.97923179624E-01  0.96843116051E-02  0.12894986087E+00  0.20389503887E-01 0.  0.
         14    1    1    2    0    0 -0.18608508887E-01  0.17480122627E-01 -0.13993385084E-01  0.29114362712E-01  0.00000000000E+00 0. -1.
     999901    1    3    3    0    0 -0.62197429948E-01  0.80443056997E-01  0.43090734784E-02  0.88586577642E+00  0.88000000000E+00 0. -1.
        -11    1    4    4    0    0  0.71107249172E-01 -0.84691431840E-01  0.15220093675E-01  0.11162791714E+00  0.51100000000E-03 0. -1.
         11    1    4    4    0    0  0.96986896630E-02 -0.13231747784E-01 -0.55357820699E-02  0.17321943734E-01  0.51100000000E-03 0.  1.
</event>
<event>
 8    1  0.1180500E+005  0.1043930E+01  0.7957747E-01            NaN
         13   -1    0    0    0    0  0.00000000000E+00  0.00000000000E+00  0.74505805969E-08  0.10566000000E+00  0.10566000000E+00 0. -1.
     999900   -1    0    0    0    0 -0.00000000000E+00 -0.00000000000E+00 -0.74505805969E-08  0.93827000000E+00  0.93827000000E+00 0.  1.
     999902    2    1    2    0    0 -0.16388356651E-01  0.15774922123E-01  0.84867762088E-02  0.10196513721E+01  0.10193622854E+01 0.  0.
     999903    2    3    3    0    0  0.37734110845E-01  0.32389693814E-01  0.11656032188E+00  0.13123413714E+00  0.34104761073E-01 0.  0.
         14    1    1    2    0    0  0.16388356651E-01 -0.15774922123E-01 -0.84867762088E-02  0.24278627889E-01  0.00000000000E+00 0.  1.
     999901    1    3    3    0    0 -0.54122467497E-01 -0.16614771690E-01 -0.10807354567E+00  0.88841723497E+00  0.88000000000E+00 0.  1.
        -11    1    4    4    0    0  0.27291937705E-01  0.13660843119E-02  0.58793058988E-01  0.64835183012E-01  0.51100000000E-03 0. -1.
         11    1    4    4    0    0  0.10442173140E-01  0.31023609502E-01  0.57767262888E-01  0.66398954125E-01  0.51100000000E-03 0.  1.
</event>
<event>
 8    1  0.1180500E+005  0.1043930E+01  0.7957747E-01            NaN
         13   -1    0    0    0    0  0.00000000000E+00  0.00000000000E+00  0.74505805969E-08  0.10566000000E+00  0.10566000000E+00 0.  1.
     999900   -1    0    0    0    0 -0.00000000000E+00 -0.00000000000E+00 -0.74505805969E-08  0.93827000000E+00  0.93827000000E+00 0.  1.
     999902    2    1    2    0    0  0.27691490291E-02  0.20668293696E-01  0.10957604532E-01  0.10203733524E+01  0.10201013982E+01 0.  0.
     999903    2    3    3    0    0  0.81185046508E-01  0.55574878157E-01 -0.84245332731E-01  0.13108649095E+00  0.20169609943E-01 0.  0.
         14    1    1    2    0    0 -0.27691490291E-02 -0.20668293696E-01 -0.10957604532E-01  0.23556647633E-01  0.00000000000E+00 0. -1.
     999901    1    3    3    0    0 -0.78415897479E-01 -0.34906584461E-01  0.95202937263E-01  0.88928686141E+00  0.88000000000E+00 0. -1.
        -11    1    4    4    0    0  0.59981542529E-01  0.50786539766E-01 -0.68253657399E-01  0.10409553754E+00  0.51100000000E-03 0. -1.
         11    1    4    4    0    0  0.21203503979E-01  0.47883383906E-02 -0.15991675332E-01  0.26990953418E-01  0.51100000000E-03 0.  1.
</event>
<event>
 8    1  0.1180500E+005  0.1043930E+01  0.7957747E-01            NaN
         13   -1    0    0    0    0  0.00000000000E+00  0.00000000000E+00  0.74505805969E-08  0.10566000000E+00  0.10566000000E+00 0.  1.
     999900   -1    0    0    0    0 -0.00000000000E+00 -0.00000000000E+00 -0.74505805969E-08  0.93827000000E+00  0.93827000000E+00 0. -1.
     999902    2    1    2    0    0  0.98397328035E-02 -0.16200661528E-01 -0.14437552071E-01  0.10201030261E+01  0.10198247198E+01 0.  0.
     999903    2    3    3    0    0 -0.38358098700E-01  0.63374602324E-01  0.10187805952E+00  0.12758715785E+00  0.20289403159E-01 0.  0.
         14    1    1    2    0    0 -0.98397328035E-02  0.16200661528E-01  0.14437552071E-01  0.23826973903E-01  0.00000000000E+00 0. -1.
     999901    1    3    3    0    0  0.48197831503E-01 -0.79575263851E-01 -0.11631561159E+00  0.89251586825E+00  0.88000000000E+00 0.  1.
        -11    1    4    4    0    0 -0.12496786544E-01  0.81227378528E-02  0.12990091997E-01  0.19777566969E-01  0.51100000000E-03 0.  1.
         11    1    4    4    0    0 -0.25861312156E-01  0.55251864471E-01  0.88887967522E-01  0.10780959088E+00  0.51100000000E-03 0. -1.
</event>
<event>
 8    1  0.1180500E+005  0.1043930E+01  0.7957747E-01            NaN
         13   -1    0    0    0    0  0.00000000000E+00  0.00000000000E+00  0.74505805969E-08  0.10566000000E+00  0.10566000000E+00 0.  1.
     999900   -1    0    0    0    0 -0.00000000000E+00 -0.00000000000E+00 -0.74505805969E-08  0.93827000000E+00  0.93827000000E+00 0.  1.
     999902    2    1    2    0    0 -0.78762429135E-02  0.54204334863E-02 -0.21814881586E-01  0.10201118271E+01  0.10198337288E+01 0.  0.
     999903    2    3    3    0    0 -0.33594062936E-01 -0.12104823886E+00  0.24773904288E-01  0.12947932920E+00  0.19233126660E-01 0.  0.
         14    1    1    2    0    0  0.78762429135E-02 -0.54204334863E-02  0.21814881586E-01  0.23818172898E-01  0.00000000000E+00 0.  1.
     999901    1    3    3    0    0  0.25717820022E-01  0.12646867234E+00 -0.46588785874E-01  0.89063249790E+00  0.88000000000E+00 0.  1.
        -11    1    4    4    0    0 -0.59758567373E-02 -0.31959888236E-01  0.14628464377E-01  0.35656674141E-01  0.51100000000E-03 0. -1.
         11    1    4    4    0    0 -0.27618206199E-01 -0.89088350621E-01  0.10145439912E-01  0.93822655058E-01  0.51100000000E-03 0.  1.
</event>
<event>
 8    1  0.1180500E+005  0.1043930E+01  0.7957747E-01            NaN
         13   -1    0    0    0    0  0.00000000000E+00  0.00000000000E+00  0.74505805969E-08  0.10566000000E+00  0.10566000000E+00 0. -1.
     999900   -1    0    0    0    0 -0.00000000000E+00 -0.00000000000E+00 -0.74505805969E-08  0.93827000000E+00  0.93827000000E+00 0.  1.
     999902    2    1    2    0    0  0.11221598386E-01 -0.18510606434E-01 -0.79226861934E-02  0.10208792782E+01  0.10206190106E+01 0.  0.
     999903    2    3    3    0    0  0.12117229544E+00 -0.58216502881E-02  0.48478495748E-01  0.13215476589E+00  0.19952463528E-01 0.  0.
         14    1    1    2    0    0 -0.11221598386E-01  0.18510606434E-01  0.79226861934E-02  0.23050721841E-01  0.00000000000E+00 0. -1.
     999901    1    3    3    0    0 -0.10995069706E+00 -0.12688956145E-01 -0.56401181941E-01  0.88872451227E+00  0.88000000000E+00 0.  1.
        -11    1    4    4    0    0  0.87976444931E-01 -0.13894334802E-02  0.25758716609E-01  0.91681830209E-01  0.51100000000E-03 0.  1.
         11    1    4    4    0    0  0.33195850513E-01 -0.44322168079E-02  0.22719779139E-01  0.40472935676E-01  0.51100000000E-03 0. -1.
</event>
<event>
 8    1  0.1180500E+005  0.1043930E+01  0.7957747E-01            NaN
         13   -1    0    0    0    0  0.00000000000E+00  0.00000000000E+00  0.74505805969E-08  0.10566000000E+00  0.10566000000E+00 0.  1.
     999900   -1    0    0    0    0 -0.00000000000E+00 -0.00000000000E+00 -0.74505805969E-08  0.93827000000E+00  0.93827000000E+00 0. -1.
     999902    2    1    2    0    0  0.12168104101E-01  0.12524097847E-01 -0.15554730536E-01  0.10205448460E+01  0.10202768827E+01 0.  0.
     999903    2    3    3    0    0  0.10535420914E+00 -0.59265696785E-01  0.45216393021E-01  0.13064004536E+00  0.20257518477E-01 0.  0.
         14    1    1    2    0    0 -0.12168104101E-01 -0.12524097847E-01  0.15554730536E-01  0.23385153972E-01  0.00000000000E+00 0.  1.
     999901    1    3    3    0    0 -0.93186105044E-01  0.71789794632E-01 -0.60771123557E-01  0.88990480066E+00  0.88000000000E+00 0.  1.
        -11    1    4    4    0    0  0.51542504923E-01 -0.34610903022E-01  0.13703994237E-01  0.63581483159E-01  0.51100000000E-03 0.  1.
         11    1    4    4    0    0  0.53811704222E-01 -0.24654793763E-01  0.31512398784E-01  0.67058562204E-01  0.51100000000E-03 0. -1.
</event>
<event>
 8    1  0.1180500E+005  0.1043930E+01  0.7957747E-01            NaN
         13   -1    0    0    0    0  0.00000000000E+00  0.00000000000E+00  0.74505805969E-08  0.10566000000E+00  0.10566000000E+00 0. -1.
     999900   -1    0    0    0    0 -0.00000000000E+00 -0.00000000000E+00 -0.74505805969E-08  0.93827000000E+00  0.93827000000E+00 0. -1.
     999902    2    1    2    0    0 -0.11881956199E-01 -0.51824312845E-02 -0.17377850446E-01  0.10222498671E+01  0.10220199424E+01 0.  0.
     999903    2    3    3    0    0  0.12854561696E+00  0.11593002624E-01  0.45108565751E-02  0.13068919389E+00  0.20023591696E-01 0.  0.
         14    1    1    2    0    0  0.11881956199E-01  0.51824312845E-02  0.17377850446E-01  0.21680132916E-01  0.00000000000E+00 0. -1.
     999901    1    3    3    0    0 -0.14042757316E+00 -0.16775433908E-01 -0.21888707021E-01  0.89156067319E+00  0.88000000000E+00 0.  1.
        -11    1    4    4    0    0  0.87554370402E-01 -0.73574146196E-03 -0.72529109629E-03  0.87561956694E-01  0.51100000000E-03 0. -1.
         11    1    4    4    0    0  0.40991246556E-01  0.12328744086E-01  0.52361476714E-02  0.43127237199E-01  0.51100000000E-03 0.  1.
</event>
<event>
 7    1  0.1180500E+005  0.1043930E+01  0.7957747E-01            NaN
         13   -1    0    0    0    0  0.00000000000E+00  0.00000000000E+00  0.74505805969E-08  0.10566000000E+00  0.10566000000E+00 0. -1.
     999900   -1    0    0    0    0 -0.00000000000E+00 -0.00000000000E+00 -0.74505805969E-08  0.93827000000E+00  0.93827000000E+00 0.  1.
     999903    2    1    2    0    0 -0.18964712448E-01  0.10074465773E+00 -0.23400887074E-01  0.10699084243E+00  0.19755821128E-01 0.  0.
         14    1    1    2    0    0 -0.38786788576E-01 -0.35101608381E-01  0.17836733122E-02  0.52342328659E-01  0.00000000000E+00 0.  1.
     999901    1    1    2    0    0  0.57751501024E-01 -0.65643049345E-01  0.21617213762E-01  0.88459682892E+00  0.88000000000E+00 0. -1.
        -11    1    3    3    0    0 -0.10476694325E-01  0.52841992951E-01 -0.22357787870E-01  0.58328116226E-01  0.51100000000E-03 0. -1.
         11    1    3    3    0    0 -0.84880181238E-02  0.47902664774E-01 -0.10430992038E-02  0.48662726199E-01  0.51100000000E-03 0.  1.
</event>
<event>
 8    1  0.1180500E+005  0.1043930E+01  0.7957747E-01            NaN
         13   -1    0    0    0    0  0.00000000000E+00  0.00000000000E+00  0.74505805969E-08  0.10566000000E+00  0.10566000000E+00 0.  1.
     999900   -1    0    0    0    0 -0.00000000000E+00 -0.00000000000E+00 -0.74505805969E-08  0.93827000000E+00  0.93827000000E+00 0.  1.
     999902    2    1    2    0    0  0.14348433832E-01  0.18801623372E-01 -0.12579559260E-02  0.10202453837E+01  0.10199704319E+01 0.  0.
     999903    2    3    3    0    0  0.20570515542E-01 -0.83431203730E-01  0.94403927541E-01  0.12915534272E+00  0.19623688541E-01 0.  0.
         14    1    1    2    0    0 -0.14348433832E-01 -0.18801623372E-01  0.12579559260E-02  0.23684616272E-01  0.00000000000E+00 0. -1.
     999901    1    3    3    0    0 -0.62220817099E-02  0.10223282710E+00 -0.95661883467E-01  0.89109004101E+00  0.88000000000E+00 0.  1.
        -11    1    4    4    0    0  0.90409753354E-02 -0.32271158214E-01  0.51252760785E-01  0.61239476619E-01  0.51100000000E-03 0.  1.
         11    1    4    4    0    0  0.11529540207E-01 -0.51160045516E-01  0.43151166757E-01  0.67915866100E-01  0.51100000000E-03 0. -1.
</event>
<event>
 8    1  0.1180500E+005  0.1043930E+01  0.7957747E-01            NaN
         13   -1    0    0    0    0  0.00000000000E+00  0.00000000000E+00  0.74505805969E-08  0.10566000000E+00  0.10566000000E+00 0. -1.
     999900   -1    0    0    0    0 -0.00000000000E+00 -0.00000000000E+00 -0.74505805969E-08  0.93827000000E+00  0.93827000000E+00 0. -1.
     999902    2    1    2    0    0  0.93489370565E-02  0.11346991638E-03 -0.21399000695E-01  0.10205776397E+01  0.10203104361E+01 0.  0.
     999903    2    3    3    0    0  0.11902396483E+00 -0.46565547280E-01  0.18208404510E-01  0.13165903327E+00  0.25836033943E-01 0.  0.
         14    1    1    2    0    0 -0.93489370565E-02 -0.11346991638E-03  0.21399000695E-01  0.23352360272E-01  0.00000000000E+00 0. -1.
     999901    1    3    3    0    0 -0.10967502777E+00  0.46679017197E-01 -0.39607405205E-01  0.88891860646E+00  0.88000000000E+00 0. -1.
        -11    1    4    4    0    0  0.17390985111E-01 -0.28323598625E-02  0.11004885696E-01  0.20780694303E-01  0.51100000000E-03 0.  1.
         11    1    4    4    0    0  0.10163297972E+00 -0.43733187418E-01  0.72035188140E-02  0.11087833897E+00  0.51100000000E-03 0. -1.
</event>
<event>
 8    1  0.1180500E+005  0.1043930E+01  0.7957747E-01            NaN
         13   -1    0    0    0    0  0.00000000000E+00  0.00000000000E+00  0.74505805969E-08  0.10566000000E+00  0.10566000000E+00 0. -1.
     999900   -1    0    0    0    0 -0.00000000000E+00 -0.00000000000E+00 -0.74505805969E-08  0.93827000000E+00  0.93827000000E+00 0. -1.
     999902    2    1    2    0    0  0.23128000979E-01  0.10861321348E-02 -0.37414983372E-02  0.10204761534E+01  0.10202065951E+01 0.  0.
     999903    2    3    3    0    0 -0.36316022514E-02 -0.10471258274E+00 -0.75292795460E-01  0.13085318122E+00  0.21809091425E-01 0.  0.
         14    1    1    2    0    0 -0.23128000979E-01 -0.10861321348E-02  0.37414983372E-02  0.23453846637E-01  0.00000000000E+00 0. -1.
     999901    1    3    3    0    0  0.26759603230E-01  0.10579871488E+00  0.71551297123E-01  0.88962297214E+00  0.88000000000E+00 0.  1.
        -11    1    4    4    0    0  0.12046097958E-02 -0.48402815028E-01 -0.47656767645E-01  0.67939033043E-01  0.51100000000E-03 0. -1.
         11    1    4    4    0    0 -0.48362120472E-02 -0.56309767715E-01 -0.27636027816E-01  0.62914148182E-01  0.51100000000E-03 0.  1.
</event>
<event>
 8    1  0.1180500E+005  0.1043930E+01  0.7957747E-01            NaN
         13   -1    0    0    0    0  0.00000000000E+00  0.00000000000E+00  0.74505805969E-08  0.10566000000E+00  0.10566000000E+00 0.  1.
     999900   -1    0    0    0    0 -0.00000000000E+00 -0.00000000000E+00 -0.74505805969E-08  0.93827000000E+00  0.93827000000E+00 0.  1.
     999902    2    1    2    0    0 -0.12125429016E-01  0.51684654680E-02 -0.20573562824E-01  0.10194962006E+01  0.10192033617E+01 0.  0.
     999903    2    3    3    0    0 -0.76455716733E-01 -0.92373829602E-01  0.44352051071E-01  0.12940169971E+00  0.19982353117E-01 0.  0.
         14    1    1    2    0    0  0.12125429016E-01 -0.51684654680E-02  0.20573562824E-01  0.24433799365E-01  0.00000000000E+00 0.  1.
     999901    1    3    3    0    0  0.64330287716E-01  0.97542295070E-01 -0.64925613895E-01  0.89009450093E+00  0.88000000000E+00 0.  1.
        -11    1    4    4    0    0 -0.68562527003E-01 -0.76460189681E-01  0.31336588940E-01  0.10737422243E+00  0.51100000000E-03 0.  1.
         11    1    4    4    0    0 -0.78931897297E-02 -0.15913639920E-01  0.13015462131E-01  0.22027477275E-01  0.51100000000E-03 0. -1.
</event>
<event>
 8    1  0.1180500E+005  0.1043930E+01  0.7957747E-01            NaN
         13   -1    0    0    0    0  0.00000000000E+00  0.00000000000E+00  0.74505805969E-08  0.10566000000E+00  0.10566000000E+00 0. -1.
     999900   -1    0    0    0    0 -0.00000000000E+00 -0.00000000000E+00 -0.74505805969E-08  0.93827000000E+00  0.93827000000E+00 0.  1.
     999902    2    1    2    0    0 -0.17394021610E-01  0.13219911729E-01  0.51293091131E-02  0.10214883453E+01  0.10212417988E+01 0.  0.
     999903    2    3    3    0    0 -0.57219599327E-01 -0.50957714234E-01  0.10623622665E+00  0.13248471589E+00  0.19881974392E-01 0.  0.
         14    1    1    2    0    0  0.17394021610E-01 -0.13219911729E-01 -0.51293091131E-02  0.22441654704E-01  0.00000000000E+00 0.  1.
     999901    1    3    3    0    0  0.39825577717E-01  0.64177625963E-01 -0.10110691754E+00  0.88900362940E+00  0.88000000000E+00 0.  1.
        -11    1    4    4    0    0 -0.43036783608E-01 -0.40198206037E-01  0.93827000535E-01  0.11077828155E+00  0.51100000000E-03 0.  1.
         11    1    4    4    0    0 -0.14182815718E-01 -0.10759508197E-01  0.12409226115E-01  0.21706434348E-01  0.51100000000E-03 0. -1.
</event>
<event>
 8    1  0.1180500E+005  0.1043930E+01  0.7957747E-01            NaN
         13   -1    0    0    0    0  0.00000000000E+00  0.00000000000E+00  0.74505805969E-08  0.10566000000E+00  0.10566000000E+00 0.  1.
     999900   -1    0    0    0    0 -0.00000000000E+00 -0.00000000000E+00 -0.74505805969E-08  0.93827000000E+00  0.93827000000E+00 0. -1.
     999902    2    1    2    0    0  0.21522839458E-01  0.28742240089E-02 -0.10158390571E-01  0.10199573764E+01  0.10196756166E+01 0.  0.
     999903    2    3    3    0    0  0.83498999131E-01 -0.14240281423E-01 -0.10022764033E+00  0.13302647697E+00  0.21808145665E-01 0.  0.
         14    1    1    2    0    0 -0.21522839458E-01 -0.28742240089E-02  0.10158390571E-01  0.23972623573E-01  0.00000000000E+00 0.  1.
     999901    1    3    3    0    0 -0.61976159674E-01  0.17114505432E-01  0.90069249758E-01  0.88693089946E+00  0.88000000000E+00 0.  1.
        -11    1    4    4    0    0  0.69847148013E-01 -0.19337551279E-01 -0.78312435926E-01  0.10670362560E+00  0.51100000000E-03 0. -1.
         11    1    4    4    0    0  0.13651851118E-01  0.50972698557E-02 -0.21915204403E-01  0.26322851365E-01  0.51100000000E-03 0.  1.
</event>
<event>
 8    1  0.1180500E+005  0.1043930E+01  0.7957747E-01            NaN
         13   -1    0    0    0    0  0.00000000000E+00  0.00000000000E+00  0.74505805969E-08  0.10566000000E+00  0.10566000000E+00 0. -1.
     999900   -1    0    0    0    0 -0.00000000000E+00 -0.00000000000E+00 -0.74505805969E-08  0.93827000000E+00  0.93827000000E+00 0. -1.
     999902    2    1    2    0    0 -0.23859907554E-01 -0.46854281662E-02  0.45881003547E-02  0.10191853220E+01  0.10188848912E+01 0.  0.
     999903    2    3    3    0    0 -0.10392889656E+00  0.76034479803E-01 -0.18891998597E-01  0.13156036650E+00  0.19203248789E-01 0.  0.
         14    1    1    2    0    0  0.23859907554E-01  0.46854281662E-02 -0.45881003547E-02  0.24744678022E-01  0.00000000000E+00 0. -1.
     999901    1    3    3    0    0  0.80068989002E-01 -0.80719907969E-01  0.23480098952E-01  0.88762495548E+00  0.88000000000E+00 0.  1.
        -11    1    4    4    0    0 -0.45984066023E-01  0.32772301802E-01  0.12811500433E-02  0.56484162026E-01  0.51100000000E-03 0.  1.
         11    1    4    4    0    0 -0.57944830533E-01  0.43262178001E-01 -0.20173148640E-01  0.75076204473E-01  0.51100000000E-03 0. -1.
</event>
<event>
 8    1  0.1180500E+005  0.1043930E+01  0.7957747E-01            NaN
         13   -1    0    0    0    0  0.00000000000E+00  0.00000000000E+00  0.74505805969E-08  0.10566000000E+00  0.10566000000E+00 0.  1.
     999900   -1    0    0    0    0 -0.00000000000E+00 -0.00000000000E+00 -0.74505805969E-08  0.93827000000E+00  0.93827000000E+00 0. -1.
     999902    2    1    2    0    0 -0.38700369051E-02 -0.23284659781E-01 -0.23370161511E-02  0.10202105099E+01  0.10199347382E+01 0.  0.
     999903    2    3    3    0    0 -0.80823634231E-01  0.42711582402E-01  0.89709543085E-01  0.12962085736E+00  0.19925496733E-01 0.  0.
         14    1    1    2    0    0  0.38700369051E-02  0.23284659781E-01  0.23370161511E-02  0.23719490114E-01  0.00000000000E+00 0. -1.
     999901    1    3    3    0    0  0.76953597326E-01 -0.65996242183E-01 -0.92046559236E-01  0.89058965253E+00  0.88000000000E+00 0. -1.
        -11    1    4    4    0    0 -0.28602437080E-01  0.18069870662E-01  0.46457582409E-01  0.57473365283E-01  0.51100000000E-03 0. -1.
         11    1    4    4    0    0 -0.52221197151E-01  0.24641711741E-01  0.43251960675E-01  0.72147492075E-01  0.51100000000E-03 0.  1.
</event>
<event>
 8    1  0.1180500E+005  0.1043930E+01  0.7957747E-01            NaN
         13   -1    0    0    0    0  0.00000000000E+00  0.00000000000E+00  0.74505805969E-08  0.10566000000E+00  0.10566000000E+00 0. -1.
     999900   -1    0    0    0    0 -0.00000000000E+00 -0.00000000000E+00 -0.74505805969E-08  0.93827000000E+00  0.93827000000E+00 0.  1.
     999902    2    1    2    0    0  0.18001589743E-01 -0.10804010767E-01 -0.55264809433E-02  0.10222199592E+01  0.10219893928E+01 0.  0.
     999903    2    3    3    0    0 -0.51055746638E-01 -0.63356426197E-01  0.10139087053E+00  0.13151125698E+00  0.19858904345E-01 0.  0.
         14    1    1    2    0    0 -0.18001589743E-01  0.10804010767E-01  0.55264809433E-02  0.21710040847E-01  0.00000000000E+00 0.  1.
     999901    1    3    3    0    0  0.69057336381E-01  0.52552415429E-01 -0.10691735147E+00  0.89070870217E+00  0.88000000000E+00 0.  1.
        -11    1    4    4    0    0 -0.30416053556E-01 -0.41040335702E-01  0.48143915738E-01  0.70196461535E-01  0.51100000000E-03 0.  1.
         11    1    4    4    0    0 -0.20639693082E-01 -0.22316090495E-01  0.53246954790E-01  0.61314795448E-01  0.51100000000E-03 0. -1.
</event>
<event>
 8    1  0.1180500E+005  0.1043930E+01  0.7957747E-01            NaN
         13   -1    0    0    0    0  0.00000000000E+00  0.00000000000E+00  0.74505805969E-08  0.10566000000E+00  0.10566000000E+00 0.  1.
     999900   -1    0    0    0    0 -0.00000000000E+00 -0.00000000000E+00 -0.74505805969E-08  0.93827000000E+00  0.93827000000E+00 0.  1.
     999902    2    1    2    0    0 -0.14537546181E-01  0.18474003615E-01  0.33173844652E-02  0.10201890207E+01  0.10199127433E+01 0.  0.
     999903    2    3    3    0    0 -0.83146749107E-01 -0.96803092042E-01 -0.13471987432E-01  0.12986440882E+00  0.19976228785E-01 0.  0.
         14    1    1    2    0    0  0.14537546181E-01 -0.18474003615E-01 -0.33173844652E-02  0.23740979302E-01  0.00000000000E+00 0.  1.
     999901    1    3    3    0    0  0.68609202926E-01  0.11527709566E+00  0.16789371898E-01  0.89032461188E+00  0.88000000000E+00 0.  1.
        -11    1    4    4    0    0 -0.26156883579E-01 -0.45435747069E-01 -0.47016551027E-02  0.52639874164E-01  0.51100000000E-03 0. -1.
         11    1    4    4    0    0 -0.56989865527E-01 -0.51367344973E-01 -0.87703323296E-02  0.77224534654E-01  0.51100000000E-03 0.  1.
</event>
<event>
 8    1  0.1180500E+005  0.1043930E+01  0.7957747E-01            NaN
         13   -1    0    0    0    0  0.00000000000E+00  0.00000000000E+00  0.74505805969E-08  0.10566000000E+00  0.10566000000E+00 0. -1.
     999900   -1    0    0    0    0 -0.00000000000E+00 -0.00000000000E+00 -0.74505805969E-08  0.93827000000E+00  0.93827000000E+00 0.  1.
     999902    2    1    2    0    0  0.11975493342E-01  0.13646148242E-01 -0.14524917165E-01  0.10206791286E+01  0.10204142691E+01 0.  0.
     999903    2    3    3    0    0  0.96455927146E-01 -0.47985864213E-02  0.85765508073E-01  0.13077164951E+00  0.20462884129E-01 0.  0.
         14    1    1    2    0    0 -0.11975493342E-01 -0.13646148242E-01  0.14524917165E-01  0.23250871409E-01  0.00000000000E+00 0. -1.
     999901    1    3    3    0    0 -0.84480433803E-01  0.18444734663E-01 -0.10029042524E+00  0.88990747908E+00  0.88000000000E+00 0.  1.
        -11    1    4    4    0    0  0.45234986427E-01  0.79538821186E-02  0.39701308780E-01  0.60711805093E-01  0.51100000000E-03 0. -1.
         11    1    4    4    0    0  0.51220940719E-01 -0.12752468540E-01  0.46064199293E-01  0.70059844416E-01  0.51100000000E-03 0.  1.
</event>
<event>
 8    1  0.1180500E+005  0.1043930E+01  0.7957747E-01            NaN
         13   -1    0    0    0    0  0.00000000000E+00  0.00000000000E+00  0.74505805969E-08  0.10566000000E+00  0.10566000000E+00 0. -1.
     999900   -1    0    0    0    0 -0.00000000000E+00 -0.00000000000E+00 -0.74505805969E-08  0.93827000000E+00  0.93827000000E+00 0. -1.
     999902    2    1    2    0    0 -0.21372702855E-01  0.82481332626E-02 -0.35499150200E-02  0.10207475492E+01  0.10204842640E+01 0.  0.
     999903    2    3    3    0    0  0.21771753937E-01  0.12496348287E+00  0.28518752004E-01  0.13141503746E+00  0.19149713668E-01 0.  0.
         14    1    1    2    0    0  0.21372702855E-01 -0.82481332626E-02  0.35499150200E-02  0.23182450826E-01  0.00000000000E+00 0. -1.
     999901    1    3    3    0    0 -0.43144456792E-01 -0.11671534961E+00 -0.32068667024E-01  0.88933251171E+00  0.88000000000E+00 0. -1.
        -11    1    4    4    0    0  0.17949650790E-02  0.45376394087E-01  0.31427633439E-02  0.45523368971E-01  0.51100000000E-03 0. -1.
         11    1    4    4    0    0  0.19976788858E-01  0.79587088786E-01  0.25375988660E-01  0.85891668490E-01  0.51100000000E-03 0.  1.
</event>
<event>
 8    1  0.1180500E+005  0.1043930E+01  0.7957747E-01            NaN
         13   -1    0    0    0    0  0.00000000000E+00  0.00000000000E+00  0.74505805969E-08  0.10566000000E+00  0.10566000000E+00 0. -1.
     999900   -1    0    0    0    0 -0.00000000000E+00 -0.00000000000E+00 -0.74505805969E-08  0.93827000000E+00  0.93827000000E+00 0. -1.
     999902    2    1    2    0    0 -0.22606004461E-01 -0.30453820294E-02  0.63929096083E-02  0.10202408657E+01  0.10199658078E+01 0.  0.
     999903    2    3    3    0    0 -0.10151741810E+00  0.82805585189E-01 -0.39122885936E-03  0.13252276615E+00  0.19989481567E-01 0.  0.
         14    1    1    2    0    0  0.22606004461E-01  0.30453820294E-02 -0.63929096083E-02  0.23689134274E-01  0.00000000000E+00 0.  1.
     999901    1    3    3    0    0  0.78911413636E-01 -0.85850967219E-01  0.67841384676E-02  0.88771809957E+00  0.88000000000E+00 0.  1.
        -11    1    4    4    0    0 -0.66755677898E-01  0.65351744383E-01 -0.35978058748E-02  0.93489979964E-01  0.51100000000E-03 0. -1.
         11    1    4    4    0    0 -0.34761740199E-01  0.17453840806E-01  0.32065770154E-02  0.39032786189E-01  0.51100000000E-03 0.  1.
</event>
<event>
 8    1  0.1180500E+005  0.1043930E+01  0.7957747E-01            NaN
         13   -1    0    0    0    0  0.00000000000E+00  0.00000000000E+00  0.74505805969E-08  0.10566000000E+00  0.10566000000E+00 0.  1.
     999900   -1    0    0    0    0 -0.00000000000E+00 -0.00000000000E+00 -0.74505805969E-08  0.93827000000E+00  0.93827000000E+00 0.  1.
     999902    2    1    2    0    0  0.16390716671E-01  0.22042628495E-02  0.17182199016E-01  0.10200816808E+01  0.10198028697E+01 0.  0.
     999903    2    3    3    0    0 -0.80957578850E-01 -0.97514050326E-01 -0.96626203073E-02  0.12871134417E+00  0.20251525928E-01 0.  0.
         14    1    1    2    0    0 -0.16390716671E-01 -0.22042628495E-02 -0.17182199016E-01  0.23848319243E-01  0.00000000000E+00 0. -1.
     999901    1    3    3    0    0  0.97348295521E-01  0.99718313175E-01  0.26844819324E-01  0.89137033659E+00  0.88000000000E+00 0.  1.
        -11    1    4    4    0    0 -0.52276634282E-01 -0.47677146517E-01 -0.29239828655E-02  0.70815023749E-01  0.51100000000E-03 0.  1.
         11    1    4    4    0    0 -0.28680944568E-01 -0.49836903809E-01 -0.67386374419E-02  0.57896320420E-01  0.51100000000E-03 0. -1.
</event>
<event>
 8    1  0.1180500E+005  0.1043930E+01  0.7957747E-01            NaN
         13   -1    0    0    0    0  0.00000000000E+00  0.00000000000E+00  0.74505805969E-08  0.10566000000E+00  0.10566000000E+00 0. -1.
     999900   -1    0    0    0    0 -0.00000000000E+00 -0.00000000000E+00 -0.74505805969E-08  0.93827000000E+00  0.93827000000E+00 0. -1.
     999902    2    1    2    0    0 -0.25186879770E-01  0.34667104658E-02 -0.18334503424E-02  0.10184396384E+01  0.10181205914E+01 0.  0.
     999903    2    3    3    0    0  0.58520413548E-01  0.11165844247E+00  0.46855934045E-02  0.12784721773E+00  0.20753547138E-01 0.  0.
         14    1    1    2    0    0  0.25186879770E-01 -0.34667104658E-02  0.18334503424E-02  0.25490361593E-01  0.00000000000E+00 0. -1.
     999901    1    3    3    0    0 -0.83707293318E-01 -0.10819173201E+00 -0.65190437469E-02  0.89059242067E+00  0.88000000000E+00 0. -1.
        -11    1    4    4    0    0  0.14672333606E-01  0.49021170277E-01 -0.91965530441E-03  0.51180654505E-01  0.51100000000E-03 0.  1.
         11    1    4    4    0    0  0.43848079942E-01  0.62637272198E-01  0.56052487089E-02  0.76666563228E-01  0.51100000000E-03 0. -1.
</event>
<event>
 8    1  0.1180500E+005  0.1043930E+01  0.7957747E-01            NaN
         13   -1    0    0    0    0  0.00000000000E+00  0.00000000000E+00  0.74505805969E-08  0.10566000000E+00  0.10566000000E+00 0.  1.
     999900   -1    0    0    0    0 -0.00000000000E+00 -0.00000000000E+00 -0.74505805969E-08  0.93827000000E+00  0.93827000000E+00 0.  1.
     999902    2    1    2    0    0 -0.21067680033E-01  0.29170933730E-02  0.10719577495E-01  0.10201126551E+01  0.10198345764E+01 0.  0.
     999903    2    3    3    0    0 -0.26708871702E-01 -0.38197524862E-01 -0.11927444195E+00  0.12959556939E+00  0.19904883079E-01 0.  0.
         14    1    1    2    0    0  0.21067680033E-01 -0.29170933730E-02 -0.10719577495E-01  0.23817344885E-01  0.00000000000E+00 0. -1.
     999901    1    3    3    0    0  0.56411916685E-02  0.41114618235E-01  0.12999401944E+00  0.89051708572E+00  0.88000000000E+00 0. -1.
        -11    1    4    4    0    0 -0.16649189248E-02  0.11218577300E-02 -0.70226355501E-03  0.21874219742E-02  0.51100000000E-03 0. -1.
         11    1    4    4    0    0 -0.25043952777E-01 -0.39319382592E-01 -0.11857217839E+00  0.12740814742E+00  0.51100000000E-03 0.  1.
</event>
<event>
 8    1  0.1180500E+005  0.1043930E+01  0.7957747E-01            NaN
         13   -1    0    0    0    0  0.00000000000E+00  0.00000000000E+00  0.74505805969E-08  0.10566000000E+00  0.10566000000E+00 0.  1.
     999900   -1    0    0    0    0 -0.00000000000E+00 -0.00000000000E+00 -0.74505805969E-08  0.93827000000E+00  0.93827000000E+00 0.  1.
     999902    2    1    2    0    0 -0.21855740215E-01  0.15242815960E-01  0.25829471839E-02  0.10171589628E+01  0.10168066026E+01 0.  0.
     999903    2    3    3    0    0  0.75776637323E-01 -0.40260761214E-01  0.89754955351E-01  0.12574901934E+00  0.19845306681E-01 0.  0.
         14    1    1    2    0    0  0.21855740215E-01 -0.15242815960E-01 -0.25829471839E-02  0.26771037239E-01  0.00000000000E+00 0.  1.
     999901    1    3    3    0    0 -0.97632377538E-01  0.55503577173E-01 -0.87172008167E-01  0.89140994342E+00  0.88000000000E+00 0.  1.
        -11    1    4    4    0    0  0.26517915702E-01 -0.81484774505E-02  0.40220054166E-01  0.48862167534E-01  0.51100000000E-03 0.  1.
         11    1    4    4    0    0  0.49258721621E-01 -0.32112283763E-01  0.49534901184E-01  0.76886851806E-01  0.51100000000E-03 0. -1.
</event>
<event>
 8    1  0.1180500E+005  0.1043930E+01  0.7957747E-01            NaN
         13   -1    0    0    0    0  0.00000000000E+00  0.00000000000E+00  0.74505805969E-08  0.10566000000E+00  0.10566000000E+00 0.  1.
     999900   -1    0    0    0    0 -0.00000000000E+00 -0.00000000000E+00 -0.74505805969E-08  0.93827000000E+00  0.93827000000E+00 0.  1.
     999902    2    1    2    0    0  0.11142560642E-01 -0.57442784322E-02  0.20255146003E-01  0.10201093297E+01  0.10198311724E+01 0.  0.
     999903    2    3    3    0    0 -0.60654637176E-01  0.10642257053E+00  0.38607115567E-01  0.12989978451E+00  0.19460115991E-01 0.  0.
         14    1    1    2    0    0 -0.11142560642E-01  0.57442784322E-02 -0.20255146003E-01  0.23820670267E-01  0.00000000000E+00 0. -1.
     999901    1    3    3    0    0  0.71797197818E-01 -0.11216684896E+00 -0.18351969563E-01  0.89020954522E+00  0.88000000000E+00 0.  1.
        -11    1    4    4    0    0 -0.29341968572E-01  0.34678790982E-01  0.97104990375E-02  0.46455619426E-01  0.51100000000E-03 0.  1.
         11    1    4    4    0    0 -0.31312668604E-01  0.71743779546E-01  0.28896616529E-01  0.83444165083E-01  0.51100000000E-03 0. -1.
</event>
<event>
 8    1  0.1180500E+005  0.1043930E+01  0.7957747E-01            NaN
         13   -1    0    0    0    0  0.00000000000E+00  0.00000000000E+00  0.74505805969E-08  0.10566000000E+00  0.10566000000E+00 0.  1.
     999900   -1    0    0    0    0 -0.00000000000E+00 -0.00000000000E+00 -0.74505805969E-08  0.93827000000E+00  0.93827000000E+00 0.  1.
     999902    2    1    2    0    0 -0.19062757050E-02 -0.23770147664E-01 -0.63934738764E-03  0.10200749676E+01  0.10197959977E+01 0.  0.
     999903    2    3    3    0    0  0.70494912640E-01 -0.40225827648E-01  0.10122762837E+00  0.13109262679E+00  0.18724159109E-01 0.  0.
         14    1    1    2    0    0  0.19062757050E-02  0.23770147664E-01  0.63934738764E-03  0.23855032428E-01  0.00000000000E+00 0.  1.
     999901    1    3    3    0    0 -0.72401188345E-01  0.16455679984E-01 -0.10186697576E+00  0.88898234079E+00  0.88000000000E+00 0.  1.
        -11    1    4    4    0    0  0.56629021123E-01 -0.23735099750E-01  0.69531662466E-01  0.92763754774E-01  0.51100000000E-03 0. -1.
         11    1    4    4    0    0  0.13865891517E-01 -0.16490727899E-01  0.31695965905E-01  0.38328872014E-01  0.51100000000E-03 0.  1.
</event>
<event>
 8    1  0.1180500E+005  0.1043930E+01  0.7957747E-01            NaN
         13   -1    0    0    0    0  0.00000000000E+00  0.00000000000E+00  0.74505805969E-08  0.10566000000E+00  0.10566000000E+00 0.  1.
     999900   -1    0    0    0    0 -0.00000000000E+00 -0.00000000000E+00 -0.74505805969E-08  0.93827000000E+00  0.93827000000E+00 0. -1.
     999902    2    1    2    0    0  0.17761364668E-01  0.12067775264E-01  0.57658171763E-02  0.10216961987E+01  0.10214542478E+01 0.  0.
     999903    2    3    3    0    0 -0.12676856204E+00  0.11440040853E-01 -0.13557959266E-01  0.12969692617E+00  0.20888550546E-01 0.  0.
         14    1    1    2    0    0 -0.17761364668E-01 -0.12067775264E-01 -0.57658171763E-02  0.22233801349E-01  0.00000000000E+00 0.  1.
     999901    1    3    3    0    0  0.14452992671E+00  0.62773441107E-03  0.19323776442E-01  0.89199927248E+00  0.88000000000E+00 0.  1.
        -11    1    4    4    0    0 -0.10930518728E-01  0.34728168258E-02  0.42192527176E-02  0.12231104237E-01  0.51100000000E-03 0. -1.
         11    1    4    4    0    0 -0.11583804331E+00  0.79672240271E-02 -0.17777211984E-01  0.11746582194E+00  0.51100000000E-03 0.  1.
</event>
<event>
 8    1  0.1180500E+005  0.1043930E+01  0.7957747E-01            NaN
         13   -1    0    0    0    0  0.00000000000E+00  0.00000000000E+00  0.74505805969E-08  0.10566000000E+00  0.10566000000E+00 0. -1.
     999900   -1    0    0    0    0 -0.00000000000E+00 -0.00000000000E+00 -0.74505805969E-08  0.93827000000E+00  0.93827000000E+00 0. -1.
     999902    2    1    2    0    0 -0.13163630800E-01 -0.14509132366E-01  0.13561199198E-01  0.10201034975E+01  0.10198252024E+01 0.  0.
     999903    2    3    3    0    0 -0.46962929552E-01 -0.66309241311E-01 -0.10017372746E+00  0.13063102607E+00  0.20670197501E-01 0.  0.
         14    1    1    2    0    0  0.13163630800E-01  0.14509132366E-01 -0.13561199198E-01  0.23826502503E-01  0.00000000000E+00 0.  1.
     999901    1    3    3    0    0  0.33799298752E-01  0.51800108945E-01  0.11373492665E+00  0.88947247143E+00  0.88000000000E+00 0.  1.
        -11    1    4    4    0    0 -0.94507923044E-02 -0.55273522831E-02 -0.22986135071E-01  0.25465518352E-01  0.51100000000E-03 0. -1.
         11    1    4    4    0    0 -0.37512137248E-01 -0.60781889028E-01 -0.77187592385E-01  0.10516550772E+00  0.51100000000E-03 0.  1.
</event>
<event>
 8    1  0.1180500E+005  0.1043930E+01  0.7957747E-01            NaN
         13   -1    0    0    0    0  0.00000000000E+00  0.00000000000E+00  0.74505805969E-08  0.10566000000E+00  0.10566000000E+00 0.  1.
     999900   -1    0    0    0    0 -0.00000000000E+00 -0.00000000000E+00 -0.74505805969E-08  0.93827000000E+00  0.93827000000E+00 0. -1.
     999902    2    1    2    0    0  0.16723835627E-01  0.14371305874E-01  0.16976276771E-01  0.10161016856E+01  0.10157205424E+01 0.  0.
     999903    2    3    3    0    0 -0.75857883621E-01  0.44774141818E-01 -0.86040252706E-01  0.12474984005E+00  0.20011377380E-01 0.  0.
         14    1    1    2    0    0 -0.16723835627E-01 -0.14371305874E-01 -0.16976276771E-01  0.27828314423E-01  0.00000000000E+00 0. -1.
     999901    1    3    3    0    0  0.92581719248E-01 -0.30402835944E-01  0.10301652948E+00  0.89135184552E+00  0.88000000000E+00 0.  1.
        -11    1    4    4    0    0 -0.69057309514E-01  0.43450137637E-01 -0.70900969515E-01  0.10809271510E+00  0.51100000000E-03 0.  1.
         11    1    4    4    0    0 -0.68005741065E-02  0.13240041816E-02 -0.15139283192E-01  0.16657124956E-01  0.51100000000E-03 0. -1.
</event>
<event>
 8    1  0.1180500E+005  0.1043930E+01  0.7957747E-01            NaN
         13   -1    0    0    0    0  0.00000000000E+00  0.00000000000E+00  0.74505805969E-08  0.10566000000E+00  0.10566000000E+00 0.  1.
     999900   -1    0    0    0    0 -0.00000000000E+00 -0.00000000000E+00 -0.74505805969E-08  0.93827000000E+00  0.93827000000E+00 0. -1.
     999902    2    1    2    0    0  0.44201139504E-02 -0.23635053303E-01 -0.13923288101E-02  0.10198449064E+01  0.10195604648E+01 0.  0.
     999903    2    3    3    0    0 -0.15844020080E-01  0.12084519549E+00 -0.31751588610E-01  0.12731655279E+00  0.18621143635E-01 0.  0.
         14    1    1    2    0    0 -0.44201139504E-02  0.23635053303E-01  0.13923288101E-02  0.24085093554E-01  0.00000000000E+00 0.  1.
     999901    1    3    3    0    0  0.20264134030E-01 -0.14448024879E+00  0.30359259800E-01  0.89252835365E+00  0.88000000000E+00 0. -1.
        -11    1    4    4    0    0 -0.84757130355E-02  0.72112014431E-01 -0.28217243291E-01  0.77900284189E-01  0.51100000000E-03 0.  1.
         11    1    4    4    0    0 -0.73683070444E-02  0.48733181060E-01 -0.35343453192E-02  0.49416268604E-01  0.51100000000E-03 0. -1.
</event>
<event>
 8    1  0.1180500E+005  0.1043930E+01  0.7957747E-01            NaN
         13   -1    0    0    0    0  0.00000000000E+00  0.00000000000E+00  0.74505805969E-08  0.10566000000E+00  0.10566000000E+00 0. -1.
     999900   -1    0    0    0    0 -0.00000000000E+00 -0.00000000000E+00 -0.74505805969E-08  0.93827000000E+00  0.93827000000E+00 0. -1.
     999902    2    1    2    0    0  0.18381045676E-01  0.16448704335E-02 -0.14539025430E-01  0.10204363477E+01  0.10201658630E+01 0.  0.
     999903    2    3    3    0    0  0.42600270703E-01  0.42219339896E-01  0.11461113116E+00  0.12975536024E+00  0.10172826539E-01 0.  0.
         14    1    1    2    0    0 -0.18381045676E-01 -0.16448704335E-02  0.14539025430E-01  0.23493652320E-01  0.00000000000E+00 0.  1.
     999901    1    3    3    0    0 -0.24219225027E-01 -0.40574469462E-01 -0.12915015659E+00  0.89068098744E+00  0.88000000000E+00 0. -1.
        -11    1    4    4    0    0  0.24214478371E-01  0.19164705758E-01  0.66534350060E-01  0.73353307822E-01  0.51100000000E-03 0.  1.
         11    1    4    4    0    0  0.18385792332E-01  0.23054634138E-01  0.48076781104E-01  0.56402052421E-01  0.51100000000E-03 0. -1.
</event>
<event>
 8    1  0.1180500E+005  0.1043930E+01  0.7957747E-01            NaN
         13   -1    0    0    0    0  0.00000000000E+00  0.00000000000E+00  0.74505805969E-08  0.10566000000E+00  0.10566000000E+00 0. -1.
     999900   -1    0    0    0    0 -0.00000000000E+00 -0.00000000000E+00 -0.74505805969E-08  0.93827000000E+00  0.93827000000E+00 0.  1.
     999902    2    1    2    0    0  0.12926800742E-01  0.10253255179E-01  0.19326340909E-01  0.10185186074E+01  0.10182015590E+01 0.  0.
     999903    2    3    3    0    0 -0.78367434758E-01  0.71318376818E-01  0.72806696919E-01  0.13007967594E+00  0.19802557255E-01 0.  0.
         14    1    1    2    0    0 -0.12926800742E-01 -0.10253255179E-01 -0.19326340909E-01  0.25411392566E-01  0.00000000000E+00 0.  1.
     999901    1    3    3    0    0  0.91294235500E-01 -0.61065121639E-01 -0.53480356010E-01  0.88843893149E+00  0.88000000000E+00 0.  1.
        -11    1    4    4    0    0 -0.74889826390E-01  0.64616008018E-01  0.61500905380E-01  0.11647461986E+00  0.51100000000E-03 0.  1.
         11    1    4    4    0    0 -0.34776083675E-02  0.67023687996E-02  0.11305791539E-01  0.13605056075E-01  0.51100000000E-03 0. -1.
</event>
<event>
 8    1  0.1180500E+005  0.1043930E+01  0.7957747E-01            NaN
         13   -1    0    0    0    0  0.00000000000E+00  0.00000000000E+00  0.74505805969E-08  0.10566000000E+00  0.10566000000E+00 0. -1.
     999900   -1    0    0    0    0 -0.00000000000E+00 -0.00000000000E+00 -0.74505805969E-08  0.93827000000E+00  0.93827000000E+00 0. -1.
     999902    2    1    2    0    0  0.90527909349E-02 -0.87834071055E-02  0.20649953045E-01  0.10197324418E+01  0.10194453055E+01 0.  0.
     999903    2    3    3    0    0  0.12444889809E+00 -0.19851010394E-01 -0.28377674908E-01  0.13077661513E+00  0.20387245596E-01 0.  0.
         14    1    1    2    0    0 -0.90527909349E-02  0.87834071055E-02 -0.20649953045E-01  0.24197558242E-01  0.00000000000E+00 0.  1.
     999901    1    3    3    0    0 -0.11539610715E+00  0.11067603289E-01  0.49027627953E-01  0.88895582663E+00  0.88000000000E+00 0.  1.
        -11    1    4    4    0    0  0.72723166245E-01 -0.34452471704E-02 -0.22434644165E-01  0.76184663919E-01  0.51100000000E-03 0. -1.
         11    1    4    4    0    0  0.51725731845E-01 -0.16405763224E-01 -0.59430307426E-02  0.54591951213E-01  0.51100000000E-03 0.  1.
</event>
<event>
 8    1  0.1180500E+005  0.1043930E+01  0.7957747E-01            NaN
         13   -1    0    0    0    0  0.00000000000E+00  0.00000000000E+00  0.74505805969E-08  0.10566000000E+00  0.10566000000E+00 0.  1.
     999900   -1    0    0    0    0 -0.00000000000E+00 -0.00000000000E+00 -0.74505805969E-08  0.93827000000E+00  0.93827000000E+00 0. -1.
     999902    2    1    2    0    0  0.21975768813E-01 -0.10170367964E-01  0.30059952251E-02  0.10195290409E+01  0.10192369981E+01 0.  0.
     999903    2    3    3    0    0  0.10155066637E+00  0.72625967998E-02 -0.81318067079E-01  0.13175281902E+00  0.19516509273E-01 0.  0.
         14    1    1    2    0    0 -0.21975768813E-01  0.10170367964E-01 -0.30059952251E-02  0.24400959135E-01  0.00000000000E+00 0.  1.
     999901    1    3    3    0    0 -0.79574897560E-01 -0.17432964764E-01  0.84324062304E-01  0.88777622184E+00  0.88000000000E+00 0.  1.
        -11    1    4    4    0    0  0.35560243055E-01 -0.48756337204E-02 -0.35618502879E-01  0.50569175973E-01  0.51100000000E-03 0. -1.
         11    1    4    4    0    0  0.65990423318E-01  0.12138230520E-01 -0.45699564200E-01  0.81183643051E-01  0.51100000000E-03 0.  1.
</event>
<event>
 8    1  0.1180500E+005  0.1043930E+01  0.7957747E-01            NaN
         13   -1    0    0    0    0  0.00000000000E+00  0.00000000000E+00  0.74505805969E-08  0.10566000000E+00  0.10566000000E+00 0.  1.
     999900   -1    0    0    0    0 -0.00000000000E+00 -0.00000000000E+00 -0.74505805969E-08  0.93827000000E+00  0.93827000000E+00 0.  1.
     999902    2    1    2    0    0  0.94597245361E-02  0.92771361011E-02 -0.19282185418E-01  0.10205343953E+01  0.10202661897E+01 0.  0.
     999903    2    3    3    0    0 -0.62657964032E-01 -0.30321398029E-01 -0.11153937860E+00  0.13189476389E+00  0.10477982924E-01 0.  0.
         14    1    1    2    0    0 -0.94597245361E-02 -0.92771361011E-02  0.19282185418E-01  0.23395604652E-01  0.00000000000E+00 0.  1.
     999901    1    3    3    0    0  0.72117688568E-01  0.39598534130E-01  0.92257193186E-01  0.88863963146E+00  0.88000000000E+00 0. -1.
        -11    1    4    4    0    0 -0.35881928578E-01 -0.22554560641E-01 -0.71063302243E-01  0.82743429049E-01  0.51100000000E-03 0. -1.
         11    1    4    4    0    0 -0.26776035455E-01 -0.77668373882E-02 -0.40476076361E-01  0.49151334837E-01  0.51100000000E-03 0.  1.
</event>
<event>
 8    1  0.1180500E+005  0.1043930E+01  0.7957747E-01            NaN
         13   -1    0    0    0    0  0.00000000000E+00  0.00000000000E+00  0.74505805969E-08  0.10566000000E+00  0.10566000000E+00 0.  1.
     999900   -1    0    0    0    0 -0.00000000000E+00 -0.00000000000E+00 -0.74505805969E-08  0.93827000000E+00  0.93827000000E+00 0. -1.
     999902    2    1    2    0    0 -0.26891555931E-01 -0.71571726790E-02 -0.29015521928E-02  0.10159514385E+01  0.10155661108E+01 0.  0.
     999903    2    3    3    0    0  0.11831276795E-01  0.17991101769E-01 -0.12305591032E+00  0.12658707934E+00  0.20441935752E-01 0.  0.
         14    1    1    2    0    0  0.26891555931E-01  0.71571726790E-02  0.29015521928E-02  0.27978561548E-01  0.00000000000E+00 0.  1.
     999901    1    3    3    0    0 -0.38722832726E-01 -0.25148274448E-01  0.12015435813E+00  0.88936435911E+00  0.88000000000E+00 0.  1.
        -11    1    4    4    0    0 -0.26277690109E-02  0.91937383025E-02 -0.20296352044E-01  0.22441769566E-01  0.51100000000E-03 0.  1.
         11    1    4    4    0    0  0.14459045805E-01  0.87973634670E-02 -0.10275955828E+00  0.10414530977E+00  0.51100000000E-03 0. -1.
</event>
<event>
 8    1  0.1180500E+005  0.1043930E+01  0.7957747E-01            NaN
         13   -1    0    0    0    0  0.00000000000E+00  0.00000000000E+00  0.74505805969E-08  0.10566000000E+00  0.10566000000E+00 0. -1.
     999900   -1    0    0    0    0 -0.00000000000E+00 -0.00000000000E+00 -0.74505805969E-08  0.93827000000E+00  0.93827000000E+00 0.  1.
     999902    2    1    2    0    0  0.18133769505E-01  0.25097845661E-02  0.12503602784E-01  0.10217608165E+01  0.10215202854E+01 0.  0.
     999903    2    3    3    0    0  0.56396807929E-01 -0.11754448430E+00 -0.11769421191E-01  0.13245419486E+00  0.20206155672E-01 0.  0.
         14    1    1    2    0    0 -0.18133769505E-01 -0.25097845661E-02 -0.12503602784E-01  0.22169183513E-01  0.00000000000E+00 0.  1.
     999901    1    3    3    0    0 -0.38263038424E-01  0.12005426886E+00  0.24273023975E-01  0.88930662163E+00  0.88000000000E+00 0.  1.
        -11    1    4    4    0    0  0.27635006727E-01 -0.55176700661E-01 -0.15638672688E-01  0.63663106248E-01  0.51100000000E-03 0. -1.
         11    1    4    4    0    0  0.28761801202E-01 -0.62367783635E-01  0.38692514970E-02  0.68791088610E-01  0.51100000000E-03 0.  1.
</event>
<event>
 8    1  0.1180500E+005  0.1043930E+01  0.7957747E-01            NaN
         13   -1    0    0    0    0  0.00000000000E+00  0.00000000000E+00  0.74505805969E-08  0.10566000000E+00  0.10566000000E+00 0.  1.
     999900   -1    0    0    0    0 -0.00000000000E+00 -0.00000000000E+00 -0.74505805969E-08  0.93827000000E+00  0.93827000000E+00 0. -1.
     999902    2    1    2    0    0  0.21808578283E-01  0.68580420079E-02 -0.82055996158E-02  0.10196405230E+01  0.10193511748E+01 0.  0.
     999903    2    3    3    0    0  0.21880541691E-01 -0.60522503343E-01  0.11035528404E+00  0.12913683061E+00  0.18875931431E-01 0.  0.
         14    1    1    2    0    0 -0.21808578283E-01 -0.68580420079E-02  0.82055996158E-02  0.24289476980E-01  0.00000000000E+00 0.  1.
     999901    1    3    3    0    0 -0.71963407953E-04  0.67380545350E-01 -0.11856088366E+00  0.89050369241E+00  0.88000000000E+00 0. -1.
        -11    1    4    4    0    0  0.10647211974E-01 -0.26843839323E-01  0.67921987702E-01  0.73807942437E-01  0.51100000000E-03 0.  1.
         11    1    4    4    0    0  0.11233329717E-01 -0.33678664020E-01  0.42433296339E-01  0.55328888168E-01  0.51100000000E-03 0. -1.
</event>
<event>
 8    1  0.1180500E+005  0.1043930E+01  0.7957747E-01            NaN
         13   -1    0    0    0    0  0.00000000000E+00  0.00000000000E+00  0.74505805969E-08  0.10566000000E+00  0.10566000000E+00 0. -1.
     999900   -1    0    0    0    0 -0.00000000000E+00 -0.00000000000E+00 -0.74505805969E-08  0.93827000000E+00  0.93827000000E+00 0. -1.
     999902    2    1    2    0    0 -0.49341242972E-02  0.12269553810E-01  0.19520484599E-01  0.10203516868E+01  0.10200792263E+01 0.  0.
     999903    2    3    3    0    0 -0.83330804636E-01 -0.97115481550E-01  0.11696162574E-01  0.13008636375E+00  0.20253939293E-01 0.  0.
         14    1    1    2    0    0  0.49341242972E-02 -0.12269553810E-01 -0.19520484599E-01  0.23578313177E-01  0.00000000000E+00 0.  1.
     999901    1    3    3    0    0  0.78396680339E-01  0.10938503536E+00  0.78243220248E-02  0.89026532307E+00  0.88000000000E+00 0.  1.
        -11    1    4    4    0    0 -0.53137160315E-01 -0.72436325656E-01  0.14436890574E-01  0.90990461101E-01  0.51100000000E-03 0.  1.
         11    1    4    4    0    0 -0.30193644321E-01 -0.24679155894E-01 -0.27407280000E-02  0.39095902650E-01  0.51100000000E-03 0. -1.
</event>
<event>
 8    1  0.1180500E+005  0.1043930E+01  0.7957747E-01            NaN
         13   -1    0    0    0    0  0.00000000000E+00  0.00000000000E+00  0.74505805969E-08  0.10566000000E+00  0.10566000000E+00 0.  1.
     999900   -1    0    0    0    0 -0.00000000000E+00 -0.00000000000E+00 -0.74505805969E-08  0.93827000000E+00  0.93827000000E+00 0.  1.
     999902    2    1    2    0    0  0.85652231290E-03 -0.18348711619E-01  0.14647161617E-01  0.10204364223E+01  0.10201659394E+01 0.  0.
     999903    2    3    3    0    0  0.77949448695E-02  0.18503421124E-01 -0.12549748391E+00  0.12855821143E+00  0.19350904337E-01 0.  0.
         14    1    1    2    0    0 -0.85652231290E-03  0.18348711619E-01 -0.14647161617E-01  0.23493577675E-01  0.00000000000E+00 0. -1.
     999901    1    3    3    0    0 -0.69384225566E-02 -0.36852132742E-01  0.14014464553E+00  0.89187821089E+00  0.88000000000E+00 0. -1.
        -11    1    4    4    0    0 -0.55849966797E-02  0.10051948555E-01 -0.65655695511E-01  0.66657072631E-01  0.51100000000E-03 0.  1.
         11    1    4    4    0    0  0.13379941549E-01  0.84514725690E-02 -0.59841788404E-01  0.61901138800E-01  0.51100000000E-03 0. -1.
</event>
<event>
 8    1  0.1180500E+005  0.1043930E+01  0.7957747E-01            NaN
         13   -1    0    0    0    0  0.00000000000E+00  0.00000000000E+00  0.74505805969E-08  0.10566000000E+00  0.10566000000E+00 0.  1.
     999900   -1    0    0    0    0 -0.00000000000E+00 -0.00000000000E+00 -0.74505805969E-08  0.93827000000E+00  0.93827000000E+00 0.  1.
     999902    2    1    2    0    0 -0.16988976463E-01  0.18398478001E-01 -0.12921412284E-01  0.10157503582E+01  0.10153593935E+01 0.  0.
     999903    2    3    3    0    0  0.91588452232E-01 -0.10174112376E-01 -0.83491445304E-01  0.12581464118E+00  0.19145374170E-01 0.  0.
         14    1    1    2    0    0  0.16988976463E-01 -0.18398478001E-01  0.12921412284E-01  0.28179641755E-01  0.00000000000E+00 0.  1.
     999901    1    3    3    0    0 -0.10857742870E+00  0.28572590377E-01  0.70570033019E-01  0.88993571706E+00  0.88000000000E+00 0. -1.
        -11    1    4    4    0    0  0.42805304885E-01  0.13099832400E-02 -0.28685575176E-01  0.51547391074E-01  0.51100000000E-03 0.  1.
         11    1    4    4    0    0  0.48783147347E-01 -0.11484095616E-01 -0.54805870128E-01  0.74267250108E-01  0.51100000000E-03 0. -1.
</event>
<event>
 8    1  0.1180500E+005  0.1043930E+01  0.7957747E-01            NaN
         13   -1    0    0    0    0  0.00000000000E+00  0.00000000000E+00  0.74505805969E-08  0.10566000000E+00  0.10566000000E+00 0. -1.
     999900   -1    0    0    0    0 -0.00000000000E+00 -0.00000000000E+00 -0.74505805969E-08  0.93827000000E+00  0.93827000000E+00 0. -1.
     999902    2    1    2    0    0  0.17945592948E-01 -0.18460338298E-02  0.14977434611E-01  0.10204827039E+01  0.10202132979E+01 0.  0.
     999903    2    3    3    0    0 -0.35889456434E-01  0.11467083117E+00 -0.43982170671E-01  0.12921920334E+00  0.18047674902E-01 0.  0.
         14    1    1    2    0    0 -0.17945592948E-01  0.18460338298E-02 -0.14977434611E-01  0.23447296106E-01  0.00000000000E+00 0. -1.
     999901    1    3    3    0    0  0.53835049382E-01 -0.11651686500E+00  0.58959605283E-01  0.89126350056E+00  0.88000000000E+00 0.  1.
        -11    1    4    4    0    0 -0.30725106807E-01  0.69167358987E-01 -0.28508273781E-01  0.80877305423E-01  0.51100000000E-03 0.  1.
         11    1    4    4    0    0 -0.51643496265E-02  0.45503472184E-01 -0.15473896891E-01  0.48341897913E-01  0.51100000000E-03 0. -1.
</event>
<event>
 8    1  0.1180500E+005  0.1043930E+01  0.7957747E-01            NaN
         13   -1    0    0    0    0  0.00000000000E+00  0.00000000000E+00  0.74505805969E-08  0.10566000000E+00  0.10566000000E+00 0. -1.
     999900   -1    0    0    0    0 -0.00000000000E+00 -0.00000000000E+00 -0.74505805969E-08  0.93827000000E+00  0.93827000000E+00 0. -1.
     999902    2    1    2    0    0 -0.15593073194E-01  0.16819111228E-01  0.66599323781E-02  0.10200473466E+01  0.10197677227E+01 0.  0.
     999903    2    3    3    0    0  0.11016383211E+00 -0.57953010334E-01 -0.18676159271E-01  0.12760822434E+00  0.20986631064E-01 0.  0.
         14    1    1    2    0    0  0.15593073194E-01 -0.16819111228E-01 -0.66599323781E-02  0.23882653400E-01  0.00000000000E+00 0.  1.
     999901    1    3    3    0    0 -0.12575690530E+00  0.74772121562E-01  0.25336091649E-01  0.89243912226E+00  0.88000000000E+00 0. -1.
        -11    1    4    4    0    0  0.56009364015E-01 -0.20292590949E-01 -0.15548523358E-01  0.61569926137E-01  0.51100000000E-03 0.  1.
         11    1    4    4    0    0  0.54154468093E-01 -0.37660419384E-01 -0.31276359123E-02  0.66038298207E-01  0.51100000000E-03 0. -1.
</event>
<event>
 8    1  0.1180500E+005  0.1043930E+01  0.7957747E-01            NaN
         13   -1    0    0    0    0  0.00000000000E+00  0.00000000000E+00  0.74505805969E-08  0.10566000000E+00  0.10566000000E+00 0.  1.
     999900   -1    0    0    0    0 -0.00000000000E+00 -0.00000000000E+00 -0.74505805969E-08  0.93827000000E+00  0.93827000000E+00 0. -1.
     999902    2    1    2    0    0  0.37516952334E-03  0.12776817106E-01  0.20082314626E-01  0.10201248080E+01  0.10198470163E+01 0.  0.
     999903    2    3    3    0    0  0.30715263810E-01 -0.12322935241E+00  0.13468280974E-01  0.12913550111E+00  0.19122822228E-01 0.  0.
         14    1    1    2    0    0 -0.37516952334E-03 -0.12776817106E-01 -0.20082314626E-01  0.23805192045E-01  0.00000000000E+00 0. -1.
     999901    1    3    3    0    0 -0.30340094287E-01  0.13600616951E+00  0.66140336524E-02  0.89098930684E+00  0.88000000000E+00 0. -1.
        -11    1    4    4    0    0  0.13272839731E-01 -0.29148334677E-01 -0.24881017463E-02  0.32128577003E-01  0.51100000000E-03 0.  1.
         11    1    4    4    0    0  0.17442424080E-01 -0.94081017729E-01  0.15956382720E-01  0.97006924110E-01  0.51100000000E-03 0. -1.
</event>
<event>
 8    1  0.1180500E+005  0.1043930E+01  0.7957747E-01            NaN
         13   -1    0    0    0    0  0.00000000000E+00  0.00000000000E+00  0.74505805969E-08  0.10566000000E+00  0.10566000000E+00 0.  1.
     999900   -1    0    0    0    0 -0.00000000000E+00 -0.00000000000E+00 -0.74505805969E-08  0.93827000000E+00  0.93827000000E+00 0. -1.
     999902    2    1    2    0    0  0.16412623766E-01 -0.47568202599E-02  0.12000822534E-01  0.10230488770E+01  0.10228357558E+01 0.  0.
     999903    2    3    3    0    0 -0.11351522293E+00  0.14104991138E-04 -0.60956834413E-01  0.13050933902E+00  0.20766460347E-01 0.  0.
         14    1    1    2    0    0 -0.16412623766E-01  0.47568202599E-02 -0.12000822534E-01  0.20881123039E-01  0.00000000000E+00 0. -1.
     999901    1    3    3    0    0  0.12992784669E+00 -0.47709252510E-02  0.72957656947E-01  0.89253953794E+00  0.88000000000E+00 0.  1.
        -11    1    4    4    0    0 -0.10375711370E-01  0.61177585933E-02 -0.71589208356E-02  0.14021184871E-01  0.51100000000E-03 0.  1.
         11    1    4    4    0    0 -0.10313951156E+00 -0.61036536021E-02 -0.53797913577E-01  0.11648815415E+00  0.51100000000E-03 0. -1.
</event>
<event>
 8    1  0.1180500E+005  0.1043930E+01  0.7957747E-01            NaN
         13   -1    0    0    0    0  0.00000000000E+00  0.00000000000E+00  0.74505805969E-08  0.10566000000E+00  0.10566000000E+00 0.  1.
     999900   -1    0    0    0    0 -0.00000000000E+00 -0.00000000000E+00 -0.74505805969E-08  0.93827000000E+00  0.93827000000E+00 0.  1.
     999902    2    1    2    0    0 -0.68973275887E-02  0.23987594397E-01  0.15596337524E-01  0.10144983239E+01  0.10140713119E+01 0.  0.
     999903    2    3    3    0    0  0.37253548928E-01 -0.99569318774E-01  0.59814767573E-01  0.12367236996E+00  0.20375782757E-01 0.  0.
         14    1    1    2    0    0  0.68973275887E-02 -0.23987594397E-01 -0.15596337524E-01  0.29431676081E-01  0.00000000000E+00 0. -1.
     999901    1    3    3    0    0 -0.44150876516E-01  0.12355691317E+00 -0.44218430050E-01  0.89082595396E+00  0.88000000000E+00 0.  1.
        -11    1    4    4    0    0  0.27250173577E-01 -0.48739907635E-01  0.24542678520E-01  0.60997989690E-01  0.51100000000E-03 0.  1.
         11    1    4    4    0    0  0.10003375351E-01 -0.50829411139E-01  0.35272089054E-01  0.62674380271E-01  0.51100000000E-03 0. -1.
</event>
<event>
 8    1  0.1180500E+005  0.1043930E+01  0.7957747E-01            NaN
         13   -1    0    0    0    0  0.00000000000E+00  0.00000000000E+00  0.74505805969E-08  0.10566000000E+00  0.10566000000E+00 0. -1.
     999900   -1    0    0    0    0 -0.00000000000E+00 -0.00000000000E+00 -0.74505805969E-08  0.93827000000E+00  0.93827000000E+00 0. -1.
     999902    2    1    2    0    0  0.16198509832E-01 -0.93472074198E-02 -0.14399042036E-01  0.10203271523E+01  0.10200541178E+01 0.  0.
     999903    2    3    3    0    0  0.16215018287E-01 -0.38735535405E-01 -0.12450477073E+00  0.13297888608E+00  0.20459171232E-01 0.  0.
         14    1    1    2    0    0 -0.16198509832E-01  0.93472074198E-02  0.14399042036E-01  0.23602847685E-01  0.00000000000E+00 0. -1.
     999901    1    3    3    0    0 -0.16508455758E-04  0.29388327985E-01  0.11010572870E+00  0.88734826623E+00  0.88000000000E+00 0.  1.
        -11    1    4    4    0    0  0.14326707214E-01 -0.16989085535E-01 -0.84815471198E-01  0.87680150790E-01  0.51100000000E-03 0. -1.
         11    1    4    4    0    0  0.18883110734E-02 -0.21746449869E-01 -0.39689299534E-01  0.45298735292E-01  0.51100000000E-03 0.  1.
</event>
<event>
 8    1  0.1180500E+005  0.1043930E+01  0.7957747E-01            NaN
         13   -1    0    0    0    0  0.00000000000E+00  0.00000000000E+00  0.74505805969E-08  0.10566000000E+00  0.10566000000E+00 0. -1.
     999900   -1    0    0    0    0 -0.00000000000E+00 -0.00000000000E+00 -0.74505805969E-08  0.93827000000E+00  0.93827000000E+00 0.  1.
     999902    2    1    2    0    0  0.20265226198E-01 -0.11102224796E-01 -0.17373940180E-03  0.10208222313E+01  0.10205606591E+01 0.  0.
     999903    2    3    3    0    0 -0.12644229371E+00  0.40455900024E-02 -0.10986277307E-01  0.12848291039E+00  0.19573950431E-01 0.  0.
         14    1    1    2    0    0 -0.20265226198E-01  0.11102224796E-01  0.17373940180E-03  0.23107768686E-01  0.00000000000E+00 0.  1.
     999901    1    3    3    0    0  0.14670751991E+00 -0.15147814799E-01  0.10812537905E-01  0.89233932092E+00  0.88000000000E+00 0. -1.
        -11    1    4    4    0    0 -0.69220940739E-01  0.31699931359E-02  0.37137783537E-02  0.69394817990E-01  0.51100000000E-03 0.  1.
         11    1    4    4    0    0 -0.57221352973E-01  0.87559686651E-03 -0.14700055660E-01  0.59088092399E-01  0.51100000000E-03 0. -1.
</event>
<event>
 8    1  0.1180500E+005  0.1043930E+01  0.7957747E-01            NaN
         13   -1    0    0    0    0  0.00000000000E+00  0.00000000000E+00  0.74505805969E-08  0.10566000000E+00  0.10566000000E+00 0. -1.
     999900   -1    0    0    0    0 -0.00000000000E+00 -0.00000000000E+00 -0.74505805969E-08  0.93827000000E+00  0.93827000000E+00 0.  1.
     999902    2    1    2    0    0 -0.14488651178E-01  0.13600960678E-01  0.11288881984E-01  0.10210751099E+01  0.10208192955E+01 0.  0.
     999903    2    3    3    0    0 -0.30347219232E-01 -0.53168212397E-01 -0.11300117474E+00  0.12969548548E+00  0.17431033778E-01 0.  0.
         14    1    1    2    0    0  0.14488651178E-01 -0.13600960678E-01 -0.11288881984E-01  0.22854890085E-01  0.00000000000E+00 0.  1.
     999901    1    3    3    0    0  0.15858568054E-01  0.66769173074E-01  0.12429005672E+00  0.89137962443E+00  0.88000000000E+00 0. -1.
        -11    1    4    4    0    0 -0.20795676306E-01 -0.35848949764E-01 -0.91652490451E-01  0.10058850570E+00  0.51100000000E-03 0. -1.
         11    1    4    4    0    0 -0.95515429256E-02 -0.17319262632E-01 -0.21348684285E-01  0.29106979782E-01  0.51100000000E-03 0.  1.
</event>
<event>
 8    1  0.1180500E+005  0.1043930E+01  0.7957747E-01            NaN
         13   -1    0    0    0    0  0.00000000000E+00  0.00000000000E+00  0.74505805969E-08  0.10566000000E+00  0.10566000000E+00 0. -1.
     999900   -1    0    0    0    0 -0.00000000000E+00 -0.00000000000E+00 -0.74505805969E-08  0.93827000000E+00  0.93827000000E+00 0. -1.
     999902    2    1    2    0    0  0.68926207190E-02  0.27972004623E-02  0.19365996133E-01  0.10231845341E+01  0.10229742012E+01 0.  0.
     999903    2    3    3    0    0  0.12823077989E+00  0.17196361348E-01  0.31701168440E-01  0.13465628961E+00  0.19710517462E-01 0.  0.
         14    1    1    2    0    0 -0.68926207190E-02 -0.27972004623E-02 -0.19365996133E-01  0.20745465939E-01  0.00000000000E+00 0.  1.
     999901    1    3    3    0    0 -0.12133815917E+00 -0.14399160886E-01 -0.12335172307E-01  0.88852824445E+00  0.88000000000E+00 0.  1.
        -11    1    4    4    0    0  0.73002839741E-01  0.19110046164E-01  0.15178052277E-01  0.76975599164E-01  0.51100000000E-03 0. -1.
         11    1    4    4    0    0  0.55227940144E-01 -0.19136848159E-02  0.16523116163E-01  0.57680690451E-01  0.51100000000E-03 0.  1.
</event>
<event>
 8    1  0.1180500E+005  0.1043930E+01  0.7957747E-01            NaN
         13   -1    0    0    0    0  0.00000000000E+00  0.00000000000E+00  0.74505805969E-08  0.10566000000E+00  0.10566000000E+00 0.  1.
     999900   -1    0    0    0    0 -0.00000000000E+00 -0.00000000000E+00 -0.74505805969E-08  0.93827000000E+00  0.93827000000E+00 0. -1.
     999902    2    1    2    0    0  0.88727387583E-02  0.47342214610E-02  0.90146563288E-02  0.10304243577E+01  0.10303358455E+01 0.  0.
     999903    2    3    3    0    0 -0.32538663240E-01  0.76509507069E-01 -0.10923141423E+00  0.13865716326E+00  0.19540670164E-01 0.  0.
         14    1    1    2    0    0 -0.88727387583E-02 -0.47342214610E-02 -0.90146563288E-02  0.13505642326E-01  0.00000000000E+00 0.  1.
     999901    1    3    3    0    0  0.41411401999E-01 -0.71775285608E-01  0.11824607056E+00  0.89176719442E+00  0.88000000000E+00 0.  1.
        -11    1    4    4    0    0 -0.56127218665E-02  0.35188350844E-01 -0.38914359833E-01  0.52766572790E-01  0.51100000000E-03 0. -1.
         11    1    4    4    0    0 -0.26925941374E-01  0.41321156225E-01 -0.70317054395E-01  0.85890590465E-01  0.51100000000E-03 0.  1.
</event>
<event>
 8    1  0.1180500E+005  0.1043930E+01  0.7957747E-01            NaN
         13   -1    0    0    0    0  0.00000000000E+00  0.00000000000E+00  0.74505805969E-08  0.10566000000E+00  0.10566000000E+00 0.  1.
     999900   -1    0    0    0    0 -0.00000000000E+00 -0.00000000000E+00 -0.74505805969E-08  0.93827000000E+00  0.93827000000E+00 0.  1.
     999902    2    1    2    0    0 -0.14283308464E-01  0.51051145329E-02  0.17160253186E-01  0.10210269569E+01  0.10207700511E+01 0.  0.
     999903    2    3    3    0    0 -0.59283962192E-01  0.11530704748E+00  0.21566118159E-01  0.13300165515E+00  0.20347959321E-01 0.  0.
         14    1    1    2    0    0  0.14283308464E-01 -0.51051145329E-02 -0.17160253186E-01  0.22903043127E-01  0.00000000000E+00 0. -1.
     999901    1    3    3    0    0  0.45000653728E-01 -0.11020193294E+00 -0.44058649729E-02  0.88802530173E+00  0.88000000000E+00 0.  1.
        -11    1    4    4    0    0 -0.65039522235E-02  0.12905984284E-01 -0.39806598666E-02  0.14999086600E-01  0.51100000000E-03 0.  1.
         11    1    4    4    0    0 -0.52780009969E-01  0.10240106319E+00  0.25546778026E-01  0.11800256855E+00  0.51100000000E-03 0. -1.
</event>
<event>
 8    1  0.1180500E+005  0.1043930E+01  0.7957747E-01            NaN
         13   -1    0    0    0    0  0.00000000000E+00  0.00000000000E+00  0.74505805969E-08  0.10566000000E+00  0.10566000000E+00 0.  1.
     999900   -1    0    0    0    0 -0.00000000000E+00 -0.00000000000E+00 -0.74505805969E-08  0.93827000000E+00  0.93827000000E+00 0.  1.
     999902    2    1    2    0    0 -0.10507632663E-01  0.16981674161E-01  0.11857946026E-01  0.10207050461E+01  0.10204407835E+01 0.  0.
     999903    2    3    3    0    0 -0.10354259871E+00 -0.74204679028E-01 -0.20277591507E-01  0.13053475410E+00  0.20018420871E-01 0.  0.
         14    1    1    2    0    0  0.10507632663E-01 -0.16981674161E-01 -0.11857946026E-01  0.23224953939E-01  0.00000000000E+00 0. -1.
     999901    1    3    3    0    0  0.93034966045E-01  0.91186353190E-01  0.32135537533E-01  0.89017029196E+00  0.88000000000E+00 0. -1.
        -11    1    4    4    0    0 -0.93635965992E-02 -0.11354599171E-01 -0.76847246876E-02  0.16610839176E-01  0.51100000000E-03 0. -1.
         11    1    4    4    0    0 -0.94179002109E-01 -0.62850079857E-01 -0.12592866820E-01  0.11392391493E+00  0.51100000000E-03 0.  1.
</event>
<event>
 8    1  0.1180500E+005  0.1043930E+01  0.7957747E-01            NaN
         13   -1    0    0    0    0  0.00000000000E+00  0.00000000000E+00  0.74505805969E-08  0.10566000000E+00  0.10566000000E+00 0. -1.
     999900   -1    0    0    0    0 -0.00000000000E+00 -0.00000000000E+00 -0.74505805969E-08  0.93827000000E+00  0.93827000000E+00 0. -1.
     999902    2    1    2    0    0  0.19754406250E-01  0.10682831589E-01 -0.96524886897E-02  0.10194855733E+01  0.10191924765E+01 0.  0.
     999903    2    3    3    0    0 -0.83610545654E-01 -0.68893201521E-01 -0.65456571004E-01  0.12812102730E+00  0.19835281397E-01 0.  0.
         14    1    1    2    0    0 -0.19754406250E-01 -0.10682831589E-01  0.96524886897E-02  0.24444426665E-01  0.00000000000E+00 0.  1.
     999901    1    3    3    0    0  0.10336495190E+00  0.79576033110E-01  0.55804082315E-01  0.89136454604E+00  0.88000000000E+00 0.  1.
        -11    1    4    4    0    0 -0.61717665388E-01 -0.58792284871E-01 -0.44423319867E-01  0.96121253894E-01  0.51100000000E-03 0.  1.
         11    1    4    4    0    0 -0.21892880266E-01 -0.10100916651E-01 -0.21033251138E-01  0.31999773405E-01  0.51100000000E-03 0. -1.
</event>
<event>
 8    1  0.1180500E+005  0.1043930E+01  0.7957747E-01            NaN
         13   -1    0    0    0    0  0.00000000000E+00  0.00000000000E+00  0.74505805969E-08  0.10566000000E+00  0.10566000000E+00 0.  1.
     999900   -1    0    0    0    0 -0.00000000000E+00 -0.00000000000E+00 -0.74505805969E-08  0.93827000000E+00  0.93827000000E+00 0.  1.
     999902    2    1    2    0    0 -0.51925463355E-02  0.11495643022E-02  0.23006910576E-01  0.10203164029E+01  0.10200431167E+01 0.  0.
     999903    2    3    3    0    0  0.12149782837E+00 -0.16618311544E-01 -0.34935628605E-01  0.12918033789E+00  0.20716442080E-01 0.  0.
         14    1    1    2    0    0  0.51925463355E-02 -0.11495643022E-02 -0.23006910576E-01  0.23613597138E-01  0.00000000000E+00 0. -1.
     999901    1    3    3    0    0 -0.12669037471E+00  0.17767875846E-01  0.57942539181E-01  0.89113606498E+00  0.88000000000E+00 0. -1.
        -11    1    4    4    0    0  0.60339123332E-01 -0.74200152287E-02 -0.66105816093E-02  0.61154127748E-01  0.51100000000E-03 0.  1.
         11    1    4    4    0    0  0.61158705040E-01 -0.91982963149E-02 -0.28325046996E-01  0.68026210137E-01  0.51100000000E-03 0. -1.
</event>
<event>
 8    1  0.1180500E+005  0.1043930E+01  0.7957747E-01            NaN
         13   -1    0    0    0    0  0.00000000000E+00  0.00000000000E+00  0.74505805969E-08  0.10566000000E+00  0.10566000000E+00 0. -1.
     999900   -1    0    0    0    0 -0.00000000000E+00 -0.00000000000E+00 -0.74505805969E-08  0.93827000000E+00  0.93827000000E+00 0. -1.
     999902    2    1    2    0    0  0.13719312963E-02  0.14391860343E-01 -0.18585670487E-01  0.10203835568E+01  0.10201118409E+01 0.  0.
     999903    2    3    3    0    0  0.11665738921E+00 -0.48818196425E-01  0.20528584759E-01  0.12975671405E+00  0.20572294200E-01 0.  0.
         14    1    1    2    0    0 -0.13719312963E-02 -0.14391860343E-01  0.18585670487E-01  0.23546443194E-01  0.00000000000E+00 0. -1.
     999901    1    3    3    0    0 -0.11528545791E+00  0.63210056769E-01 -0.39114255246E-01  0.89062684276E+00  0.88000000000E+00 0.  1.
        -11    1    4    4    0    0  0.78741983610E-01 -0.30207417639E-01  0.41125707331E-02  0.84439104817E-01  0.51100000000E-03 0. -1.
         11    1    4    4    0    0  0.37915405598E-01 -0.18610778786E-01  0.16416014026E-01  0.45317609229E-01  0.51100000000E-03 0.  1.
</event>
<event>
 8    1  0.1180500E+005  0.1043930E+01  0.7957747E-01            NaN
         13   -1    0    0    0    0  0.00000000000E+00  0.00000000000E+00  0.74505805969E-08  0.10566000000E+00  0.10566000000E+00 0. -1.
     999900   -1    0    0    0    0 -0.00000000000E+00 -0.00000000000E+00 -0.74505805969E-08  0.93827000000E+00  0.93827000000E+00 0.  1.
     999902    2    1    2    0    0 -0.67854968825E-02 -0.20423710135E-01  0.99732417170E-02  0.10202100410E+01  0.10199342583E+01 0.  0.
     999903    2    3    3    0    0  0.11820576906E+00 -0.46676295693E-01 -0.21960736179E-01  0.13041692251E+00  0.19365415693E-01 0.  0.
         14    1    1    2    0    0  0.67854968825E-02  0.20423710135E-01 -0.99732417170E-02  0.23719958979E-01  0.00000000000E+00 0.  1.
     999901    1    3    3    0    0 -0.12499126594E+00  0.26252585559E-01  0.31933977896E-01  0.88979311851E+00  0.88000000000E+00 0.  1.
        -11    1    4    4    0    0  0.11581603273E-01 -0.10013917542E-01  0.99535742540E-03  0.15351349657E-01  0.51100000000E-03 0.  1.
         11    1    4    4    0    0  0.10662416578E+00 -0.36662378152E-01 -0.22956093605E-01  0.11506557285E+00  0.51100000000E-03 0. -1.
</event>
<event>
 7    1  0.1231800E+005  0.1043930E+01  0.7957747E-01            NaN
         13   -1    0    0    0    0  0.00000000000E+00  0.00000000000E+00  0.74505805969E-08  0.10566000000E+00  0.10566000000E+00 0. -1.
     999900   -1    0    0    0    0 -0.00000000000E+00 -0.00000000000E+00 -0.74505805969E-08  0.93827000000E+00  0.93827000000E+00 0.  1.
     999903    2    1    2    0    0 -0.78220848129E-01 -0.47956782245E-01  0.56262373140E-01  0.10952008750E+00  0.20269210386E-01 0.  0.
         14    1    1    2    0    0 -0.35711901175E-01 -0.10567776836E-01 -0.24483372584E-01  0.44569645790E-01  0.00000000000E+00 0. -1.
     999901    1    1    2    0    0  0.11393274930E+00  0.58524559081E-01 -0.31779000555E-01  0.88984026671E+00  0.88000000000E+00 0.  1.
        -11    1    3    3    0    0 -0.64276146530E-01 -0.29745230694E-01  0.45462666934E-01  0.84162443925E-01  0.51100000000E-03 0.  1.
         11    1    3    3    0    0 -0.13944701599E-01 -0.18211551551E-01  0.10799706205E-01  0.25357643576E-01  0.51100000000E-03 0. -1.
</event>
<event>
 8    1  0.1180500E+005  0.1043930E+01  0.7957747E-01            NaN
         13   -1    0    0    0    0  0.00000000000E+00  0.00000000000E+00  0.74505805969E-08  0.10566000000E+00  0.10566000000E+00 0. -1.
     999900   -1    0    0    0    0 -0.00000000000E+00 -0.00000000000E+00 -0.74505805969E-08  0.93827000000E+00  0.93827000000E+00 0. -1.
     999902    2    1    2    0    0  0.42017138681E-02  0.23793558934E-01  0.63806138404E-02  0.10189400004E+01  0.10186335084E+01 0.  0.
     999903    2    3    3    0    0 -0.10253503619E-01 -0.62939362298E-01 -0.10836877176E+00  0.12714463463E+00  0.18853905681E-01 0.  0.
         14    1    1    2    0    0 -0.42017138681E-02 -0.23793558934E-01 -0.63806138404E-02  0.24989999583E-01  0.00000000000E+00 0.  1.
     999901    1    3    3    0    0  0.14455217487E-01  0.86732921232E-01  0.11474938560E+00  0.89179536578E+00  0.88000000000E+00 0.  1.
        -11    1    4    4    0    0 -0.15820996777E-02 -0.48366710836E-01 -0.69038906753E-01  0.84311763848E-01  0.51100000000E-03 0. -1.
         11    1    4    4    0    0 -0.86714039408E-02 -0.14572651462E-01 -0.39329865011E-01  0.42832870785E-01  0.51100000000E-03 0.  1.
</event>
<event>
 8    1  0.1180500E+005  0.1043930E+01  0.7957747E-01            NaN
         13   -1    0    0    0    0  0.00000000000E+00  0.00000000000E+00  0.74505805969E-08  0.10566000000E+00  0.10566000000E+00 0. -1.
     999900   -1    0    0    0    0 -0.00000000000E+00 -0.00000000000E+00 -0.74505805969E-08  0.93827000000E+00  0.93827000000E+00 0. -1.
     999902    2    1    2    0    0  0.19776042619E-01 -0.12971581985E-01  0.17779965594E-02  0.10202125998E+01  0.10199368773E+01 0.  0.
     999903    2    3    3    0    0  0.81270799435E-01  0.16253980500E-01  0.10069900640E+00  0.13205658602E+00  0.20724799074E-01 0.  0.
         14    1    1    2    0    0 -0.19776042619E-01  0.12971581985E-01 -0.17779965594E-02  0.23717400208E-01  0.00000000000E+00 0.  1.
     999901    1    3    3    0    0 -0.61494756816E-01 -0.29225562485E-01 -0.98921009844E-01  0.88815601378E+00  0.88000000000E+00 0. -1.
        -11    1    4    4    0    0  0.43557318803E-01  0.18414981965E-01  0.49911177902E-01  0.68758551342E-01  0.51100000000E-03 0.  1.
         11    1    4    4    0    0  0.37713480632E-01 -0.21610014651E-02  0.50787828502E-01  0.63298034674E-01  0.51100000000E-03 0. -1.
</event>
<event>
 8    1  0.1180500E+005  0.1043930E+01  0.7957747E-01            NaN
         13   -1    0    0    0    0  0.00000000000E+00  0.00000000000E+00  0.74505805969E-08  0.10566000000E+00  0.10566000000E+00 0.  1.
     999900   -1    0    0    0    0 -0.00000000000E+00 -0.00000000000E+00 -0.74505805969E-08  0.93827000000E+00  0.93827000000E+00 0. -1.
     999902    2    1    2    0    0  0.12513271508E-02  0.18338604903E-01  0.14777032353E-01  0.10203454514E+01  0.10200728450E+01 0.  0.
     999903    2    3    3    0    0 -0.11148348437E+00  0.49325044063E-01  0.46584729049E-01  0.13204312292E+00  0.20092836287E-01 0.  0.
         14    1    1    2    0    0 -0.12513271508E-02 -0.18338604903E-01 -0.14777032353E-01  0.23584548641E-01  0.00000000000E+00 0. -1.
     999901    1    3    3    0    0  0.11273481152E+00 -0.30986439160E-01 -0.31807696696E-01  0.88830232844E+00  0.88000000000E+00 0. -1.
        -11    1    4    4    0    0 -0.40214973264E-01  0.21252817588E-01  0.76878134778E-02  0.46133392755E-01  0.51100000000E-03 0.  1.
         11    1    4    4    0    0 -0.71268511110E-01  0.28072226475E-01  0.38896915571E-01  0.85909730165E-01  0.51100000000E-03 0. -1.
</event>
<event>
 8    1  0.1180500E+005  0.1043930E+01  0.7957747E-01            NaN
         13   -1    0    0    0    0  0.00000000000E+00  0.00000000000E+00  0.74505805969E-08  0.10566000000E+00  0.10566000000E+00 0.  1.
     999900   -1    0    0    0    0 -0.00000000000E+00 -0.00000000000E+00 -0.74505805969E-08  0.93827000000E+00  0.93827000000E+00 0.  1.
     999902    2    1    2    0    0 -0.64353520625E-02  0.14254514440E-01 -0.15987562008E-01  0.10215646903E+01  0.10213198370E+01 0.  0.
     999903    2    3    3    0    0 -0.58562641662E-01 -0.11365604121E+00 -0.20761634012E-01  0.13077787164E+00  0.18014648552E-01 0.  0.
         14    1    1    2    0    0  0.64353520625E-02 -0.14254514440E-01  0.15987562008E-01  0.22365309679E-01  0.00000000000E+00 0.  1.
     999901    1    3    3    0    0  0.52127289600E-01  0.12791055565E+00  0.47740720037E-02  0.89078681868E+00  0.88000000000E+00 0.  1.
        -11    1    4    4    0    0 -0.31762676156E-02 -0.15423915324E-01  0.15096160244E-02  0.15828010027E-01  0.51100000000E-03 0.  1.
         11    1    4    4    0    0 -0.55386374047E-01 -0.98232125886E-01 -0.22271250036E-01  0.11494986162E+00  0.51100000000E-03 0. -1.
</event>
<event>
 8    1  0.1180500E+005  0.1043930E+01  0.7957747E-01            NaN
         13   -1    0    0    0    0  0.00000000000E+00  0.00000000000E+00  0.74505805969E-08  0.10566000000E+00  0.10566000000E+00 0. -1.
     999900   -1    0    0    0    0 -0.00000000000E+00 -0.00000000000E+00 -0.74505805969E-08  0.93827000000E+00  0.93827000000E+00 0. -1.
     999902    2    1    2    0    0 -0.28388571677E-02  0.22469746617E-01 -0.61711216792E-02  0.10204559427E+01  0.10201859143E+01 0.  0.
     999903    2    3    3    0    0 -0.10594042900E+00 -0.71085551798E-01  0.69428382873E-02  0.12941469567E+00  0.20577421628E-01 0.  0.
         14    1    1    2    0    0  0.28388571677E-02 -0.22469746617E-01  0.61711216792E-02  0.23474057294E-01  0.00000000000E+00 0.  1.
     999901    1    3    3    0    0  0.10310157183E+00  0.93555298415E-01 -0.13113959967E-01  0.89104124704E+00  0.88000000000E+00 0. -1.
        -11    1    4    4    0    0 -0.46791396908E-01 -0.41019496633E-01 -0.31009135175E-02  0.62304981457E-01  0.51100000000E-03 0.  1.
         11    1    4    4    0    0 -0.59149032090E-01 -0.30066055165E-01  0.10043751805E-01  0.67109714212E-01  0.51100000000E-03 0. -1.
</event>
<event>
 8    1  0.1180500E+005  0.1043930E+01  0.7957747E-01            NaN
         13   -1    0    0    0    0  0.00000000000E+00  0.00000000000E+00  0.74505805969E-08  0.10566000000E+00  0.10566000000E+00 0. -1.
     999900   -1    0    0    0    0 -0.00000000000E+00 -0.00000000000E+00 -0.74505805969E-08  0.93827000000E+00  0.93827000000E+00 0. -1.
     999902    2    1    2    0    0  0.11166241101E-02 -0.13765729701E-01 -0.18925550639E-01  0.10205009874E+01  0.10202320063E+01 0.  0.
     999903    2    3    3    0    0  0.90556713328E-02 -0.28424810367E-01  0.12372212067E+00  0.12885852811E+00  0.20183708647E-01 0.  0.
         14    1    1    2    0    0 -0.11166241101E-02  0.13765729701E-01  0.18925550639E-01  0.23429012583E-01  0.00000000000E+00 0. -1.
     999901    1    3    3    0    0 -0.79390472228E-02  0.14659080665E-01 -0.14264767131E+00  0.89164245931E+00  0.88000000000E+00 0. -1.
        -11    1    4    4    0    0  0.13754804748E-01 -0.11863800187E-01  0.75408386090E-01  0.77566940266E-01  0.51100000000E-03 0.  1.
         11    1    4    4    0    0 -0.46991334152E-02 -0.16561010179E-01  0.48313734580E-01  0.51291587840E-01  0.51100000000E-03 0. -1.
</event>
<event>
 8    1  0.1180500E+005  0.1043930E+01  0.7957747E-01            NaN
         13   -1    0    0    0    0  0.00000000000E+00  0.00000000000E+00  0.74505805969E-08  0.10566000000E+00  0.10566000000E+00 0.  1.
     999900   -1    0    0    0    0 -0.00000000000E+00 -0.00000000000E+00 -0.74505805969E-08  0.93827000000E+00  0.93827000000E+00 0. -1.
     999902    2    1    2    0    0  0.10856723655E-02  0.22327220711E-01 -0.69425382513E-02  0.10205231141E+01  0.10202546467E+01 0.  0.
     999903    2    3    3    0    0  0.32635301141E-01 -0.94595854637E-01 -0.79752691212E-01  0.12925003420E+00  0.18211012849E-01 0.  0.
         14    1    1    2    0    0 -0.10856723655E-02 -0.22327220711E-01  0.69425382513E-02  0.23406885879E-01  0.00000000000E+00 0.  1.
     999901    1    3    3    0    0 -0.31549628776E-01  0.11692307535E+00  0.72810152961E-01  0.89127307993E+00  0.88000000000E+00 0.  1.
        -11    1    4    4    0    0  0.28863824733E-01 -0.72787139440E-01 -0.53135109729E-01  0.94629218812E-01  0.51100000000E-03 0.  1.
         11    1    4    4    0    0  0.37714764086E-02 -0.21808715198E-01 -0.26617581483E-01  0.34620815384E-01  0.51100000000E-03 0. -1.
</event>
<event>
 8    1  0.1180500E+005  0.1043930E+01  0.7957747E-01            NaN
         13   -1    0    0    0    0  0.00000000000E+00  0.00000000000E+00  0.74505805969E-08  0.10566000000E+00  0.10566000000E+00 0. -1.
     999900   -1    0    0    0    0 -0.00000000000E+00 -0.00000000000E+00 -0.74505805969E-08  0.93827000000E+00  0.93827000000E+00 0. -1.
     999902    2    1    2    0    0  0.94788235287E-02  0.18751122206E-01 -0.10355390114E-01  0.10205059358E+01  0.10202370696E+01 0.  0.
     999903    2    3    3    0    0 -0.11613423725E+00 -0.35074987650E-01  0.37569432651E-01  0.12866924683E+00  0.20661485665E-01 0.  0.
         14    1    1    2    0    0 -0.94788235287E-02 -0.18751122206E-01  0.10355390114E-01  0.23424064205E-01  0.00000000000E+00 0. -1.
     999901    1    3    3    0    0  0.12561306078E+00  0.53826109856E-01 -0.47924822766E-01  0.89183668896E+00  0.88000000000E+00 0. -1.
        -11    1    4    4    0    0 -0.71766799742E-01 -0.30401946374E-01  0.29450656011E-01  0.83320790617E-01  0.51100000000E-03 0.  1.
         11    1    4    4    0    0 -0.44367437511E-01 -0.46730412757E-02  0.81187766400E-02  0.45348456216E-01  0.51100000000E-03 0. -1.
</event>
<event>
 8    1  0.1180500E+005  0.1043930E+01  0.7957747E-01            NaN
         13   -1    0    0    0    0  0.00000000000E+00  0.00000000000E+00  0.74505805969E-08  0.10566000000E+00  0.10566000000E+00 0.  1.
     999900   -1    0    0    0    0 -0.00000000000E+00 -0.00000000000E+00 -0.74505805969E-08  0.93827000000E+00  0.93827000000E+00 0.  1.
     999902    2    1    2    0    0 -0.41033272668E-02  0.22929085752E-01 -0.66047940755E-02  0.10197183587E+01  0.10194308842E+01 0.  0.
     999903    2    3    3    0    0  0.39208415001E-01  0.41972565766E-01 -0.11672621520E+00  0.13159376807E+00  0.19822068442E-01 0.  0.
         14    1    1    2    0    0  0.41033272668E-02 -0.22929085752E-01  0.66047940755E-02  0.24211641267E-01  0.00000000000E+00 0. -1.
     999901    1    3    3    0    0 -0.43311742268E-01 -0.19043480014E-01  0.11012142112E+00  0.88812459066E+00  0.88000000000E+00 0. -1.
        -11    1    4    4    0    0  0.97103942747E-03  0.11456936174E-01 -0.27995852618E-01  0.30269344045E-01  0.51100000000E-03 0.  1.
         11    1    4    4    0    0  0.38237375574E-01  0.30515629591E-01 -0.88730362578E-01  0.10132442403E+00  0.51100000000E-03 0. -1.
</event>
<event>
 8    1  0.1180500E+005  0.1043930E+01  0.7957747E-01            NaN
         13   -1    0    0    0    0  0.00000000000E+00  0.00000000000E+00  0.74505805969E-08  0.10566000000E+00  0.10566000000E+00 0.  1.
     999900   -1    0    0    0    0 -0.00000000000E+00 -0.00000000000E+00 -0.74505805969E-08  0.93827000000E+00  0.93827000000E+00 0.  1.
     999902    2    1    2    0    0  0.75294200852E-02  0.22847710016E-01 -0.11003746190E-02  0.10198484543E+01  0.10195640975E+01 0.  0.
     999903    2    3    3    0    0 -0.11011302062E+00  0.66265451192E-01  0.13929856694E-01  0.13083172106E+00  0.20172034978E-01 0.  0.
         14    1    1    2    0    0 -0.75294200852E-02 -0.22847710016E-01  0.11003746190E-02  0.24081545717E-01  0.00000000000E+00 0.  1.
     999901    1    3    3    0    0  0.11764244071E+00 -0.43417741176E-01 -0.15030231313E-01  0.88901673323E+00  0.88000000000E+00 0.  1.
        -11    1    4    4    0    0 -0.92071411961E-01  0.50344055151E-01  0.46617768637E-02  0.10504123987E+00  0.51100000000E-03 0.  1.
         11    1    4    4    0    0 -0.18041608659E-01  0.15921396041E-01  0.92680798300E-02  0.25790481183E-01  0.51100000000E-03 0. -1.
</event>
<event>
 8    1  0.1180500E+005  0.1043930E+01  0.7957747E-01            NaN
         13   -1    0    0    0    0  0.00000000000E+00  0.00000000000E+00  0.74505805969E-08  0.10566000000E+00  0.10566000000E+00 0.  1.
     999900   -1    0    0    0    0 -0.00000000000E+00 -0.00000000000E+00 -0.74505805969E-08  0.93827000000E+00  0.93827000000E+00 0. -1.
     999902    2    1    2    0    0  0.18847621269E-01 -0.14038992090E-01 -0.59535006590E-02  0.10196860256E+01  0.10193977734E+01 0.  0.
     999903    2    3    3    0    0 -0.71348695715E-02 -0.12875178397E+00 -0.18233472067E-01  0.13177560657E+00  0.20110264666E-01 0.  0.
         14    1    1    2    0    0 -0.18847621269E-01  0.14038992090E-01  0.59535006590E-02  0.24243974437E-01  0.00000000000E+00 0.  1.
     999901    1    3    3    0    0  0.25982490841E-01  0.11471279188E+00  0.12279971407E-01  0.88791041899E+00  0.88000000000E+00 0. -1.
        -11    1    4    4    0    0  0.15136416550E-02 -0.10799217053E+00 -0.14499007906E-01  0.10897285147E+00  0.51100000000E-03 0. -1.
         11    1    4    4    0    0 -0.86485112264E-02 -0.20759613440E-01 -0.37344641605E-02  0.22802755100E-01  0.51100000000E-03 0.  1.
</event>
<event>
 8    1  0.1180500E+005  0.1043930E+01  0.7957747E-01            NaN
         13   -1    0    0    0    0  0.00000000000E+00  0.00000000000E+00  0.74505805969E-08  0.10566000000E+00  0.10566000000E+00 0.  1.
     999900   -1    0    0    0    0 -0.00000000000E+00 -0.00000000000E+00 -0.74505805969E-08  0.93827000000E+00  0.93827000000E+00 0. -1.
     999902    2    1    2    0    0  0.89343201550E-02  0.15201460668E-01 -0.15653669757E-01  0.10203515382E+01  0.10200790742E+01 0.  0.
     999903    2    3    3    0    0 -0.15154422384E-01 -0.11590760539E+00 -0.52023398580E-01  0.12956951556E+00  0.20435162257E-01 0.  0.
         14    1    1    2    0    0 -0.89343201550E-02 -0.15201460668E-01  0.15653669757E-01  0.23578461781E-01  0.00000000000E+00 0.  1.
     999901    1    3    3    0    0  0.24088742539E-01  0.13110906606E+00  0.36369728824E-01  0.89078202266E+00  0.88000000000E+00 0. -1.
        -11    1    4    4    0    0 -0.17829109286E-01 -0.81775751188E-01 -0.43300454150E-01  0.94235561605E-01  0.51100000000E-03 0.  1.
         11    1    4    4    0    0  0.26746869018E-02 -0.34131854205E-01 -0.87229444301E-02  0.35333953954E-01  0.51100000000E-03 0. -1.
</event>
<event>
 8    1  0.1180500E+005  0.1043930E+01  0.7957747E-01            NaN
         13   -1    0    0    0    0  0.00000000000E+00  0.00000000000E+00  0.74505805969E-08  0.10566000000E+00  0.10566000000E+00 0. -1.
     999900   -1    0    0    0    0 -0.00000000000E+00 -0.00000000000E+00 -0.74505805969E-08  0.93827000000E+00  0.93827000000E+00 0.  1.
     999902    2    1    2    0    0 -0.11192557922E-01 -0.11045276852E-01 -0.17801252237E-01  0.10201780301E+01  0.10199014938E+01 0.  0.
     999903    2    3    3    0    0 -0.19557494612E-01 -0.11017730416E+00  0.64639051411E-01  0.13074363977E+00  0.19853423570E-01 0.  0.
         14    1    1    2    0    0  0.11192557922E-01  0.11045276852E-01  0.17801252237E-01  0.23751969914E-01  0.00000000000E+00 0. -1.
     999901    1    3    3    0    0  0.83649366899E-02  0.99132027305E-01 -0.82440303648E-01  0.88943439031E+00  0.88000000000E+00 0.  1.
        -11    1    4    4    0    0  0.22092222515E-02 -0.41950354500E-01  0.25050281657E-01  0.48913092703E-01  0.51100000000E-03 0. -1.
         11    1    4    4    0    0 -0.21766716864E-01 -0.68226949657E-01  0.39588769754E-01  0.81830547072E-01  0.51100000000E-03 0.  1.
</event>
<event>
 8    1  0.1180500E+005  0.1043930E+01  0.7957747E-01            NaN
         13   -1    0    0    0    0  0.00000000000E+00  0.00000000000E+00  0.74505805969E-08  0.10566000000E+00  0.10566000000E+00 0.  1.
     999900   -1    0    0    0    0 -0.00000000000E+00 -0.00000000000E+00 -0.74505805969E-08  0.93827000000E+00  0.93827000000E+00 0. -1.
     999902    2    1    2    0    0  0.14781651505E-01  0.19206627382E-01  0.32684570012E-02  0.10194744369E+01  0.10191810697E+01 0.  0.
     999903    2    3    3    0    0 -0.80646432195E-01 -0.40060384037E-01  0.89086832959E-01  0.12819227535E+00  0.19700615665E-01 0.  0.
         14    1    1    2    0    0 -0.14781651505E-01 -0.19206627382E-01 -0.32684570012E-02  0.24455563125E-01  0.00000000000E+00 0. -1.
     999901    1    3    3    0    0  0.95428083700E-01  0.59267011419E-01 -0.85818375958E-01  0.89128216153E+00  0.88000000000E+00 0. -1.
        -11    1    4    4    0    0 -0.56649229458E-01 -0.18302917847E-01  0.53140762432E-01  0.79801840535E-01  0.51100000000E-03 0. -1.
         11    1    4    4    0    0 -0.23997202737E-01 -0.21757466190E-01  0.35946070527E-01  0.48390434814E-01  0.51100000000E-03 0.  1.
</event>
<event>
 8    1  0.1180500E+005  0.1043930E+01  0.7957747E-01            NaN
         13   -1    0    0    0    0  0.00000000000E+00  0.00000000000E+00  0.74505805969E-08  0.10566000000E+00  0.10566000000E+00 0.  1.
     999900   -1    0    0    0    0 -0.00000000000E+00 -0.00000000000E+00 -0.74505805969E-08  0.93827000000E+00  0.93827000000E+00 0.  1.
     999902    2    1    2    0    0 -0.44786066120E-02 -0.23384974917E-01 -0.54434478824E-02  0.10195057069E+01  0.10192130986E+01 0.  0.
     999903    2    3    3    0    0  0.24580386911E-01 -0.12739198388E+00 -0.19769028561E-01  0.13278866900E+00  0.20226298391E-01 0.  0.
         14    1    1    2    0    0  0.44786066120E-02  0.23384974917E-01  0.54434478824E-02  0.24424293109E-01  0.00000000000E+00 0.  1.
     999901    1    3    3    0    0 -0.29058993523E-01  0.10400700897E+00  0.14325580678E-01  0.88671703789E+00  0.88000000000E+00 0. -1.
        -11    1    4    4    0    0  0.27379138067E-01 -0.97224153060E-01 -0.15297318425E-01  0.10215880878E+00  0.51100000000E-03 0. -1.
         11    1    4    4    0    0 -0.27987511555E-02 -0.30167830824E-01 -0.44717101359E-02  0.30629860222E-01  0.51100000000E-03 0.  1.
</event>
<event>
 8    1  0.1180500E+005  0.1043930E+01  0.7957747E-01            NaN
         13   -1    0    0    0    0  0.00000000000E+00  0.00000000000E+00  0.74505805969E-08  0.10566000000E+00  0.10566000000E+00 0. -1.
     999900   -1    0    0    0    0 -0.00000000000E+00 -0.00000000000E+00 -0.74505805969E-08  0.93827000000E+00  0.93827000000E+00 0.  1.
     999902    2    1    2    0    0 -0.60999045789E-03 -0.21100383337E-01  0.12417799497E-01  0.10194391852E+01  0.10191449614E+01 0.  0.
     999903    2    3    3    0    0 -0.34608439196E-01  0.95493004534E-01 -0.73227226278E-01  0.12697911155E+00  0.21090522125E-01 0.  0.
         14    1    1    2    0    0  0.60999045789E-03  0.21100383337E-01 -0.12417799497E-01  0.24490814802E-01  0.00000000000E+00 0. -1.
     999901    1    3    3    0    0  0.33998448738E-01 -0.11659338787E+00  0.85645025776E-01  0.89246007365E+00  0.88000000000E+00 0. -1.
        -11    1    4    4    0    0 -0.19297102553E-01  0.56119008389E-01 -0.55182564232E-01  0.81037631911E-01  0.51100000000E-03 0.  1.
         11    1    4    4    0    0 -0.15311336643E-01  0.39373996145E-01 -0.18044662047E-01  0.45941479641E-01  0.51100000000E-03 0. -1.
</event>
<event>
 8    1  0.1180500E+005  0.1043930E+01  0.7957747E-01            NaN
         13   -1    0    0    0    0  0.00000000000E+00  0.00000000000E+00  0.74505805969E-08  0.10566000000E+00  0.10566000000E+00 0. -1.
     999900   -1    0    0    0    0 -0.00000000000E+00 -0.00000000000E+00 -0.74505805969E-08  0.93827000000E+00  0.93827000000E+00 0. -1.
     999902    2    1    2    0    0  0.15281745028E-01  0.17416615692E-01 -0.65597229848E-02  0.10198488829E+01  0.10195645364E+01 0.  0.
     999903    2    3    3    0    0 -0.18526005876E-01 -0.35174970302E-01  0.12058712586E+00  0.12851552212E+00  0.19861849675E-01 0.  0.
         14    1    1    2    0    0 -0.15281745028E-01 -0.17416615692E-01  0.65597229848E-02  0.24081117061E-01  0.00000000000E+00 0.  1.
     999901    1    3    3    0    0  0.33807750904E-01  0.52591585994E-01 -0.12714684885E+00  0.89133336082E+00  0.88000000000E+00 0. -1.
        -11    1    4    4    0    0 -0.69819227788E-02 -0.29089890659E-01  0.97534635793E-01  0.10202075909E+00  0.51100000000E-03 0. -1.
         11    1    4    4    0    0 -0.11544083097E-01 -0.60850796431E-02  0.23052490069E-01  0.26494763034E-01  0.51100000000E-03 0.  1.
</event>
<event>
 8    1  0.1180500E+005  0.1043930E+01  0.7957747E-01            NaN
         13   -1    0    0    0    0  0.00000000000E+00  0.00000000000E+00  0.74505805969E-08  0.10566000000E+00  0.10566000000E+00 0.  1.
     999900   -1    0    0    0    0 -0.00000000000E+00 -0.00000000000E+00 -0.74505805969E-08  0.93827000000E+00  0.93827000000E+00 0.  1.
     999902    2    1    2    0    0  0.47994629604E-02  0.23167330287E-01  0.82757476577E-03  0.10202562821E+01  0.10199815863E+01 0.  0.
     999903    2    3    3    0    0  0.94345093478E-01  0.82153154721E-01  0.40083942267E-01  0.13287879211E+00  0.19997836629E-01 0.  0.
         14    1    1    2    0    0 -0.47994629604E-02 -0.23167330287E-01 -0.82757476577E-03  0.23673717861E-01  0.00000000000E+00 0.  1.
     999901    1    3    3    0    0 -0.89545630518E-01 -0.58985824434E-01 -0.39256367501E-01  0.88737749003E+00  0.88000000000E+00 0. -1.
        -11    1    4    4    0    0  0.36087565484E-01  0.19262519782E-01  0.11207263451E-01  0.42417224402E-01  0.51100000000E-03 0. -1.
         11    1    4    4    0    0  0.58257527995E-01  0.62890634939E-01  0.28876678816E-01  0.90461567704E-01  0.51100000000E-03 0.  1.
</event>
<event>
 8    1  0.1180500E+005  0.1043930E+01  0.7957747E-01            NaN
         13   -1    0    0    0    0  0.00000000000E+00  0.00000000000E+00  0.74505805969E-08  0.10566000000E+00  0.10566000000E+00 0.  1.
     999900   -1    0    0    0    0 -0.00000000000E+00 -0.00000000000E+00 -0.74505805969E-08  0.93827000000E+00  0.93827000000E+00 0. -1.
     999902    2    1    2    0    0  0.13259820901E-02 -0.23685389874E-01  0.32129721031E-02  0.10199909292E+01  0.10197099669E+01 0.  0.
     999903    2    3    3    0    0  0.11382631776E-02  0.79782706125E-01 -0.97982372519E-01  0.12816909725E+00  0.21452186988E-01 0.  0.
         14    1    1    2    0    0 -0.13259820901E-02  0.23685389874E-01 -0.32129721031E-02  0.23939070820E-01  0.00000000000E+00 0.  1.
     999901    1    3    3    0    0  0.18771891244E-03 -0.10346809600E+00  0.10119534462E+00  0.89182183193E+00  0.88000000000E+00 0.  1.
        -11    1    4    4    0    0  0.48578053786E-02  0.67292014129E-02 -0.44564477452E-02  0.94340591612E-02  0.51100000000E-03 0. -1.
         11    1    4    4    0    0 -0.37195422010E-02  0.73053504712E-01 -0.93525924774E-01  0.11873503809E+00  0.51100000000E-03 0.  1.
</event>
<event>
 8    1  0.1180500E+005  0.1043930E+01  0.7957747E-01            NaN
         13   -1    0    0    0    0  0.00000000000E+00  0.00000000000E+00  0.74505805969E-08  0.10566000000E+00  0.10566000000E+00 0.  1.
     999900   -1    0    0    0    0 -0.00000000000E+00 -0.00000000000E+00 -0.74505805969E-08  0.93827000000E+00  0.93827000000E+00 0.  1.
     999902    2    1    2    0    0 -0.17046138635E-01 -0.11651459572E-01 -0.11086484336E-01  0.10204941837E+01  0.10202250445E+01 0.  0.
     999903    2    3    3    0    0  0.99225400220E-01 -0.73621065897E-01 -0.36146038617E-01  0.13033280272E+00  0.20355882805E-01 0.  0.
         14    1    1    2    0    0  0.17046138635E-01  0.11651459572E-01  0.11086484336E-01  0.23435816339E-01  0.00000000000E+00 0.  1.
     999901    1    3    3    0    0 -0.11627153886E+00  0.61969606326E-01  0.25059554280E-01  0.89016138094E+00  0.88000000000E+00 0. -1.
        -11    1    4    4    0    0  0.40779465268E-01 -0.36221336625E-01 -0.67062124288E-02  0.54956204568E-01  0.51100000000E-03 0. -1.
         11    1    4    4    0    0  0.58445934953E-01 -0.37399729273E-01 -0.29439826188E-01  0.75376598153E-01  0.51100000000E-03 0.  1.
</event>
<event>
 8    1  0.1180500E+005  0.1043930E+01  0.7957747E-01            NaN
         13   -1    0    0    0    0  0.00000000000E+00  0.00000000000E+00  0.74505805969E-08  0.10566000000E+00  0.10566000000E+00 0.  1.
     999900   -1    0    0    0    0 -0.00000000000E+00 -0.00000000000E+00 -0.74505805969E-08  0.93827000000E+00  0.93827000000E+00 0. -1.
     999902    2    1    2    0    0  0.98685362125E-02  0.20445349497E-01  0.49861682853E-02  0.10206864590E+01  0.10204217684E+01 0.  0.
     999903    2    3    3    0    0 -0.58778794526E-01  0.10959539266E+00 -0.40530366411E-01  0.13235547276E+00  0.20227797467E-01 0.  0.
         14    1    1    2    0    0 -0.98685362125E-02 -0.20445349497E-01 -0.49861682853E-02  0.23243540978E-01  0.00000000000E+00 0. -1.
     999901    1    3    3    0    0  0.68647330738E-01 -0.89150043167E-01  0.45516534697E-01  0.88833098626E+00  0.88000000000E+00 0.  1.
        -11    1    4    4    0    0 -0.33222782253E-01  0.55879589980E-01 -0.10979460592E-01  0.65932476920E-01  0.51100000000E-03 0.  1.
         11    1    4    4    0    0 -0.25556012273E-01  0.53715802684E-01 -0.29550905819E-01  0.66422995845E-01  0.51100000000E-03 0. -1.
</event>
<event>
 8    1  0.1180500E+005  0.1043930E+01  0.7957747E-01            NaN
         13   -1    0    0    0    0  0.00000000000E+00  0.00000000000E+00  0.74505805969E-08  0.10566000000E+00  0.10566000000E+00 0. -1.
     999900   -1    0    0    0    0 -0.00000000000E+00 -0.00000000000E+00 -0.74505805969E-08  0.93827000000E+00  0.93827000000E+00 0. -1.
     999902    2    1    2    0    0  0.14703053508E-01 -0.12632769283E-01 -0.11557458778E-01  0.10213614047E+01  0.10211120298E+01 0.  0.
     999903    2    3    3    0    0  0.59220513824E-01 -0.44120259728E-01  0.10733288729E+00  0.13169394953E+00  0.19216687366E-01 0.  0.
         14    1    1    2    0    0 -0.14703053508E-01  0.12632769283E-01  0.11557458778E-01  0.22568595340E-01  0.00000000000E+00 0.  1.
     999901    1    3    3    0    0 -0.44517460315E-01  0.31487490445E-01 -0.11889034607E+00  0.88966745513E+00  0.88000000000E+00 0. -1.
        -11    1    4    4    0    0  0.43529730640E-01 -0.21495288199E-01  0.63602392985E-01  0.80015063449E-01  0.51100000000E-03 0.  1.
         11    1    4    4    0    0  0.15690783183E-01 -0.22624971529E-01  0.43730494304E-01  0.51678886082E-01  0.51100000000E-03 0. -1.
</event>
<event>
 8    1  0.1180500E+005  0.1043930E+01  0.7957747E-01            NaN
         13   -1    0    0    0    0  0.00000000000E+00  0.00000000000E+00  0.74505805969E-08  0.10566000000E+00  0.10566000000E+00 0. -1.
     999900   -1    0    0    0    0 -0.00000000000E+00 -0.00000000000E+00 -0.74505805969E-08  0.93827000000E+00  0.93827000000E+00 0. -1.
     999902    2    1    2    0    0 -0.16026930267E-01 -0.37071250629E-02  0.17118761564E-01  0.10201885327E+01  0.10199122438E+01 0.  0.
     999903    2    3    3    0    0  0.58489416977E-01 -0.10337781102E+00  0.51201202713E-01  0.13077943427E+00  0.19331672472E-01 0.  0.
         14    1    1    2    0    0  0.16026930267E-01  0.37071250629E-02 -0.17118761564E-01  0.23741467257E-01  0.00000000000E+00 0.  1.
     999901    1    3    3    0    0 -0.74516347244E-01  0.99670685955E-01 -0.34082441149E-01  0.88940909847E+00  0.88000000000E+00 0. -1.
        -11    1    4    4    0    0  0.43391109238E-01 -0.90961228326E-01  0.43230451208E-01  0.10966251161E+00  0.51100000000E-03 0.  1.
         11    1    4    4    0    0  0.15098307739E-01 -0.12416582692E-01  0.79707515054E-02  0.21116922666E-01  0.51100000000E-03 0. -1.
</event>
<event>
 8    1  0.1180500E+005  0.1043930E+01  0.7957747E-01            NaN
         13   -1    0    0    0    0  0.00000000000E+00  0.00000000000E+00  0.74505805969E-08  0.10566000000E+00  0.10566000000E+00 0. -1.
     999900   -1    0    0    0    0 -0.00000000000E+00 -0.00000000000E+00 -0.74505805969E-08  0.93827000000E+00  0.93827000000E+00 0.  1.
     999902    2    1    2    0    0  0.24334223011E-02  0.10334555613E-01 -0.11801055851E-01  0.10280558228E+01  0.10279332591E+01 0.  0.
     999903    2    3    3    0    0 -0.53110482571E-01  0.12489040877E+00  0.18745868300E-01  0.13836976384E+00  0.19402226845E-01 0.  0.
         14    1    1    2    0    0 -0.24334223011E-02 -0.10334555613E-01  0.11801055851E-01  0.15874177239E-01  0.00000000000E+00 0. -1.
     999901    1    3    3    0    0  0.55543904872E-01 -0.11455585315E+00 -0.30546924152E-01  0.88968605892E+00  0.88000000000E+00 0.  1.
        -11    1    4    4    0    0 -0.50783318081E-01  0.10077912544E+00  0.14702718034E-01  0.11380601284E+00  0.51100000000E-03 0.  1.
         11    1    4    4    0    0 -0.23271644894E-02  0.24111283331E-01  0.40431502661E-02  0.24563751007E-01  0.51100000000E-03 0. -1.
</event>
<event>
 8    1  0.1180500E+005  0.1043930E+01  0.7957747E-01            NaN
         13   -1    0    0    0    0  0.00000000000E+00  0.00000000000E+00  0.74505805969E-08  0.10566000000E+00  0.10566000000E+00 0.  1.
     999900   -1    0    0    0    0 -0.00000000000E+00 -0.00000000000E+00 -0.74505805969E-08  0.93827000000E+00  0.93827000000E+00 0.  1.
     999902    2    1    2    0    0  0.13957284876E-01  0.18926787260E-01  0.59398105609E-02  0.10196748887E+01  0.10193863684E+01 0.  0.
     999903    2    3    3    0    0  0.69836696005E-01 -0.10216162522E+00 -0.29695666553E-01  0.12891409054E+00  0.20563276770E-01 0.  0.
         14    1    1    2    0    0 -0.13957284876E-01 -0.18926787260E-01 -0.59398105609E-02  0.24255111350E-01  0.00000000000E+00 0. -1.
     999901    1    3    3    0    0 -0.55879411129E-01  0.12108841248E+00  0.35635477114E-01  0.89076079811E+00  0.88000000000E+00 0. -1.
        -11    1    4    4    0    0  0.36617962953E-01 -0.69824729780E-01 -0.14837563090E-01  0.80229561254E-01  0.51100000000E-03 0.  1.
         11    1    4    4    0    0  0.33218733052E-01 -0.32336895437E-01 -0.14858103462E-01  0.48684529284E-01  0.51100000000E-03 0. -1.
</event>
<event>
 8    1  0.1180500E+005  0.1043930E+01  0.7957747E-01            NaN
         13   -1    0    0    0    0  0.00000000000E+00  0.00000000000E+00  0.74505805969E-08  0.10566000000E+00  0.10566000000E+00 0. -1.
     999900   -1    0    0    0    0 -0.00000000000E+00 -0.00000000000E+00 -0.74505805969E-08  0.93827000000E+00  0.93827000000E+00 0. -1.
     999902    2    1    2    0    0  0.20374327363E-01  0.65076595525E-02 -0.10405202547E-01  0.10201448978E+01  0.10198675803E+01 0.  0.
     999903    2    3    3    0    0  0.12506284858E+00 -0.12456743864E-01  0.38945954539E-01  0.13236402853E+00  0.14407016037E-01 0.  0.
         14    1    1    2    0    0 -0.20374327363E-01 -0.65076595525E-02  0.10405202547E-01  0.23785102236E-01  0.00000000000E+00 0.  1.
     999901    1    3    3    0    0 -0.10468852122E+00  0.18964403416E-01 -0.49351157086E-01  0.88778086923E+00  0.88000000000E+00 0. -1.
        -11    1    4    4    0    0  0.64802869366E-01 -0.12264369700E-01  0.24798955042E-01  0.70463294944E-01  0.51100000000E-03 0. -1.
         11    1    4    4    0    0  0.60259979214E-01 -0.19237416393E-03  0.14146999496E-01  0.61900733586E-01  0.51100000000E-03 0.  1.
</event>
<event>
 8    1  0.1180500E+005  0.1043930E+01  0.7957747E-01            NaN
         13   -1    0    0    0    0  0.00000000000E+00  0.00000000000E+00  0.74505805969E-08  0.10566000000E+00  0.10566000000E+00 0.  1.
     999900   -1    0    0    0    0 -0.00000000000E+00 -0.00000000000E+00 -0.74505805969E-08  0.93827000000E+00  0.93827000000E+00 0.  1.
     999902    2    1    2    0    0 -0.12344306037E-01  0.15103104227E-01  0.11510804784E-01  0.10212808438E+01  0.10210296654E+01 0.  0.
     999903    2    3    3    0    0 -0.79840642935E-01  0.38648046944E-01 -0.95490225167E-01  0.13192189478E+00  0.20415764108E-01 0.  0.
         14    1    1    2    0    0  0.12344306037E-01 -0.15103104227E-01 -0.11510804784E-01  0.22649156178E-01  0.00000000000E+00 0.  1.
     999901    1    3    3    0    0  0.67496336898E-01 -0.23544942718E-01  0.10700102995E+00  0.88935894904E+00  0.88000000000E+00 0. -1.
        -11    1    4    4    0    0 -0.54561236091E-01  0.16397057639E-01 -0.54195768956E-01  0.78633545493E-01  0.51100000000E-03 0. -1.
         11    1    4    4    0    0 -0.25279406844E-01  0.22250989305E-01 -0.41294456211E-01  0.53288349291E-01  0.51100000000E-03 0.  1.
</event>
<event>
 8    1  0.1180500E+005  0.1043930E+01  0.7957747E-01            NaN
         13   -1    0    0    0    0  0.00000000000E+00  0.00000000000E+00  0.74505805969E-08  0.10566000000E+00  0.10566000000E+00 0. -1.
     999900   -1    0    0    0    0 -0.00000000000E+00 -0.00000000000E+00 -0.74505805969E-08  0.93827000000E+00  0.93827000000E+00 0. -1.
     999902    2    1    2    0    0 -0.23076537162E-01  0.24564622019E-02 -0.65281710734E-02  0.10198223707E+01  0.10195373902E+01 0.  0.
     999903    2    3    3    0    0 -0.12958530336E+00  0.10342514386E-01  0.14608839079E-01  0.13311324120E+00  0.24625156943E-01 0.  0.
         14    1    1    2    0    0  0.23076537162E-01 -0.24564622019E-02  0.65281710734E-02  0.24107629322E-01  0.00000000000E+00 0. -1.
     999901    1    3    3    0    0  0.10650876620E+00 -0.78860521845E-02 -0.21137010153E-01  0.88670912947E+00  0.88000000000E+00 0. -1.
        -11    1    4    4    0    0 -0.11737476786E+00  0.13624915596E-01  0.70520607573E-02  0.11837426721E+00  0.51100000000E-03 0. -1.
         11    1    4    4    0    0 -0.12210535498E-01 -0.32824012093E-02  0.75567783221E-02  0.14738973996E-01  0.51100000000E-03 0.  1.
</event>
<event>
 8    1  0.1180500E+005  0.1043930E+01  0.7957747E-01            NaN
         13   -1    0    0    0    0  0.00000000000E+00  0.00000000000E+00  0.74505805969E-08  0.10566000000E+00  0.10566000000E+00 0. -1.
     999900   -1    0    0    0    0 -0.00000000000E+00 -0.00000000000E+00 -0.74505805969E-08  0.93827000000E+00  0.93827000000E+00 0.  1.
     999902    2    1    2    0    0 -0.17543522749E-01  0.16363387246E-01  0.14217163476E-02  0.10198975863E+01  0.10196144024E+01 0.  0.
     999903    2    3    3    0    0 -0.41122696661E-01 -0.59123499908E-01 -0.10612170872E+00  0.12983026530E+00  0.20184556066E-01 0.  0.
         14    1    1    2    0    0  0.17543522749E-01 -0.16363387246E-01 -0.14217163476E-02  0.24032413736E-01  0.00000000000E+00 0. -1.
     999901    1    3    3    0    0  0.23579173911E-01  0.75486887154E-01  0.10754342507E+00  0.89006732097E+00  0.88000000000E+00 0. -1.
        -11    1    4    4    0    0 -0.28432840911E-01 -0.52912553712E-01 -0.78991649904E-01  0.99237627230E-01  0.51100000000E-03 0.  1.
         11    1    4    4    0    0 -0.12689855750E-01 -0.62109461960E-02 -0.27130058817E-01  0.30592638069E-01  0.51100000000E-03 0. -1.
</event>
<event>
 8    1  0.1180500E+005  0.1043930E+01  0.7957747E-01            NaN
         13   -1    0    0    0    0  0.00000000000E+00  0.00000000000E+00  0.74505805969E-08  0.10566000000E+00  0.10566000000E+00 0.  1.
     999900   -1    0    0    0    0 -0.00000000000E+00 -0.00000000000E+00 -0.74505805969E-08  0.93827000000E+00  0.93827000000E+00 0.  1.
     999902    2    1    2    0    0 -0.67598595081E-02  0.20555374990E-01 -0.95694158173E-02  0.10202700579E+01  0.10199956854E+01 0.  0.
     999903    2    3    3    0    0 -0.11495442515E+00  0.45025942659E-02 -0.61484664463E-01  0.13198015654E+00  0.20089911394E-01 0.  0.
         14    1    1    2    0    0  0.67598595081E-02 -0.20555374990E-01  0.95694158173E-02  0.23659942110E-01  0.00000000000E+00 0.  1.
     999901    1    3    3    0    0  0.10819456564E+00  0.16052780724E-01  0.51915248646E-01  0.88828990135E+00  0.88000000000E+00 0. -1.
        -11    1    4    4    0    0 -0.51500718998E-01  0.34958096976E-03 -0.38724389675E-01  0.64438231981E-01  0.51100000000E-03 0. -1.
         11    1    4    4    0    0 -0.63453706149E-01  0.41530132961E-02 -0.22760274788E-01  0.67541924557E-01  0.51100000000E-03 0.  1.
</event>
<event>
 8    1  0.1180500E+005  0.1043930E+01  0.7957747E-01            NaN
         13   -1    0    0    0    0  0.00000000000E+00  0.00000000000E+00  0.74505805969E-08  0.10566000000E+00  0.10566000000E+00 0. -1.
     999900   -1    0    0    0    0 -0.00000000000E+00 -0.00000000000E+00 -0.74505805969E-08  0.93827000000E+00  0.93827000000E+00 0.  1.
     999902    2    1    2    0    0 -0.74008499475E-02  0.20515909406E-01 -0.98350950172E-02  0.10200050295E+01  0.10197244020E+01 0.  0.
     999903    2    3    3    0    0 -0.10496386202E+00  0.42519666701E-01  0.62937069501E-01  0.13135521401E+00  0.21628294984E-01 0.  0.
         14    1    1    2    0    0  0.74008499475E-02 -0.20515909406E-01  0.98350950172E-02  0.23924970485E-01  0.00000000000E+00 0. -1.
     999901    1    3    3    0    0  0.97563012077E-01 -0.22003757295E-01 -0.72772164519E-01  0.88864981550E+00  0.88000000000E+00 0.  1.
        -11    1    4    4    0    0 -0.65079594771E-01  0.19888942849E-01  0.47404461457E-01  0.82935925811E-01  0.51100000000E-03 0. -1.
         11    1    4    4    0    0 -0.39884267254E-01  0.22630723852E-01  0.15532608045E-01  0.48419288203E-01  0.51100000000E-03 0.  1.
</event>
<event>
 8    1  0.1180500E+005  0.1043930E+01  0.7957747E-01            NaN
         13   -1    0    0    0    0  0.00000000000E+00  0.00000000000E+00  0.74505805969E-08  0.10566000000E+00  0.10566000000E+00 0.  1.
     999900   -1    0    0    0    0 -0.00000000000E+00 -0.00000000000E+00 -0.74505805969E-08  0.93827000000E+00  0.93827000000E+00 0. -1.
     999902    2    1    2    0    0  0.69168477680E-02  0.21731292718E-01  0.66987137728E-02  0.10201610153E+01  0.10198840780E+01 0.  0.
     999903    2    3    3    0    0  0.94944090553E-01  0.38187159473E-01  0.81728484274E-01  0.13243974292E+00  0.19700276217E-01 0.  0.
         14    1    1    2    0    0 -0.69168477680E-02 -0.21731292718E-01 -0.66987137728E-02  0.23768984674E-01  0.00000000000E+00 0. -1.
     999901    1    3    3    0    0 -0.88027242785E-01 -0.16455866755E-01 -0.75029770501E-01  0.88772127241E+00  0.88000000000E+00 0. -1.
        -11    1    4    4    0    0  0.49068799422E-01  0.26673447463E-01  0.34786688137E-01  0.65799655537E-01  0.51100000000E-03 0.  1.
         11    1    4    4    0    0  0.45875291131E-01  0.11513712010E-01  0.46941796137E-01  0.66640087381E-01  0.51100000000E-03 0. -1.
</event>
<event>
 8    1  0.1180500E+005  0.1043930E+01  0.7957747E-01            NaN
         13   -1    0    0    0    0  0.00000000000E+00  0.00000000000E+00  0.74505805969E-08  0.10566000000E+00  0.10566000000E+00 0. -1.
     999900   -1    0    0    0    0 -0.00000000000E+00 -0.00000000000E+00 -0.74505805969E-08  0.93827000000E+00  0.93827000000E+00 0.  1.
     999902    2    1    2    0    0  0.17137810440E-01  0.12791596389E-01 -0.10931807569E-01  0.10199126333E+01  0.10196298082E+01 0.  0.
     999903    2    3    3    0    0  0.18810939233E-01  0.11647196680E+00  0.54294129576E-01  0.13142693202E+00  0.20139897396E-01 0.  0.
         14    1    1    2    0    0 -0.17137810440E-01 -0.12791596389E-01  0.10931807569E-01  0.24017366667E-01  0.00000000000E+00 0.  1.
     999901    1    3    3    0    0 -0.16731287927E-02 -0.10368037041E+00 -0.65225937145E-01  0.88848570132E+00  0.88000000000E+00 0.  1.
        -11    1    4    4    0    0  0.81361373938E-02  0.91042529313E-01  0.47530478080E-01  0.10302594985E+00  0.51100000000E-03 0. -1.
         11    1    4    4    0    0  0.10674801839E-01  0.25429437490E-01  0.67636514962E-02  0.28400982164E-01  0.51100000000E-03 0.  1.
</event>
<event>
 8    1  0.1180500E+005  0.1043930E+01  0.7957747E-01            NaN
         13   -1    0    0    0    0  0.00000000000E+00  0.00000000000E+00  0.74505805969E-08  0.10566000000E+00  0.10566000000E+00 0. -1.
     999900   -1    0    0    0    0 -0.00000000000E+00 -0.00000000000E+00 -0.74505805969E-08  0.93827000000E+00  0.93827000000E+00 0. -1.
     999902    2    1    2    0    0 -0.77100968377E-03 -0.22782866626E-01 -0.46840745313E-02  0.10206578273E+01  0.10203924767E+01 0.  0.
     999903    2    3    3    0    0  0.92292667843E-01 -0.87847905024E-01 -0.32695348564E-01  0.13291972473E+00  0.19065058343E-01 0.  0.
         14    1    1    2    0    0  0.77100968377E-03  0.22782866626E-01  0.46840745313E-02  0.23272172693E-01  0.00000000000E+00 0. -1.
     999901    1    3    3    0    0 -0.93063677526E-01  0.65065038398E-01  0.28011274033E-01  0.88773810258E+00  0.88000000000E+00 0.  1.
        -11    1    4    4    0    0  0.64929432806E-01 -0.55458171885E-01 -0.13812522876E-01  0.86501369831E-01  0.51100000000E-03 0.  1.
         11    1    4    4    0    0  0.27363235036E-01 -0.32389733139E-01 -0.18882825689E-01  0.46418354898E-01  0.51100000000E-03 0. -1.
</event>
<event>
 8    1  0.1180500E+005  0.1043930E+01  0.7957747E-01            NaN
         13   -1    0    0    0    0  0.00000000000E+00  0.00000000000E+00  0.74505805969E-08  0.10566000000E+00  0.10566000000E+00 0.  1.
     999900   -1    0    0    0    0 -0.00000000000E+00 -0.00000000000E+00 -0.74505805969E-08  0.93827000000E+00  0.93827000000E+00 0.  1.
     999902    2    1    2    0    0  0.22870436430E-01 -0.10825218114E-02  0.60604303774E-02  0.10202454579E+01  0.10199705079E+01 0.  0.
     999903    2    3    3    0    0  0.95572282101E-01  0.82583384199E-01 -0.34300999466E-01  0.13237464121E+00  0.19809356864E-01 0.  0.
         14    1    1    2    0    0 -0.22870436430E-01  0.10825218114E-02 -0.60604303774E-02  0.23684542054E-01  0.00000000000E+00 0. -1.
     999901    1    3    3    0    0 -0.72701845672E-01 -0.83665906010E-01  0.40361429843E-01  0.88787081674E+00  0.88000000000E+00 0. -1.
        -11    1    4    4    0    0  0.78714812244E-01  0.57019685710E-01 -0.24870726871E-01  0.10032985797E+00  0.51100000000E-03 0.  1.
         11    1    4    4    0    0  0.16857469857E-01  0.25563698488E-01 -0.94302725947E-02  0.32044783235E-01  0.51100000000E-03 0. -1.
</event>
<event>
 8    1  0.1180500E+005  0.1043930E+01  0.7957747E-01            NaN
         13   -1    0    0    0    0  0.00000000000E+00  0.00000000000E+00  0.74505805969E-08  0.10566000000E+00  0.10566000000E+00 0.  1.
     999900   -1    0    0    0    0 -0.00000000000E+00 -0.00000000000E+00 -0.74505805969E-08  0.93827000000E+00  0.93827000000E+00 0. -1.
     999902    2    1    2    0    0  0.75369951396E-03  0.22884371250E-01 -0.38247705773E-02  0.10207159659E+01  0.10204519546E+01 0.  0.
     999903    2    3    3    0    0  0.38003747407E-01  0.12666970061E+00  0.49487356512E-02  0.13379097746E+00  0.19647844590E-01 0.  0.
         14    1    1    2    0    0 -0.75369951396E-03 -0.22884371250E-01  0.38247705773E-02  0.23214034127E-01  0.00000000000E+00 0.  1.
     999901    1    3    3    0    0 -0.37250047893E-01 -0.10378532936E+00 -0.87735062285E-02  0.88692498841E+00  0.88000000000E+00 0. -1.
        -11    1    4    4    0    0  0.19787390606E-01  0.35091088273E-01  0.58699049536E-04  0.40288830583E-01  0.51100000000E-03 0. -1.
         11    1    4    4    0    0  0.18216356801E-01  0.91578612333E-01  0.48900366017E-02  0.93502146879E-01  0.51100000000E-03 0.  1.
</event>
<event>
 8    1  0.1180500E+005  0.1043930E+01  0.7957747E-01            NaN
         13   -1    0    0    0    0  0.00000000000E+00  0.00000000000E+00  0.74505805969E-08  0.10566000000E+00  0.10566000000E+00 0.  1.
     999900   -1    0    0    0    0 -0.00000000000E+00 -0.00000000000E+00 -0.74505805969E-08  0.93827000000E+00  0.93827000000E+00 0.  1.
     999902    2    1    2    0    0 -0.14208033225E-01 -0.21688005072E-02 -0.13494268974E-01  0.10242153557E+01  0.10240255991E+01 0.  0.
     999903    2    3    3    0    0 -0.92200483966E-02 -0.13179398685E+00 -0.17186569337E-01  0.13469795735E+00  0.19836766058E-01 0.  0.
         14    1    1    2    0    0  0.14208033225E-01  0.21688005072E-02  0.13494268974E-01  0.19714644276E-01  0.00000000000E+00 0.  1.
     999901    1    3    3    0    0 -0.49879848286E-02  0.12962518634E+00  0.36923003634E-02  0.88951739837E+00  0.88000000000E+00 0.  1.
        -11    1    4    4    0    0  0.28838582541E-02 -0.89220936365E-01 -0.95115808317E-02  0.89774291505E-01  0.51100000000E-03 0.  1.
         11    1    4    4    0    0 -0.12103906651E-01 -0.42573050482E-01 -0.76749885057E-02  0.44923665847E-01  0.51100000000E-03 0. -1.
</event>
<event>
 8    1  0.1180500E+005  0.1043930E+01  0.7957747E-01            NaN
         13   -1    0    0    0    0  0.00000000000E+00  0.00000000000E+00  0.74505805969E-08  0.10566000000E+00  0.10566000000E+00 0.  1.
     999900   -1    0    0    0    0 -0.00000000000E+00 -0.00000000000E+00 -0.74505805969E-08  0.93827000000E+00  0.93827000000E+00 0.  1.
     999902    2    1    2    0    0  0.14609986165E-01 -0.18278915869E-01 -0.77194156351E-03  0.10205170473E+01  0.10202484391E+01 0.  0.
     999903    2    3    3    0    0 -0.67161385401E-01 -0.93486099064E-01  0.60327927113E-01  0.13142994718E+00  0.19597699358E-01 0.  0.
         14    1    1    2    0    0 -0.14609986165E-01  0.18278915869E-01  0.77194156351E-03  0.23412952715E-01  0.00000000000E+00 0. -1.
     999901    1    3    3    0    0  0.81771371565E-01  0.75207183195E-01 -0.61099868677E-01  0.88908710010E+00  0.88000000000E+00 0. -1.
        -11    1    4    4    0    0 -0.35911577806E-01 -0.65957008521E-01  0.37776145349E-01  0.84067036774E-01  0.51100000000E-03 0. -1.
         11    1    4    4    0    0 -0.31249807595E-01 -0.27529090543E-01  0.22551781765E-01  0.47362910411E-01  0.51100000000E-03 0.  1.
</event>
<event>
 8    1  0.1180500E+005  0.1043930E+01  0.7957747E-01            NaN
         13   -1    0    0    0    0  0.00000000000E+00  0.00000000000E+00  0.74505805969E-08  0.10566000000E+00  0.10566000000E+00 0. -1.
     999900   -1    0    0    0    0 -0.00000000000E+00 -0.00000000000E+00 -0.74505805969E-08  0.93827000000E+00  0.93827000000E+00 0.  1.
     999902    2    1    2    0    0  0.17157304454E-01 -0.26195185896E-02 -0.15158234213E-01  0.10208864100E+01  0.10206263053E+01 0.  0.
     999903    2    3    3    0    0  0.80829068515E-03 -0.11617903151E+00 -0.60047924537E-01  0.13230431618E+00  0.20011450289E-01 0.  0.
         14    1    1    2    0    0 -0.17157304454E-01  0.26195185896E-02  0.15158234213E-01  0.23043589960E-01  0.00000000000E+00 0. -1.
     999901    1    3    3    0    0  0.16349013769E-01  0.11355951292E+00  0.44889690324E-01  0.88858209386E+00  0.88000000000E+00 0.  1.
        -11    1    4    4    0    0 -0.13133481033E-02 -0.98174369918E-01 -0.42234371539E-01  0.10688280990E+00  0.51100000000E-03 0.  1.
         11    1    4    4    0    0  0.21216387884E-02 -0.18004661594E-01 -0.17813552998E-01  0.25421506282E-01  0.51100000000E-03 0. -1.
</event>
<event>
 8    1  0.1180500E+005  0.1043930E+01  0.7957747E-01            NaN
         13   -1    0    0    0    0  0.00000000000E+00  0.00000000000E+00  0.74505805969E-08  0.10566000000E+00  0.10566000000E+00 0. -1.
     999900   -1    0    0    0    0 -0.00000000000E+00 -0.00000000000E+00 -0.74505805969E-08  0.93827000000E+00  0.93827000000E+00 0.  1.
     999902    2    1    2    0    0  0.90348745795E-02 -0.21804816600E-01  0.35620409431E-02  0.10200602048E+01  0.10197808855E+01 0.  0.
     999903    2    3    3    0    0 -0.41377254751E-01  0.11528113784E+00 -0.28974654955E-01  0.12742781786E+00  0.19912312315E-01 0.  0.
         14    1    1    2    0    0 -0.90348745795E-02  0.21804816600E-01 -0.35620409431E-02  0.23869795167E-01  0.00000000000E+00 0.  1.
     999901    1    3    3    0    0  0.50412129331E-01 -0.13708595445E+00  0.32536695898E-01  0.89263238697E+00  0.88000000000E+00 0. -1.
        -11    1    4    4    0    0 -0.30608909459E-01  0.83929029166E-01 -0.11873643329E-01  0.90123425378E-01  0.51100000000E-03 0. -1.
         11    1    4    4    0    0 -0.10768345292E-01  0.31352108679E-01 -0.17101011625E-01  0.37304392484E-01  0.51100000000E-03 0.  1.
</event>
<event>
 8    1  0.1180500E+005  0.1043930E+01  0.7957747E-01            NaN
         13   -1    0    0    0    0  0.00000000000E+00  0.00000000000E+00  0.74505805969E-08  0.10566000000E+00  0.10566000000E+00 0.  1.
     999900   -1    0    0    0    0 -0.00000000000E+00 -0.00000000000E+00 -0.74505805969E-08  0.93827000000E+00  0.93827000000E+00 0.  1.
     999902    2    1    2    0    0 -0.22624991918E-01  0.23264131501E-02  0.98374784431E-02  0.10191493939E+01  0.10188480793E+01 0.  0.
     999903    2    3    3    0    0  0.42018326464E-01  0.20179076504E-01  0.11948582569E+00  0.12981242948E+00  0.20041692030E-01 0.  0.
         14    1    1    2    0    0  0.22624991918E-01 -0.23264131501E-02 -0.98374784431E-02  0.24780606118E-01  0.00000000000E+00 0. -1.
     999901    1    3    3    0    0 -0.64643318382E-01 -0.17852663354E-01 -0.10964834725E+00  0.88933696440E+00  0.88000000000E+00 0.  1.
        -11    1    4    4    0    0  0.46977850133E-02  0.88090542863E-02  0.40496465196E-01  0.41712029869E-01  0.51100000000E-03 0. -1.
         11    1    4    4    0    0  0.37320541451E-01  0.11370022218E-01  0.78989360493E-01  0.88100399610E-01  0.51100000000E-03 0.  1.
</event>
<event>
 8    1  0.1180500E+005  0.1043930E+01  0.7957747E-01            NaN
         13   -1    0    0    0    0  0.00000000000E+00  0.00000000000E+00  0.74505805969E-08  0.10566000000E+00  0.10566000000E+00 0. -1.
     999900   -1    0    0    0    0 -0.00000000000E+00 -0.00000000000E+00 -0.74505805969E-08  0.93827000000E+00  0.93827000000E+00 0.  1.
     999902    2    1    2    0    0 -0.12323866423E-01 -0.85202860361E-02  0.18654946274E-01  0.10200034462E+01  0.10197227811E+01 0.  0.
     999903    2    3    3    0    0  0.33600326446E-01  0.97770326142E-01 -0.72352532071E-01  0.12776520061E+00  0.20025957603E-01 0.  0.
         14    1    1    2    0    0  0.12323866423E-01  0.85202860361E-02 -0.18654946274E-01  0.23926553831E-01  0.00000000000E+00 0.  1.
     999901    1    3    3    0    0 -0.45924192870E-01 -0.10629061218E+00  0.91007478345E-01  0.89223824556E+00  0.88000000000E+00 0. -1.
        -11    1    4    4    0    0  0.18410032624E-01  0.59686447737E-01 -0.31789900508E-01  0.70087518432E-01  0.51100000000E-03 0.  1.
         11    1    4    4    0    0  0.15190293822E-01  0.38083878406E-01 -0.40562631563E-01  0.57677682176E-01  0.51100000000E-03 0. -1.
</event>
<event>
 8    1  0.1180500E+005  0.1043930E+01  0.7957747E-01            NaN
         13   -1    0    0    0    0  0.00000000000E+00  0.00000000000E+00  0.74505805969E-08  0.10566000000E+00  0.10566000000E+00 0. -1.
     999900   -1    0    0    0    0 -0.00000000000E+00 -0.00000000000E+00 -0.74505805969E-08  0.93827000000E+00  0.93827000000E+00 0. -1.
     999902    2    1    2    0    0  0.21945023617E-01 -0.86655186922E-02 -0.20221105160E-02  0.10202495396E+01  0.10199746854E+01 0.  0.
     999903    2    3    3    0    0 -0.12079774259E+00  0.33496647409E-01  0.13255480022E-01  0.12762052909E+00  0.19929166912E-01 0.  0.
         14    1    1    2    0    0 -0.21945023617E-01  0.86655186922E-02  0.20221105160E-02  0.23680460441E-01  0.00000000000E+00 0. -1.
     999901    1    3    3    0    0  0.14274276620E+00 -0.42162166101E-01 -0.15277590538E-01  0.89262901047E+00  0.88000000000E+00 0. -1.
        -11    1    4    4    0    0 -0.10926747589E+00  0.25157309582E-01  0.15540866252E-01  0.11319916589E+00  0.51100000000E-03 0.  1.
         11    1    4    4    0    0 -0.11530266695E-01  0.83393378269E-02 -0.22853862306E-02  0.14421363205E-01  0.51100000000E-03 0. -1.
</event>
<event>
 8    1  0.1180500E+005  0.1043930E+01  0.7957747E-01            NaN
         13   -1    0    0    0    0  0.00000000000E+00  0.00000000000E+00  0.74505805969E-08  0.10566000000E+00  0.10566000000E+00 0. -1.
     999900   -1    0    0    0    0 -0.00000000000E+00 -0.00000000000E+00 -0.74505805969E-08  0.93827000000E+00  0.93827000000E+00 0. -1.
     999902    2    1    2    0    0 -0.20805213620E-01  0.57290439092E-02  0.10013416772E-01  0.10201403516E+01  0.10198629268E+01 0.  0.
     999903    2    3    3    0    0 -0.12789600026E-02 -0.12796275736E+00 -0.18264831255E-02  0.12975001269E+00  0.21345415002E-01 0.  0.
         14    1    1    2    0    0  0.20805213620E-01 -0.57290439092E-02 -0.10013416772E-01  0.23789648449E-01  0.00000000000E+00 0. -1.
     999901    1    3    3    0    0 -0.19526253617E-01  0.13369180127E+00  0.11839899897E-01  0.89039033886E+00  0.88000000000E+00 0. -1.
        -11    1    4    4    0    0 -0.86754126225E-02 -0.26566915918E-01  0.18856951477E-02  0.28015723670E-01  0.51100000000E-03 0.  1.
         11    1    4    4    0    0  0.73964526199E-02 -0.10139584145E+00 -0.37121782732E-02  0.10173428902E+00  0.51100000000E-03 0. -1.
</event>
<event>
 8    1  0.1180500E+005  0.1043930E+01  0.7957747E-01            NaN
         13   -1    0    0    0    0  0.00000000000E+00  0.00000000000E+00  0.74505805969E-08  0.10566000000E+00  0.10566000000E+00 0. -1.
     999900   -1    0    0    0    0 -0.00000000000E+00 -0.00000000000E+00 -0.74505805969E-08  0.93827000000E+00  0.93827000000E+00 0. -1.
     999902    2    1    2    0    0  0.11281685763E-01  0.11066429742E-03 -0.20793547053E-01  0.10202728599E+01  0.10199985531E+01 0.  0.
     999903    2    3    3    0    0 -0.10653105712E+00 -0.70430655423E-01 -0.38310784899E-02  0.12946219226E+00  0.20891115569E-01 0.  0.
         14    1    1    2    0    0 -0.11281685763E-01 -0.11066429742E-03  0.20793547053E-01  0.23657140133E-01  0.00000000000E+00 0. -1.
     999901    1    3    3    0    0  0.11781274288E+00  0.70541319721E-01 -0.16962468563E-01  0.89081066760E+00  0.88000000000E+00 0.  1.
        -11    1    4    4    0    0 -0.18369901929E-01 -0.21819004341E-01  0.21534401779E-02  0.28608052589E-01  0.51100000000E-03 0. -1.
         11    1    4    4    0    0 -0.88161155189E-01 -0.48611651082E-01 -0.59845186678E-02  0.10085413968E+00  0.51100000000E-03 0.  1.
</event>
<event>
 8    1  0.1180500E+005  0.1043930E+01  0.7957747E-01            NaN
         13   -1    0    0    0    0  0.00000000000E+00  0.00000000000E+00  0.74505805969E-08  0.10566000000E+00  0.10566000000E+00 0.  1.
     999900   -1    0    0    0    0 -0.00000000000E+00 -0.00000000000E+00 -0.74505805969E-08  0.93827000000E+00  0.93827000000E+00 0.  1.
     999902    2    1    2    0    0 -0.55469508099E-02 -0.16352029048E-01 -0.14086257009E-01  0.10216459215E+01  0.10214028631E+01 0.  0.
     999903    2    3    3    0    0 -0.74369942131E-01 -0.99299608090E-01  0.44021177840E-01  0.13316779630E+00  0.20112121071E-01 0.  0.
         14    1    1    2    0    0  0.55469508099E-02  0.16352029048E-01  0.14086257009E-01  0.22284078482E-01  0.00000000000E+00 0. -1.
     999901    1    3    3    0    0  0.68822991321E-01  0.82947579043E-01 -0.58107434849E-01  0.88847812522E+00  0.88000000000E+00 0.  1.
        -11    1    4    4    0    0 -0.19500650095E-01 -0.38927432216E-01  0.94092698858E-02  0.44546782306E-01  0.51100000000E-03 0.  1.
         11    1    4    4    0    0 -0.54869292036E-01 -0.60372175874E-01  0.34611907955E-01  0.88621013995E-01  0.51100000000E-03 0. -1.
</event>
<event>
 8    1  0.1180500E+005  0.1043930E+01  0.7957747E-01            NaN
         13   -1    0    0    0    0  0.00000000000E+00  0.00000000000E+00  0.74505805969E-08  0.10566000000E+00  0.10566000000E+00 0. -1.
     999900   -1    0    0    0    0 -0.00000000000E+00 -0.00000000000E+00 -0.74505805969E-08  0.93827000000E+00  0.93827000000E+00 0.  1.
     999902    2    1    2    0    0 -0.38753171688E-02  0.23691274064E-02  0.23111104609E-01  0.10203767836E+01  0.10201049095E+01 0.  0.
     999903    2    3    3    0    0  0.76873162585E-01  0.10224741156E+00  0.22627006929E-01  0.13105331993E+00  0.17290891441E-01 0.  0.
         14    1    1    2    0    0  0.38753171688E-02 -0.23691274064E-02 -0.23111104609E-01  0.23553216428E-01  0.00000000000E+00 0.  1.
     999901    1    3    3    0    0 -0.80748479754E-01 -0.99878284152E-01  0.48409768023E-03  0.88932346364E+00  0.88000000000E+00 0.  1.
        -11    1    4    4    0    0  0.46108638888E-01  0.50577712242E-01  0.62566565121E-02  0.68727857725E-01  0.51100000000E-03 0.  1.
         11    1    4    4    0    0  0.30764523697E-01  0.51669699316E-01  0.16370350417E-01  0.62325462209E-01  0.51100000000E-03 0. -1.
</event>
<event>
 8    1  0.1180500E+005  0.1043930E+01  0.7957747E-01            NaN
         13   -1    0    0    0    0  0.00000000000E+00  0.00000000000E+00  0.74505805969E-08  0.10566000000E+00  0.10566000000E+00 0. -1.
     999900   -1    0    0    0    0 -0.00000000000E+00 -0.00000000000E+00 -0.74505805969E-08  0.93827000000E+00  0.93827000000E+00 0. -1.
     999902    2    1    2    0    0 -0.15039832763E-03  0.69020372376E-03  0.23842928111E-01  0.10200766098E+01  0.10197976788E+01 0.  0.
     999903    2    3    3    0    0  0.10345128712E+00  0.72505521867E-01 -0.22870365323E-01  0.12986715083E+00  0.19575590583E-01 0.  0.
         14    1    1    2    0    0  0.15039832763E-03 -0.69020372376E-03 -0.23842928111E-01  0.23853390152E-01  0.00000000000E+00 0.  1.
     999901    1    3    3    0    0 -0.10360168544E+00 -0.71815318144E-01  0.46713293434E-01  0.89020945902E+00  0.88000000000E+00 0.  1.
        -11    1    4    4    0    0  0.48059840377E-01  0.43484792036E-01 -0.59740746427E-02  0.65089369979E-01  0.51100000000E-03 0. -1.
         11    1    4    4    0    0  0.55391446739E-01  0.29020729832E-01 -0.16896290680E-01  0.64777780848E-01  0.51100000000E-03 0.  1.
</event>
<event>
 8    1  0.1180500E+005  0.1043930E+01  0.7957747E-01            NaN
         13   -1    0    0    0    0  0.00000000000E+00  0.00000000000E+00  0.74505805969E-08  0.10566000000E+00  0.10566000000E+00 0. -1.
     999900   -1    0    0    0    0 -0.00000000000E+00 -0.00000000000E+00 -0.74505805969E-08  0.93827000000E+00  0.93827000000E+00 0.  1.
     999902    2    1    2    0    0  0.13021024877E-01 -0.17267160261E-01  0.10072859999E-01  0.10200728329E+01  0.10197938125E+01 0.  0.
     999903    2    3    3    0    0 -0.76719420873E-02  0.81023938745E-01  0.99764459474E-01  0.12982908987E+00  0.16700534655E-01 0.  0.
         14    1    1    2    0    0 -0.13021024877E-01  0.17267160261E-01 -0.10072859999E-01  0.23857167076E-01  0.00000000000E+00 0.  1.
     999901    1    3    3    0    0  0.20692966965E-01 -0.98291099006E-01 -0.89691599475E-01  0.89024374305E+00  0.88000000000E+00 0. -1.
        -11    1    4    4    0    0 -0.52440435204E-02  0.30238049947E-01  0.50084129127E-01  0.58741133531E-01  0.51100000000E-03 0. -1.
         11    1    4    4    0    0 -0.24278985670E-02  0.50785888798E-01  0.49680330347E-01  0.71087956342E-01  0.51100000000E-03 0.  1.
</event>
<event>
 8    1  0.1180500E+005  0.1043930E+01  0.7957747E-01            NaN
         13   -1    0    0    0    0  0.00000000000E+00  0.00000000000E+00  0.74505805969E-08  0.10566000000E+00  0.10566000000E+00 0.  1.
     999900   -1    0    0    0    0 -0.00000000000E+00 -0.00000000000E+00 -0.74505805969E-08  0.93827000000E+00  0.93827000000E+00 0. -1.
     999902    2    1    2    0    0  0.25795461886E-01 -0.17296755597E-02  0.50983353188E-02  0.10175787068E+01  0.10172374520E+01 0.  0.
     999903    2    3    3    0    0 -0.63412226675E-02 -0.11047606996E+00  0.60685342941E-01  0.12856326248E+00  0.24507722680E-01 0.  0.
         14    1    1    2    0    0 -0.25795461886E-01  0.17296755597E-02 -0.50983353188E-02  0.26351293222E-01  0.00000000000E+00 0. -1.
     999901    1    3    3    0    0  0.32136684554E-01  0.10874639440E+00 -0.55587007623E-01  0.88901544430E+00  0.88000000000E+00 0. -1.
        -11    1    4    4    0    0 -0.60501123491E-02 -0.19171419847E-01  0.20779591691E-01  0.28917118637E-01  0.51100000000E-03 0. -1.
         11    1    4    4    0    0 -0.29111031842E-03 -0.91304650118E-01  0.39905751250E-01  0.99646143840E-01  0.51100000000E-03 0.  1.
</event>
<event>
 8    1  0.1180500E+005  0.1043930E+01  0.7957747E-01            NaN
         13   -1    0    0    0    0  0.00000000000E+00  0.00000000000E+00  0.74505805969E-08  0.10566000000E+00  0.10566000000E+00 0. -1.
     999900   -1    0    0    0    0 -0.00000000000E+00 -0.00000000000E+00 -0.74505805969E-08  0.93827000000E+00  0.93827000000E+00 0. -1.
     999902    2    1    2    0    0  0.20498782207E-01 -0.32365904731E-02 -0.92768028154E-02  0.10211982016E+01  0.10209451661E+01 0.  0.
     999903    2    3    3    0    0 -0.37444737387E-01  0.11792599716E+00 -0.36074278343E-01  0.13060518070E+00  0.21159170684E-01 0.  0.
         14    1    1    2    0    0 -0.20498782207E-01  0.32365904731E-02  0.92768028154E-02  0.22731798441E-01  0.00000000000E+00 0. -1.
     999901    1    3    3    0    0  0.57943519594E-01 -0.12116258763E+00  0.26797475528E-01  0.89059302086E+00  0.88000000000E+00 0.  1.
        -11    1    4    4    0    0 -0.26380441891E-01  0.90160660155E-01 -0.17934386211E-01  0.95638777092E-01  0.51100000000E-03 0. -1.
         11    1    4    4    0    0 -0.11064295497E-01  0.27765337006E-01 -0.18139892132E-01  0.34966403610E-01  0.51100000000E-03 0.  1.
</event>
<event>
 8    1  0.1180500E+005  0.1043930E+01  0.7957747E-01            NaN
         13   -1    0    0    0    0  0.00000000000E+00  0.00000000000E+00  0.74505805969E-08  0.10566000000E+00  0.10566000000E+00 0.  1.
     999900   -1    0    0    0    0 -0.00000000000E+00 -0.00000000000E+00 -0.74505805969E-08  0.93827000000E+00  0.93827000000E+00 0.  1.
     999902    2    1    2    0    0 -0.16907114745E-01 -0.33022689691E-02 -0.16129375829E-01  0.10203310112E+01  0.10200580670E+01 0.  0.
     999903    2    3    3    0    0  0.66442949021E-01 -0.15493604785E-01  0.10636923412E+00  0.12786153200E+00  0.19479223138E-01 0.  0.
         14    1    1    2    0    0  0.16907114745E-01  0.33022689691E-02  0.16129375829E-01  0.23598988834E-01  0.00000000000E+00 0.  1.
     999901    1    3    3    0    0 -0.83350063766E-01  0.12191335816E-01 -0.12249860995E+00  0.89246947916E+00  0.88000000000E+00 0.  1.
        -11    1    4    4    0    0  0.13446165078E-01 -0.50138835385E-02  0.38655695143E-01  0.41236661739E-01  0.51100000000E-03 0. -1.
         11    1    4    4    0    0  0.52996783944E-01 -0.10479721247E-01  0.67713538980E-01  0.86624870263E-01  0.51100000000E-03 0.  1.
</event>
<event>
 8    1  0.1180500E+005  0.1043930E+01  0.7957747E-01            NaN
         13   -1    0    0    0    0  0.00000000000E+00  0.00000000000E+00  0.74505805969E-08  0.10566000000E+00  0.10566000000E+00 0.  1.
     999900   -1    0    0    0    0 -0.00000000000E+00 -0.00000000000E+00 -0.74505805969E-08  0.93827000000E+00  0.93827000000E+00 0. -1.
     999902    2    1    2    0    0 -0.60991525555E-02 -0.65748335789E-02  0.21633356138E-01  0.10205114134E+01  0.10202426745E+01 0.  0.
     999903    2    3    3    0    0 -0.21808338049E-01  0.12514196342E+00 -0.17189045923E-01  0.12972340723E+00  0.19914428600E-01 0.  0.
         14    1    1    2    0    0  0.60991525555E-02  0.65748335789E-02 -0.21633356138E-01  0.23418586556E-01  0.00000000000E+00 0. -1.
     999901    1    3    3    0    0  0.15709185494E-01 -0.13171679700E+00  0.38822402061E-01  0.89078800622E+00  0.88000000000E+00 0. -1.
        -11    1    4    4    0    0 -0.25599842660E-01  0.11057285505E+00 -0.15866185582E-01  0.11460237861E+00  0.51100000000E-03 0. -1.
         11    1    4    4    0    0  0.37915046106E-02  0.14569108370E-01 -0.13228603406E-02  0.15121028615E-01  0.51100000000E-03 0.  1.
</event>
<event>
 8    1  0.1180500E+005  0.1043930E+01  0.7957747E-01            NaN
         13   -1    0    0    0    0  0.00000000000E+00  0.00000000000E+00  0.74505805969E-08  0.10566000000E+00  0.10566000000E+00 0.  1.
     999900   -1    0    0    0    0 -0.00000000000E+00 -0.00000000000E+00 -0.74505805969E-08  0.93827000000E+00  0.93827000000E+00 0. -1.
     999902    2    1    2    0    0  0.39915312527E-02 -0.74369546754E-02  0.21196875384E-01  0.10211144758E+01  0.10208595519E+01 0.  0.
     999903    2    3    3    0    0  0.55200197435E-01  0.57066645719E-01 -0.99706057354E-01  0.12903793142E+00  0.20145124040E-01 0.  0.
         14    1    1    2    0    0 -0.39915312527E-02  0.74369546754E-02 -0.21196875384E-01  0.22815524158E-01  0.00000000000E+00 0. -1.
     999901    1    3    3    0    0 -0.51208666182E-01 -0.64503600395E-01  0.12090293274E+00  0.89207654442E+00  0.88000000000E+00 0.  1.
        -11    1    4    4    0    0  0.28301577320E-01  0.22569178560E-01 -0.31396046581E-01  0.47919932821E-01  0.51100000000E-03 0. -1.
         11    1    4    4    0    0  0.26898620115E-01  0.34497467160E-01 -0.68310010772E-01  0.81117998602E-01  0.51100000000E-03 0.  1.
</event>
<event>
 8    1  0.1180500E+005  0.1043930E+01  0.7957747E-01            NaN
         13   -1    0    0    0    0  0.00000000000E+00  0.00000000000E+00  0.74505805969E-08  0.10566000000E+00  0.10566000000E+00 0.  1.
     999900   -1    0    0    0    0 -0.00000000000E+00 -0.00000000000E+00 -0.74505805969E-08  0.93827000000E+00  0.93827000000E+00 0. -1.
     999902    2    1    2    0    0  0.83752486784E-02 -0.43754915426E-02  0.21977750500E-01  0.10200069727E+01  0.10197263913E+01 0.  0.
     999903    2    3    3    0    0  0.42568632599E-01 -0.73911280405E-01 -0.94744499116E-01  0.12892420610E+00  0.19234473021E-01 0.  0.
         14    1    1    2    0    0 -0.83752486784E-02  0.43754915426E-02 -0.21977750500E-01  0.23923027269E-01  0.00000000000E+00 0. -1.
     999901    1    3    3    0    0 -0.34193383921E-01  0.69535788863E-01  0.11672224962E+00  0.89108276663E+00  0.88000000000E+00 0.  1.
        -11    1    4    4    0    0  0.42365542709E-01 -0.62853555871E-01 -0.77303069107E-01  0.10826557306E+00  0.51100000000E-03 0.  1.
         11    1    4    4    0    0  0.20308989070E-03 -0.11057724535E-01 -0.17441430009E-01  0.20658633042E-01  0.51100000000E-03 0. -1.
</event>
<event>
 8    1  0.1180500E+005  0.1043930E+01  0.7957747E-01            NaN
         13   -1    0    0    0    0  0.00000000000E+00  0.00000000000E+00  0.74505805969E-08  0.10566000000E+00  0.10566000000E+00 0. -1.
     999900   -1    0    0    0    0 -0.00000000000E+00 -0.00000000000E+00 -0.74505805969E-08  0.93827000000E+00  0.93827000000E+00 0. -1.
     999902    2    1    2    0    0 -0.36412573362E-02  0.16517940914E-01 -0.17031775430E-01  0.10199261982E+01  0.10196436962E+01 0.  0.
     999903    2    3    3    0    0 -0.11935435814E+00 -0.45661565151E-01 -0.22002099556E-01  0.13016189412E+00  0.11295351116E-01 0.  0.
         14    1    1    2    0    0  0.36412573362E-02 -0.16517940914E-01  0.17031775430E-01  0.24003801809E-01  0.00000000000E+00 0.  1.
     999901    1    3    3    0    0  0.11571310081E+00  0.62179506065E-01  0.49703241262E-02  0.88976430407E+00  0.88000000000E+00 0. -1.
        -11    1    4    4    0    0 -0.96487816722E-01 -0.41448531652E-01 -0.18823973818E-01  0.10668871854E+00  0.51100000000E-03 0.  1.
         11    1    4    4    0    0 -0.22866541420E-01 -0.42130334990E-02 -0.31781257379E-02  0.23473175584E-01  0.51100000000E-03 0. -1.
</event>
<event>
 8    1  0.1180500E+005  0.1043930E+01  0.7957747E-01            NaN
         13   -1    0    0    0    0  0.00000000000E+00  0.00000000000E+00  0.74505805969E-08  0.10566000000E+00  0.10566000000E+00 0. -1.
     999900   -1    0    0    0    0 -0.00000000000E+00 -0.00000000000E+00 -0.74505805969E-08  0.93827000000E+00  0.93827000000E+00 0. -1.
     999902    2    1    2    0    0 -0.70403358053E-02 -0.14084978622E-02  0.21648842341E-01  0.10211216119E+01  0.10208668491E+01 0.  0.
     999903    2    3    3    0    0 -0.99047460562E-01  0.72880142916E-01 -0.40595489749E-01  0.13103258821E+00  0.19990765632E-01 0.  0.
         14    1    1    2    0    0  0.70403358053E-02  0.14084978622E-02 -0.21648842341E-01  0.22808388132E-01  0.00000000000E+00 0.  1.
     999901    1    3    3    0    0  0.92007124757E-01 -0.74288640778E-01  0.62244332089E-01  0.89008902366E+00  0.88000000000E+00 0.  1.
        -11    1    4    4    0    0 -0.81917712659E-01  0.49959308260E-01 -0.32115937295E-01  0.10118368781E+00  0.51100000000E-03 0. -1.
         11    1    4    4    0    0 -0.17129747903E-01  0.22920834656E-01 -0.84795524539E-02  0.29848900405E-01  0.51100000000E-03 0.  1.
</event>
<event>
 8    1  0.1180500E+005  0.1043930E+01  0.7957747E-01            NaN
         13   -1    0    0    0    0  0.00000000000E+00  0.00000000000E+00  0.74505805969E-08  0.10566000000E+00  0.10566000000E+00 0.  1.
     999900   -1    0    0    0    0 -0.00000000000E+00 -0.00000000000E+00 -0.74505805969E-08  0.93827000000E+00  0.93827000000E+00 0.  1.
     999902    2    1    2    0    0  0.10518839812E-01  0.11636463663E-01 -0.18563512812E-01  0.10196265582E+01  0.10193368731E+01 0.  0.
     999903    2    3    3    0    0 -0.10068438738E+00  0.60310562065E-01  0.48897003301E-01  0.12873585396E+00  0.20181511447E-01 0.  0.
         14    1    1    2    0    0 -0.10518839812E-01 -0.11636463663E-01  0.18563512812E-01  0.24303441845E-01  0.00000000000E+00 0.  1.
     999901    1    3    3    0    0  0.11120322719E+00 -0.48674098401E-01 -0.67460516113E-01  0.89089070420E+00  0.88000000000E+00 0.  1.
        -11    1    4    4    0    0 -0.46760371626E-01  0.38981571149E-01  0.21156644789E-01  0.64451221738E-01  0.51100000000E-03 0.  1.
         11    1    4    4    0    0 -0.53924015750E-01  0.21328990916E-01  0.27740358511E-01  0.64284632219E-01  0.51100000000E-03 0. -1.
</event>
<event>
 8    1  0.1180500E+005  0.1043930E+01  0.7957747E-01            NaN
         13   -1    0    0    0    0  0.00000000000E+00  0.00000000000E+00  0.74505805969E-08  0.10566000000E+00  0.10566000000E+00 0.  1.
     999900   -1    0    0    0    0 -0.00000000000E+00 -0.00000000000E+00 -0.74505805969E-08  0.93827000000E+00  0.93827000000E+00 0. -1.
     999902    2    1    2    0    0  0.12300523381E-01  0.14981967951E-01 -0.12447452033E-01  0.10208930449E+01  0.10206330917E+01 0.  0.
     999903    2    3    3    0    0  0.90840105631E-01 -0.91821849494E-01  0.53947930023E-02  0.13078413744E+00  0.19804291910E-01 0.  0.
         14    1    1    2    0    0 -0.12300523381E-01 -0.14981967951E-01  0.12447452033E-01  0.23036955121E-01  0.00000000000E+00 0.  1.
     999901    1    3    3    0    0 -0.78539582250E-01  0.10680381744E+00 -0.17842245035E-01  0.89010890744E+00  0.88000000000E+00 0. -1.
        -11    1    4    4    0    0  0.48819484665E-01 -0.47145669220E-01  0.12593518656E-01  0.69028356799E-01  0.51100000000E-03 0. -1.
         11    1    4    4    0    0  0.42020620966E-01 -0.44676180274E-01 -0.71987256538E-02  0.61755780638E-01  0.51100000000E-03 0.  1.
</event>
<event>
 8    1  0.1180500E+005  0.1043930E+01  0.7957747E-01            NaN
         13   -1    0    0    0    0  0.00000000000E+00  0.00000000000E+00  0.74505805969E-08  0.10566000000E+00  0.10566000000E+00 0. -1.
     999900   -1    0    0    0    0 -0.00000000000E+00 -0.00000000000E+00 -0.74505805969E-08  0.93827000000E+00  0.93827000000E+00 0.  1.
     999902    2    1    2    0    0 -0.22852496678E-01 -0.25532170911E-02 -0.24694778788E-02  0.10208030927E+01  0.10205410820E+01 0.  0.
     999903    2    3    3    0    0 -0.99022244732E-01  0.81633821981E-01 -0.28018026704E-01  0.13314211210E+00  0.21733070456E-01 0.  0.
         14    1    1    2    0    0  0.22852496678E-01  0.25532170911E-02  0.24694778788E-02  0.23126907336E-01  0.00000000000E+00 0.  1.
     999901    1    3    3    0    0  0.76169748053E-01 -0.84187039072E-01  0.25548548825E-01  0.88766098056E+00  0.88000000000E+00 0. -1.
        -11    1    4    4    0    0 -0.61599531506E-02  0.11032094652E-01  0.17060813458E-02  0.12760249597E-01  0.51100000000E-03 0. -1.
         11    1    4    4    0    0 -0.92862291581E-01  0.70601727329E-01 -0.29724108049E-01  0.12038186250E+00  0.51100000000E-03 0.  1.
</event>
<event>
 8    1  0.1180500E+005  0.1043930E+01  0.7957747E-01            NaN
         13   -1    0    0    0    0  0.00000000000E+00  0.00000000000E+00  0.74505805969E-08  0.10566000000E+00  0.10566000000E+00 0. -1.
     999900   -1    0    0    0    0 -0.00000000000E+00 -0.00000000000E+00 -0.74505805969E-08  0.93827000000E+00  0.93827000000E+00 0. -1.
     999902    2    1    2    0    0 -0.79326389649E-02  0.56426471535E-03  0.23564757889E-01  0.10190594759E+01  0.10187559435E+01 0.  0.
     999903    2    3    3    0    0 -0.92692313686E-02  0.92569050322E-01 -0.85095938639E-01  0.12761468565E+00  0.19729204085E-01 0.  0.
         14    1    1    2    0    0  0.79326389649E-02 -0.56426471535E-03 -0.23564757889E-01  0.24870524120E-01  0.00000000000E+00 0. -1.
     999901    1    3    3    0    0  0.13365924037E-02 -0.92004785606E-01  0.10866069653E+00  0.89144479023E+00  0.88000000000E+00 0. -1.
        -11    1    4    4    0    0 -0.97625900218E-03  0.49418920416E-01 -0.57043388141E-01  0.75481070663E-01  0.51100000000E-03 0. -1.
         11    1    4    4    0    0 -0.82929723664E-02  0.43150129905E-01 -0.28052550497E-01  0.52133614990E-01  0.51100000000E-03 0.  1.
</event>
<event>
 8    1  0.1180500E+005  0.1043930E+01  0.7957747E-01            NaN
         13   -1    0    0    0    0  0.00000000000E+00  0.00000000000E+00  0.74505805969E-08  0.10566000000E+00  0.10566000000E+00 0.  1.
     999900   -1    0    0    0    0 -0.00000000000E+00 -0.00000000000E+00 -0.74505805969E-08  0.93827000000E+00  0.93827000000E+00 0.  1.
     999902    2    1    2    0    0 -0.16936041965E-01 -0.11868245855E-01 -0.14436944210E-01  0.10187087761E+01  0.10183965143E+01 0.  0.
     999903    2    3    3    0    0  0.70851882866E-02  0.11369862555E+00 -0.55939951698E-01  0.12850286827E+00  0.20152707339E-01 0.  0.
         14    1    1    2    0    0  0.16936041965E-01  0.11868245855E-01  0.14436944210E-01  0.25221223904E-01  0.00000000000E+00 0.  1.
     999901    1    3    3    0    0 -0.24021230251E-01 -0.12556687140E+00  0.41503007488E-01  0.89020590783E+00  0.88000000000E+00 0. -1.
        -11    1    4    4    0    0 -0.59543358231E-02  0.53841707184E-01 -0.22022690385E-01  0.58477718495E-01  0.51100000000E-03 0.  1.
         11    1    4    4    0    0  0.13039524110E-01  0.59856918364E-01 -0.33917261313E-01  0.70025149775E-01  0.51100000000E-03 0. -1.
</event>
<event>
 8    1  0.1180500E+005  0.1043930E+01  0.7957747E-01            NaN
         13   -1    0    0    0    0  0.00000000000E+00  0.00000000000E+00  0.74505805969E-08  0.10566000000E+00  0.10566000000E+00 0. -1.
     999900   -1    0    0    0    0 -0.00000000000E+00 -0.00000000000E+00 -0.74505805969E-08  0.93827000000E+00  0.93827000000E+00 0.  1.
     999902    2    1    2    0    0  0.65686139211E-02 -0.18223964659E-01  0.14157246843E-01  0.10199365172E+01  0.10196542610E+01 0.  0.
     999903    2    3    3    0    0  0.53285282239E-02 -0.13100541977E+00  0.12388398445E-02  0.13264396139E+00  0.20051746762E-01 0.  0.
         14    1    1    2    0    0 -0.65686139211E-02  0.18223964659E-01 -0.14157246843E-01  0.23993482759E-01  0.00000000000E+00 0.  1.
     999901    1    3    3    0    0  0.12400856972E-02  0.11278145511E+00  0.12918406999E-01  0.88729255585E+00  0.88000000000E+00 0. -1.
        -11    1    4    4    0    0 -0.80377773389E-03 -0.82114340111E-01 -0.79997353073E-02  0.82508592259E-01  0.51100000000E-03 0. -1.
         11    1    4    4    0    0  0.61323059578E-02 -0.48891079654E-01  0.92385751518E-02  0.50135369131E-01  0.51100000000E-03 0.  1.
</event>
<event>
 8    1  0.1180500E+005  0.1043930E+01  0.7957747E-01            NaN
         13   -1    0    0    0    0  0.00000000000E+00  0.00000000000E+00  0.74505805969E-08  0.10566000000E+00  0.10566000000E+00 0. -1.
     999900   -1    0    0    0    0 -0.00000000000E+00 -0.00000000000E+00 -0.74505805969E-08  0.93827000000E+00  0.93827000000E+00 0.  1.
     999902    2    1    2    0    0 -0.28489257564E-02  0.23831467367E-01 -0.21738111078E-02  0.10198306085E+01  0.10195458251E+01 0.  0.
     999903    2    3    3    0    0 -0.70718515460E-01  0.11034093214E+00  0.12260869753E-01  0.13287033393E+00  0.18109858501E-01 0.  0.
         14    1    1    2    0    0  0.28489257564E-02 -0.23831467367E-01  0.21738111078E-02  0.24099391477E-01  0.00000000000E+00 0. -1.
     999901    1    3    3    0    0  0.67869589704E-01 -0.86509464778E-01 -0.14434680861E-01  0.88696027460E+00  0.88000000000E+00 0. -1.
        -11    1    4    4    0    0 -0.46997251881E-01  0.63426311302E-01  0.25088134872E-03  0.78942781255E-01  0.51100000000E-03 0.  1.
         11    1    4    4    0    0 -0.23721263579E-01  0.46914620843E-01  0.12009988404E-01  0.53927552671E-01  0.51100000000E-03 0. -1.
</event>
<event>
 8    1  0.1180500E+005  0.1043930E+01  0.7957747E-01            NaN
         13   -1    0    0    0    0  0.00000000000E+00  0.00000000000E+00  0.74505805969E-08  0.10566000000E+00  0.10566000000E+00 0. -1.
     999900   -1    0    0    0    0 -0.00000000000E+00 -0.00000000000E+00 -0.74505805969E-08  0.93827000000E+00  0.93827000000E+00 0. -1.
     999902    2    1    2    0    0 -0.23654537751E-01 -0.86680504674E-03 -0.18537396946E-02  0.10201871093E+01  0.10199107869E+01 0.  0.
     999903    2    3    3    0    0 -0.32432665584E-02  0.25422691037E-01 -0.12678170369E+00  0.13074079065E+00  0.19045260610E-01 0.  0.
         14    1    1    2    0    0  0.23654537751E-01  0.86680504674E-03  0.18537396946E-02  0.23742890685E-01  0.00000000000E+00 0. -1.
     999901    1    3    3    0    0 -0.20411271193E-01 -0.26289496084E-01  0.12492796400E+00  0.88944631866E+00  0.88000000000E+00 0.  1.
        -11    1    4    4    0    0 -0.58536304199E-02  0.76489210941E-02 -0.17417889778E-01  0.19910172986E-01  0.51100000000E-03 0.  1.
         11    1    4    4    0    0  0.26103638614E-02  0.17773769943E-01 -0.10936381391E+00  0.11083061767E+00  0.51100000000E-03 0. -1.
</event>
<event>
 8    1  0.1180500E+005  0.1043930E+01  0.7957747E-01            NaN
         13   -1    0    0    0    0  0.00000000000E+00  0.00000000000E+00  0.74505805969E-08  0.10566000000E+00  0.10566000000E+00 0.  1.
     999900   -1    0    0    0    0 -0.00000000000E+00 -0.00000000000E+00 -0.74505805969E-08  0.93827000000E+00  0.93827000000E+00 0. -1.
     999902    2    1    2    0    0 -0.22009796090E-01  0.15065823164E-01 -0.64380382210E-02  0.10164917332E+01  0.10161213437E+01 0.  0.
     999903    2    3    3    0    0  0.82644040942E-01 -0.55118873250E-01 -0.73808667035E-01  0.12496656870E+00  0.17343479258E-01 0.  0.
         14    1    1    2    0    0  0.22009796090E-01 -0.15065823164E-01  0.64380382210E-02  0.27438266849E-01  0.00000000000E+00 0.  1.
     999901    1    3    3    0    0 -0.10465383703E+00  0.70184696414E-01  0.67370628814E-01  0.89152516445E+00  0.88000000000E+00 0. -1.
        -11    1    4    4    0    0  0.27692810949E-01 -0.22481757498E-01 -0.17270345421E-01  0.39633914144E-01  0.51100000000E-03 0. -1.
         11    1    4    4    0    0  0.54951229993E-01 -0.32637115751E-01 -0.56538321613E-01  0.85332654560E-01  0.51100000000E-03 0.  1.
</event>
<event>
 8    1  0.1180500E+005  0.1043930E+01  0.7957747E-01            NaN
         13   -1    0    0    0    0  0.00000000000E+00  0.00000000000E+00  0.74505805969E-08  0.10566000000E+00  0.10566000000E+00 0.  1.
     999900   -1    0    0    0    0 -0.00000000000E+00 -0.00000000000E+00 -0.74505805969E-08  0.93827000000E+00  0.93827000000E+00 0. -1.
     999902    2    1    2    0    0  0.13725354772E-01  0.28944351665E-02  0.15868394222E-01  0.10227505511E+01  0.10225312322E+01 0.  0.
     999903    2    3    3    0    0 -0.12459042991E+00 -0.33342270366E-01 -0.86366354351E-02  0.13087340064E+00  0.20463951369E-01 0.  0.
         14    1    1    2    0    0 -0.13725354772E-01 -0.28944351665E-02 -0.15868394222E-01  0.21179448854E-01  0.00000000000E+00 0. -1.
     999901    1    3    3    0    0  0.13831578468E+00  0.36236705533E-01  0.24505029657E-01  0.89187715051E+00  0.88000000000E+00 0. -1.
        -11    1    4    4    0    0 -0.88733975033E-01 -0.14107223332E-01 -0.75366770306E-02  0.90165374157E-01  0.51100000000E-03 0. -1.
         11    1    4    4    0    0 -0.35856454874E-01 -0.19235047034E-01 -0.10999584045E-02  0.40708026482E-01  0.51100000000E-03 0.  1.
</event>
<event>
 8    1  0.1180500E+005  0.1043930E+01  0.7957747E-01            NaN
         13   -1    0    0    0    0  0.00000000000E+00  0.00000000000E+00  0.74505805969E-08  0.10566000000E+00  0.10566000000E+00 0.  1.
     999900   -1    0    0    0    0 -0.00000000000E+00 -0.00000000000E+00 -0.74505805969E-08  0.93827000000E+00  0.93827000000E+00 0. -1.
     999902    2    1    2    0    0 -0.18223061662E-01 -0.16990098077E-01 -0.14643563933E-02  0.10189722808E+01  0.10186665898E+01 0.  0.
     999903    2    3    3    0    0  0.30921781125E-01 -0.11824250402E+00  0.41683729926E-01  0.13075551521E+00  0.20543249798E-01 0.  0.
         14    1    1    2    0    0  0.18223061662E-01  0.16990098077E-01  0.14643563933E-02  0.24957719220E-01  0.00000000000E+00 0.  1.
     999901    1    3    3    0    0 -0.49144842788E-01  0.10125240595E+00 -0.43148086319E-01  0.88821676557E+00  0.88000000000E+00 0.  1.
        -11    1    4    4    0    0  0.25520480605E-01 -0.70587297413E-01  0.33080084023E-01  0.82026913671E-01  0.51100000000E-03 0.  1.
         11    1    4    4    0    0  0.54013005202E-02 -0.47655206610E-01  0.86036459028E-02  0.48728601542E-01  0.51100000000E-03 0. -1.
</event>
<event>
 8    1  0.1180500E+005  0.1043930E+01  0.7957747E-01            NaN
         13   -1    0    0    0    0  0.00000000000E+00  0.00000000000E+00  0.74505805969E-08  0.10566000000E+00  0.10566000000E+00 0.  1.
     999900   -1    0    0    0    0 -0.00000000000E+00 -0.00000000000E+00 -0.74505805969E-08  0.93827000000E+00  0.93827000000E+00 0. -1.
     999902    2    1    2    0    0 -0.15265410162E-02 -0.63231735971E-02 -0.23537464332E-01  0.10195102318E+01  0.10192177332E+01 0.  0.
     999903    2    3    3    0    0 -0.21334626961E-01 -0.63350566648E-01 -0.11316123864E+00  0.13290045024E+00  0.19713019623E-01 0.  0.
         14    1    1    2    0    0  0.15265410162E-02  0.63231735971E-02  0.23537464332E-01  0.24419768201E-01  0.00000000000E+00 0.  1.
     999901    1    3    3    0    0  0.19808085944E-01  0.57027393051E-01  0.89623774307E-01  0.88660978155E+00  0.88000000000E+00 0.  1.
        -11    1    4    4    0    0 -0.11962291303E-01 -0.56656270051E-01 -0.98343775116E-01  0.11412619583E+00  0.51100000000E-03 0. -1.
         11    1    4    4    0    0 -0.93723356574E-02 -0.66942965976E-02 -0.14817463523E-01  0.18774254416E-01  0.51100000000E-03 0.  1.
</event>
<event>
 8    1  0.1180500E+005  0.1043930E+01  0.7957747E-01            NaN
         13   -1    0    0    0    0  0.00000000000E+00  0.00000000000E+00  0.74505805969E-08  0.10566000000E+00  0.10566000000E+00 0.  1.
     999900   -1    0    0    0    0 -0.00000000000E+00 -0.00000000000E+00 -0.74505805969E-08  0.93827000000E+00  0.93827000000E+00 0.  1.
     999902    2    1    2    0    0  0.60608004306E-02 -0.15541336208E-02  0.22095259309E-01  0.10209659168E+01  0.10207076242E+01 0.  0.
     999903    2    3    3    0    0 -0.11380637386E+00 -0.10924881730E-01 -0.56938001956E-01  0.12928087892E+00  0.20009143290E-01 0.  0.
         14    1    1    2    0    0 -0.60608004306E-02  0.15541336208E-02 -0.22095259309E-01  0.22964083198E-01  0.00000000000E+00 0. -1.
     999901    1    3    3    0    0  0.11986717429E+00  0.93707481089E-02  0.79033261265E-01  0.89168503788E+00  0.88000000000E+00 0. -1.
        -11    1    4    4    0    0 -0.48002693383E-01  0.52639579833E-02 -0.23024092578E-01  0.53500820422E-01  0.51100000000E-03 0.  1.
         11    1    4    4    0    0 -0.65803680481E-01 -0.16188839713E-01 -0.33913909377E-01  0.75780058500E-01  0.51100000000E-03 0. -1.
</event>
<event>
 8    1  0.1180500E+005  0.1043930E+01  0.7957747E-01            NaN
         13   -1    0    0    0    0  0.00000000000E+00  0.00000000000E+00  0.74505805969E-08  0.10566000000E+00  0.10566000000E+00 0. -1.
     999900   -1    0    0    0    0 -0.00000000000E+00 -0.00000000000E+00 -0.74505805969E-08  0.93827000000E+00  0.93827000000E+00 0.  1.
     999902    2    1    2    0    0 -0.23677620235E-01 -0.10989626474E-01 -0.68036533026E-03  0.10178174649E+01  0.10174824458E+01 0.  0.
     999903    2    3    3    0    0  0.70494111308E-01 -0.99609802997E-01 -0.32339724598E-01  0.12780388879E+00  0.19910892013E-01 0.  0.
         14    1    1    2    0    0  0.23677620235E-01  0.10989626474E-01  0.68036533026E-03  0.26112535056E-01  0.00000000000E+00 0.  1.
     999901    1    3    3    0    0 -0.94171731543E-01  0.88620176523E-01  0.31659359267E-01  0.89001357615E+00  0.88000000000E+00 0. -1.
        -11    1    4    4    0    0  0.10190324218E-01 -0.27660420289E-01 -0.11449142133E-01  0.31627290981E-01  0.51100000000E-03 0.  1.
         11    1    4    4    0    0  0.60303787090E-01 -0.71949382708E-01 -0.20890582464E-01  0.96176597809E-01  0.51100000000E-03 0. -1.
</event>
<event>
 8    1  0.1180500E+005  0.1043930E+01  0.7957747E-01            NaN
         13   -1    0    0    0    0  0.00000000000E+00  0.00000000000E+00  0.74505805969E-08  0.10566000000E+00  0.10566000000E+00 0.  1.
     999900   -1    0    0    0    0 -0.00000000000E+00 -0.00000000000E+00 -0.74505805969E-08  0.93827000000E+00  0.93827000000E+00 0. -1.
     999902    2    1    2    0    0  0.14460256166E-01  0.11334155590E-01  0.15653389105E-01  0.10197930847E+01  0.10195074030E+01 0.  0.
     999903    2    3    3    0    0  0.10696647402E+00  0.71761437325E-01 -0.21911187825E-01  0.13208820456E+00  0.19382032463E-01 0.  0.
         14    1    1    2    0    0 -0.14460256166E-01 -0.11334155590E-01 -0.15653389105E-01  0.24136915333E-01  0.00000000000E+00 0. -1.
     999901    1    3    3    0    0 -0.92506217851E-01 -0.60427281735E-01  0.37564576931E-01  0.88770488010E+00  0.88000000000E+00 0.  1.
        -11    1    4    4    0    0  0.28989182957E-01  0.30151939321E-01 -0.54753916096E-02  0.42187121347E-01  0.51100000000E-03 0.  1.
         11    1    4    4    0    0  0.77977291060E-01  0.41609498004E-01 -0.16435796215E-01  0.89901083216E-01  0.51100000000E-03 0. -1.
</event>
<event>
 8    1  0.1180500E+005  0.1043930E+01  0.7957747E-01            NaN
         13   -1    0    0    0    0  0.00000000000E+00  0.00000000000E+00  0.74505805969E-08  0.10566000000E+00  0.10566000000E+00 0.  1.
     999900   -1    0    0    0    0 -0.00000000000E+00 -0.00000000000E+00 -0.74505805969E-08  0.93827000000E+00  0.93827000000E+00 0.  1.
     999902    2    1    2    0    0 -0.24983694493E-01 -0.65717572850E-02 -0.67086093439E-02  0.10172395818E+01  0.10168893688E+01 0.  0.
     999903    2    3    3    0    0  0.10527542734E+00 -0.34627876723E-01  0.54068173232E-01  0.12513622346E+00  0.21300272709E-01 0.  0.
         14    1    1    2    0    0  0.24983694493E-01  0.65717572850E-02  0.67086093439E-02  0.26690418199E-01  0.00000000000E+00 0. -1.
     999901    1    3    3    0    0 -0.13025912183E+00  0.28056119438E-01 -0.60776782576E-01  0.89210335834E+00  0.88000000000E+00 0.  1.
        -11    1    4    4    0    0  0.93530241285E-01 -0.25394395845E-01  0.52170934532E-01  0.11006747433E+00  0.51100000000E-03 0.  1.
         11    1    4    4    0    0  0.11745186057E-01 -0.92334808779E-02  0.18972386999E-02  0.15068749129E-01  0.51100000000E-03 0. -1.
</event>
<event>
 7    1  0.1180500E+005  0.1043930E+01  0.7957747E-01            NaN
         13   -1    0    0    0    0  0.00000000000E+00  0.00000000000E+00  0.74505805969E-08  0.10566000000E+00  0.10566000000E+00 0. -1.
     999900   -1    0    0    0    0 -0.00000000000E+00 -0.00000000000E+00 -0.74505805969E-08  0.93827000000E+00  0.93827000000E+00 0. -1.
     999903    2    1    2    0    0 -0.10467235453E+00 -0.12708274936E-01  0.11460848104E-01  0.10791131276E+00  0.19892167494E-01 0.  0.
         14    1    1    2    0    0 -0.30708392395E-01  0.33306660397E-01 -0.27302376911E-02  0.45384944510E-01  0.00000000000E+00 0.  1.
     999901    1    1    2    0    0  0.13538074693E+00 -0.20598385461E-01 -0.87306104127E-02  0.89063374273E+00  0.88000000000E+00 0. -1.
        -11    1    3    3    0    0 -0.68891754351E-01 -0.13854114843E-01 -0.15024341620E-03  0.70272996305E-01  0.51100000000E-03 0.  1.
         11    1    3    3    0    0 -0.35780600184E-01  0.11458399072E-02  0.11611091520E-01  0.37638316459E-01  0.51100000000E-03 0. -1.
</event>
<event>
 8    1  0.1180500E+005  0.1043930E+01  0.7957747E-01            NaN
         13   -1    0    0    0    0  0.00000000000E+00  0.00000000000E+00  0.74505805969E-08  0.10566000000E+00  0.10566000000E+00 0. -1.
     999900   -1    0    0    0    0 -0.00000000000E+00 -0.00000000000E+00 -0.74505805969E-08  0.93827000000E+00  0.93827000000E+00 0. -1.
     999902    2    1    2    0    0 -0.22644048141E-01 -0.10474012379E-02 -0.49690147798E-02  0.10207235123E+01  0.10204596746E+01 0.  0.
     999903    2    3    3    0    0  0.57491356887E-01  0.89581499661E-01  0.69997399779E-01  0.12928913771E+00  0.22044136512E-01 0.  0.
         14    1    1    2    0    0  0.22644048141E-01  0.10474012379E-02  0.49690147798E-02  0.23206487745E-01  0.00000000000E+00 0. -1.
     999901    1    3    3    0    0 -0.80135405028E-01 -0.90628900899E-01 -0.74966414559E-01  0.89143437455E+00  0.88000000000E+00 0.  1.
        -11    1    4    4    0    0  0.27711886170E-01  0.30728855073E-01  0.37112972208E-01  0.55586374197E-01  0.51100000000E-03 0. -1.
         11    1    4    4    0    0  0.29779470717E-01  0.58852644588E-01  0.32884427571E-01  0.73702763509E-01  0.51100000000E-03 0.  1.
</event>
<event>
 8    1  0.1180500E+005  0.1043930E+01  0.7957747E-01            NaN
         13   -1    0    0    0    0  0.00000000000E+00  0.00000000000E+00  0.74505805969E-08  0.10566000000E+00  0.10566000000E+00 0.  1.
     999900   -1    0    0    0    0 -0.00000000000E+00 -0.00000000000E+00 -0.74505805969E-08  0.93827000000E+00  0.93827000000E+00 0. -1.
     999902    2    1    2    0    0  0.22876748712E-01  0.67737244373E-02  0.73462005150E-03  0.10200601730E+01  0.10197808529E+01 0.  0.
     999903    2    3    3    0    0  0.11777605832E+00 -0.45728794089E-01  0.36366860182E-01  0.13268649188E+00  0.17911841991E-01 0.  0.
         14    1    1    2    0    0 -0.22876748712E-01 -0.67737244373E-02 -0.73462005150E-03  0.23869827000E-01  0.00000000000E+00 0.  1.
     999901    1    3    3    0    0 -0.94899309612E-01  0.52502518526E-01 -0.35632240131E-01  0.88737368112E+00  0.88000000000E+00 0. -1.
        -11    1    4    4    0    0  0.10493652960E+00 -0.39633809732E-01  0.37851854437E-01  0.11838723801E+00  0.51100000000E-03 0. -1.
         11    1    4    4    0    0  0.12839528726E-01 -0.60949843565E-02 -0.14849942545E-02  0.14299253867E-01  0.51100000000E-03 0.  1.
</event>
<event>
 8    1  0.1180500E+005  0.1043930E+01  0.7957747E-01            NaN
         13   -1    0    0    0    0  0.00000000000E+00  0.00000000000E+00  0.74505805969E-08  0.10566000000E+00  0.10566000000E+00 0.  1.
     999900   -1    0    0    0    0 -0.00000000000E+00 -0.00000000000E+00 -0.74505805969E-08  0.93827000000E+00  0.93827000000E+00 0. -1.
     999902    2    1    2    0    0 -0.14376188655E-01 -0.10358519353E-02  0.18106469841E-01  0.10207871385E+01  0.10205247621E+01 0.  0.
     999903    2    3    3    0    0  0.74601172113E-01  0.78835775381E-01  0.70933555494E-01  0.13113150366E+00  0.19582839335E-01 0.  0.
         14    1    1    2    0    0  0.14376188655E-01  0.10358519353E-02 -0.18106469841E-01  0.23142861525E-01  0.00000000000E+00 0. -1.
     999901    1    3    3    0    0 -0.88977360768E-01 -0.79871627316E-01 -0.52827085653E-01  0.88965563481E+00  0.88000000000E+00 0. -1.
        -11    1    4    4    0    0  0.61504035064E-01  0.59452669510E-01  0.63650273162E-01  0.10662544085E+00  0.51100000000E-03 0. -1.
         11    1    4    4    0    0  0.13097137049E-01  0.19383105871E-01  0.72832823320E-02  0.24506062814E-01  0.51100000000E-03 0.  1.
</event>
<event>
 8    1  0.1180500E+005  0.1043930E+01  0.7957747E-01            NaN
         13   -1    0    0    0    0  0.00000000000E+00  0.00000000000E+00  0.74505805969E-08  0.10566000000E+00  0.10566000000E+00 0.  1.
     999900   -1    0    0    0    0 -0.00000000000E+00 -0.00000000000E+00 -0.74505805969E-08  0.93827000000E+00  0.93827000000E+00 0. -1.
     999902    2    1    2    0    0  0.11106913103E-01 -0.84401237441E-02  0.20141493844E-01  0.10194294085E+01  0.10191349469E+01 0.  0.
     999903    2    3    3    0    0 -0.28255903772E-03  0.30946207993E-01 -0.12170226388E+00  0.12712864377E+00  0.19811698673E-01 0.  0.
         14    1    1    2    0    0 -0.11106913103E-01  0.84401237441E-02 -0.20141493844E-01  0.24500591457E-01  0.00000000000E+00 0. -1.
     999901    1    3    3    0    0  0.11389472141E-01 -0.39386331737E-01  0.14184375773E+00  0.89230076477E+00  0.88000000000E+00 0.  1.
        -11    1    4    4    0    0  0.38001262893E-02  0.22233309554E-01 -0.50931403176E-01  0.55704846863E-01  0.51100000000E-03 0. -1.
         11    1    4    4    0    0 -0.40826853270E-02  0.87128984386E-02 -0.70770860708E-01  0.71423796910E-01  0.51100000000E-03 0.  1.
</event>
<event>
 8    1  0.1180500E+005  0.1043930E+01  0.7957747E-01            NaN
         13   -1    0    0    0    0  0.00000000000E+00  0.00000000000E+00  0.74505805969E-08  0.10566000000E+00  0.10566000000E+00 0.  1.
     999900   -1    0    0    0    0 -0.00000000000E+00 -0.00000000000E+00 -0.74505805969E-08  0.93827000000E+00  0.93827000000E+00 0.  1.
     999902    2    1    2    0    0 -0.17683966780E-01  0.15215742685E-01 -0.39918554081E-02  0.10202619537E+01  0.10199873910E+01 0.  0.
     999903    2    3    3    0    0 -0.84004945849E-01 -0.86404575712E-01 -0.47119255745E-01  0.13088850343E+00  0.19722941871E-01 0.  0.
         14    1    1    2    0    0  0.17683966780E-01 -0.15215742685E-01  0.39918554081E-02  0.23668046310E-01  0.00000000000E+00 0. -1.
     999901    1    3    3    0    0  0.66320979069E-01  0.10162031840E+00  0.43127400337E-01  0.88937345026E+00  0.88000000000E+00 0. -1.
        -11    1    4    4    0    0 -0.16830549160E-01 -0.11449311552E-01 -0.16100485083E-02  0.20425657817E-01  0.51100000000E-03 0.  1.
         11    1    4    4    0    0 -0.67174396689E-01 -0.74955264159E-01 -0.45509207236E-01  0.11046284561E+00  0.51100000000E-03 0. -1.
</event>
<event>
 8    1  0.1180500E+005  0.1043930E+01  0.7957747E-01            NaN
         13   -1    0    0    0    0  0.00000000000E+00  0.00000000000E+00  0.74505805969E-08  0.10566000000E+00  0.10566000000E+00 0.  1.
     999900   -1    0    0    0    0 -0.00000000000E+00 -0.00000000000E+00 -0.74505805969E-08  0.93827000000E+00  0.93827000000E+00 0. -1.
     999902    2    1    2    0    0  0.21695952063E-01 -0.17264878537E-02 -0.78254983811E-02  0.10208013701E+01  0.10205393200E+01 0.  0.
     999903    2    3    3    0    0 -0.11468400209E+00 -0.46316798192E-01 -0.29717262449E-01  0.12891178220E+00  0.20915682454E-01 0.  0.
         14    1    1    2    0    0 -0.21695952063E-01  0.17264878537E-02  0.78254983811E-02  0.23128629902E-01  0.00000000000E+00 0.  1.
     999901    1    3    3    0    0  0.13637995415E+00  0.44590310339E-01  0.21891764068E-01  0.89188958790E+00  0.88000000000E+00 0. -1.
        -11    1    4    4    0    0 -0.20273878795E-01 -0.27869937811E-02 -0.11126539151E-01  0.23299323815E-01  0.51100000000E-03 0.  1.
         11    1    4    4    0    0 -0.94410123293E-01 -0.43529804411E-01 -0.18590723298E-01  0.10561245838E+00  0.51100000000E-03 0. -1.
</event>
<event>
 8    1  0.1180500E+005  0.1043930E+01  0.7957747E-01            NaN
         13   -1    0    0    0    0  0.00000000000E+00  0.00000000000E+00  0.74505805969E-08  0.10566000000E+00  0.10566000000E+00 0.  1.
     999900   -1    0    0    0    0 -0.00000000000E+00 -0.00000000000E+00 -0.74505805969E-08  0.93827000000E+00  0.93827000000E+00 0. -1.
     999902    2    1    2    0    0 -0.33807332244E-03 -0.25149855115E-01  0.57092016958E-02  0.10181380538E+01  0.10178113146E+01 0.  0.
     999903    2    3    3    0    0 -0.11601702517E+00  0.24345188403E-01  0.44154059665E-01  0.12835752672E+00  0.21758569632E-01 0.  0.
         14    1    1    2    0    0  0.33807332244E-03  0.25149855115E-01 -0.57092016958E-02  0.25791946221E-01  0.00000000000E+00 0.  1.
     999901    1    3    3    0    0  0.11567895185E+00 -0.49495043517E-01 -0.38444857970E-01  0.88978052706E+00  0.88000000000E+00 0. -1.
        -11    1    4    4    0    0 -0.24000609510E-01  0.90874070377E-02  0.18434602120E-01  0.31602308457E-01  0.51100000000E-03 0. -1.
         11    1    4    4    0    0 -0.92016415661E-01  0.15257781365E-01  0.25719457546E-01  0.96755218261E-01  0.51100000000E-03 0.  1.
</event>
<event>
 8    1  0.1180500E+005  0.1043930E+01  0.7957747E-01            NaN
         13   -1    0    0    0    0  0.00000000000E+00  0.00000000000E+00  0.74505805969E-08  0.10566000000E+00  0.10566000000E+00 0. -1.
     999900   -1    0    0    0    0 -0.00000000000E+00 -0.00000000000E+00 -0.74505805969E-08  0.93827000000E+00  0.93827000000E+00 0.  1.
     999902    2    1    2    0    0  0.12691513684E-01  0.38645522056E-02 -0.20010895062E-01  0.10199207267E+01  0.10196380944E+01 0.  0.
     999903    2    3    3    0    0  0.81580788118E-01 -0.69190108367E-01 -0.75389546517E-01  0.13248086361E+00  0.20613088375E-01 0.  0.
         14    1    1    2    0    0 -0.12691513684E-01 -0.38645522056E-02  0.20010895062E-01  0.24009273303E-01  0.00000000000E+00 0. -1.
     999901    1    3    3    0    0 -0.68889274434E-01  0.73054660572E-01  0.55378651455E-01  0.88743986309E+00  0.88000000000E+00 0. -1.
        -11    1    4    4    0    0  0.40374859031E-01 -0.44737470106E-01 -0.49677225133E-01  0.78100309162E-01  0.51100000000E-03 0. -1.
         11    1    4    4    0    0  0.41205929087E-01 -0.24452638260E-01 -0.25712321384E-01  0.54380554445E-01  0.51100000000E-03 0.  1.
</event>
<event>
 8    1  0.1180500E+005  0.1043930E+01  0.7957747E-01            NaN
         13   -1    0    0    0    0  0.00000000000E+00  0.00000000000E+00  0.74505805969E-08  0.10566000000E+00  0.10566000000E+00 0.  1.
     999900   -1    0    0    0    0 -0.00000000000E+00 -0.00000000000E+00 -0.74505805969E-08  0.93827000000E+00  0.93827000000E+00 0.  1.
     999902    2    1    2    0    0  0.22567872396E-01  0.11927337532E-01  0.10162529622E-01  0.10164555163E+01  0.10160841350E+01 0.  0.
     999903    2    3    3    0    0  0.11920318333E+00  0.13772837744E-01  0.46485377750E-01  0.13041875721E+00  0.21191316908E-01 0.  0.
         14    1    1    2    0    0 -0.22567872396E-01 -0.11927337532E-01 -0.10162529622E-01  0.27474483679E-01  0.00000000000E+00 0. -1.
     999901    1    3    3    0    0 -0.96635310938E-01 -0.18455002122E-02 -0.36322848128E-01  0.88603675911E+00  0.88000000000E+00 0. -1.
        -11    1    4    4    0    0  0.16668302356E-01 -0.50526108847E-02  0.91796268202E-02  0.19694868615E-01  0.51100000000E-03 0. -1.
         11    1    4    4    0    0  0.10253488098E+00  0.18825448629E-01  0.37305750930E-01  0.11072388860E+00  0.51100000000E-03 0.  1.
</event>
<event>
 8    1  0.1180500E+005  0.1043930E+01  0.7957747E-01            NaN
         13   -1    0    0    0    0  0.00000000000E+00  0.00000000000E+00  0.74505805969E-08  0.10566000000E+00  0.10566000000E+00 0. -1.
     999900   -1    0    0    0    0 -0.00000000000E+00 -0.00000000000E+00 -0.74505805969E-08  0.93827000000E+00  0.93827000000E+00 0. -1.
     999902    2    1    2    0    0 -0.15868346487E-01 -0.54811455894E-03  0.22891692214E-01  0.10160708108E+01  0.10156888097E+01 0.  0.
     999903    2    3    3    0    0  0.40364280028E-01 -0.64319783602E-01  0.10149653255E+00  0.12848551633E+00  0.20992191953E-01 0.  0.
         14    1    1    2    0    0  0.15868346487E-01  0.54811455894E-03 -0.22891692214E-01  0.27859189188E-01  0.00000000000E+00 0.  1.
     999901    1    3    3    0    0 -0.56232626515E-01  0.63771669043E-01 -0.78604840333E-01  0.88758529448E+00  0.88000000000E+00 0. -1.
        -11    1    4    4    0    0  0.40517790743E-01 -0.50740122162E-01  0.87664598237E-01  0.10909442822E+00  0.51100000000E-03 0. -1.
         11    1    4    4    0    0 -0.15351071417E-03 -0.13579661439E-01  0.13831934309E-01  0.19391088110E-01  0.51100000000E-03 0.  1.
</event>
<event>
 8    1  0.1180500E+005  0.1043930E+01  0.7957747E-01            NaN
         13   -1    0    0    0    0  0.00000000000E+00  0.00000000000E+00  0.74505805969E-08  0.10566000000E+00  0.10566000000E+00 0.  1.
     999900   -1    0    0    0    0 -0.00000000000E+00 -0.00000000000E+00 -0.74505805969E-08  0.93827000000E+00  0.93827000000E+00 0. -1.
     999902    2    1    2    0    0  0.16541247768E-01 -0.71408456834E-02  0.14473427556E-01  0.10208197283E+01  0.10205580988E+01 0.  0.
     999903    2    3    3    0    0  0.92512935134E-01 -0.60810649115E-01 -0.68729986692E-01  0.13201437655E+00  0.21151981757E-01 0.  0.
         14    1    1    2    0    0 -0.16541247768E-01  0.71408456834E-02 -0.14473427556E-01  0.23110271743E-01  0.00000000000E+00 0.  1.
     999901    1    3    3    0    0 -0.75971687366E-01  0.53669803432E-01  0.83203414247E-01  0.88880535171E+00  0.88000000000E+00 0.  1.
        -11    1    4    4    0    0  0.50858929891E-01 -0.20806439419E-01 -0.32945895065E-01  0.64072082794E-01  0.51100000000E-03 0.  1.
         11    1    4    4    0    0  0.41654005243E-01 -0.40004209697E-01 -0.35784091627E-01  0.67942293756E-01  0.51100000000E-03 0. -1.
</event>
<event>
 8    1  0.1180500E+005  0.1043930E+01  0.7957747E-01            NaN
         13   -1    0    0    0    0  0.00000000000E+00  0.00000000000E+00  0.74505805969E-08  0.10566000000E+00  0.10566000000E+00 0. -1.
     999900   -1    0    0    0    0 -0.00000000000E+00 -0.00000000000E+00 -0.74505805969E-08  0.93827000000E+00  0.93827000000E+00 0.  1.
     999902    2    1    2    0    0 -0.12350564363E-01  0.59476761585E-02 -0.19122812962E-01  0.10204014372E+01  0.10201301386E+01 0.  0.
     999903    2    3    3    0    0 -0.11836697834E+00 -0.13139309906E-01 -0.55735725190E-01  0.13307720198E+00  0.20486278291E-01 0.  0.
         14    1    1    2    0    0  0.12350564363E-01 -0.59476761585E-02  0.19122812962E-01  0.23528562798E-01  0.00000000000E+00 0. -1.
     999901    1    3    3    0    0  0.10601641398E+00  0.19086986065E-01  0.36612912228E-01  0.88732423522E+00  0.88000000000E+00 0. -1.
        -11    1    4    4    0    0 -0.34979237826E-01 -0.12431461135E-01 -0.12723764665E-01  0.39245937537E-01  0.51100000000E-03 0.  1.
         11    1    4    4    0    0 -0.83387740514E-01 -0.70784877074E-03 -0.43011960525E-01  0.93831264443E-01  0.51100000000E-03 0. -1.
</event>
<event>
 8    1  0.1180500E+005  0.1043930E+01  0.7957747E-01            NaN
         13   -1    0    0    0    0  0.00000000000E+00  0.00000000000E+00  0.74505805969E-08  0.10566000000E+00  0.10566000000E+00 0.  1.
     999900   -1    0    0    0    0 -0.00000000000E+00 -0.00000000000E+00 -0.74505805969E-08  0.93827000000E+00  0.93827000000E+00 0. -1.
     999902    2    1    2    0    0  0.17969445731E-02 -0.12376579404E-01 -0.19959459193E-01  0.10203760462E+01  0.10201041550E+01 0.  0.
     999903    2    3    3    0    0  0.98368082852E-01 -0.72817640986E-01  0.41551556521E-01  0.13090276852E+00  0.20744020715E-01 0.  0.
         14    1    1    2    0    0 -0.17969445731E-02  0.12376579404E-01  0.19959459193E-01  0.23553953783E-01  0.00000000000E+00 0.  1.
     999901    1    3    3    0    0 -0.96571138279E-01  0.60441061582E-01 -0.61511015714E-01  0.88947327769E+00  0.88000000000E+00 0.  1.
        -11    1    4    4    0    0  0.70078394782E-02 -0.11055255587E-01  0.12713337126E-03  0.13099838707E-01  0.51100000000E-03 0. -1.
         11    1    4    4    0    0  0.91360243374E-01 -0.61762385399E-01  0.41424423150E-01  0.11780292982E+00  0.51100000000E-03 0.  1.
</event>
<event>
 8    1  0.1180500E+005  0.1043930E+01  0.7957747E-01            NaN
         13   -1    0    0    0    0  0.00000000000E+00  0.00000000000E+00  0.74505805969E-08  0.10566000000E+00  0.10566000000E+00 0.  1.
     999900   -1    0    0    0    0 -0.00000000000E+00 -0.00000000000E+00 -0.74505805969E-08  0.93827000000E+00  0.93827000000E+00 0. -1.
     999902    2    1    2    0    0 -0.11797155279E-01  0.93131827865E-02 -0.26558163037E-01  0.10134137048E+01  0.10129541416E+01 0.  0.
     999903    2    3    3    0    0  0.57226445873E-01 -0.48614961316E-02  0.10448458337E+00  0.12092427609E+00  0.20178011152E-01 0.  0.
         14    1    1    2    0    0  0.11797155279E-01 -0.93131827865E-02  0.26558163037E-01  0.30516295159E-01  0.00000000000E+00 0.  1.
     999901    1    3    3    0    0 -0.69023601152E-01  0.14174678918E-01 -0.13104274641E+00  0.89248942875E+00  0.88000000000E+00 0. -1.
        -11    1    4    4    0    0  0.40182326509E-01  0.24729746253E-02  0.84774852658E-01  0.93849729522E-01  0.51100000000E-03 0.  1.
         11    1    4    4    0    0  0.17044119363E-01 -0.73344707569E-02  0.19709730717E-01  0.27074546572E-01  0.51100000000E-03 0. -1.
</event>
<event>
 8    1  0.1180500E+005  0.1043930E+01  0.7957747E-01            NaN
         13   -1    0    0    0    0  0.00000000000E+00  0.00000000000E+00  0.74505805969E-08  0.10566000000E+00  0.10566000000E+00 0.  1.
     999900   -1    0    0    0    0 -0.00000000000E+00 -0.00000000000E+00 -0.74505805969E-08  0.93827000000E+00  0.93827000000E+00 0. -1.
     999902    2    1    2    0    0 -0.85721003758E-02 -0.20834558465E-02 -0.21455763858E-01  0.10207314764E+01  0.10204678219E+01 0.  0.
     999903    2    3    3    0    0 -0.18956489983E-01  0.11461728002E+00 -0.59665932460E-01  0.13214444395E+00  0.20141032233E-01 0.  0.
         14    1    1    2    0    0  0.85721003758E-02  0.20834558465E-02  0.21455763858E-01  0.23198523570E-01  0.00000000000E+00 0.  1.
     999901    1    3    3    0    0  0.10384389607E-01 -0.11670073587E+00  0.38210168603E-01  0.88858703248E+00  0.88000000000E+00 0. -1.
        -11    1    4    4    0    0 -0.17121774144E-01  0.84283043473E-01 -0.34438227881E-01  0.92644693467E-01  0.51100000000E-03 0. -1.
         11    1    4    4    0    0 -0.18347158390E-02  0.30334236549E-01 -0.25227704579E-01  0.39499750487E-01  0.51100000000E-03 0.  1.
</event>
<event>
 8    1  0.1180500E+005  0.1043930E+01  0.7957747E-01            NaN
         13   -1    0    0    0    0  0.00000000000E+00  0.00000000000E+00  0.74505805969E-08  0.10566000000E+00  0.10566000000E+00 0. -1.
     999900   -1    0    0    0    0 -0.00000000000E+00 -0.00000000000E+00 -0.74505805969E-08  0.93827000000E+00  0.93827000000E+00 0. -1.
     999902    2    1    2    0    0 -0.14581340412E-01 -0.14042050152E-01 -0.88024393901E-02  0.10218556348E+01  0.10216171791E+01 0.  0.
     999903    2    3    3    0    0 -0.50175096746E-01 -0.10145717074E+00  0.67619855080E-01  0.13351522374E+00  0.21042156277E-01 0.  0.
         14    1    1    2    0    0  0.14581340412E-01  0.14042050152E-01  0.88024393901E-02  0.22074365221E-01  0.00000000000E+00 0. -1.
     999901    1    3    3    0    0  0.35593756334E-01  0.87415120587E-01 -0.76422294470E-01  0.88834041104E+00  0.88000000000E+00 0. -1.
        -11    1    4    4    0    0 -0.32472193297E-01 -0.56433145787E-01  0.27568741072E-01  0.70706717405E-01  0.51100000000E-03 0.  1.
         11    1    4    4    0    0 -0.17702903449E-01 -0.45024024952E-01  0.40051114008E-01  0.62808506332E-01  0.51100000000E-03 0. -1.
</event>
<event>
 8    1  0.1180500E+005  0.1043930E+01  0.7957747E-01            NaN
         13   -1    0    0    0    0  0.00000000000E+00  0.00000000000E+00  0.74505805969E-08  0.10566000000E+00  0.10566000000E+00 0. -1.
     999900   -1    0    0    0    0 -0.00000000000E+00 -0.00000000000E+00 -0.74505805969E-08  0.93827000000E+00  0.93827000000E+00 0. -1.
     999902    2    1    2    0    0  0.10147673560E-01 -0.20956257100E-01 -0.33936663274E-02  0.10204000837E+01  0.10201287536E+01 0.  0.
     999903    2    3    3    0    0  0.19518829413E-02 -0.10101282853E+00 -0.84274738636E-01  0.13303433414E+00  0.19710431641E-01 0.  0.
         14    1    1    2    0    0 -0.10147673560E-01  0.20956257100E-01  0.33936663274E-02  0.23529916308E-01  0.00000000000E+00 0. -1.
     999901    1    3    3    0    0  0.81957906184E-02  0.80056571425E-01  0.80881072309E-01  0.88736574955E+00  0.88000000000E+00 0.  1.
        -11    1    4    4    0    0  0.85369728180E-02 -0.57463883533E-01 -0.56006082548E-01  0.80696469681E-01  0.51100000000E-03 0.  1.
         11    1    4    4    0    0 -0.65850898767E-02 -0.43548944992E-01 -0.28268656088E-01  0.52337864463E-01  0.51100000000E-03 0. -1.
</event>
<event>
 8    1  0.1180500E+005  0.1043930E+01  0.7957747E-01            NaN
         13   -1    0    0    0    0  0.00000000000E+00  0.00000000000E+00  0.74505805969E-08  0.10566000000E+00  0.10566000000E+00 0. -1.
     999900   -1    0    0    0    0 -0.00000000000E+00 -0.00000000000E+00 -0.74505805969E-08  0.93827000000E+00  0.93827000000E+00 0. -1.
     999902    2    1    2    0    0 -0.26554791724E-02 -0.22824019813E-01  0.59413153721E-02  0.10201963387E+01  0.10199202336E+01 0.  0.
     999903    2    3    3    0    0  0.13666787328E-01 -0.92023904147E-01  0.90867819438E-01  0.13325352687E+00  0.29057904317E-01 0.  0.
         14    1    1    2    0    0  0.26554791724E-02  0.22824019813E-01 -0.59413153721E-02  0.23733661294E-01  0.00000000000E+00 0.  1.
     999901    1    3    3    0    0 -0.16322266500E-01  0.69199884334E-01 -0.84926504066E-01  0.88694281184E+00  0.88000000000E+00 0. -1.
        -11    1    4    4    0    0  0.11345665829E-01 -0.72562144820E-01  0.52870712627E-01  0.90496200852E-01  0.51100000000E-03 0.  1.
         11    1    4    4    0    0  0.23211214986E-02 -0.19461759327E-01  0.37997106811E-01  0.42757326017E-01  0.51100000000E-03 0. -1.
</event>
<event>
 8    1  0.1180500E+005  0.1043930E+01  0.7957747E-01            NaN
         13   -1    0    0    0    0  0.00000000000E+00  0.00000000000E+00  0.74505805969E-08  0.10566000000E+00  0.10566000000E+00 0. -1.
     999900   -1    0    0    0    0 -0.00000000000E+00 -0.00000000000E+00 -0.74505805969E-08  0.93827000000E+00  0.93827000000E+00 0. -1.
     999902    2    1    2    0    0 -0.87218031215E-02  0.13234256983E-01 -0.18787055705E-01  0.10193501532E+01  0.10190537601E+01 0.  0.
     999903    2    3    3    0    0  0.65940247717E-01 -0.78533175051E-01 -0.76491583401E-01  0.12956057360E+00  0.20479356611E-01 0.  0.
         14    1    1    2    0    0  0.87218031215E-02 -0.13234256983E-01  0.18787055705E-01  0.24579846819E-01  0.00000000000E+00 0. -1.
     999901    1    3    3    0    0 -0.74662050839E-01  0.91767432034E-01  0.57704527696E-01  0.88978957958E+00  0.88000000000E+00 0. -1.
        -11    1    4    4    0    0  0.23981771945E-01 -0.42588362259E-01 -0.41845157028E-01  0.64344170468E-01  0.51100000000E-03 0.  1.
         11    1    4    4    0    0  0.41958475772E-01 -0.35944812792E-01 -0.34646426374E-01  0.65216403130E-01  0.51100000000E-03 0. -1.
</event>
<event>
 8    1  0.1180500E+005  0.1043930E+01  0.7957747E-01            NaN
         13   -1    0    0    0    0  0.00000000000E+00  0.00000000000E+00  0.74505805969E-08  0.10566000000E+00  0.10566000000E+00 0.  1.
     999900   -1    0    0    0    0 -0.00000000000E+00 -0.00000000000E+00 -0.74505805969E-08  0.93827000000E+00  0.93827000000E+00 0. -1.
     999902    2    1    2    0    0 -0.69613066967E-02  0.64863327333E-02 -0.19876379190E-01  0.10218936039E+01  0.10216559768E+01 0.  0.
     999903    2    3    3    0    0  0.79576360426E-01  0.10064889436E+00  0.21747254739E-01  0.13167571892E+00  0.20073733844E-01 0.  0.
         14    1    1    2    0    0  0.69613066967E-02 -0.64863327333E-02  0.19876379190E-01  0.22036396098E-01  0.00000000000E+00 0.  1.
     999901    1    3    3    0    0 -0.86537667122E-01 -0.94162561623E-01 -0.41623633930E-01  0.89021788498E+00  0.88000000000E+00 0. -1.
        -11    1    4    4    0    0  0.66422114666E-01  0.75518189289E-01  0.23390708266E-01  0.10325831969E+00  0.51100000000E-03 0.  1.
         11    1    4    4    0    0  0.13154245760E-01  0.25130705067E-01 -0.16434535269E-02  0.28417399233E-01  0.51100000000E-03 0. -1.
</event>
<event>
 8    1  0.1180500E+005  0.1043930E+01  0.7957747E-01            NaN
         13   -1    0    0    0    0  0.00000000000E+00  0.00000000000E+00  0.74505805969E-08  0.10566000000E+00  0.10566000000E+00 0.  1.
     999900   -1    0    0    0    0 -0.00000000000E+00 -0.00000000000E+00 -0.74505805969E-08  0.93827000000E+00  0.93827000000E+00 0.  1.
     999902    2    1    2    0    0 -0.73288410707E-02 -0.78060886923E-02  0.20390463177E-01  0.10208991963E+01  0.10206393834E+01 0.  0.
     999903    2    3    3    0    0  0.57188423267E-01  0.71151800849E-02 -0.11264065955E+00  0.12844056906E+00  0.22088912437E-01 0.  0.
         14    1    1    2    0    0  0.73288410707E-02  0.78060886923E-02 -0.20390463177E-01  0.23030803735E-01  0.00000000000E+00 0. -1.
     999901    1    3    3    0    0 -0.64517264338E-01 -0.14921268777E-01  0.13303112273E+00  0.89245862721E+00  0.88000000000E+00 0. -1.
        -11    1    4    4    0    0  0.39644383174E-01  0.14428549213E-01 -0.69645206869E-01  0.81428349551E-01  0.51100000000E-03 0. -1.
         11    1    4    4    0    0  0.17544040094E-01 -0.73133691285E-02 -0.42995452682E-01  0.47012219509E-01  0.51100000000E-03 0.  1.
</event>
<event>
 8    1  0.1180500E+005  0.1043930E+01  0.7957747E-01            NaN
         13   -1    0    0    0    0  0.00000000000E+00  0.00000000000E+00  0.74505805969E-08  0.10566000000E+00  0.10566000000E+00 0. -1.
     999900   -1    0    0    0    0 -0.00000000000E+00 -0.00000000000E+00 -0.74505805969E-08  0.93827000000E+00  0.93827000000E+00 0. -1.
     999902    2    1    2    0    0 -0.15344698468E-01  0.11272644288E-01 -0.14756671529E-01  0.10198407569E+01  0.10195562161E+01 0.  0.
     999903    2    3    3    0    0 -0.86045814564E-01 -0.98956809066E-02 -0.98160585639E-01  0.13282161462E+00  0.22456046708E-01 0.  0.
         14    1    1    2    0    0  0.15344698468E-01 -0.11272644288E-01  0.14756671529E-01  0.24089243137E-01  0.00000000000E+00 0. -1.
     999901    1    3    3    0    0  0.70701116097E-01  0.21168325195E-01  0.83403914111E-01  0.88701914224E+00  0.88000000000E+00 0.  1.
        -11    1    4    4    0    0 -0.12237007620E-01  0.47637060981E-02 -0.22838461324E-01  0.26349453276E-01  0.51100000000E-03 0.  1.
         11    1    4    4    0    0 -0.73808806944E-01 -0.14659387005E-01 -0.75322124315E-01  0.10647216135E+00  0.51100000000E-03 0. -1.
</event>
<event>
 7    1  0.1180500E+005  0.1043930E+01  0.7957747E-01            NaN
         13   -1    0    0    0    0  0.00000000000E+00  0.00000000000E+00  0.74505805969E-08  0.10566000000E+00  0.10566000000E+00 0.  1.
     999900   -1    0    0    0    0 -0.00000000000E+00 -0.00000000000E+00 -0.74505805969E-08  0.93827000000E+00  0.93827000000E+00 0.  1.
     999902    2    1    2    0    0  0.41677372955E-02  0.19664365755E-01  0.14308001854E-01  0.10192566088E+01  0.10189579277E+01 0.  0.
         14    1    1    2    0    0 -0.41677372955E-02 -0.19664365755E-01 -0.14308001854E-01  0.24673391169E-01  0.00000000000E+00 0. -1.
     999901    1    3    3    0    0  0.68829887986E-02  0.13372089379E+00  0.57581454697E-01  0.89198894438E+00  0.88000000000E+00 0. -1.
        -11    1    3    3    0    0 -0.95346475476E-02 -0.56000996079E-01 -0.42202299621E-02  0.56965713615E-01  0.51100000000E-03 0.  1.
         11    1    3    3    0    0  0.68193960446E-02 -0.58055531955E-01 -0.39053222881E-01  0.70301950836E-01  0.51100000000E-03 0. -1.
</event>
<event>
 8    1  0.1180500E+005  0.1043930E+01  0.7957747E-01            NaN
         13   -1    0    0    0    0  0.00000000000E+00  0.00000000000E+00  0.74505805969E-08  0.10566000000E+00  0.10566000000E+00 0.  1.
     999900   -1    0    0    0    0 -0.00000000000E+00 -0.00000000000E+00 -0.74505805969E-08  0.93827000000E+00  0.93827000000E+00 0.  1.
     999902    2    1    2    0    0 -0.82927931426E-02 -0.21719219229E-01  0.34087872249E-02  0.10204328782E+01  0.10201623127E+01 0.  0.
     999903    2    3    3    0    0 -0.29281507446E-01  0.11793574051E+00 -0.35703959070E-01  0.12831526218E+00  0.20586117834E-01 0.  0.
         14    1    1    2    0    0  0.82927931426E-02  0.21719219229E-01 -0.34087872249E-02  0.23497121789E-01  0.00000000000E+00 0.  1.
     999901    1    3    3    0    0  0.20988714303E-01 -0.13965495974E+00  0.39112746295E-01  0.89211761603E+00  0.88000000000E+00 0. -1.
        -11    1    4    4    0    0 -0.25690005574E-01  0.78711489138E-01 -0.16238836240E-01  0.84376749358E-01  0.51100000000E-03 0. -1.
         11    1    4    4    0    0 -0.35915018715E-02  0.39224251371E-01 -0.19465122830E-01  0.43938512823E-01  0.51100000000E-03 0.  1.
</event>
<event>
 8    1  0.1180500E+005  0.1043930E+01  0.7957747E-01            NaN
         13   -1    0    0    0    0  0.00000000000E+00  0.00000000000E+00  0.74505805969E-08  0.10566000000E+00  0.10566000000E+00 0.  1.
     999900   -1    0    0    0    0 -0.00000000000E+00 -0.00000000000E+00 -0.74505805969E-08  0.93827000000E+00  0.93827000000E+00 0. -1.
     999902    2    1    2    0    0 -0.22889850663E-01  0.16758282801E-02  0.44562077200E-02  0.10205502769E+01  0.10202824395E+01 0.  0.
     999903    2    3    3    0    0 -0.56220326631E-01  0.91091449690E-01 -0.74505975392E-01  0.13187648956E+00  0.19542026447E-01 0.  0.
         14    1    1    2    0    0  0.22889850663E-01 -0.16758282801E-02 -0.44562077200E-02  0.23379723074E-01  0.00000000000E+00 0. -1.
     999901    1    3    3    0    0  0.33330475968E-01 -0.89415621410E-01  0.78962183112E-01  0.88867378736E+00  0.88000000000E+00 0.  1.
        -11    1    4    4    0    0 -0.19537982481E-01  0.24596841240E-01 -0.32012250359E-01  0.44852900157E-01  0.51100000000E-03 0. -1.
         11    1    4    4    0    0 -0.36682344150E-01  0.66494608450E-01 -0.42493725033E-01  0.87023589408E-01  0.51100000000E-03 0.  1.
</event>
<event>
 8    1  0.1180500E+005  0.1043930E+01  0.7957747E-01            NaN
         13   -1    0    0    0    0  0.00000000000E+00  0.00000000000E+00  0.74505805969E-08  0.10566000000E+00  0.10566000000E+00 0.  1.
     999900   -1    0    0    0    0 -0.00000000000E+00 -0.00000000000E+00 -0.74505805969E-08  0.93827000000E+00  0.93827000000E+00 0. -1.
     999902    2    1    2    0    0 -0.11834164880E-01 -0.17411192792E-01 -0.10839872905E-01  0.10202508966E+01  0.10199760743E+01 0.  0.
     999903    2    3    3    0    0  0.20287315479E-01 -0.10529125310E+00  0.72983312885E-01  0.13132962845E+00  0.20569010684E-01 0.  0.
         14    1    1    2    0    0  0.11834164880E-01  0.17411192792E-01  0.10839872905E-01  0.23679103392E-01  0.00000000000E+00 0. -1.
     999901    1    3    3    0    0 -0.32121480359E-01  0.87880060312E-01 -0.83823185791E-01  0.88892126815E+00  0.88000000000E+00 0. -1.
        -11    1    4    4    0    0  0.13149140054E-01 -0.22965076526E-01  0.15600599403E-01  0.30723516185E-01  0.51100000000E-03 0. -1.
         11    1    4    4    0    0  0.71381754249E-02 -0.82326176578E-01  0.57382713482E-01  0.10060611227E+00  0.51100000000E-03 0.  1.
</event>
<event>
 8    1  0.1180500E+005  0.1043930E+01  0.7957747E-01            NaN
         13   -1    0    0    0    0  0.00000000000E+00  0.00000000000E+00  0.74505805969E-08  0.10566000000E+00  0.10566000000E+00 0. -1.
     999900   -1    0    0    0    0 -0.00000000000E+00 -0.00000000000E+00 -0.74505805969E-08  0.93827000000E+00  0.93827000000E+00 0.  1.
     999902    2    1    2    0    0  0.19450059425E-01 -0.54297663678E-02  0.12490174159E-01  0.10201857033E+01  0.10199093477E+01 0.  0.
     999903    2    3    3    0    0 -0.95079276875E-01 -0.78954689014E-01 -0.14889063692E-01  0.12930271112E+00  0.34979923908E-01 0.  0.
         14    1    1    2    0    0 -0.19450059425E-01  0.54297663678E-02 -0.12490174159E-01  0.23744296683E-01  0.00000000000E+00 0. -1.
     999901    1    3    3    0    0  0.11452933630E+00  0.73524922646E-01  0.27379237851E-01  0.89088299220E+00  0.88000000000E+00 0. -1.
        -11    1    4    4    0    0 -0.39828788662E-01 -0.47541909042E-01 -0.20927649166E-01  0.65458331343E-01  0.51100000000E-03 0. -1.
         11    1    4    4    0    0 -0.55250488213E-01 -0.31412779972E-01  0.60385854743E-02  0.63844379775E-01  0.51100000000E-03 0.  1.
</event>
<event>
 8    1  0.1180500E+005  0.1043930E+01  0.7957747E-01            NaN
         13   -1    0    0    0    0  0.00000000000E+00  0.00000000000E+00  0.74505805969E-08  0.10566000000E+00  0.10566000000E+00 0.  1.
     999900   -1    0    0    0    0 -0.00000000000E+00 -0.00000000000E+00 -0.74505805969E-08  0.93827000000E+00  0.93827000000E+00 0. -1.
     999902    2    1    2    0    0 -0.96463946817E-03  0.75197113800E-02  0.22700849545E-01  0.10199966517E+01  0.10197158253E+01 0.  0.
     999903    2    3    3    0    0  0.90557883826E-01 -0.86644192590E-01  0.29101041483E-01  0.13023029166E+00  0.20127389762E-01 0.  0.
         14    1    1    2    0    0  0.96463946817E-03 -0.75197113800E-02 -0.22700849545E-01  0.23933348253E-01  0.00000000000E+00 0. -1.
     999901    1    3    3    0    0 -0.91522523294E-01  0.94163903970E-01 -0.64001919379E-02  0.88976636008E+00  0.88000000000E+00 0. -1.
        -11    1    4    4    0    0  0.24444041690E-01 -0.12464904786E-01  0.87078283667E-02  0.28791881171E-01  0.51100000000E-03 0. -1.
         11    1    4    4    0    0  0.66113842135E-01 -0.74179287803E-01  0.20393213116E-01  0.10143841049E+00  0.51100000000E-03 0.  1.
</event>
<event>
 8    1  0.1180500E+005  0.1043930E+01  0.7957747E-01            NaN
         13   -1    0    0    0    0  0.00000000000E+00  0.00000000000E+00  0.74505805969E-08  0.10566000000E+00  0.10566000000E+00 0.  1.
     999900   -1    0    0    0    0 -0.00000000000E+00 -0.00000000000E+00 -0.74505805969E-08  0.93827000000E+00  0.93827000000E+00 0.  1.
     999902    2    1    2    0    0  0.50470443288E-02  0.22847799909E-01 -0.38729257547E-02  0.10202130404E+01  0.10199373283E+01 0.  0.
     999903    2    3    3    0    0  0.10990803419E+00 -0.42324642295E-01 -0.52247462918E-01  0.13027856517E+00  0.19275783666E-01 0.  0.
         14    1    1    2    0    0 -0.50470443288E-02 -0.22847799909E-01  0.38729257547E-02  0.23716959566E-01  0.00000000000E+00 0.  1.
     999901    1    3    3    0    0 -0.10486098986E+00  0.65172442204E-01  0.48374537164E-01  0.88993447526E+00  0.88000000000E+00 0.  1.
        -11    1    4    4    0    0  0.75275544755E-01 -0.25948799188E-01 -0.44414091539E-01  0.91173573286E-01  0.51100000000E-03 0.  1.
         11    1    4    4    0    0  0.34632489437E-01 -0.16375843107E-01 -0.78333713788E-02  0.39104991884E-01  0.51100000000E-03 0. -1.
</event>
<event>
 8    1  0.1180500E+005  0.1043930E+01  0.7957747E-01            NaN
         13   -1    0    0    0    0  0.00000000000E+00  0.00000000000E+00  0.74505805969E-08  0.10566000000E+00  0.10566000000E+00 0. -1.
     999900   -1    0    0    0    0 -0.00000000000E+00 -0.00000000000E+00 -0.74505805969E-08  0.93827000000E+00  0.93827000000E+00 0. -1.
     999902    2    1    2    0    0 -0.10966932848E-02 -0.23395467321E-01  0.41929168674E-02  0.10201364887E+01  0.10198589728E+01 0.  0.
     999903    2    3    3    0    0 -0.14820507770E-01  0.47900999669E-01  0.11808175959E+00  0.12983193533E+00  0.19971886840E-01 0.  0.
         14    1    1    2    0    0  0.10966932848E-02  0.23395467321E-01 -0.41929168674E-02  0.23793511283E-01  0.00000000000E+00 0.  1.
     999901    1    3    3    0    0  0.13723814485E-01 -0.71296466990E-01 -0.11388884272E+00  0.89030455339E+00  0.88000000000E+00 0. -1.
        -11    1    4    4    0    0 -0.95711662807E-02  0.96455275720E-02  0.47120806162E-01  0.49043602238E-01  0.51100000000E-03 0.  1.
         11    1    4    4    0    0 -0.52493414890E-02  0.38255472097E-01  0.70960953425E-01  0.80788333090E-01  0.51100000000E-03 0. -1.
</event>
<event>
 8    1  0.1180500E+005  0.1043930E+01  0.7957747E-01            NaN
         13   -1    0    0    0    0  0.00000000000E+00  0.00000000000E+00  0.74505805969E-08  0.10566000000E+00  0.10566000000E+00 0. -1.
     999900   -1    0    0    0    0 -0.00000000000E+00 -0.00000000000E+00 -0.74505805969E-08  0.93827000000E+00  0.93827000000E+00 0. -1.
     999902    2    1    2    0    0 -0.34014242212E-03  0.19019313175E-01 -0.11543634590E-01  0.10216790344E+01  0.10214367058E+01 0.  0.
     999903    2    3    3    0    0  0.87791596690E-01  0.93747419384E-01 -0.32009103257E-01  0.13388945984E+00  0.20146008880E-01 0.  0.
         14    1    1    2    0    0  0.34014242212E-03 -0.19019313175E-01  0.11543634590E-01  0.22250965598E-01  0.00000000000E+00 0. -1.
     999901    1    3    3    0    0 -0.88131739112E-01 -0.74728106209E-01  0.20465468667E-01  0.88778957456E+00  0.88000000000E+00 0. -1.
        -11    1    4    4    0    0  0.12326563447E-01  0.50600746702E-02 -0.57142219415E-02  0.14507307658E-01  0.51100000000E-03 0. -1.
         11    1    4    4    0    0  0.75465033243E-01  0.88687344714E-01 -0.26294881315E-01  0.11938215218E+00  0.51100000000E-03 0.  1.
</event>
<event>
 8    1  0.1242043E+005  0.1043930E+01  0.7957747E-01            NaN
         13   -1    0    0    0    0  0.00000000000E+00  0.00000000000E+00  0.74505805969E-08  0.10566000000E+00  0.10566000000E+00 0. -1.
     999900   -1    0    0    0    0 -0.00000000000E+00 -0.00000000000E+00 -0.74505805969E-08  0.93827000000E+00  0.93827000000E+00 0. -1.
     999902    2    1    2    0    0  0.17615318557E-01  0.83619578955E-02 -0.14535512116E-01  0.10196091674E+01  0.10193190625E+01 0.  0.
     999903    2    3    3    0    0 -0.75839002471E-01  0.91290902435E-01 -0.49379420984E-01  0.13010086614E+00  0.20058040538E-01 0.  0.
         14    1    1    2    0    0 -0.17615318557E-01 -0.83619578955E-02  0.14535512116E-01  0.24320832638E-01  0.00000000000E+00 0.  1.
     999901    1    3    3    0    0  0.93454321027E-01 -0.82928944539E-01  0.34843908867E-01  0.88950830122E+00  0.88000000000E+00 0. -1.
        -11    1    4    4    0    0 -0.51077951344E-01  0.47045093981E-01 -0.24677222054E-01  0.73698198014E-01  0.51100000000E-03 0. -1.
         11    1    4    4    0    0 -0.24761051127E-01  0.44245808454E-01 -0.24702198930E-01  0.56402668125E-01  0.51100000000E-03 0.  1.
</event>
<event>
 8    1  0.1180500E+005  0.1043930E+01  0.7957747E-01            NaN
         13   -1    0    0    0    0  0.00000000000E+00  0.00000000000E+00  0.74505805969E-08  0.10566000000E+00  0.10566000000E+00 0.  1.
     999900   -1    0    0    0    0 -0.00000000000E+00 -0.00000000000E+00 -0.74505805969E-08  0.93827000000E+00  0.93827000000E+00 0.  1.
     999902    2    1    2    0    0  0.10891978493E-02  0.76639094471E-02  0.22371018424E-01  0.10202575619E+01  0.10199828961E+01 0.  0.
     999903    2    3    3    0    0 -0.54932374724E-01  0.11519915092E+00 -0.20902723175E-01  0.13088988683E+00  0.20169989403E-01 0.  0.
         14    1    1    2    0    0 -0.10891978493E-02 -0.76639094471E-02 -0.22371018424E-01  0.23672438093E-01  0.00000000000E+00 0. -1.
     999901    1    3    3    0    0  0.56021572573E-01 -0.10753524148E+00  0.43273741598E-01  0.88936767507E+00  0.88000000000E+00 0.  1.
        -11    1    4    4    0    0 -0.34286147455E-01  0.53310692675E-01 -0.16496394249E-01  0.65497801528E-01  0.51100000000E-03 0. -1.
         11    1    4    4    0    0 -0.20646227269E-01  0.61888458250E-01 -0.44063289260E-02  0.65392085305E-01  0.51100000000E-03 0.  1.
</event>
<event>
 8    1  0.1180500E+005  0.1043930E+01  0.7957747E-01            NaN
         13   -1    0    0    0    0  0.00000000000E+00  0.00000000000E+00  0.74505805969E-08  0.10566000000E+00  0.10566000000E+00 0.  1.
     999900   -1    0    0    0    0 -0.00000000000E+00 -0.00000000000E+00 -0.74505805969E-08  0.93827000000E+00  0.93827000000E+00 0. -1.
     999902    2    1    2    0    0 -0.19649372325E-02  0.82515669660E-02 -0.22094984290E-01  0.10202627723E+01  0.10199882288E+01 0.  0.
     999903    2    3    3    0    0 -0.10869476682E+00  0.55620845602E-01 -0.47072705617E-01  0.13219802712E+00  0.18768270060E-01 0.  0.
         14    1    1    2    0    0  0.19649372325E-02 -0.82515669660E-02  0.22094984290E-01  0.23667227689E-01  0.00000000000E+00 0.  1.
     999901    1    3    3    0    0  0.10672982959E+00 -0.47369278636E-01  0.24977721327E-01  0.88806474519E+00  0.88000000000E+00 0. -1.
        -11    1    4    4    0    0 -0.53582426710E-01  0.16950725291E-01 -0.21925132053E-01  0.60327241579E-01  0.51100000000E-03 0.  1.
         11    1    4    4    0    0 -0.55112340113E-01  0.38670120311E-01 -0.25147573563E-01  0.71870785544E-01  0.51100000000E-03 0. -1.
</event>
<event>
 8    1  0.1180500E+005  0.1043930E+01  0.7957747E-01            NaN
         13   -1    0    0    0    0  0.00000000000E+00  0.00000000000E+00  0.74505805969E-08  0.10566000000E+00  0.10566000000E+00 0. -1.
     999900   -1    0    0    0    0 -0.00000000000E+00 -0.00000000000E+00 -0.74505805969E-08  0.93827000000E+00  0.93827000000E+00 0. -1.
     999902    2    1    2    0    0  0.66938249896E-03  0.22143449631E-01  0.92914578049E-02  0.10199068524E+01  0.10196238894E+01 0.  0.
     999903    2    3    3    0    0 -0.38208363863E-01  0.90180387425E-01 -0.85287604300E-01  0.13137677236E+00  0.19836822432E-01 0.  0.
         14    1    1    2    0    0 -0.66938249896E-03 -0.22143449631E-01 -0.92914578049E-02  0.24023147642E-01  0.00000000000E+00 0.  1.
     999901    1    3    3    0    0  0.38877746362E-01 -0.68036937794E-01  0.94579062105E-01  0.88853007999E+00  0.88000000000E+00 0.  1.
        -11    1    4    4    0    0 -0.15555240540E-01  0.18206792028E-01 -0.15039276957E-01  0.28282393049E-01  0.51100000000E-03 0.  1.
         11    1    4    4    0    0 -0.22653123323E-01  0.71973595397E-01 -0.70248327343E-01  0.10309437931E+00  0.51100000000E-03 0. -1.
</event>
<event>
 8    1  0.1180500E+005  0.1043930E+01  0.7957747E-01            NaN
         13   -1    0    0    0    0  0.00000000000E+00  0.00000000000E+00  0.74505805969E-08  0.10566000000E+00  0.10566000000E+00 0. -1.
     999900   -1    0    0    0    0 -0.00000000000E+00 -0.00000000000E+00 -0.74505805969E-08  0.93827000000E+00  0.93827000000E+00 0.  1.
     999902    2    1    2    0    0 -0.18811033242E-02  0.23012576690E-01 -0.68263495652E-02  0.10198527019E+01  0.10195684466E+01 0.  0.
     999903    2    3    3    0    0  0.31858000961E-01  0.88613982485E-01 -0.91188099766E-01  0.13274573174E+00  0.20947306253E-01 0.  0.
         14    1    1    2    0    0  0.18811033242E-02 -0.23012576690E-01  0.68263495652E-02  0.24077298105E-01  0.00000000000E+00 0. -1.
     999901    1    3    3    0    0 -0.33739104285E-01 -0.65601405795E-01  0.84361750201E-01  0.88710697015E+00  0.88000000000E+00 0. -1.
        -11    1    4    4    0    0  0.59794748797E-02  0.46804342442E-01 -0.47791464081E-01  0.67161638986E-01  0.51100000000E-03 0.  1.
         11    1    4    4    0    0  0.25878526081E-01  0.41809640043E-01 -0.43396635686E-01  0.65584092755E-01  0.51100000000E-03 0. -1.
</event>
<event>
 8    1  0.1180500E+005  0.1043930E+01  0.7957747E-01            NaN
         13   -1    0    0    0    0  0.00000000000E+00  0.00000000000E+00  0.74505805969E-08  0.10566000000E+00  0.10566000000E+00 0. -1.
     999900   -1    0    0    0    0 -0.00000000000E+00 -0.00000000000E+00 -0.74505805969E-08  0.93827000000E+00  0.93827000000E+00 0.  1.
     999902    2    1    2    0    0 -0.20146269775E-01 -0.32356921571E-02 -0.12100205119E-01  0.10202075032E+01  0.10199316608E+01 0.  0.
     999903    2    3    3    0    0  0.35137592826E-01  0.65792485169E-01  0.10263580297E+00  0.12836360080E+00  0.19488571660E-01 0.  0.
         14    1    1    2    0    0  0.20146269775E-01  0.32356921571E-02  0.12100205119E-01  0.23722496781E-01  0.00000000000E+00 0. -1.
     999901    1    3    3    0    0 -0.55283862601E-01 -0.69028177326E-01 -0.11473600809E+00  0.89184390242E+00  0.88000000000E+00 0. -1.
        -11    1    4    4    0    0  0.11975923778E-01  0.42652535997E-01  0.61115612748E-01  0.75485368251E-01  0.51100000000E-03 0. -1.
         11    1    4    4    0    0  0.23161669047E-01  0.23139949171E-01  0.41520190220E-01  0.52878232550E-01  0.51100000000E-03 0.  1.
</event>
<event>
 8    1  0.1180500E+005  0.1043930E+01  0.7957747E-01            NaN
         13   -1    0    0    0    0  0.00000000000E+00  0.00000000000E+00  0.74505805969E-08  0.10566000000E+00  0.10566000000E+00 0. -1.
     999900   -1    0    0    0    0 -0.00000000000E+00 -0.00000000000E+00 -0.74505805969E-08  0.93827000000E+00  0.93827000000E+00 0. -1.
     999902    2    1    2    0    0 -0.12138793974E-01  0.98841900763E-02 -0.17011217809E-01  0.10208122781E+01  0.10205504780E+01 0.  0.
     999903    2    3    3    0    0  0.69899750391E-01  0.51362060186E-01 -0.97841612585E-01  0.13233926831E+00  0.20412360312E-01 0.  0.
         14    1    1    2    0    0  0.12138793974E-01 -0.98841900763E-02  0.17011217809E-01  0.23117721859E-01  0.00000000000E+00 0. -1.
     999901    1    3    3    0    0 -0.82038544365E-01 -0.41477870110E-01  0.80830394776E-01  0.88847300983E+00  0.88000000000E+00 0. -1.
        -11    1    4    4    0    0  0.20436720730E-01  0.10677833576E-01 -0.39303191172E-01  0.45570578682E-01  0.51100000000E-03 0.  1.
         11    1    4    4    0    0  0.49463029661E-01  0.40684226610E-01 -0.58538421413E-01  0.86768689633E-01  0.51100000000E-03 0. -1.
</event>
<event>
 8    1  0.1180500E+005  0.1043930E+01  0.7957747E-01            NaN
         13   -1    0    0    0    0  0.00000000000E+00  0.00000000000E+00  0.74505805969E-08  0.10566000000E+00  0.10566000000E+00 0.  1.
     999900   -1    0    0    0    0 -0.00000000000E+00 -0.00000000000E+00 -0.74505805969E-08  0.93827000000E+00  0.93827000000E+00 0.  1.
     999902    2    1    2    0    0 -0.17157603596E-01  0.15380942722E-01 -0.11375891986E-01  0.10182323799E+01  0.10179080567E+01 0.  0.
     999903    2    3    3    0    0  0.90139069603E-01 -0.78834767434E-01  0.32121908872E-01  0.12566236315E+00  0.20475352464E-01 0.  0.
         14    1    1    2    0    0  0.17157603596E-01 -0.15380942722E-01  0.11375891986E-01  0.25697620097E-01  0.00000000000E+00 0.  1.
     999901    1    3    3    0    0 -0.10729667320E+00  0.94215710156E-01 -0.43497800859E-01  0.89257001675E+00  0.88000000000E+00 0.  1.
        -11    1    4    4    0    0  0.75040287307E-01 -0.59705482180E-01  0.18253547458E-01  0.97617838725E-01  0.51100000000E-03 0. -1.
         11    1    4    4    0    0  0.15098782297E-01 -0.19129285254E-01  0.13868361414E-01  0.28044524429E-01  0.51100000000E-03 0.  1.
</event>
<event>
 8    1  0.1180500E+005  0.1043930E+01  0.7957747E-01            NaN
         13   -1    0    0    0    0  0.00000000000E+00  0.00000000000E+00  0.74505805969E-08  0.10566000000E+00  0.10566000000E+00 0.  1.
     999900   -1    0    0    0    0 -0.00000000000E+00 -0.00000000000E+00 -0.74505805969E-08  0.93827000000E+00  0.93827000000E+00 0. -1.
     999902    2    1    2    0    0 -0.13960856255E-01 -0.42328839929E-02  0.18896106423E-01  0.10200577221E+01  0.10197783439E+01 0.  0.
     999903    2    3    3    0    0  0.38160414270E-02 -0.21139348605E-01 -0.12473301990E+00  0.12807612332E+00  0.19589101031E-01 0.  0.
         14    1    1    2    0    0  0.13960856255E-01  0.42328839929E-02 -0.18896106423E-01  0.23872277902E-01  0.00000000000E+00 0. -1.
     999901    1    3    3    0    0 -0.17776897682E-01  0.16906464612E-01  0.14362912632E+00  0.89198159878E+00  0.88000000000E+00 0.  1.
        -11    1    4    4    0    0  0.78604919947E-02 -0.19339555560E-01 -0.67176324960E-01  0.70347178336E-01  0.51100000000E-03 0. -1.
         11    1    4    4    0    0 -0.40444505677E-02 -0.17997930456E-02 -0.57556694938E-01  0.57728944981E-01  0.51100000000E-03 0.  1.
</event>
<event>
 8    1  0.1180500E+005  0.1043930E+01  0.7957747E-01            NaN
         13   -1    0    0    0    0  0.00000000000E+00  0.00000000000E+00  0.74505805969E-08  0.10566000000E+00  0.10566000000E+00 0.  1.
     999900   -1    0    0    0    0 -0.00000000000E+00 -0.00000000000E+00 -0.74505805969E-08  0.93827000000E+00  0.93827000000E+00 0. -1.
     999902    2    1    2    0    0  0.57053074160E-02  0.73840603795E-02 -0.21881294589E-01  0.10201420633E+01  0.10198646789E+01 0.  0.
     999903    2    3    3    0    0  0.46670173570E-01  0.11629812197E+00 -0.38062547678E-01  0.13233452444E+00  0.18981847837E-01 0.  0.
         14    1    1    2    0    0 -0.57053074160E-02 -0.73840603795E-02  0.21881294589E-01  0.23787936718E-01  0.00000000000E+00 0.  1.
     999901    1    3    3    0    0 -0.40964866154E-01 -0.10891406160E+00  0.16181253088E-01  0.88780753884E+00  0.88000000000E+00 0. -1.
        -11    1    4    4    0    0  0.14355601608E-01  0.35184480127E-01 -0.20820359420E-01  0.43333352359E-01  0.51100000000E-03 0. -1.
         11    1    4    4    0    0  0.32314571961E-01  0.81113641848E-01 -0.17242188257E-01  0.89001172081E-01  0.51100000000E-03 0.  1.
</event>
<event>
 8    1  0.1180500E+005  0.1043930E+01  0.7957747E-01            NaN
         13   -1    0    0    0    0  0.00000000000E+00  0.00000000000E+00  0.74505805969E-08  0.10566000000E+00  0.10566000000E+00 0.  1.
     999900   -1    0    0    0    0 -0.00000000000E+00 -0.00000000000E+00 -0.74505805969E-08  0.93827000000E+00  0.93827000000E+00 0. -1.
     999902    2    1    2    0    0  0.17994991657E-01 -0.13771895177E-01  0.52533995633E-02  0.10206688085E+01  0.10204037111E+01 0.  0.
     999903    2    3    3    0    0  0.11259287315E-01  0.95321422018E-01  0.85827964572E-01  0.13025374684E+00  0.19663519928E-01 0.  0.
         14    1    1    2    0    0 -0.17994991657E-01  0.13771895177E-01 -0.52533995633E-02  0.23261191467E-01  0.00000000000E+00 0. -1.
     999901    1    3    3    0    0  0.67357043424E-02 -0.10909331719E+00 -0.80574565008E-01  0.89041506170E+00  0.88000000000E+00 0. -1.
        -11    1    4    4    0    0  0.13434973693E-01  0.59667599312E-01  0.44576521643E-01  0.75683870994E-01  0.51100000000E-03 0. -1.
         11    1    4    4    0    0 -0.21756863781E-02  0.35653822706E-01  0.41251442929E-01  0.54569875842E-01  0.51100000000E-03 0.  1.
</event>
<event>
 8    1  0.1180500E+005  0.1043930E+01  0.7957747E-01            NaN
         13   -1    0    0    0    0  0.00000000000E+00  0.00000000000E+00  0.74505805969E-08  0.10566000000E+00  0.10566000000E+00 0. -1.
     999900   -1    0    0    0    0 -0.00000000000E+00 -0.00000000000E+00 -0.74505805969E-08  0.93827000000E+00  0.93827000000E+00 0. -1.
     999902    2    1    2    0    0 -0.20615363053E-02 -0.20106755460E-01  0.12054941902E-01  0.10203959147E+01  0.10201244873E+01 0.  0.
     999903    2    3    3    0    0 -0.43329077458E-01 -0.11046831484E+00 -0.54587944218E-01  0.13230273510E+00  0.21059737059E-01 0.  0.
         14    1    1    2    0    0  0.20615363053E-02  0.20106755460E-01 -0.12054941902E-01  0.23534085308E-01  0.00000000000E+00 0.  1.
     999901    1    3    3    0    0  0.41267541153E-01  0.90361559377E-01  0.66642886120E-01  0.88809317959E+00  0.88000000000E+00 0. -1.
        -11    1    4    4    0    0 -0.11484573026E-01 -0.26844942345E-01 -0.23794928961E-01  0.37669697535E-01  0.51100000000E-03 0.  1.
         11    1    4    4    0    0 -0.31844504432E-01 -0.83623372491E-01 -0.30793015257E-01  0.94633037566E-01  0.51100000000E-03 0. -1.
</event>
<event>
 8    1  0.1180500E+005  0.1043930E+01  0.7957747E-01            NaN
         13   -1    0    0    0    0  0.00000000000E+00  0.00000000000E+00  0.74505805969E-08  0.10566000000E+00  0.10566000000E+00 0. -1.
     999900   -1    0    0    0    0 -0.00000000000E+00 -0.00000000000E+00 -0.74505805969E-08  0.93827000000E+00  0.93827000000E+00 0.  1.
     999902    2    1    2    0    0 -0.22965461988E-01  0.20682562443E-02 -0.48067861929E-02  0.10203759065E+01  0.10201040119E+01 0.  0.
     999903    2    3    3    0    0 -0.10299437156E+00 -0.44764115865E-01  0.67532740184E-01  0.13255221648E+00  0.19943732214E-01 0.  0.
         14    1    1    2    0    0  0.22965461988E-01 -0.20682562443E-02  0.48067861929E-02  0.23554093524E-01  0.00000000000E+00 0.  1.
     999901    1    3    3    0    0  0.80028909571E-01  0.46832372110E-01 -0.72339526377E-01  0.88782369000E+00  0.88000000000E+00 0.  1.
        -11    1    4    4    0    0 -0.83917785306E-01 -0.29952068116E-01  0.59289511125E-01  0.10702723170E+00  0.51100000000E-03 0.  1.
         11    1    4    4    0    0 -0.19076586253E-01 -0.14812047749E-01  0.82432290593E-02  0.25524984778E-01  0.51100000000E-03 0. -1.
</event>
<event>
 8    1  0.1180500E+005  0.1043930E+01  0.7957747E-01            NaN
         13   -1    0    0    0    0  0.00000000000E+00  0.00000000000E+00  0.74505805969E-08  0.10566000000E+00  0.10566000000E+00 0. -1.
     999900   -1    0    0    0    0 -0.00000000000E+00 -0.00000000000E+00 -0.74505805969E-08  0.93827000000E+00  0.93827000000E+00 0.  1.
     999902    2    1    2    0    0 -0.96472963299E-02 -0.12106268524E-01 -0.18377295502E-01  0.10199017447E+01  0.10196186600E+01 0.  0.
     999903    2    3    3    0    0  0.71464375973E-01 -0.92058841378E-01  0.52915016648E-01  0.12970282810E+00  0.20996126361E-01 0.  0.
         14    1    1    2    0    0  0.96472963299E-02  0.12106268524E-01  0.18377295502E-01  0.24028255327E-01  0.00000000000E+00 0.  1.
     999901    1    3    3    0    0 -0.81111672303E-01  0.79952572854E-01 -0.71292312151E-01  0.89019891657E+00  0.88000000000E+00 0. -1.
        -11    1    4    4    0    0  0.43489257137E-01 -0.39768665608E-01  0.29942784602E-01  0.66103658910E-01  0.51100000000E-03 0. -1.
         11    1    4    4    0    0  0.27975118836E-01 -0.52290175771E-01  0.22972232047E-01  0.63599169194E-01  0.51100000000E-03 0.  1.
</event>
<event>
 8    1  0.1180500E+005  0.1043930E+01  0.7957747E-01            NaN
         13   -1    0    0    0    0  0.00000000000E+00  0.00000000000E+00  0.74505805969E-08  0.10566000000E+00  0.10566000000E+00 0. -1.
     999900   -1    0    0    0    0 -0.00000000000E+00 -0.00000000000E+00 -0.74505805969E-08  0.93827000000E+00  0.93827000000E+00 0. -1.
     999902    2    1    2    0    0  0.10007334558E-01 -0.20977538849E-01  0.62530448740E-02  0.10198612557E+01  0.10195772048E+01 0.  0.
     999903    2    3    3    0    0 -0.60502723381E-01 -0.10106858949E+00 -0.54357336029E-01  0.13134571678E+00  0.20531391043E-01 0.  0.
         14    1    1    2    0    0 -0.10007334558E-01  0.20977538849E-01 -0.62530448740E-02  0.24068744283E-01  0.00000000000E+00 0.  1.
     999901    1    3    3    0    0  0.70510057939E-01  0.80091050639E-01  0.60610380903E-01  0.88851553894E+00  0.88000000000E+00 0.  1.
        -11    1    4    4    0    0  0.23552806675E-04 -0.94763322154E-02 -0.19296528765E-02  0.96843228062E-02  0.51100000000E-03 0.  1.
         11    1    4    4    0    0 -0.60526276188E-01 -0.91592257273E-01 -0.52427683152E-01  0.12166139397E+00  0.51100000000E-03 0. -1.
</event>
<event>
 8    1  0.1180500E+005  0.1043930E+01  0.7957747E-01            NaN
         13   -1    0    0    0    0  0.00000000000E+00  0.00000000000E+00  0.74505805969E-08  0.10566000000E+00  0.10566000000E+00 0. -1.
     999900   -1    0    0    0    0 -0.00000000000E+00 -0.00000000000E+00 -0.74505805969E-08  0.93827000000E+00  0.93827000000E+00 0. -1.
     999902    2    1    2    0    0 -0.18642925633E-01 -0.12521247177E-01  0.78402127283E-02  0.10201432549E+01  0.10198658987E+01 0.  0.
     999903    2    3    3    0    0 -0.27542002318E-01  0.73022773820E-01  0.10310548289E+00  0.13083316005E+00  0.19891902351E-01 0.  0.
         14    1    1    2    0    0  0.18642925633E-01  0.12521247177E-01 -0.78402127283E-02  0.23786745104E-01  0.00000000000E+00 0.  1.
     999901    1    3    3    0    0  0.88990766858E-02 -0.85544020997E-01 -0.95265270161E-01  0.88931009484E+00  0.88000000000E+00 0. -1.
        -11    1    4    4    0    0 -0.24524725269E-01  0.56232121687E-01  0.66689282132E-01  0.90615865781E-01  0.51100000000E-03 0. -1.
         11    1    4    4    0    0 -0.30172770489E-02  0.16790652133E-01  0.36416200757E-01  0.40217294270E-01  0.51100000000E-03 0.  1.
</event>
<event>
 8    1  0.1180500E+005  0.1043930E+01  0.7957747E-01            NaN
         13   -1    0    0    0    0  0.00000000000E+00  0.00000000000E+00  0.74505805969E-08  0.10566000000E+00  0.10566000000E+00 0. -1.
     999900   -1    0    0    0    0 -0.00000000000E+00 -0.00000000000E+00 -0.74505805969E-08  0.93827000000E+00  0.93827000000E+00 0. -1.
     999902    2    1    2    0    0 -0.10895183426E-02 -0.16934404525E-01 -0.16906431111E-01  0.10199761168E+01  0.10196948026E+01 0.  0.
     999903    2    3    3    0    0 -0.18404817181E-01 -0.31240515340E-01 -0.12628328645E+00  0.13292043600E+00  0.20141171185E-01 0.  0.
         14    1    1    2    0    0  0.10895183426E-02  0.16934404525E-01  0.16906431111E-01  0.23953883187E-01  0.00000000000E+00 0. -1.
     999901    1    3    3    0    0  0.17315298838E-01  0.14306110815E-01  0.10937685534E+00  0.88705568081E+00  0.88000000000E+00 0.  1.
        -11    1    4    4    0    0 -0.19400690238E-01 -0.13992771044E-01 -0.80626350213E-01  0.84101450005E-01  0.51100000000E-03 0. -1.
         11    1    4    4    0    0  0.99587305742E-03 -0.17247744296E-01 -0.45656936233E-01  0.48818985995E-01  0.51100000000E-03 0.  1.
</event>
<event>
 8    1  0.1180500E+005  0.1043930E+01  0.7957747E-01            NaN
         13   -1    0    0    0    0  0.00000000000E+00  0.00000000000E+00  0.74505805969E-08  0.10566000000E+00  0.10566000000E+00 0. -1.
     999900   -1    0    0    0    0 -0.00000000000E+00 -0.00000000000E+00 -0.74505805969E-08  0.93827000000E+00  0.93827000000E+00 0. -1.
     999902    2    1    2    0    0 -0.90486712392E-02  0.21377831368E-01  0.11663296860E-01  0.10179507271E+01  0.10176191627E+01 0.  0.
     999903    2    3    3    0    0 -0.91879809265E-01 -0.36569503832E-01 -0.78450274535E-01  0.12759161597E+00  0.18599648633E-01 0.  0.
         14    1    1    2    0    0  0.90486712392E-02 -0.21377831368E-01 -0.11663296860E-01  0.25979272870E-01  0.00000000000E+00 0. -1.
     999901    1    3    3    0    0  0.82831138026E-01  0.57947335199E-01  0.90113571395E-01  0.89035911116E+00  0.88000000000E+00 0.  1.
        -11    1    4    4    0    0  0.71812754879E-04 -0.24752794628E-02 -0.15427849635E-02  0.29620047154E-02  0.51100000000E-03 0. -1.
         11    1    4    4    0    0 -0.91951622020E-01 -0.34094224369E-01 -0.76907489571E-01  0.12462961125E+00  0.51100000000E-03 0.  1.
</event>
<event>
 8    1  0.1180500E+005  0.1043930E+01  0.7957747E-01            NaN
         13   -1    0    0    0    0  0.00000000000E+00  0.00000000000E+00  0.74505805969E-08  0.10566000000E+00  0.10566000000E+00 0. -1.
     999900   -1    0    0    0    0 -0.00000000000E+00 -0.00000000000E+00 -0.74505805969E-08  0.93827000000E+00  0.93827000000E+00 0. -1.
     999902    2    1    2    0    0  0.81866032034E-02 -0.22469038767E-01 -0.27915604711E-02  0.10198536426E+01  0.10195694098E+01 0.  0.
     999903    2    3    3    0    0  0.40759730730E-01  0.90994640584E-01  0.78241656614E-01  0.12828121289E+00  0.19822524748E-01 0.  0.
         14    1    1    2    0    0 -0.81866032034E-02  0.22469038767E-01  0.27915604711E-02  0.24076357386E-01  0.00000000000E+00 0. -1.
     999901    1    3    3    0    0 -0.32573127527E-01 -0.11346367935E+00 -0.81033217085E-01  0.89157242972E+00  0.88000000000E+00 0. -1.
        -11    1    4    4    0    0  0.95166508566E-02  0.64232690448E-02  0.84229789469E-02  0.14248955193E-01  0.51100000000E-03 0. -1.
         11    1    4    4    0    0  0.31243079873E-01  0.84571371539E-01  0.69818677667E-01  0.11403225770E+00  0.51100000000E-03 0.  1.
</event>
<event>
 8    1  0.1180500E+005  0.1043930E+01  0.7957747E-01            NaN
         13   -1    0    0    0    0  0.00000000000E+00  0.00000000000E+00  0.74505805969E-08  0.10566000000E+00  0.10566000000E+00 0.  1.
     999900   -1    0    0    0    0 -0.00000000000E+00 -0.00000000000E+00 -0.74505805969E-08  0.93827000000E+00  0.93827000000E+00 0.  1.
     999902    2    1    2    0    0 -0.39763711032E-02  0.10740972910E-01 -0.20450482258E-01  0.10204906687E+01  0.10202214479E+01 0.  0.
     999903    2    3    3    0    0 -0.11808855532E+00  0.52334566212E-01 -0.21662734914E-01  0.13214778045E+00  0.17605342263E-01 0.  0.
         14    1    1    2    0    0  0.39763711032E-02 -0.10740972910E-01  0.20450482258E-01  0.23439331279E-01  0.00000000000E+00 0.  1.
     999901    1    3    3    0    0  0.11411218421E+00 -0.41593593301E-01  0.12122526560E-02  0.88834288827E+00  0.88000000000E+00 0.  1.
        -11    1    4    4    0    0 -0.53022088916E-01  0.16184980741E-01 -0.14889984131E-01  0.57404427207E-01  0.51100000000E-03 0. -1.
         11    1    4    4    0    0 -0.65066466400E-01  0.36149585471E-01 -0.67727507833E-02  0.74743353241E-01  0.51100000000E-03 0.  1.
</event>
<event>
 8    1  0.1180500E+005  0.1043930E+01  0.7957747E-01            NaN
         13   -1    0    0    0    0  0.00000000000E+00  0.00000000000E+00  0.74505805969E-08  0.10566000000E+00  0.10566000000E+00 0.  1.
     999900   -1    0    0    0    0 -0.00000000000E+00 -0.00000000000E+00 -0.74505805969E-08  0.93827000000E+00  0.93827000000E+00 0. -1.
     999902    2    1    2    0    0  0.17568472141E-01  0.16667765058E-01 -0.26847012209E-02  0.10195645896E+01  0.10192734074E+01 0.  0.
     999903    2    3    3    0    0  0.92804234933E-01  0.89253758549E-01 -0.28075271328E-01  0.13301293990E+00  0.18037790463E-01 0.  0.
         14    1    1    2    0    0 -0.17568472141E-01 -0.16667765058E-01  0.26847012209E-02  0.24365410443E-01  0.00000000000E+00 0. -1.
     999901    1    3    3    0    0 -0.75235762792E-01 -0.72585993490E-01  0.25390570107E-01  0.88655164965E+00  0.88000000000E+00 0. -1.
        -11    1    4    4    0    0  0.34429340747E-01  0.36481792201E-01 -0.23488027913E-02  0.50220301294E-01  0.51100000000E-03 0.  1.
         11    1    4    4    0    0  0.58374894186E-01  0.52771966347E-01 -0.25726468537E-01  0.82792638609E-01  0.51100000000E-03 0. -1.
</event>
<event>
 8    1  0.1180500E+005  0.1043930E+01  0.7957747E-01            NaN
         13   -1    0    0    0    0  0.00000000000E+00  0.00000000000E+00  0.74505805969E-08  0.10566000000E+00  0.10566000000E+00 0.  1.
     999900   -1    0    0    0    0 -0.00000000000E+00 -0.00000000000E+00 -0.74505805969E-08  0.93827000000E+00  0.93827000000E+00 0.  1.
     999902    2    1    2    0    0 -0.42255979751E-02 -0.45911024757E-02  0.21286675262E-01  0.10217476547E+01  0.10215068347E+01 0.  0.
     999903    2    3    3    0    0  0.36263308181E-01 -0.12550848260E+00 -0.85775389125E-02  0.13205544069E+00  0.17252782896E-01 0.  0.
         14    1    1    2    0    0  0.42255979751E-02  0.45911024757E-02 -0.21286675262E-01  0.22182345320E-01  0.00000000000E+00 0. -1.
     999901    1    3    3    0    0 -0.40488906156E-01  0.12091738013E+00  0.29864214175E-01  0.88969221399E+00  0.88000000000E+00 0.  1.
        -11    1    4    4    0    0  0.19546625269E-01 -0.90356613693E-01 -0.10727792462E-01  0.93068441749E-01  0.51100000000E-03 0. -1.
         11    1    4    4    0    0  0.16716682911E-01 -0.35151868910E-01  0.21502535499E-02  0.38986998945E-01  0.51100000000E-03 0.  1.
</event>
<event>
 8    1  0.1180500E+005  0.1043930E+01  0.7957747E-01            NaN
         13   -1    0    0    0    0  0.00000000000E+00  0.00000000000E+00  0.74505805969E-08  0.10566000000E+00  0.10566000000E+00 0. -1.
     999900   -1    0    0    0    0 -0.00000000000E+00 -0.00000000000E+00 -0.74505805969E-08  0.93827000000E+00  0.93827000000E+00 0.  1.
     999902    2    1    2    0    0  0.15803555531E-01 -0.90799186806E-02 -0.14633359745E-01  0.10205562432E+01  0.10202885440E+01 0.  0.
     999903    2    3    3    0    0  0.65518603637E-01  0.36301722784E-01  0.10432305624E+00  0.13000489244E+00  0.20185873662E-01 0.  0.
         14    1    1    2    0    0 -0.15803555531E-01  0.90799186806E-02  0.14633359745E-01  0.23373756825E-01  0.00000000000E+00 0.  1.
     999901    1    3    3    0    0 -0.49715048105E-01 -0.45381641465E-01 -0.11895641599E+00  0.89055135073E+00  0.88000000000E+00 0.  1.
        -11    1    4    4    0    0  0.48767024099E-01  0.33253313165E-01  0.90590454461E-01  0.10812445161E+00  0.51100000000E-03 0.  1.
         11    1    4    4    0    0  0.16751579538E-01  0.30484096187E-02  0.13732601780E-01  0.21880440829E-01  0.51100000000E-03 0. -1.
</event>
<event>
 8    1  0.1180500E+005  0.1043930E+01  0.7957747E-01            NaN
         13   -1    0    0    0    0  0.00000000000E+00  0.00000000000E+00  0.74505805969E-08  0.10566000000E+00  0.10566000000E+00 0.  1.
     999900   -1    0    0    0    0 -0.00000000000E+00 -0.00000000000E+00 -0.74505805969E-08  0.93827000000E+00  0.93827000000E+00 0. -1.
     999902    2    1    2    0    0 -0.15319372712E-01 -0.12829336611E-01 -0.28393190628E-01  0.10092104330E+01  0.10086130327E+01 0.  0.
     999903    2    3    3    0    0 -0.43989044967E-01  0.82227778069E-01  0.69917204757E-01  0.11818701076E+00  0.19578315223E-01 0.  0.
         14    1    1    2    0    0  0.15319372712E-01  0.12829336611E-01  0.28393190628E-01  0.34719566994E-01  0.00000000000E+00 0.  1.
     999901    1    3    3    0    0  0.28669672254E-01 -0.95057114681E-01 -0.98310395385E-01  0.89102342225E+00  0.88000000000E+00 0. -1.
        -11    1    4    4    0    0 -0.16893200123E-01  0.24411809291E-01  0.33161078976E-01  0.44511065176E-01  0.51100000000E-03 0.  1.
         11    1    4    4    0    0 -0.27095844844E-01  0.57815968779E-01  0.36756125781E-01  0.73675945580E-01  0.51100000000E-03 0. -1.
</event>
<event>
 8    1  0.1180500E+005  0.1043930E+01  0.7957747E-01            NaN
         13   -1    0    0    0    0  0.00000000000E+00  0.00000000000E+00  0.74505805969E-08  0.10566000000E+00  0.10566000000E+00 0.  1.
     999900   -1    0    0    0    0 -0.00000000000E+00 -0.00000000000E+00 -0.74505805969E-08  0.93827000000E+00  0.93827000000E+00 0. -1.
     999902    2    1    2    0    0 -0.12895944378E-01 -0.20052794867E-01  0.38395756813E-02  0.10197812463E+01  0.10194952810E+01 0.  0.
     999903    2    3    3    0    0  0.10043304848E+00 -0.49239455585E-01  0.63791619326E-01  0.13001185522E+00  0.17955238439E-01 0.  0.
         14    1    1    2    0    0  0.12895944378E-01  0.20052794867E-01 -0.38395756813E-02  0.24148753691E-01  0.00000000000E+00 0.  1.
     999901    1    3    3    0    0 -0.11332899286E+00  0.29186660718E-01 -0.59952043645E-01  0.88976939109E+00  0.88000000000E+00 0. -1.
        -11    1    4    4    0    0  0.43499713591E-01 -0.28290946616E-01  0.22115633369E-01  0.56408909787E-01  0.51100000000E-03 0.  1.
         11    1    4    4    0    0  0.56933334889E-01 -0.20948508969E-01  0.41675985957E-01  0.73602945431E-01  0.51100000000E-03 0. -1.
</event>
<event>
 8    1  0.1180500E+005  0.1043930E+01  0.7957747E-01            NaN
         13   -1    0    0    0    0  0.00000000000E+00  0.00000000000E+00  0.74505805969E-08  0.10566000000E+00  0.10566000000E+00 0.  1.
     999900   -1    0    0    0    0 -0.00000000000E+00 -0.00000000000E+00 -0.74505805969E-08  0.93827000000E+00  0.93827000000E+00 0.  1.
     999902    2    1    2    0    0  0.17234689617E-01  0.13329697993E-01  0.10251346548E-01  0.10198508497E+01  0.10195665501E+01 0.  0.
     999903    2    3    3    0    0  0.10181335903E+00  0.72366292480E-01 -0.39463503302E-01  0.13243300158E+00  0.19449715936E-01 0.  0.
         14    1    1    2    0    0 -0.17234689617E-01 -0.13329697993E-01 -0.10251346548E-01  0.24079150334E-01  0.00000000000E+00 0. -1.
     999901    1    3    3    0    0 -0.84578669414E-01 -0.59036594487E-01  0.49714849850E-01  0.88741784809E+00  0.88000000000E+00 0.  1.
        -11    1    4    4    0    0  0.38671735606E-01  0.21014384513E-01 -0.21933464099E-01  0.49177692703E-01  0.51100000000E-03 0. -1.
         11    1    4    4    0    0  0.63141623424E-01  0.51351907967E-01 -0.17530039203E-01  0.83255308875E-01  0.51100000000E-03 0.  1.
</event>
<event>
 8    1  0.1180500E+005  0.1043930E+01  0.7957747E-01            NaN
         13   -1    0    0    0    0  0.00000000000E+00  0.00000000000E+00  0.74505805969E-08  0.10566000000E+00  0.10566000000E+00 0. -1.
     999900   -1    0    0    0    0 -0.00000000000E+00 -0.00000000000E+00 -0.74505805969E-08  0.93827000000E+00  0.93827000000E+00 0.  1.
     999902    2    1    2    0    0  0.19518234847E-01  0.41588456710E-02  0.12230629038E-01  0.10205238945E+01  0.10202554452E+01 0.  0.
     999903    2    3    3    0    0 -0.11720243063E+00 -0.43766592561E-01  0.21525387150E-01  0.12862940491E+00  0.20742640768E-01 0.  0.
         14    1    1    2    0    0 -0.19518234847E-01 -0.41588456710E-02 -0.12230629038E-01  0.23406105518E-01  0.00000000000E+00 0.  1.
     999901    1    3    3    0    0  0.13672066548E+00  0.47925438232E-01 -0.92947581116E-02  0.89189448957E+00  0.88000000000E+00 0. -1.
        -11    1    4    4    0    0 -0.14873907194E-01 -0.12693953478E-01  0.10171202677E-03  0.19561212551E-01  0.51100000000E-03 0.  1.
         11    1    4    4    0    0 -0.10232852343E+00 -0.31072639083E-01  0.21423675123E-01  0.10906819236E+00  0.51100000000E-03 0. -1.
</event>
<event>
 8    1  0.1180500E+005  0.1043930E+01  0.7957747E-01            NaN
         13   -1    0    0    0    0  0.00000000000E+00  0.00000000000E+00  0.74505805969E-08  0.10566000000E+00  0.10566000000E+00 0.  1.
     999900   -1    0    0    0    0 -0.00000000000E+00 -0.00000000000E+00 -0.74505805969E-08  0.93827000000E+00  0.93827000000E+00 0. -1.
     999902    2    1    2    0    0 -0.11176084881E-01  0.16081598250E-01 -0.14528103470E-01  0.10195458152E+01  0.10192541788E+01 0.  0.
     999903    2    3    3    0    0  0.61828123066E-01 -0.10648615889E+00 -0.32047400124E-01  0.12788478368E+00  0.12863250159E-01 0.  0.
         14    1    1    2    0    0  0.11176084881E-01 -0.16081598250E-01  0.14528103470E-01  0.24384184752E-01  0.00000000000E+00 0.  1.
     999901    1    3    3    0    0 -0.73004207947E-01  0.12256775714E+00  0.17519296654E-01  0.89166103157E+00  0.88000000000E+00 0. -1.
        -11    1    4    4    0    0  0.30741788637E-01 -0.60775075789E-01 -0.12492323562E-01  0.69245842292E-01  0.51100000000E-03 0. -1.
         11    1    4    4    0    0  0.31086334429E-01 -0.45711083099E-01 -0.19555076562E-01  0.58638941385E-01  0.51100000000E-03 0.  1.
</event>
<event>
 8    1  0.1180500E+005  0.1043930E+01  0.7957747E-01            NaN
         13   -1    0    0    0    0  0.00000000000E+00  0.00000000000E+00  0.74505805969E-08  0.10566000000E+00  0.10566000000E+00 0. -1.
     999900   -1    0    0    0    0 -0.00000000000E+00 -0.00000000000E+00 -0.74505805969E-08  0.93827000000E+00  0.93827000000E+00 0.  1.
     999902    2    1    2    0    0 -0.13815331694E-01 -0.13078675805E-01 -0.14469015009E-01  0.10200287961E+01  0.10197487325E+01 0.  0.
     999903    2    3    3    0    0  0.39457035570E-01 -0.60427671724E-01  0.10517987381E+00  0.12907664865E+00  0.19738647514E-01 0.  0.
         14    1    1    2    0    0  0.13815331694E-01  0.13078675805E-01  0.14469015009E-01  0.23901203860E-01  0.00000000000E+00 0. -1.
     999901    1    3    3    0    0 -0.53272367264E-01  0.47348995919E-01 -0.11964888882E+00  0.89095214749E+00  0.88000000000E+00 0.  1.
        -11    1    4    4    0    0  0.22695133948E-01 -0.39670931941E-01  0.49753725434E-01  0.67561425840E-01  0.51100000000E-03 0. -1.
         11    1    4    4    0    0  0.16761901623E-01 -0.20756739783E-01  0.55426148373E-01  0.61515222807E-01  0.51100000000E-03 0.  1.
</event>
<event>
 8    1  0.1180500E+005  0.1043930E+01  0.7957747E-01            NaN
         13   -1    0    0    0    0  0.00000000000E+00  0.00000000000E+00  0.74505805969E-08  0.10566000000E+00  0.10566000000E+00 0.  1.
     999900   -1    0    0    0    0 -0.00000000000E+00 -0.00000000000E+00 -0.74505805969E-08  0.93827000000E+00  0.93827000000E+00 0.  1.
     999902    2    1    2    0    0 -0.45784051879E-02  0.20572639635E-01 -0.10896691346E-01  0.10202037871E+01  0.10199278573E+01 0.  0.
     999903    2    3    3    0    0  0.61178842699E-01  0.77887902860E-01 -0.86066703108E-01  0.13270190784E+00  0.19822783721E-01 0.  0.
         14    1    1    2    0    0  0.45784051879E-02 -0.20572639635E-01  0.10896691346E-01  0.23726212885E-01  0.00000000000E+00 0.  1.
     999901    1    3    3    0    0 -0.65757247887E-01 -0.57315263225E-01  0.75170011762E-01  0.88750187927E+00  0.88000000000E+00 0. -1.
        -11    1    4    4    0    0  0.77094181961E-02  0.39747510666E-02 -0.26429444568E-02  0.90818528597E-02  0.51100000000E-03 0.  1.
         11    1    4    4    0    0  0.53469424503E-01  0.73913151793E-01 -0.83423758652E-01  0.12362005498E+00  0.51100000000E-03 0. -1.
</event>
<event>
 8    1  0.1180500E+005  0.1043930E+01  0.7957747E-01            NaN
         13   -1    0    0    0    0  0.00000000000E+00  0.00000000000E+00  0.74505805969E-08  0.10566000000E+00  0.10566000000E+00 0. -1.
     999900   -1    0    0    0    0 -0.00000000000E+00 -0.00000000000E+00 -0.74505805969E-08  0.93827000000E+00  0.93827000000E+00 0.  1.
     999902    2    1    2    0    0 -0.16277283333E-01  0.18177325242E-01  0.41477878179E-04  0.10195298601E+01  0.10192378372E+01 0.  0.
     999903    2    3    3    0    0 -0.19821369518E-01  0.11808603044E+00  0.52742806167E-01  0.13230286553E+00  0.19622623488E-01 0.  0.
         14    1    1    2    0    0  0.16277283333E-01 -0.18177325242E-01 -0.41477878179E-04  0.24400139878E-01  0.00000000000E+00 0. -1.
     999901    1    3    3    0    0  0.35440861853E-02 -0.99908705195E-01 -0.52701328289E-01  0.88722699459E+00  0.88000000000E+00 0.  1.
        -11    1    4    4    0    0 -0.93515716391E-02  0.89227372306E-01  0.46183353764E-01  0.10090658624E+00  0.51100000000E-03 0. -1.
         11    1    4    4    0    0 -0.10469797879E-01  0.28858658130E-01  0.65594524028E-02  0.31396279295E-01  0.51100000000E-03 0.  1.
</event>
<event>
 8    1  0.1180500E+005  0.1043930E+01  0.7957747E-01            NaN
         13   -1    0    0    0    0  0.00000000000E+00  0.00000000000E+00  0.74505805969E-08  0.10566000000E+00  0.10566000000E+00 0. -1.
     999900   -1    0    0    0    0 -0.00000000000E+00 -0.00000000000E+00 -0.74505805969E-08  0.93827000000E+00  0.93827000000E+00 0. -1.
     999902    2    1    2    0    0 -0.20522355519E-01 -0.74053393585E-02  0.78625012588E-02  0.10207389445E+01  0.10204754617E+01 0.  0.
     999903    2    3    3    0    0  0.78619603763E-01  0.48767696158E-01  0.88757975912E-01  0.12971222450E+00  0.19696512715E-01 0.  0.
         14    1    1    2    0    0  0.20522355519E-01  0.74053393585E-02 -0.78625012588E-02  0.23191055455E-01  0.00000000000E+00 0.  1.
     999901    1    3    3    0    0 -0.99141959282E-01 -0.56173035516E-01 -0.80895474654E-01  0.89102672004E+00  0.88000000000E+00 0. -1.
        -11    1    4    4    0    0  0.57935553502E-01  0.25670376215E-01  0.55461875592E-01  0.84212691086E-01  0.51100000000E-03 0.  1.
         11    1    4    4    0    0  0.20684050261E-01  0.23097319942E-01  0.33296100320E-01  0.45499533418E-01  0.51100000000E-03 0. -1.
</event>
<event>
 8    1  0.1180500E+005  0.1043930E+01  0.7957747E-01            NaN
         13   -1    0    0    0    0  0.00000000000E+00  0.00000000000E+00  0.74505805969E-08  0.10566000000E+00  0.10566000000E+00 0. -1.
     999900   -1    0    0    0    0 -0.00000000000E+00 -0.00000000000E+00 -0.74505805969E-08  0.93827000000E+00  0.93827000000E+00 0. -1.
     999902    2    1    2    0    0  0.21467647299E-02  0.23909412657E-01  0.36829356099E-02  0.10196435300E+01  0.10193542542E+01 0.  0.
     999903    2    3    3    0    0  0.35672793813E-01  0.31764683732E-01  0.12058482053E+00  0.13124511111E+00  0.20075778855E-01 0.  0.
         14    1    1    2    0    0 -0.21467647299E-02 -0.23909412657E-01 -0.36829356099E-02  0.24286470042E-01  0.00000000000E+00 0.  1.
     999901    1    3    3    0    0 -0.33526029083E-01 -0.78552710748E-02 -0.11690188492E+00  0.88839841885E+00  0.88000000000E+00 0. -1.
        -11    1    4    4    0    0  0.16322515573E-01  0.83399266560E-02  0.68810562607E-01  0.71211891833E-01  0.51100000000E-03 0.  1.
         11    1    4    4    0    0  0.19350278240E-01  0.23424757076E-01  0.51774257926E-01  0.60033219278E-01  0.51100000000E-03 0. -1.
</event>
<event>
 8    1  0.1180500E+005  0.1043930E+01  0.7957747E-01            NaN
         13   -1    0    0    0    0  0.00000000000E+00  0.00000000000E+00  0.74505805969E-08  0.10566000000E+00  0.10566000000E+00 0.  1.
     999900   -1    0    0    0    0 -0.00000000000E+00 -0.00000000000E+00 -0.74505805969E-08  0.93827000000E+00  0.93827000000E+00 0.  1.
     999902    2    1    2    0    0 -0.19788310699E-01  0.76361124507E-02 -0.11819149687E-01  0.10196487366E+01  0.10193595863E+01 0.  0.
     999903    2    3    3    0    0  0.23643274904E-01 -0.11165043164E+00  0.54793911069E-01  0.12804743438E+00  0.19208056302E-01 0.  0.
         14    1    1    2    0    0  0.19788310699E-01 -0.76361124507E-02  0.11819149687E-01  0.24281263415E-01  0.00000000000E+00 0.  1.
     999901    1    3    3    0    0 -0.43431585603E-01  0.11928654409E+00 -0.66613060756E-01  0.89160130220E+00  0.88000000000E+00 0.  1.
        -11    1    4    4    0    0  0.18023644376E-01 -0.64126309223E-01  0.41087407430E-01  0.78265391211E-01  0.51100000000E-03 0.  1.
         11    1    4    4    0    0  0.56196305281E-02 -0.47524122421E-01  0.13706503639E-01  0.49782043169E-01  0.51100000000E-03 0. -1.
</event>
<event>
 8    1  0.1180500E+005  0.1043930E+01  0.7957747E-01            NaN
         13   -1    0    0    0    0  0.00000000000E+00  0.00000000000E+00  0.74505805969E-08  0.10566000000E+00  0.10566000000E+00 0.  1.
     999900   -1    0    0    0    0 -0.00000000000E+00 -0.00000000000E+00 -0.74505805969E-08  0.93827000000E+00  0.93827000000E+00 0. -1.
     999902    2    1    2    0    0  0.10455921097E-01 -0.19841596730E-01 -0.83844870934E-02  0.10199860055E+01  0.10197049263E+01 0.  0.
     999903    2    3    3    0    0  0.10818255365E+00  0.46705621098E-01  0.51332980483E-01  0.13007297449E+00  0.19975581328E-01 0.  0.
         14    1    1    2    0    0 -0.10455921097E-01  0.19841596730E-01  0.83844870934E-02  0.23943994458E-01  0.00000000000E+00 0.  1.
     999901    1    3    3    0    0 -0.97726632554E-01 -0.66547217828E-01 -0.59717467576E-01  0.88991303106E+00  0.88000000000E+00 0. -1.
        -11    1    4    4    0    0  0.22242461824E-01  0.14642522605E-01  0.19380357906E-01  0.32939185931E-01  0.51100000000E-03 0.  1.
         11    1    4    4    0    0  0.85940091828E-01  0.32063098494E-01  0.31952622576E-01  0.97133788554E-01  0.51100000000E-03 0. -1.
</event>
<event>
 8    1  0.1180500E+005  0.1043930E+01  0.7957747E-01            NaN
         13   -1    0    0    0    0  0.00000000000E+00  0.00000000000E+00  0.74505805969E-08  0.10566000000E+00  0.10566000000E+00 0.  1.
     999900   -1    0    0    0    0 -0.00000000000E+00 -0.00000000000E+00 -0.74505805969E-08  0.93827000000E+00  0.93827000000E+00 0. -1.
     999902    2    1    2    0    0 -0.15898302051E-02 -0.20823677998E-01  0.11332989406E-01  0.10201689021E+01  0.10198921507E+01 0.  0.
     999903    2    3    3    0    0  0.17985286638E-01  0.62422683014E-01 -0.10836004704E+00  0.12795840853E+00  0.20282816132E-01 0.  0.
         14    1    1    2    0    0  0.15898302051E-02  0.20823677998E-01 -0.11332989406E-01  0.23761097919E-01  0.00000000000E+00 0. -1.
     999901    1    3    3    0    0 -0.19575116843E-01 -0.83246361012E-01  0.11969303645E+00  0.89221049355E+00  0.88000000000E+00 0.  1.
        -11    1    4    4    0    0 -0.37561362353E-02  0.73314124610E-02 -0.84503767820E-02  0.11812203725E-01  0.51100000000E-03 0.  1.
         11    1    4    4    0    0  0.21741422873E-01  0.55091270553E-01 -0.99909670257E-01  0.11614620481E+00  0.51100000000E-03 0. -1.
</event>
<event>
 8    1  0.1180500E+005  0.1043930E+01  0.7957747E-01            NaN
         13   -1    0    0    0    0  0.00000000000E+00  0.00000000000E+00  0.74505805969E-08  0.10566000000E+00  0.10566000000E+00 0.  1.
     999900   -1    0    0    0    0 -0.00000000000E+00 -0.00000000000E+00 -0.74505805969E-08  0.93827000000E+00  0.93827000000E+00 0. -1.
     999902    2    1    2    0    0  0.20395878966E-01  0.12428872801E-01  0.49680783492E-02  0.10195342922E+01  0.10192423766E+01 0.  0.
     999903    2    3    3    0    0  0.45241505735E-02  0.12701477260E+00  0.27635179893E-01  0.13167414683E+00  0.20522119254E-01 0.  0.
         14    1    1    2    0    0 -0.20395878966E-01 -0.12428872801E-01 -0.49680783492E-02  0.24395707827E-01  0.00000000000E+00 0.  1.
     999901    1    3    3    0    0  0.15871728392E-01 -0.11458589980E+00 -0.22667101544E-01  0.88786014534E+00  0.88000000000E+00 0. -1.
        -11    1    4    4    0    0 -0.50202181119E-02  0.82541181289E-01  0.11936208300E-01  0.83552279371E-01  0.51100000000E-03 0.  1.
         11    1    4    4    0    0  0.95443686854E-02  0.44473591311E-01  0.15698971593E-01  0.48121867460E-01  0.51100000000E-03 0. -1.
</event>
<event>
 8    1  0.1180500E+005  0.1043930E+01  0.7957747E-01            NaN
         13   -1    0    0    0    0  0.00000000000E+00  0.00000000000E+00  0.74505805969E-08  0.10566000000E+00  0.10566000000E+00 0.  1.
     999900   -1    0    0    0    0 -0.00000000000E+00 -0.00000000000E+00 -0.74505805969E-08  0.93827000000E+00  0.93827000000E+00 0.  1.
     999902    2    1    2    0    0  0.15594589538E-01 -0.19674955869E-02 -0.18073127728E-01  0.10199779603E+01  0.10196966898E+01 0.  0.
     999903    2    3    3    0    0  0.81815986469E-01 -0.10009678632E+00  0.13753166316E-01  0.13148060849E+00  0.19615773052E-01 0.  0.
         14    1    1    2    0    0 -0.15594589538E-01  0.19674955869E-02  0.18073127728E-01  0.23952039738E-01  0.00000000000E+00 0.  1.
     999901    1    3    3    0    0 -0.66221396931E-01  0.98129290731E-01 -0.31826294044E-01  0.88849735177E+00  0.88000000000E+00 0. -1.
        -11    1    4    4    0    0  0.41132656217E-01 -0.35341002066E-01  0.75018463154E-02  0.54748704584E-01  0.51100000000E-03 0. -1.
         11    1    4    4    0    0  0.40683330253E-01 -0.64755784252E-01  0.62513200007E-02  0.76731903908E-01  0.51100000000E-03 0.  1.
</event>
<event>
 8    1  0.1180500E+005  0.1043930E+01  0.7957747E-01            NaN
         13   -1    0    0    0    0  0.00000000000E+00  0.00000000000E+00  0.74505805969E-08  0.10566000000E+00  0.10566000000E+00 0. -1.
     999900   -1    0    0    0    0 -0.00000000000E+00 -0.00000000000E+00 -0.74505805969E-08  0.93827000000E+00  0.93827000000E+00 0. -1.
     999902    2    1    2    0    0  0.16151223596E-01 -0.26488670072E-03  0.16446361653E-01  0.10208775598E+01  0.10206172530E+01 0.  0.
     999903    2    3    3    0    0  0.62691486395E-01 -0.10601428852E+00 -0.41211613509E-01  0.13145450288E+00  0.20313478333E-01 0.  0.
         14    1    1    2    0    0 -0.16151223596E-01  0.26488670072E-03 -0.16446361653E-01  0.23052440223E-01  0.00000000000E+00 0.  1.
     999901    1    3    3    0    0 -0.46540262798E-01  0.10574940182E+00  0.57657975162E-01  0.88942305690E+00  0.88000000000E+00 0.  1.
        -11    1    4    4    0    0  0.50101804456E-01 -0.69792730285E-01 -0.34179086017E-01  0.92464517802E-01  0.51100000000E-03 0.  1.
         11    1    4    4    0    0  0.12589681939E-01 -0.36221558234E-01 -0.70325274918E-02  0.38989985075E-01  0.51100000000E-03 0. -1.
</event>
<event>
 8    1  0.1180500E+005  0.1043930E+01  0.7957747E-01            NaN
         13   -1    0    0    0    0  0.00000000000E+00  0.00000000000E+00  0.74505805969E-08  0.10566000000E+00  0.10566000000E+00 0. -1.
     999900   -1    0    0    0    0 -0.00000000000E+00 -0.00000000000E+00 -0.74505805969E-08  0.93827000000E+00  0.93827000000E+00 0.  1.
     999902    2    1    2    0    0  0.92288830883E-02 -0.10332248816E-01  0.22911699843E-01  0.10171555040E+01  0.10168030515E+01 0.  0.
     999903    2    3    3    0    0 -0.10638417140E+00 -0.67380825017E-01  0.71817113951E-02  0.12762284523E+00  0.19448551138E-01 0.  0.
         14    1    1    2    0    0 -0.92288830883E-02  0.10332248816E-01 -0.22911699843E-01  0.26774496043E-01  0.00000000000E+00 0.  1.
     999901    1    3    3    0    0  0.11561305448E+00  0.57048576201E-01  0.15729988448E-01  0.88953265873E+00  0.88000000000E+00 0.  1.
        -11    1    4    4    0    0 -0.61711426377E-01 -0.40396205747E-01 -0.53295718101E-02  0.73951464089E-01  0.51100000000E-03 0.  1.
         11    1    4    4    0    0 -0.44672745018E-01 -0.26984619270E-01  0.12511283205E-01  0.53671381136E-01  0.51100000000E-03 0. -1.
</event>
<event>
 8    1  0.1180500E+005  0.1043930E+01  0.7957747E-01            NaN
         13   -1    0    0    0    0  0.00000000000E+00  0.00000000000E+00  0.74505805969E-08  0.10566000000E+00  0.10566000000E+00 0. -1.
     999900   -1    0    0    0    0 -0.00000000000E+00 -0.00000000000E+00 -0.74505805969E-08  0.93827000000E+00  0.93827000000E+00 0. -1.
     999902    2    1    2    0    0  0.15564996335E-01 -0.18183016098E-01  0.29653369863E-02  0.10198118656E+01  0.10195266337E+01 0.  0.
     999903    2    3    3    0    0 -0.80925509463E-01 -0.92244006826E-01  0.41611433981E-01  0.13060493303E+00  0.16378101714E-01 0.  0.
         14    1    1    2    0    0 -0.15564996335E-01  0.18183016098E-01 -0.29653369863E-02  0.24118134438E-01  0.00000000000E+00 0. -1.
     999901    1    3    3    0    0  0.96490505798E-01  0.74060990728E-01 -0.38646096995E-01  0.88920693254E+00  0.88000000000E+00 0. -1.
        -11    1    4    4    0    0 -0.53109448822E-01 -0.50638446704E-01  0.29638010550E-01  0.79142520993E-01  0.51100000000E-03 0.  1.
         11    1    4    4    0    0 -0.27816060641E-01 -0.41605560122E-01  0.11973423431E-01  0.51462412033E-01  0.51100000000E-03 0. -1.
</event>
<event>
 8    1  0.1180500E+005  0.1043930E+01  0.7957747E-01            NaN
         13   -1    0    0    0    0  0.00000000000E+00  0.00000000000E+00  0.74505805969E-08  0.10566000000E+00  0.10566000000E+00 0. -1.
     999900   -1    0    0    0    0 -0.00000000000E+00 -0.00000000000E+00 -0.74505805969E-08  0.93827000000E+00  0.93827000000E+00 0. -1.
     999902    2    1    2    0    0  0.11022310495E-01  0.76237975731E-02  0.20439397642E-01  0.10194885885E+01  0.10191955649E+01 0.  0.
     999903    2    3    3    0    0  0.36610777447E-01 -0.12197086184E+00 -0.54933407475E-02  0.12925151208E+00  0.21413463481E-01 0.  0.
         14    1    1    2    0    0 -0.11022310495E-01 -0.76237975731E-02 -0.20439397642E-01  0.24441411458E-01  0.00000000000E+00 0.  1.
     999901    1    3    3    0    0 -0.25588466952E-01  0.12959465942E+00  0.25932738390E-01  0.89023707646E+00  0.88000000000E+00 0.  1.
        -11    1    4    4    0    0  0.35632025905E-01 -0.88970345060E-01 -0.77567712280E-02  0.96155042464E-01  0.51100000000E-03 0. -1.
         11    1    4    4    0    0  0.97875154206E-03 -0.33000516782E-01  0.22634304806E-02  0.33096469615E-01  0.51100000000E-03 0.  1.
</event>
<event>
 8    1  0.1180500E+005  0.1043930E+01  0.7957747E-01            NaN
         13   -1    0    0    0    0  0.00000000000E+00  0.00000000000E+00  0.74505805969E-08  0.10566000000E+00  0.10566000000E+00 0.  1.
     999900   -1    0    0    0    0 -0.00000000000E+00 -0.00000000000E+00 -0.74505805969E-08  0.93827000000E+00  0.93827000000E+00 0.  1.
     999902    2    1    2    0    0  0.25093414076E-02 -0.94158864241E-03  0.22917730277E-01  0.10208560809E+01  0.10205952832E+01 0.  0.
     999903    2    3    3    0    0  0.77717464822E-01 -0.79368877237E-02 -0.10049383482E+00  0.12904017472E+00  0.21198050150E-01 0.  0.
         14    1    1    2    0    0 -0.25093414076E-02  0.94158864241E-03 -0.22917730277E-01  0.23073919141E-01  0.00000000000E+00 0. -1.
     999901    1    3    3    0    0 -0.75208123414E-01  0.69952990813E-02  0.12341156510E+00  0.89181590614E+00  0.88000000000E+00 0. -1.
        -11    1    4    4    0    0  0.60580792674E-01 -0.49044812940E-02 -0.62160643213E-01  0.86938444105E-01  0.51100000000E-03 0. -1.
         11    1    4    4    0    0  0.17136672148E-01 -0.30324064296E-02 -0.38333191610E-01  0.42101730618E-01  0.51100000000E-03 0.  1.
</event>
<event>
 8    1  0.1180500E+005  0.1043930E+01  0.7957747E-01            NaN
         13   -1    0    0    0    0  0.00000000000E+00  0.00000000000E+00  0.74505805969E-08  0.10566000000E+00  0.10566000000E+00 0.  1.
     999900   -1    0    0    0    0 -0.00000000000E+00 -0.00000000000E+00 -0.74505805969E-08  0.93827000000E+00  0.93827000000E+00 0. -1.
     999902    2    1    2    0    0 -0.39120302904E-02 -0.13880460976E-01  0.16725424901E-01  0.10218458198E+01  0.10216071497E+01 0.  0.
     999903    2    3    3    0    0 -0.88746100569E-01 -0.90382161744E-01  0.39404842956E-01  0.13417263346E+00  0.20118359638E-01 0.  0.
         14    1    1    2    0    0  0.39120302904E-02  0.13880460976E-01 -0.16725424901E-01  0.22084180221E-01  0.00000000000E+00 0. -1.
     999901    1    3    3    0    0  0.84834070278E-01  0.76501700767E-01 -0.22679418054E-01  0.88767318632E+00  0.88000000000E+00 0. -1.
        -11    1    4    4    0    0 -0.30637401139E-01 -0.45104653617E-01  0.18787878254E-01  0.57674306383E-01  0.51100000000E-03 0. -1.
         11    1    4    4    0    0 -0.58108699430E-01 -0.45277508126E-01  0.20616964702E-01  0.76498327081E-01  0.51100000000E-03 0.  1.
</event>
<event>
 8    1  0.1180500E+005  0.1043930E+01  0.7957747E-01            NaN
         13   -1    0    0    0    0  0.00000000000E+00  0.00000000000E+00  0.74505805969E-08  0.10566000000E+00  0.10566000000E+00 0.  1.
     999900   -1    0    0    0    0 -0.00000000000E+00 -0.00000000000E+00 -0.74505805969E-08  0.93827000000E+00  0.93827000000E+00 0. -1.
     999902    2    1    2    0    0 -0.79332639700E-02  0.19438068813E-03  0.21664279396E-01  0.10208580373E+01  0.10205972844E+01 0.  0.
     999903    2    3    3    0    0 -0.74883509107E-01  0.96674536156E-01 -0.41914047586E-01  0.13078334415E+00  0.19849177438E-01 0.  0.
         14    1    1    2    0    0  0.79332639700E-02 -0.19438068813E-03 -0.21664279396E-01  0.23071962700E-01  0.00000000000E+00 0. -1.
     999901    1    3    3    0    0  0.66950245137E-01 -0.96480155468E-01  0.63578326982E-01  0.89007469315E+00  0.88000000000E+00 0.  1.
        -11    1    4    4    0    0 -0.55622426296E-01  0.75800189163E-01 -0.23442970138E-01  0.96898694285E-01  0.51100000000E-03 0.  1.
         11    1    4    4    0    0 -0.19261082811E-01  0.20874346993E-01 -0.18471077448E-01  0.33884649866E-01  0.51100000000E-03 0. -1.
</event>
<event>
 8    1  0.1180500E+005  0.1043930E+01  0.7957747E-01            NaN
         13   -1    0    0    0    0  0.00000000000E+00  0.00000000000E+00  0.74505805969E-08  0.10566000000E+00  0.10566000000E+00 0.  1.
     999900   -1    0    0    0    0 -0.00000000000E+00 -0.00000000000E+00 -0.74505805969E-08  0.93827000000E+00  0.93827000000E+00 0. -1.
     999902    2    1    2    0    0  0.38072545012E-02  0.22708728504E-01 -0.36939705286E-02  0.10206099023E+01  0.10203434450E+01 0.  0.
     999903    2    3    3    0    0  0.90225131467E-01 -0.85271622485E-01 -0.30535736865E-01  0.12940381725E+00  0.20027299965E-01 0.  0.
         14    1    1    2    0    0 -0.38072545012E-02 -0.22708728504E-01  0.36939705286E-02  0.23320097671E-01  0.00000000000E+00 0.  1.
     999901    1    3    3    0    0 -0.86417876965E-01  0.10798035099E+00  0.26841766336E-01  0.89120608508E+00  0.88000000000E+00 0.  1.
        -11    1    4    4    0    0  0.64896181366E-01 -0.63576661003E-01 -0.31155988368E-01  0.96044067554E-01  0.51100000000E-03 0.  1.
         11    1    4    4    0    0  0.25328950101E-01 -0.21694961483E-01  0.62025150324E-03  0.33359749697E-01  0.51100000000E-03 0. -1.
</event>
<event>
 8    1  0.1180500E+005  0.1043930E+01  0.7957747E-01            NaN
         13   -1    0    0    0    0  0.00000000000E+00  0.00000000000E+00  0.74505805969E-08  0.10566000000E+00  0.10566000000E+00 0. -1.
     999900   -1    0    0    0    0 -0.00000000000E+00 -0.00000000000E+00 -0.74505805969E-08  0.93827000000E+00  0.93827000000E+00 0.  1.
     999902    2    1    2    0    0  0.24047857751E-01 -0.21717323020E-02  0.17360935462E-02  0.10197219455E+01  0.10194345571E+01 0.  0.
     999903    2    3    3    0    0 -0.46933291967E-01  0.77063860996E-01  0.90161262514E-01  0.12891578621E+00  0.18672281845E-01 0.  0.
         14    1    1    2    0    0 -0.24047857751E-01  0.21717323020E-02 -0.17360935462E-02  0.24208054535E-01  0.00000000000E+00 0.  1.
     999901    1    3    3    0    0  0.70981149718E-01 -0.79235593298E-01 -0.88425168968E-01  0.89080615926E+00  0.88000000000E+00 0.  1.
        -11    1    4    4    0    0 -0.23471675372E-01  0.21817393126E-01  0.29031764580E-01  0.43243758662E-01  0.51100000000E-03 0.  1.
         11    1    4    4    0    0 -0.23461616595E-01  0.55246467870E-01  0.61129497934E-01  0.85672027547E-01  0.51100000000E-03 0. -1.
</event>
<event>
 8    1  0.1180500E+005  0.1043930E+01  0.7957747E-01            NaN
         13   -1    0    0    0    0  0.00000000000E+00  0.00000000000E+00  0.74505805969E-08  0.10566000000E+00  0.10566000000E+00 0. -1.
     999900   -1    0    0    0    0 -0.00000000000E+00 -0.00000000000E+00 -0.74505805969E-08  0.93827000000E+00  0.93827000000E+00 0.  1.
     999902    2    1    2    0    0 -0.20573634045E-01 -0.95169559300E-02 -0.27974906187E-02  0.10210898419E+01  0.10208343609E+01 0.  0.
     999903    2    3    3    0    0 -0.95561806551E-01  0.67476875072E-01 -0.59546877263E-01  0.13273643874E+00  0.19696295014E-01 0.  0.
         14    1    1    2    0    0  0.20573634045E-01  0.95169559300E-02  0.27974906187E-02  0.22840158094E-01  0.00000000000E+00 0.  1.
     999901    1    3    3    0    0  0.74988172506E-01 -0.76993831002E-01  0.56749386644E-01  0.88835340316E+00  0.88000000000E+00 0. -1.
        -11    1    4    4    0    0 -0.80541153954E-01  0.47131070197E-01 -0.47739265257E-01  0.10482134242E+00  0.51100000000E-03 0. -1.
         11    1    4    4    0    0 -0.15020652597E-01  0.20345804875E-01 -0.11807612007E-01  0.27915096323E-01  0.51100000000E-03 0.  1.
</event>
<event>
 8    1  0.1180500E+005  0.1043930E+01  0.7957747E-01            NaN
         13   -1    0    0    0    0  0.00000000000E+00  0.00000000000E+00  0.74505805969E-08  0.10566000000E+00  0.10566000000E+00 0. -1.
     999900   -1    0    0    0    0 -0.00000000000E+00 -0.00000000000E+00 -0.74505805969E-08  0.93827000000E+00  0.93827000000E+00 0.  1.
     999902    2    1    2    0    0 -0.16294508037E-01  0.16801057748E-01  0.48767406560E-02  0.10200224879E+01  0.10197422747E+01 0.  0.
     999903    2    3    3    0    0 -0.98642998135E-02 -0.44718540865E-01 -0.11924688821E+00  0.12916184573E+00  0.19128767279E-01 0.  0.
         14    1    1    2    0    0  0.16294508037E-01 -0.16801057748E-01 -0.48767406560E-02  0.23907512063E-01  0.00000000000E+00 0. -1.
     999901    1    3    3    0    0 -0.64302082235E-02  0.61519598613E-01  0.12412362886E+00  0.89086064221E+00  0.88000000000E+00 0. -1.
        -11    1    4    4    0    0 -0.13917305657E-01 -0.19706159160E-01 -0.53090400588E-01  0.58317028912E-01  0.51100000000E-03 0.  1.
         11    1    4    4    0    0  0.40530058437E-02 -0.25012381705E-01 -0.66156487618E-01  0.70844816818E-01  0.51100000000E-03 0. -1.
</event>
<event>
 8    1  0.1180500E+005  0.1043930E+01  0.7957747E-01            NaN
         13   -1    0    0    0    0  0.00000000000E+00  0.00000000000E+00  0.74505805969E-08  0.10566000000E+00  0.10566000000E+00 0.  1.
     999900   -1    0    0    0    0 -0.00000000000E+00 -0.00000000000E+00 -0.74505805969E-08  0.93827000000E+00  0.93827000000E+00 0.  1.
     999902    2    1    2    0    0  0.16577963813E-01 -0.42357082888E-02  0.15553872077E-01  0.10208065693E+01  0.10205446384E+01 0.  0.
     999903    2    3    3    0    0  0.85710834283E-01  0.37772087017E-01 -0.89283171513E-01  0.13089937510E+00  0.19750544703E-01 0.  0.
         14    1    1    2    0    0 -0.16577963813E-01  0.42357082888E-02 -0.15553872077E-01  0.23123430659E-01  0.00000000000E+00 0. -1.
     999901    1    3    3    0    0 -0.69132870470E-01 -0.42007795306E-01  0.10483704359E+00  0.88990719424E+00  0.88000000000E+00 0. -1.
        -11    1    4    4    0    0  0.38073149032E-01  0.16274268709E-01 -0.53070282040E-01  0.67313686989E-01  0.51100000000E-03 0. -1.
         11    1    4    4    0    0  0.47637685250E-01  0.21497818309E-01 -0.36212889473E-01  0.63585688115E-01  0.51100000000E-03 0.  1.
</event>
<event>
 8    1  0.1180500E+005  0.1043930E+01  0.7957747E-01            NaN
         13   -1    0    0    0    0  0.00000000000E+00  0.00000000000E+00  0.74505805969E-08  0.10566000000E+00  0.10566000000E+00 0. -1.
     999900   -1    0    0    0    0 -0.00000000000E+00 -0.00000000000E+00 -0.74505805969E-08  0.93827000000E+00  0.93827000000E+00 0. -1.
     999902    2    1    2    0    0 -0.15626155591E-01  0.67009441384E-02 -0.16621640452E-01  0.10201527352E+01  0.10198756026E+01 0.  0.
     999903    2    3    3    0    0  0.76888908844E-01 -0.40717776959E-01  0.91208915617E-01  0.12749658577E+00  0.19143443573E-01 0.  0.
         14    1    1    2    0    0  0.15626155591E-01 -0.67009441384E-02  0.16621640452E-01  0.23777264818E-01  0.00000000000E+00 0. -1.
     999901    1    3    3    0    0 -0.92515064435E-01  0.47418721097E-01 -0.10783055607E+00  0.89265614941E+00  0.88000000000E+00 0. -1.
        -11    1    4    4    0    0  0.58392998814E-01 -0.28994201233E-01  0.78967137417E-01  0.10240349568E+00  0.51100000000E-03 0.  1.
         11    1    4    4    0    0  0.18495910030E-01 -0.11723575726E-01  0.12241778201E-01  0.25093090088E-01  0.51100000000E-03 0. -1.
</event>
<event>
 8    1  0.1180500E+005  0.1043930E+01  0.7957747E-01            NaN
         13   -1    0    0    0    0  0.00000000000E+00  0.00000000000E+00  0.74505805969E-08  0.10566000000E+00  0.10566000000E+00 0.  1.
     999900   -1    0    0    0    0 -0.00000000000E+00 -0.00000000000E+00 -0.74505805969E-08  0.93827000000E+00  0.93827000000E+00 0. -1.
     999902    2    1    2    0    0 -0.20091313777E-02  0.20465792140E-01 -0.11923112506E-01  0.10201593065E+01  0.10198823289E+01 0.  0.
     999903    2    3    3    0    0  0.87070773146E-02 -0.20246758347E-01  0.12582938440E+00  0.12844853541E+00  0.13425641641E-01 0.  0.
         14    1    1    2    0    0  0.20091313777E-02 -0.20465792140E-01  0.11923112506E-01  0.23770693483E-01  0.00000000000E+00 0.  1.
     999901    1    3    3    0    0 -0.10716208692E-01  0.40712550488E-01 -0.13775249690E+00  0.89171077110E+00  0.88000000000E+00 0. -1.
        -11    1    4    4    0    0  0.11793346212E-03  0.87534935464E-03  0.27092873170E-01  0.27112082960E-01  0.51100000000E-03 0. -1.
         11    1    4    4    0    0  0.85891438524E-02 -0.21122107702E-01  0.98736511227E-01  0.10133645246E+00  0.51100000000E-03 0.  1.
</event>
<event>
 8    1  0.1180500E+005  0.1043930E+01  0.7957747E-01            NaN
         13   -1    0    0    0    0  0.00000000000E+00  0.00000000000E+00  0.74505805969E-08  0.10566000000E+00  0.10566000000E+00 0.  1.
     999900   -1    0    0    0    0 -0.00000000000E+00 -0.00000000000E+00 -0.74505805969E-08  0.93827000000E+00  0.93827000000E+00 0. -1.
     999902    2    1    2    0    0 -0.15381187739E-03  0.23277386404E-01  0.85792550547E-02  0.10191214532E+01  0.10188194504E+01 0.  0.
     999903    2    3    3    0    0  0.23352033457E-01 -0.73105487534E-01  0.10141359167E+00  0.12869436625E+00  0.19692474574E-01 0.  0.
         14    1    1    2    0    0  0.15381187739E-03 -0.23277386404E-01 -0.85792550547E-02  0.24808546777E-01  0.00000000000E+00 0.  1.
     999901    1    3    3    0    0 -0.23505845335E-01  0.96382873938E-01 -0.92834336620E-01  0.89042708697E+00  0.88000000000E+00 0. -1.
        -11    1    4    4    0    0  0.93401308862E-02 -0.21897986451E-01  0.46900181939E-01  0.52598935754E-01  0.51100000000E-03 0. -1.
         11    1    4    4    0    0  0.14011902571E-01 -0.51207501084E-01  0.54513409736E-01  0.76095430499E-01  0.51100000000E-03 0.  1.
</event>
<event>
 8    1  0.1180500E+005  0.1043930E+01  0.7957747E-01            NaN
         13   -1    0    0    0    0  0.00000000000E+00  0.00000000000E+00  0.74505805969E-08  0.10566000000E+00  0.10566000000E+00 0. -1.
     999900   -1    0    0    0    0 -0.00000000000E+00 -0.00000000000E+00 -0.74505805969E-08  0.93827000000E+00  0.93827000000E+00 0. -1.
     999902    2    1    2    0    0 -0.11084223326E-01 -0.13398207481E-01  0.16093538710E-01  0.10202366685E+01  0.10199615119E+01 0.  0.
     999903    2    3    3    0    0  0.22409398439E-01  0.10085948616E+00 -0.72543828037E-01  0.12780559213E+00  0.19920976523E-01 0.  0.
         14    1    1    2    0    0  0.11084223326E-01  0.13398207481E-01 -0.16093538710E-01  0.23693331523E-01  0.00000000000E+00 0. -1.
     999901    1    3    3    0    0 -0.33493621765E-01 -0.11425769364E+00  0.88637366747E-01  0.89243107635E+00  0.88000000000E+00 0.  1.
        -11    1    4    4    0    0  0.49121638949E-02  0.14325653575E-01 -0.19909091775E-01  0.25019727432E-01  0.51100000000E-03 0.  1.
         11    1    4    4    0    0  0.17497234544E-01  0.86533832583E-01 -0.52634736262E-01  0.10278586469E+00  0.51100000000E-03 0. -1.
</event>
<event>
 8    1  0.1180500E+005  0.1043930E+01  0.7957747E-01            NaN
         13   -1    0    0    0    0  0.00000000000E+00  0.00000000000E+00  0.74505805969E-08  0.10566000000E+00  0.10566000000E+00 0.  1.
     999900   -1    0    0    0    0 -0.00000000000E+00 -0.00000000000E+00 -0.74505805969E-08  0.93827000000E+00  0.93827000000E+00 0.  1.
     999902    2    1    2    0    0  0.15372638231E-02 -0.17319136414E-01  0.16415572872E-01  0.10200179382E+01  0.10197376170E+01 0.  0.
     999903    2    3    3    0    0 -0.19125758907E-01  0.12154496115E+00  0.32306911258E-01  0.12874764659E+00  0.19830475345E-01 0.  0.
         14    1    1    2    0    0 -0.15372638231E-02  0.17319136414E-01 -0.16415572872E-01  0.23912061786E-01  0.00000000000E+00 0. -1.
     999901    1    3    3    0    0  0.20663022730E-01 -0.13886409756E+00 -0.15891338386E-01  0.89127029163E+00  0.88000000000E+00 0. -1.
        -11    1    4    4    0    0 -0.63304498965E-02  0.89666552792E-01  0.27843548068E-01  0.94104673505E-01  0.51100000000E-03 0. -1.
         11    1    4    4    0    0 -0.12795309010E-01  0.31878408356E-01  0.44633631895E-02  0.34642973082E-01  0.51100000000E-03 0.  1.
</event>
<event>
 8    1  0.1180500E+005  0.1043930E+01  0.7957747E-01            NaN
         13   -1    0    0    0    0  0.00000000000E+00  0.00000000000E+00  0.74505805969E-08  0.10566000000E+00  0.10566000000E+00 0. -1.
     999900   -1    0    0    0    0 -0.00000000000E+00 -0.00000000000E+00 -0.74505805969E-08  0.93827000000E+00  0.93827000000E+00 0.  1.
     999902    2    1    2    0    0 -0.37389168433E-02  0.20505227211E-01 -0.10642179785E-01  0.10205270123E+01  0.10202586354E+01 0.  0.
     999903    2    3    3    0    0 -0.36312202218E-01  0.94515699366E-01  0.82549001266E-01  0.13191958204E+00  0.18347889777E-01 0.  0.
         14    1    1    2    0    0  0.37389168433E-02 -0.20505227211E-01  0.10642179785E-01  0.23402987687E-01  0.00000000000E+00 0. -1.
     999901    1    3    3    0    0  0.32573285375E-01 -0.74010472155E-01 -0.93191181051E-01  0.88860743027E+00  0.88000000000E+00 0. -1.
        -11    1    4    4    0    0 -0.29690543536E-01  0.52226870683E-01  0.49289320490E-01  0.77710183581E-01  0.51100000000E-03 0.  1.
         11    1    4    4    0    0 -0.66216586817E-02  0.42288828683E-01  0.33259680777E-01  0.54209398460E-01  0.51100000000E-03 0. -1.
</event>
<event>
 8    1  0.1180500E+005  0.1043930E+01  0.7957747E-01            NaN
         13   -1    0    0    0    0  0.00000000000E+00  0.00000000000E+00  0.74505805969E-08  0.10566000000E+00  0.10566000000E+00 0.  1.
     999900   -1    0    0    0    0 -0.00000000000E+00 -0.00000000000E+00 -0.74505805969E-08  0.93827000000E+00  0.93827000000E+00 0. -1.
     999902    2    1    2    0    0  0.17307045674E-01  0.16478212804E-01 -0.53620756339E-03  0.10200270118E+01  0.10197469058E+01 0.  0.
     999903    2    3    3    0    0  0.17231342932E-01 -0.97888864646E-01  0.79496413099E-01  0.12902473653E+00  0.21179092046E-01 0.  0.
         14    1    1    2    0    0 -0.17307045674E-01 -0.16478212804E-01  0.53620756339E-03  0.23902988218E-01  0.00000000000E+00 0. -1.
     999901    1    3    3    0    0  0.75702742679E-04  0.11436707745E+00 -0.80032620663E-01  0.89100227525E+00  0.88000000000E+00 0. -1.
        -11    1    4    4    0    0  0.65660974017E-02 -0.52889603931E-01  0.55398592033E-01  0.76874501360E-01  0.51100000000E-03 0. -1.
         11    1    4    4    0    0  0.10665245530E-01 -0.44999260715E-01  0.24097821066E-01  0.52150235170E-01  0.51100000000E-03 0.  1.
</event>
<event>
 8    1  0.1180500E+005  0.1043930E+01  0.7957747E-01            NaN
         13   -1    0    0    0    0  0.00000000000E+00  0.00000000000E+00  0.74505805969E-08  0.10566000000E+00  0.10566000000E+00 0. -1.
     999900   -1    0    0    0    0 -0.00000000000E+00 -0.00000000000E+00 -0.74505805969E-08  0.93827000000E+00  0.93827000000E+00 0. -1.
     999902    2    1    2    0    0 -0.12326385992E-01  0.14922999905E-01  0.15291198498E-01  0.10192630896E+01  0.10189645673E+01 0.  0.
     999903    2    3    3    0    0  0.73351738281E-01 -0.88998140523E-01  0.52455625072E-01  0.12824034071E+00  0.19820339542E-01 0.  0.
         14    1    1    2    0    0  0.12326385992E-01 -0.14922999905E-01 -0.15291198498E-01  0.24666910412E-01  0.00000000000E+00 0.  1.
     999901    1    3    3    0    0 -0.85678124273E-01  0.10392114043E+00 -0.37164426574E-01  0.89102274887E+00  0.88000000000E+00 0. -1.
        -11    1    4    4    0    0  0.31792802759E-01 -0.43855164984E-01  0.14455996713E-01  0.56065093998E-01  0.51100000000E-03 0. -1.
         11    1    4    4    0    0  0.41558935522E-01 -0.45142975539E-01  0.37999628358E-01  0.72175246717E-01  0.51100000000E-03 0.  1.
</event>
<event>
 8    1  0.1180500E+005  0.1043930E+01  0.7957747E-01            NaN
         13   -1    0    0    0    0  0.00000000000E+00  0.00000000000E+00  0.74505805969E-08  0.10566000000E+00  0.10566000000E+00 0.  1.
     999900   -1    0    0    0    0 -0.00000000000E+00 -0.00000000000E+00 -0.74505805969E-08  0.93827000000E+00  0.93827000000E+00 0. -1.
     999902    2    1    2    0    0 -0.21982719177E-01  0.39832764401E-02  0.78214236083E-02  0.10202597423E+01  0.10199851276E+01 0.  0.
     999903    2    3    3    0    0  0.64060998598E-01 -0.29971724563E-01  0.10680816683E+00  0.12989193131E+00  0.21489846531E-01 0.  0.
         14    1    1    2    0    0  0.21982719177E-01 -0.39832764401E-02 -0.78214236083E-02  0.23670257727E-01  0.00000000000E+00 0.  1.
     999901    1    3    3    0    0 -0.86043717775E-01  0.33955001003E-01 -0.98986743220E-01  0.89036781096E+00  0.88000000000E+00 0. -1.
        -11    1    4    4    0    0  0.35161094474E-01 -0.12397702934E-01  0.38107794255E-01  0.53314826330E-01  0.51100000000E-03 0.  1.
         11    1    4    4    0    0  0.28899904125E-01 -0.17574021629E-01  0.68700372574E-01  0.76577104982E-01  0.51100000000E-03 0. -1.
</event>
<event>
 8    1  0.1180500E+005  0.1043930E+01  0.7957747E-01            NaN
         13   -1    0    0    0    0  0.00000000000E+00  0.00000000000E+00  0.74505805969E-08  0.10566000000E+00  0.10566000000E+00 0. -1.
     999900   -1    0    0    0    0 -0.00000000000E+00 -0.00000000000E+00 -0.74505805969E-08  0.93827000000E+00  0.93827000000E+00 0. -1.
     999902    2    1    2    0    0 -0.11635439229E-01  0.72558707742E-02  0.17840788103E-01  0.10214283372E+01  0.10211804558E+01 0.  0.
     999903    2    3    3    0    0  0.45624067530E-01 -0.10013468049E+00 -0.64615621899E-01  0.12923416490E+00  0.20439692005E-01 0.  0.
         14    1    1    2    0    0  0.11635439229E-01 -0.72558707742E-02 -0.17840788103E-01  0.22501662758E-01  0.00000000000E+00 0.  1.
     999901    1    3    3    0    0 -0.57259506759E-01  0.10739055126E+00  0.82456410002E-01  0.89219417234E+00  0.88000000000E+00 0.  1.
        -11    1    4    4    0    0  0.26110119931E-01 -0.66446263765E-01 -0.51935917679E-01  0.88286154052E-01  0.51100000000E-03 0. -1.
         11    1    4    4    0    0  0.19513947599E-01 -0.33688416722E-01 -0.12679704220E-01  0.40948010846E-01  0.51100000000E-03 0.  1.
</event>
<event>
 8    1  0.1180500E+005  0.1043930E+01  0.7957747E-01            NaN
         13   -1    0    0    0    0  0.00000000000E+00  0.00000000000E+00  0.74505805969E-08  0.10566000000E+00  0.10566000000E+00 0. -1.
     999900   -1    0    0    0    0 -0.00000000000E+00 -0.00000000000E+00 -0.74505805969E-08  0.93827000000E+00  0.93827000000E+00 0.  1.
     999902    2    1    2    0    0 -0.15591583363E-01 -0.11950251725E-01  0.15642136547E-01  0.10188185997E+01  0.10185090852E+01 0.  0.
     999903    2    3    3    0    0 -0.89796880562E-01 -0.34646153041E-01  0.88687901701E-01  0.13238912488E+00  0.19937422061E-01 0.  0.
         14    1    1    2    0    0  0.15591583363E-01  0.11950251725E-01 -0.15642136547E-01  0.25111400276E-01  0.00000000000E+00 0. -1.
     999901    1    3    3    0    0  0.74205297200E-01  0.22695901316E-01 -0.73045765154E-01  0.88642947485E+00  0.88000000000E+00 0. -1.
        -11    1    4    4    0    0 -0.47309441529E-01 -0.24033022128E-01  0.37265717602E-01  0.64844153474E-01  0.51100000000E-03 0. -1.
         11    1    4    4    0    0 -0.42487439034E-01 -0.10613130913E-01  0.51422184099E-01  0.67544971404E-01  0.51100000000E-03 0.  1.
</event>
<event>
 8    1  0.1180500E+005  0.1043930E+01  0.7957747E-01            NaN
         13   -1    0    0    0    0  0.00000000000E+00  0.00000000000E+00  0.74505805969E-08  0.10566000000E+00  0.10566000000E+00 0.  1.
     999900   -1    0    0    0    0 -0.00000000000E+00 -0.00000000000E+00 -0.74505805969E-08  0.93827000000E+00  0.93827000000E+00 0. -1.
     999902    2    1    2    0    0 -0.22900954171E-01 -0.64516625276E-02 -0.25026425345E-02  0.10200063533E+01  0.10197257572E+01 0.  0.
     999903    2    3    3    0    0 -0.11878587101E+00 -0.50339898789E-02  0.55941289305E-01  0.13286959934E+00  0.19735206482E-01 0.  0.
         14    1    1    2    0    0  0.22900954171E-01  0.64516625276E-02  0.25026425345E-02  0.23923646690E-01  0.00000000000E+00 0.  1.
     999901    1    3    3    0    0  0.95884916837E-01 -0.14176726487E-02 -0.58443931839E-01  0.88713675397E+00  0.88000000000E+00 0.  1.
        -11    1    4    4    0    0 -0.33808502235E-01  0.25513237130E-02  0.24949397974E-01  0.42098190654E-01  0.51100000000E-03 0.  1.
         11    1    4    4    0    0 -0.84977368773E-01 -0.75853135919E-02  0.30991891330E-01  0.90771408688E-01  0.51100000000E-03 0. -1.
</event>
<event>
 8    1  0.1180500E+005  0.1043930E+01  0.7957747E-01            NaN
         13   -1    0    0    0    0  0.00000000000E+00  0.00000000000E+00  0.74505805969E-08  0.10566000000E+00  0.10566000000E+00 0. -1.
     999900   -1    0    0    0    0 -0.00000000000E+00 -0.00000000000E+00 -0.74505805969E-08  0.93827000000E+00  0.93827000000E+00 0.  1.
     999902    2    1    2    0    0 -0.23196285009E-01  0.60762931021E-03 -0.43158196985E-02  0.10203278147E+01  0.10200547957E+01 0.  0.
     999903    2    3    3    0    0  0.96862919310E-01  0.78611898331E-01 -0.24011628104E-01  0.12853927283E+00  0.19583939316E-01 0.  0.
         14    1    1    2    0    0  0.23196285009E-01 -0.60762931021E-03  0.43158196985E-02  0.23602185307E-01  0.00000000000E+00 0. -1.
     999901    1    3    3    0    0 -0.12005920432E+00 -0.78004269021E-01  0.19695808406E-01  0.89178854186E+00  0.88000000000E+00 0. -1.
        -11    1    4    4    0    0  0.65046003261E-01  0.44032443306E-01 -0.82891005070E-02  0.78986131137E-01  0.51100000000E-03 0. -1.
         11    1    4    4    0    0  0.31816916050E-01  0.34579455025E-01 -0.15722527597E-01  0.49553141694E-01  0.51100000000E-03 0.  1.
</event>
<event>
 8    1  0.1180500E+005  0.1043930E+01  0.7957747E-01            NaN
         13   -1    0    0    0    0  0.00000000000E+00  0.00000000000E+00  0.74505805969E-08  0.10566000000E+00  0.10566000000E+00 0.  1.
     999900   -1    0    0    0    0 -0.00000000000E+00 -0.00000000000E+00 -0.74505805969E-08  0.93827000000E+00  0.93827000000E+00 0.  1.
     999902    2    1    2    0    0  0.12389724563E-01 -0.72386025840E-02 -0.18780287527E-01  0.10202952408E+01  0.10200214589E+01 0.  0.
     999903    2    3    3    0    0 -0.84295338402E-01  0.92700216642E-01 -0.24798462372E-01  0.12935641720E+00  0.20471558179E-01 0.  0.
         14    1    1    2    0    0 -0.12389724563E-01  0.72386025840E-02  0.18780287527E-01  0.23634759184E-01  0.00000000000E+00 0.  1.
     999901    1    3    3    0    0  0.96685062964E-01 -0.99938819226E-01  0.60181748456E-02  0.89093882361E+00  0.88000000000E+00 0. -1.
        -11    1    4    4    0    0 -0.24286053112E-01  0.22549212364E-01 -0.15444907110E-01  0.36566181516E-01  0.51100000000E-03 0. -1.
         11    1    4    4    0    0 -0.60009285289E-01  0.70151004278E-01 -0.93535552624E-02  0.92790235689E-01  0.51100000000E-03 0.  1.
</event>
<event>
 8    1  0.1180500E+005  0.1043930E+01  0.7957747E-01            NaN
         13   -1    0    0    0    0  0.00000000000E+00  0.00000000000E+00  0.74505805969E-08  0.10566000000E+00  0.10566000000E+00 0. -1.
     999900   -1    0    0    0    0 -0.00000000000E+00 -0.00000000000E+00 -0.74505805969E-08  0.93827000000E+00  0.93827000000E+00 0.  1.
     999902    2    1    2    0    0 -0.42878406216E-02 -0.16266169240E-03 -0.22421481129E-01  0.10211016218E+01  0.10208464072E+01 0.  0.
     999903    2    3    3    0    0  0.50241768128E-01 -0.11942499981E+00  0.29025180167E-02  0.13102393503E+00  0.19294587186E-01 0.  0.
         14    1    1    2    0    0  0.42878406216E-02  0.16266169240E-03  0.22421481129E-01  0.22828378217E-01  0.00000000000E+00 0. -1.
     999901    1    3    3    0    0 -0.54529608750E-01  0.11926233812E+00 -0.25323999145E-01  0.89007768675E+00  0.88000000000E+00 0.  1.
        -11    1    4    4    0    0  0.13938418353E-02 -0.21288755967E-01 -0.54103634627E-03  0.21347312876E-01  0.51100000000E-03 0. -1.
         11    1    4    4    0    0  0.48847926293E-01 -0.98136243846E-01  0.34435543629E-02  0.10967662215E+00  0.51100000000E-03 0.  1.
</event>
<event>
 7    1  0.1180500E+005  0.1043930E+01  0.7957747E-01            NaN
         13   -1    0    0    0    0  0.00000000000E+00  0.00000000000E+00  0.74505805969E-08  0.10566000000E+00  0.10566000000E+00 0.  1.
     999900   -1    0    0    0    0 -0.00000000000E+00 -0.00000000000E+00 -0.74505805969E-08  0.93827000000E+00  0.93827000000E+00 0. -1.
     999903    2    1    2    0    0  0.35189291734E-01  0.10093603370E+00 -0.17697037917E-01  0.11030388324E+00  0.20673469845E-01 0.  0.
         14    1    1    2    0    0  0.41847290643E-01 -0.18676299264E-01 -0.53677379299E-02  0.46139056112E-01  0.00000000000E+00 0.  1.
     999901    1    1    2    0    0 -0.77036582377E-01 -0.82259734434E-01  0.23064775847E-01  0.88748706065E+00  0.88000000000E+00 0. -1.
        -11    1    3    3    0    0  0.15519667986E-01  0.73220441120E-01 -0.10848793087E-01  0.75631015626E-01  0.51100000000E-03 0. -1.
         11    1    3    3    0    0  0.19669623748E-01  0.27715592578E-01 -0.68482448294E-02  0.34672867614E-01  0.51100000000E-03 0.  1.
</event>
<event>
 8    1  0.1180500E+005  0.1043930E+01  0.7957747E-01            NaN
         13   -1    0    0    0    0  0.00000000000E+00  0.00000000000E+00  0.74505805969E-08  0.10566000000E+00  0.10566000000E+00 0.  1.
     999900   -1    0    0    0    0 -0.00000000000E+00 -0.00000000000E+00 -0.74505805969E-08  0.93827000000E+00  0.93827000000E+00 0. -1.
     999902    2    1    2    0    0 -0.10997230944E-01 -0.10705037654E-02  0.20946589635E-01  0.10202478404E+01  0.10199729463E+01 0.  0.
     999903    2    3    3    0    0 -0.98460990927E-01  0.63950157040E-01 -0.53154907273E-01  0.13043402419E+00  0.20084849514E-01 0.  0.
         14    1    1    2    0    0  0.10997230944E-01  0.10705037654E-02 -0.20946589635E-01  0.23682159616E-01  0.00000000000E+00 0. -1.
     999901    1    3    3    0    0  0.87463759983E-01 -0.65020660805E-01  0.74101496908E-01  0.88981381619E+00  0.88000000000E+00 0. -1.
        -11    1    4    4    0    0 -0.67681099016E-01  0.53848437347E-01 -0.42168315820E-01  0.96222727818E-01  0.51100000000E-03 0.  1.
         11    1    4    4    0    0 -0.30779891911E-01  0.10101719693E-01 -0.10986591453E-01  0.34211296374E-01  0.51100000000E-03 0. -1.
</event>
<event>
 8    1  0.1180500E+005  0.1043930E+01  0.7957747E-01            NaN
         13   -1    0    0    0    0  0.00000000000E+00  0.00000000000E+00  0.74505805969E-08  0.10566000000E+00  0.10566000000E+00 0.  1.
     999900   -1    0    0    0    0 -0.00000000000E+00 -0.00000000000E+00 -0.74505805969E-08  0.93827000000E+00  0.93827000000E+00 0. -1.
     999902    2    1    2    0    0 -0.42015347369E-02 -0.11318018767E-01  0.21694814995E-01  0.10191022848E+01  0.10187998093E+01 0.  0.
     999903    2    3    3    0    0  0.69909625049E-01  0.98565236043E-01  0.40055225124E-01  0.12898774256E+00  0.20759461484E-01 0.  0.
         14    1    1    2    0    0  0.42015347369E-02  0.11318018767E-01 -0.21694814995E-01  0.24827715171E-01  0.00000000000E+00 0. -1.
     999901    1    3    3    0    0 -0.74111159786E-01 -0.10988325481E+00 -0.18360410129E-01  0.89011454227E+00  0.88000000000E+00 0.  1.
        -11    1    4    4    0    0  0.40082995843E-01  0.48417962203E-01  0.30477578286E-01  0.69857637512E-01  0.51100000000E-03 0. -1.
         11    1    4    4    0    0  0.29826629207E-01  0.50147273840E-01  0.95776468387E-02  0.59130105051E-01  0.51100000000E-03 0.  1.
</event>
<event>
 8    1  0.1180500E+005  0.1043930E+01  0.7957747E-01            NaN
         13   -1    0    0    0    0  0.00000000000E+00  0.00000000000E+00  0.74505805969E-08  0.10566000000E+00  0.10566000000E+00 0. -1.
     999900   -1    0    0    0    0 -0.00000000000E+00 -0.00000000000E+00 -0.74505805969E-08  0.93827000000E+00  0.93827000000E+00 0. -1.
     999902    2    1    2    0    0  0.22666675685E-01  0.25549486487E-02 -0.66665289192E-02  0.10201655611E+01  0.10198887309E+01 0.  0.
     999903    2    3    3    0    0 -0.71820628155E-01 -0.51163528823E-01  0.90738710431E-01  0.12814464986E+00  0.20288627515E-01 0.  0.
         14    1    1    2    0    0 -0.22666675685E-01 -0.25549486487E-02  0.66665289192E-02  0.23764438917E-01  0.00000000000E+00 0. -1.
     999901    1    3    3    0    0  0.94487303840E-01  0.53718477471E-01 -0.97405239350E-01  0.89202091122E+00  0.88000000000E+00 0. -1.
        -11    1    4    4    0    0 -0.36656146334E-01 -0.32219804572E-01  0.37307224368E-01  0.61431905243E-01  0.51100000000E-03 0. -1.
         11    1    4    4    0    0 -0.35164481821E-01 -0.18943724251E-01  0.53431486063E-01  0.66712744616E-01  0.51100000000E-03 0.  1.
</event>
<event>
 8    1  0.1180500E+005  0.1043930E+01  0.7957747E-01            NaN
         13   -1    0    0    0    0  0.00000000000E+00  0.00000000000E+00  0.74505805969E-08  0.10566000000E+00  0.10566000000E+00 0.  1.
     999900   -1    0    0    0    0 -0.00000000000E+00 -0.00000000000E+00 -0.74505805969E-08  0.93827000000E+00  0.93827000000E+00 0.  1.
     999902    2    1    2    0    0  0.24555273955E-01 -0.14926260752E-03  0.47448584227E-02  0.10189200532E+01  0.10186130656E+01 0.  0.
     999903    2    3    3    0    0  0.25969902629E-01 -0.64522216121E-01  0.10852662298E+00  0.13048517489E+00  0.20268220298E-01 0.  0.
         14    1    1    2    0    0 -0.24555273955E-01  0.14926260752E-03 -0.47448584227E-02  0.25009946817E-01  0.00000000000E+00 0. -1.
     999901    1    3    3    0    0 -0.14146286736E-02  0.64372953514E-01 -0.10378176456E+00  0.88843487830E+00  0.88000000000E+00 0.  1.
        -11    1    4    4    0    0  0.60782083415E-02 -0.19664687649E-01  0.17278692381E-01  0.26878595357E-01  0.51100000000E-03 0. -1.
         11    1    4    4    0    0  0.19891694287E-01 -0.44857528473E-01  0.91247930599E-01  0.10360657953E+00  0.51100000000E-03 0.  1.
</event>
<event>
 8    1  0.1180500E+005  0.1043930E+01  0.7957747E-01            NaN
         13   -1    0    0    0    0  0.00000000000E+00  0.00000000000E+00  0.74505805969E-08  0.10566000000E+00  0.10566000000E+00 0.  1.
     999900   -1    0    0    0    0 -0.00000000000E+00 -0.00000000000E+00 -0.74505805969E-08  0.93827000000E+00  0.93827000000E+00 0.  1.
     999902    2    1    2    0    0 -0.13719671433E-01 -0.11824062409E-01  0.19172528198E-01  0.10175553214E+01  0.10172134527E+01 0.  0.
     999903    2    3    3    0    0  0.11446431145E+00  0.21748867307E-01  0.46956380627E-01  0.12720133696E+00  0.20004664865E-01 0.  0.
         14    1    1    2    0    0  0.13719671433E-01  0.11824062409E-01 -0.19172528198E-01  0.26374678644E-01  0.00000000000E+00 0. -1.
     999901    1    3    3    0    0 -0.12818398289E+00 -0.33572929716E-01 -0.27783852429E-01  0.89035398440E+00  0.88000000000E+00 0. -1.
        -11    1    4    4    0    0  0.76436653837E-01  0.17108308269E-01  0.41054201225E-01  0.88436218943E-01  0.51100000000E-03 0.  1.
         11    1    4    4    0    0  0.38027657617E-01  0.46405590377E-02  0.59021794025E-02  0.38765118015E-01  0.51100000000E-03 0. -1.
</event>
<event>
 8    1  0.1180500E+005  0.1043930E+01  0.7957747E-01            NaN
         13   -1    0    0    0    0  0.00000000000E+00  0.00000000000E+00  0.74505805969E-08  0.10566000000E+00  0.10566000000E+00 0. -1.
     999900   -1    0    0    0    0 -0.00000000000E+00 -0.00000000000E+00 -0.74505805969E-08  0.93827000000E+00  0.93827000000E+00 0.  1.
     999902    2    1    2    0    0 -0.13133370965E-01 -0.11596606308E-02  0.18848735516E-01  0.10209277158E+01  0.10206685534E+01 0.  0.
     999903    2    3    3    0    0  0.87065769430E-01  0.93898556027E-01  0.10738913716E-01  0.13011813940E+00  0.20445510545E-01 0.  0.
         14    1    1    2    0    0  0.13133370965E-01  0.11596606308E-02 -0.18848735516E-01  0.23002284152E-01  0.00000000000E+00 0.  1.
     999901    1    3    3    0    0 -0.10019914039E+00 -0.95058216658E-01  0.81098217991E-02  0.89080957645E+00  0.88000000000E+00 0.  1.
        -11    1    4    4    0    0  0.17557610478E-01  0.32328416063E-01  0.41906125824E-02  0.37029967940E-01  0.51100000000E-03 0. -1.
         11    1    4    4    0    0  0.69508158952E-01  0.61570139964E-01  0.65483011341E-02  0.93088171455E-01  0.51100000000E-03 0.  1.
</event>
<event>
 8    1  0.1180500E+005  0.1043930E+01  0.7957747E-01            NaN
         13   -1    0    0    0    0  0.00000000000E+00  0.00000000000E+00  0.74505805969E-08  0.10566000000E+00  0.10566000000E+00 0. -1.
     999900   -1    0    0    0    0 -0.00000000000E+00 -0.00000000000E+00 -0.74505805969E-08  0.93827000000E+00  0.93827000000E+00 0. -1.
     999902    2    1    2    0    0 -0.11664046993E-01  0.10741829180E-01 -0.15753306566E-01  0.10215781868E+01  0.10213336321E+01 0.  0.
     999903    2    3    3    0    0  0.97037120541E-01 -0.30563142874E-01 -0.80951846162E-01  0.13153723598E+00  0.19963331052E-01 0.  0.
         14    1    1    2    0    0  0.11664046993E-01 -0.10741829180E-01  0.15753306566E-01  0.22351813219E-01  0.00000000000E+00 0. -1.
     999901    1    3    3    0    0 -0.10870116753E+00  0.41304972054E-01  0.65198539596E-01  0.89004095080E+00  0.88000000000E+00 0. -1.
        -11    1    4    4    0    0  0.73633287271E-01 -0.31536084263E-01 -0.59679538117E-01  0.99891411021E-01  0.51100000000E-03 0. -1.
         11    1    4    4    0    0  0.23403833271E-01  0.97294138911E-03 -0.21272308046E-01  0.31645824958E-01  0.51100000000E-03 0.  1.
</event>
<event>
 8    1  0.1180500E+005  0.1043930E+01  0.7957747E-01            NaN
         13   -1    0    0    0    0  0.00000000000E+00  0.00000000000E+00  0.74505805969E-08  0.10566000000E+00  0.10566000000E+00 0. -1.
     999900   -1    0    0    0    0 -0.00000000000E+00 -0.00000000000E+00 -0.74505805969E-08  0.93827000000E+00  0.93827000000E+00 0.  1.
     999902    2    1    2    0    0 -0.11007828371E-01  0.52920466963E-02 -0.19443160320E-01  0.10209688474E+01  0.10207106215E+01 0.  0.
     999903    2    3    3    0    0  0.72175907387E-01  0.64548079668E-01 -0.87914090344E-01  0.13241998576E+00  0.20744858425E-01 0.  0.
         14    1    1    2    0    0  0.11007828371E-01 -0.52920466963E-02  0.19443160320E-01  0.22961152561E-01  0.00000000000E+00 0. -1.
     999901    1    3    3    0    0 -0.83183735758E-01 -0.59256032972E-01  0.68470930024E-01  0.88854886168E+00  0.88000000000E+00 0.  1.
        -11    1    4    4    0    0  0.70726181993E-01  0.57194958183E-01 -0.77026192973E-01  0.11919207854E+00  0.51100000000E-03 0. -1.
         11    1    4    4    0    0  0.14497253935E-02  0.73531214848E-02 -0.10887897371E-01  0.13227907221E-01  0.51100000000E-03 0.  1.
</event>
<event>
 8    1  0.1180500E+005  0.1043930E+01  0.7957747E-01            NaN
         13   -1    0    0    0    0  0.00000000000E+00  0.00000000000E+00  0.74505805969E-08  0.10566000000E+00  0.10566000000E+00 0. -1.
     999900   -1    0    0    0    0 -0.00000000000E+00 -0.00000000000E+00 -0.74505805969E-08  0.93827000000E+00  0.93827000000E+00 0.  1.
     999902    2    1    2    0    0  0.29207484574E-02 -0.24524868617E-01  0.32571102170E-02  0.10190179804E+01  0.10187134218E+01 0.  0.
     999903    2    3    3    0    0 -0.76387827072E-01  0.40954115044E-01  0.90964477607E-01  0.12869785275E+00  0.27861468951E-01 0.  0.
         14    1    1    2    0    0 -0.29207484574E-02  0.24524868617E-01 -0.32571102170E-02  0.24912019573E-01  0.00000000000E+00 0. -1.
     999901    1    3    3    0    0  0.79308575530E-01 -0.65478983661E-01 -0.87707367390E-01  0.89032012768E+00  0.88000000000E+00 0.  1.
        -11    1    4    4    0    0 -0.36118541349E-01  0.34783348514E-01  0.53875646788E-01  0.73602152148E-01  0.51100000000E-03 0. -1.
         11    1    4    4    0    0 -0.40269285723E-01  0.61707665307E-02  0.37088830818E-01  0.55095700601E-01  0.51100000000E-03 0.  1.
</event>
<event>
 8    1  0.1180500E+005  0.1043930E+01  0.7957747E-01            NaN
         13   -1    0    0    0    0  0.00000000000E+00  0.00000000000E+00  0.74505805969E-08  0.10566000000E+00  0.10566000000E+00 0.  1.
     999900   -1    0    0    0    0 -0.00000000000E+00 -0.00000000000E+00 -0.74505805969E-08  0.93827000000E+00  0.93827000000E+00 0.  1.
     999902    2    1    2    0    0 -0.39476254295E-02  0.18181019888E-01 -0.14668238664E-01  0.10202384307E+01  0.10199633155E+01 0.  0.
     999903    2    3    3    0    0  0.11254619898E+00  0.23910547092E-02  0.60299315460E-01  0.12926128828E+00  0.20002728699E-01 0.  0.
         14    1    1    2    0    0  0.39476254295E-02 -0.18181019888E-01  0.14668238664E-01  0.23691569307E-01  0.00000000000E+00 0. -1.
     999901    1    3    3    0    0 -0.11649382441E+00  0.15789965179E-01 -0.74967554124E-01  0.89097714241E+00  0.88000000000E+00 0. -1.
        -11    1    4    4    0    0  0.39521776662E-02  0.38606833602E-02  0.14416427422E-02  0.57327165558E-02  0.51100000000E-03 0. -1.
         11    1    4    4    0    0  0.10859402132E+00 -0.14696286510E-02  0.58857672717E-01  0.12352857173E+00  0.51100000000E-03 0.  1.
</event>
<event>
 8    1  0.1180500E+005  0.1043930E+01  0.7957747E-01            NaN
         13   -1    0    0    0    0  0.00000000000E+00  0.00000000000E+00  0.74505805969E-08  0.10566000000E+00  0.10566000000E+00 0.  1.
     999900   -1    0    0    0    0 -0.00000000000E+00 -0.00000000000E+00 -0.74505805969E-08  0.93827000000E+00  0.93827000000E+00 0.  1.
     999902    2    1    2    0    0  0.15534592583E-01 -0.12233060574E-01  0.12887576065E-01  0.10203278612E+01  0.10200548434E+01 0.  0.
     999903    2    3    3    0    0 -0.75086656447E-01 -0.32727140012E-01  0.10032731117E+00  0.13112713848E+00  0.20486224854E-01 0.  0.
         14    1    1    2    0    0 -0.15534592583E-01  0.12233060574E-01 -0.12887576065E-01  0.23602138771E-01  0.00000000000E+00 0. -1.
     999901    1    3    3    0    0  0.90621249030E-01  0.20494079439E-01 -0.87439735105E-01  0.88920072275E+00  0.88000000000E+00 0.  1.
        -11    1    4    4    0    0 -0.43557942390E-01 -0.97231458252E-02  0.44663331706E-01  0.63141968849E-01  0.51100000000E-03 0.  1.
         11    1    4    4    0    0 -0.31528714057E-01 -0.23003994187E-01  0.55663979464E-01  0.67985169628E-01  0.51100000000E-03 0. -1.
</event>
<event>
 8    1  0.1180500E+005  0.1043930E+01  0.7957747E-01            NaN
         13   -1    0    0    0    0  0.00000000000E+00  0.00000000000E+00  0.74505805969E-08  0.10566000000E+00  0.10566000000E+00 0.  1.
     999900   -1    0    0    0    0 -0.00000000000E+00 -0.00000000000E+00 -0.74505805969E-08  0.93827000000E+00  0.93827000000E+00 0.  1.
     999902    2    1    2    0    0  0.22736187556E-01 -0.60691629626E-02 -0.33598846275E-02  0.10201590558E+01  0.10198820723E+01 0.  0.
     999903    2    3    3    0    0  0.42286018851E-01  0.10337409134E+00 -0.64866182674E-01  0.13103417901E+00  0.22091271235E-01 0.  0.
         14    1    1    2    0    0 -0.22736187556E-01  0.60691629626E-02  0.33598846275E-02  0.23770944204E-01  0.00000000000E+00 0.  1.
     999901    1    3    3    0    0 -0.19549831295E-01 -0.10944325430E+00  0.61506298047E-01  0.88912487678E+00  0.88000000000E+00 0.  1.
        -11    1    4    4    0    0  0.28438836508E-01  0.85415733916E-01 -0.43960300134E-01  0.10018674628E+00  0.51100000000E-03 0.  1.
         11    1    4    4    0    0  0.13847182343E-01  0.17958357421E-01 -0.20905882540E-01  0.30847432728E-01  0.51100000000E-03 0. -1.
</event>
<event>
 8    1  0.1180500E+005  0.1043930E+01  0.7957747E-01            NaN
         13   -1    0    0    0    0  0.00000000000E+00  0.00000000000E+00  0.74505805969E-08  0.10566000000E+00  0.10566000000E+00 0.  1.
     999900   -1    0    0    0    0 -0.00000000000E+00 -0.00000000000E+00 -0.74505805969E-08  0.93827000000E+00  0.93827000000E+00 0. -1.
     999902    2    1    2    0    0  0.48251065316E-02  0.18788493396E-01  0.11771382884E-01  0.10212395925E+01  0.10209874880E+01 0.  0.
     999903    2    3    3    0    0 -0.68964437682E-01 -0.34110613047E-02  0.11120398597E+00  0.13229383510E+00  0.19172983709E-01 0.  0.
         14    1    1    2    0    0 -0.48251065316E-02 -0.18788493396E-01 -0.11771382884E-01  0.22690407492E-01  0.00000000000E+00 0. -1.
     999901    1    3    3    0    0  0.73789544213E-01  0.22199554701E-01 -0.99432603088E-01  0.88894575741E+00  0.88000000000E+00 0. -1.
        -11    1    4    4    0    0 -0.32300698432E-01 -0.53024059744E-02  0.68878655229E-01  0.76262578605E-01  0.51100000000E-03 0.  1.
         11    1    4    4    0    0 -0.36663739250E-01  0.18913446697E-02  0.42325330743E-01  0.56031256491E-01  0.51100000000E-03 0. -1.
</event>
<event>
 8    1  0.1180500E+005  0.1043930E+01  0.7957747E-01            NaN
         13   -1    0    0    0    0  0.00000000000E+00  0.00000000000E+00  0.74505805969E-08  0.10566000000E+00  0.10566000000E+00 0.  1.
     999900   -1    0    0    0    0 -0.00000000000E+00 -0.00000000000E+00 -0.74505805969E-08  0.93827000000E+00  0.93827000000E+00 0.  1.
     999902    2    1    2    0    0 -0.19268267477E-01 -0.62513097437E-02 -0.11038997811E-01  0.10208604426E+01  0.10205997447E+01 0.  0.
     999903    2    3    3    0    0 -0.37643927556E-01 -0.50175964320E-01  0.11290258009E+00  0.13090058122E+00  0.21290300521E-01 0.  0.
         14    1    1    2    0    0  0.19268267477E-01  0.62513097437E-02  0.11038997811E-01  0.23069557381E-01  0.00000000000E+00 0. -1.
     999901    1    3    3    0    0  0.18375660079E-01  0.43924654576E-01 -0.12394157790E+00  0.88995986140E+00  0.88000000000E+00 0.  1.
        -11    1    4    4    0    0 -0.39553466513E-01 -0.43236345051E-01  0.95291704948E-01  0.11186879994E+00  0.51100000000E-03 0. -1.
         11    1    4    4    0    0  0.19095389573E-02 -0.69396192684E-02  0.17610875143E-01  0.19031781286E-01  0.51100000000E-03 0.  1.
</event>
<event>
 8    1  0.1180500E+005  0.1043930E+01  0.7957747E-01            NaN
         13   -1    0    0    0    0  0.00000000000E+00  0.00000000000E+00  0.74505805969E-08  0.10566000000E+00  0.10566000000E+00 0.  1.
     999900   -1    0    0    0    0 -0.00000000000E+00 -0.00000000000E+00 -0.74505805969E-08  0.93827000000E+00  0.93827000000E+00 0.  1.
     999902    2    1    2    0    0  0.11831287150E-02 -0.23030761304E-01 -0.38504066332E-02  0.10205496366E+01  0.10202817843E+01 0.  0.
     999903    2    3    3    0    0  0.41506395787E-01 -0.68989676102E-01  0.10259949467E+00  0.13202852310E+00  0.20555250024E-01 0.  0.
         14    1    1    2    0    0 -0.11831287150E-02  0.23030761304E-01  0.38504066332E-02  0.23380363364E-01  0.00000000000E+00 0. -1.
     999901    1    3    3    0    0 -0.40323267072E-01  0.45958914798E-01 -0.10644990131E+00  0.88852111354E+00  0.88000000000E+00 0.  1.
        -11    1    4    4    0    0  0.24296947907E-01 -0.21078538742E-01  0.38515944792E-01  0.50183519180E-01  0.51100000000E-03 0. -1.
         11    1    4    4    0    0  0.17209447881E-01 -0.47911137360E-01  0.64083549882E-01  0.81845003916E-01  0.51100000000E-03 0.  1.
</event>
<event>
 8    1  0.1180500E+005  0.1043930E+01  0.7957747E-01            NaN
         13   -1    0    0    0    0  0.00000000000E+00  0.00000000000E+00  0.74505805969E-08  0.10566000000E+00  0.10566000000E+00 0.  1.
     999900   -1    0    0    0    0 -0.00000000000E+00 -0.00000000000E+00 -0.74505805969E-08  0.93827000000E+00  0.93827000000E+00 0. -1.
     999902    2    1    2    0    0  0.23793572546E-02 -0.12423085107E-01  0.20852821836E-01  0.10195407695E+01  0.10192490109E+01 0.  0.
     999903    2    3    3    0    0  0.65449846746E-01  0.79608012816E-01 -0.72757941951E-01  0.12757071133E+00  0.18959170017E-01 0.  0.
         14    1    1    2    0    0 -0.23793572546E-02  0.12423085107E-01 -0.20852821836E-01  0.24389230473E-01  0.00000000000E+00 0.  1.
     999901    1    3    3    0    0 -0.63070489491E-01 -0.92031097923E-01  0.93610763788E-01  0.89197005820E+00  0.88000000000E+00 0.  1.
        -11    1    4    4    0    0  0.10525723406E-01  0.16651338370E-01 -0.59182335484E-02  0.20575337957E-01  0.51100000000E-03 0.  1.
         11    1    4    4    0    0  0.54924123340E-01  0.62956674446E-01 -0.66839708403E-01  0.10699537337E+00  0.51100000000E-03 0. -1.
</event>
<event>
 8    1  0.1180500E+005  0.1043930E+01  0.7957747E-01            NaN
         13   -1    0    0    0    0  0.00000000000E+00  0.00000000000E+00  0.74505805969E-08  0.10566000000E+00  0.10566000000E+00 0.  1.
     999900   -1    0    0    0    0 -0.00000000000E+00 -0.00000000000E+00 -0.74505805969E-08  0.93827000000E+00  0.93827000000E+00 0. -1.
     999902    2    1    2    0    0  0.17655628418E-02  0.31070575374E-02  0.23060144249E-01  0.10205945919E+01  0.10203277805E+01 0.  0.
     999903    2    3    3    0    0  0.24433283862E-01  0.94588785792E-01 -0.82448328155E-01  0.12929510803E+00  0.19377161507E-01 0.  0.
         14    1    1    2    0    0 -0.17655628418E-02 -0.31070575374E-02 -0.23060144249E-01  0.23335408106E-01  0.00000000000E+00 0. -1.
     999901    1    3    3    0    0 -0.22667721020E-01 -0.91481728255E-01  0.10550847240E+00  0.89129948386E+00  0.88000000000E+00 0.  1.
        -11    1    4    4    0    0  0.69792914002E-02  0.23416307604E-01 -0.32265043148E-01  0.40476265892E-01  0.51100000000E-03 0. -1.
         11    1    4    4    0    0  0.17453992462E-01  0.71172478188E-01 -0.50183285007E-01  0.88818842142E-01  0.51100000000E-03 0.  1.
</event>
<event>
 8    1  0.1180500E+005  0.1043930E+01  0.7957747E-01            NaN
         13   -1    0    0    0    0  0.00000000000E+00  0.00000000000E+00  0.74505805969E-08  0.10566000000E+00  0.10566000000E+00 0. -1.
     999900   -1    0    0    0    0 -0.00000000000E+00 -0.00000000000E+00 -0.74505805969E-08  0.93827000000E+00  0.93827000000E+00 0.  1.
     999902    2    1    2    0    0 -0.16678459905E-01 -0.88936061010E-02 -0.11240058151E-01  0.10219389527E+01  0.10217023132E+01 0.  0.
     999903    2    3    3    0    0  0.11806181025E+00 -0.50889070969E-01  0.90487280943E-02  0.13046254004E+00  0.20256018601E-01 0.  0.
         14    1    1    2    0    0  0.16678459905E-01  0.88936061010E-02  0.11240058151E-01  0.21991047304E-01  0.00000000000E+00 0. -1.
     999901    1    3    3    0    0 -0.13474027016E+00  0.41995464868E-01 -0.20288786246E-01  0.89147641265E+00  0.88000000000E+00 0. -1.
        -11    1    4    4    0    0  0.79057942579E-01 -0.26240756331E-01 -0.69148962053E-03  0.83303510470E-01  0.51100000000E-03 0.  1.
         11    1    4    4    0    0  0.39003867675E-01 -0.24648314638E-01  0.97402177148E-02  0.47159029572E-01  0.51100000000E-03 0. -1.
</event>
<event>
 8    1  0.1180500E+005  0.1043930E+01  0.7957747E-01            NaN
         13   -1    0    0    0    0  0.00000000000E+00  0.00000000000E+00  0.74505805969E-08  0.10566000000E+00  0.10566000000E+00 0.  1.
     999900   -1    0    0    0    0 -0.00000000000E+00 -0.00000000000E+00 -0.74505805969E-08  0.93827000000E+00  0.93827000000E+00 0. -1.
     999902    2    1    2    0    0  0.23180176031E-02 -0.10206363222E-01  0.21953679058E-01  0.10196090814E+01  0.10193189745E+01 0.  0.
     999903    2    3    3    0    0  0.27571365140E-01  0.23502059548E-01  0.12605961604E+00  0.13247209345E+00  0.18582297211E-01 0.  0.
         14    1    1    2    0    0 -0.23180176031E-02  0.10206363222E-01 -0.21953679058E-01  0.24320918568E-01  0.00000000000E+00 0.  1.
     999901    1    3    3    0    0 -0.25253347537E-01 -0.33708422770E-01 -0.10410593698E+00  0.88713698798E+00  0.88000000000E+00 0. -1.
        -11    1    4    4    0    0  0.13808942061E-01  0.28220135957E-02  0.65737377917E-01  0.67233285045E-01  0.51100000000E-03 0. -1.
         11    1    4    4    0    0  0.13762423078E-01  0.20680045952E-01  0.60322238119E-01  0.65238808407E-01  0.51100000000E-03 0.  1.
</event>
<event>
 8    1  0.1180500E+005  0.1043930E+01  0.7957747E-01            NaN
         13   -1    0    0    0    0  0.00000000000E+00  0.00000000000E+00  0.74505805969E-08  0.10566000000E+00  0.10566000000E+00 0. -1.
     999900   -1    0    0    0    0 -0.00000000000E+00 -0.00000000000E+00 -0.74505805969E-08  0.93827000000E+00  0.93827000000E+00 0. -1.
     999902    2    1    2    0    0  0.60179686090E-02  0.17431254503E-01 -0.15683182695E-01  0.10197220096E+01  0.10194346228E+01 0.  0.
     999903    2    3    3    0    0  0.83621168963E-01  0.10016806094E+00 -0.10631158654E-01  0.13242659161E+00  0.19940920221E-01 0.  0.
         14    1    1    2    0    0 -0.60179686090E-02 -0.17431254503E-01  0.15683182695E-01  0.24207990399E-01  0.00000000000E+00 0. -1.
     999901    1    3    3    0    0 -0.77603200354E-01 -0.82736806438E-01 -0.50520240408E-02  0.88729541799E+00  0.88000000000E+00 0.  1.
        -11    1    4    4    0    0  0.32563967632E-01  0.28884450748E-01 -0.10338640499E-01  0.44742285272E-01  0.51100000000E-03 0. -1.
         11    1    4    4    0    0  0.51057201330E-01  0.71283610192E-01 -0.29251815465E-03  0.87684306336E-01  0.51100000000E-03 0.  1.
</event>
<event>
 8    1  0.1180500E+005  0.1043930E+01  0.7957747E-01            NaN
         13   -1    0    0    0    0  0.00000000000E+00  0.00000000000E+00  0.74505805969E-08  0.10566000000E+00  0.10566000000E+00 0.  1.
     999900   -1    0    0    0    0 -0.00000000000E+00 -0.00000000000E+00 -0.74505805969E-08  0.93827000000E+00  0.93827000000E+00 0. -1.
     999902    2    1    2    0    0 -0.47403764864E-02  0.95278263239E-02  0.20737321408E-01  0.10206214792E+01  0.10203552894E+01 0.  0.
     999903    2    3    3    0    0 -0.12159124147E+00  0.75370268045E-02 -0.42887403927E-01  0.13061799963E+00  0.19506297347E-01 0.  0.
         14    1    1    2    0    0  0.47403764864E-02 -0.95278263239E-02 -0.20737321408E-01  0.23308520821E-01  0.00000000000E+00 0. -1.
     999901    1    3    3    0    0  0.11685086499E+00  0.19907995194E-02  0.63624725335E-01  0.89000347955E+00  0.88000000000E+00 0.  1.
        -11    1    4    4    0    0 -0.34492797365E-01  0.10166501763E-01 -0.86155456443E-02  0.36981070508E-01  0.51100000000E-03 0.  1.
         11    1    4    4    0    0 -0.87098444108E-01 -0.26294749584E-02 -0.34271858283E-01  0.93636929124E-01  0.51100000000E-03 0. -1.
</event>
<event>
 8    1  0.1293617E+005  0.1043930E+01  0.7957747E-01            NaN
         13   -1    0    0    0    0  0.00000000000E+00  0.00000000000E+00  0.74505805969E-08  0.10566000000E+00  0.10566000000E+00 0.  1.
     999900   -1    0    0    0    0 -0.00000000000E+00 -0.00000000000E+00 -0.74505805969E-08  0.93827000000E+00  0.93827000000E+00 0. -1.
     999902    2    1    2    0    0  0.21598017675E-01  0.12770322546E-02  0.12642712247E-01  0.10188712021E+01  0.10185629991E+01 0.  0.
     999903    2    3    3    0    0  0.80796793945E-01 -0.49098966312E-01 -0.86608876040E-01  0.12988688609E+00  0.20752719461E-01 0.  0.
         14    1    1    2    0    0 -0.21598017675E-01 -0.12770322546E-02 -0.12642712247E-01  0.25058797893E-01  0.00000000000E+00 0. -1.
     999901    1    3    3    0    0 -0.59198776270E-01  0.50375998567E-01  0.99251588287E-01  0.88898431602E+00  0.88000000000E+00 0.  1.
        -11    1    4    4    0    0  0.46779786797E-01 -0.40020867894E-01 -0.56354374645E-01  0.83463135470E-01  0.51100000000E-03 0. -1.
         11    1    4    4    0    0  0.34017007147E-01 -0.90780984179E-02 -0.30254501395E-01  0.46423750622E-01  0.51100000000E-03 0.  1.
</event>
<event>
 8    1  0.1180500E+005  0.1043930E+01  0.7957747E-01            NaN
         13   -1    0    0    0    0  0.00000000000E+00  0.00000000000E+00  0.74505805969E-08  0.10566000000E+00  0.10566000000E+00 0. -1.
     999900   -1    0    0    0    0 -0.00000000000E+00 -0.00000000000E+00 -0.74505805969E-08  0.93827000000E+00  0.93827000000E+00 0. -1.
     999902    2    1    2    0    0 -0.10626775300E-01  0.18036563261E-01 -0.21316370995E-02  0.10228874278E+01  0.10226709638E+01 0.  0.
     999903    2    3    3    0    0 -0.65604056493E-01  0.65120351426E-01  0.95700222927E-01  0.13451224953E+00  0.19760065959E-01 0.  0.
         14    1    1    2    0    0  0.10626775300E-01 -0.18036563261E-01  0.21316370995E-02  0.21042572187E-01  0.00000000000E+00 0.  1.
     999901    1    3    3    0    0  0.54977281193E-01 -0.47083788165E-01 -0.97831860026E-01  0.88837517828E+00  0.88000000000E+00 0. -1.
        -11    1    4    4    0    0 -0.33160964128E-01  0.35745025821E-01  0.36596721383E-01  0.60966692135E-01  0.51100000000E-03 0.  1.
         11    1    4    4    0    0 -0.32443092365E-01  0.29375325604E-01  0.59103501543E-01  0.73545557393E-01  0.51100000000E-03 0. -1.
</event>
<event>
 7    1  0.1180500E+005  0.1043930E+01  0.7957747E-01            NaN
         13   -1    0    0    0    0  0.00000000000E+00  0.00000000000E+00  0.74505805969E-08  0.10566000000E+00  0.10566000000E+00 0. -1.
     999900   -1    0    0    0    0 -0.00000000000E+00 -0.00000000000E+00 -0.74505805969E-08  0.93827000000E+00  0.93827000000E+00 0. -1.
     999903    2    1    2    0    0 -0.32190106049E-01 -0.45962650329E-02 -0.60373159145E-01  0.71604506409E-01  0.20614519476E-01 0.  0.
         14    1    1    2    0    0  0.36714811400E-01  0.49037810155E-01 -0.56671481843E-01  0.83452627611E-01  0.00000000000E+00 0.  1.
     999901    1    1    2    0    0 -0.45247053512E-02 -0.44441545122E-01  0.11704464099E+00  0.88887286598E+00  0.88000000000E+00 0.  1.
        -11    1    3    3    0    0 -0.23799275610E-01  0.10736142236E-02 -0.23905439246E-01  0.33753360034E-01  0.51100000000E-03 0.  1.
         11    1    3    3    0    0 -0.83908304388E-02 -0.56698792565E-02 -0.36467719899E-01  0.37851146375E-01  0.51100000000E-03 0. -1.
</event>
<event>
 8    1  0.1180500E+005  0.1043930E+01  0.7957747E-01            NaN
         13   -1    0    0    0    0  0.00000000000E+00  0.00000000000E+00  0.74505805969E-08  0.10566000000E+00  0.10566000000E+00 0. -1.
     999900   -1    0    0    0    0 -0.00000000000E+00 -0.00000000000E+00 -0.74505805969E-08  0.93827000000E+00  0.93827000000E+00 0. -1.
     999902    2    1    2    0    0  0.14378770319E-01 -0.13153445677E-01 -0.19307519155E-01  0.10164974925E+01  0.10161272607E+01 0.  0.
     999903    2    3    3    0    0 -0.17994464463E-01  0.11761297479E+00  0.32032840748E-01  0.12476675090E+00  0.19596597978E-01 0.  0.
         14    1    1    2    0    0 -0.14378770319E-01  0.13153445677E-01  0.19307519155E-01  0.27432507450E-01  0.00000000000E+00 0.  1.
     999901    1    3    3    0    0  0.32373234782E-01 -0.13076642047E+00 -0.51340359903E-01  0.89173074165E+00  0.88000000000E+00 0. -1.
        -11    1    4    4    0    0 -0.93870190777E-02  0.86446456202E-01  0.31310455341E-01  0.92421380923E-01  0.51100000000E-03 0.  1.
         11    1    4    4    0    0 -0.86074453855E-02  0.31166518591E-01  0.72238540677E-03  0.32345369975E-01  0.51100000000E-03 0. -1.
</event>
<event>
 8    1  0.1180500E+005  0.1043930E+01  0.7957747E-01            NaN
         13   -1    0    0    0    0  0.00000000000E+00  0.00000000000E+00  0.74505805969E-08  0.10566000000E+00  0.10566000000E+00 0. -1.
     999900   -1    0    0    0    0 -0.00000000000E+00 -0.00000000000E+00 -0.74505805969E-08  0.93827000000E+00  0.93827000000E+00 0.  1.
     999902    2    1    2    0    0  0.16349692972E-01  0.18553904397E-01  0.65878426875E-03  0.10191914910E+01  0.10188912119E+01 0.  0.
     999903    2    3    3    0    0  0.38368622207E-01  0.72902875596E-02 -0.12262701907E+00  0.13025330893E+00  0.20080817196E-01 0.  0.
         14    1    1    2    0    0 -0.16349692972E-01 -0.18553904397E-01 -0.65878426875E-03  0.24738508956E-01  0.00000000000E+00 0.  1.
     999901    1    3    3    0    0 -0.22018929236E-01  0.11263616838E-01  0.12328580334E+00  0.88893818211E+00  0.88000000000E+00 0. -1.
        -11    1    4    4    0    0  0.33493302199E-01  0.94760406135E-02 -0.79423122692E-01  0.86717300333E-01  0.51100000000E-03 0. -1.
         11    1    4    4    0    0  0.48753200087E-02 -0.21857530539E-02 -0.43203896379E-01  0.43536008601E-01  0.51100000000E-03 0.  1.
</event>
<event>
 8    1  0.1180500E+005  0.1043930E+01  0.7957747E-01            NaN
         13   -1    0    0    0    0  0.00000000000E+00  0.00000000000E+00  0.74505805969E-08  0.10566000000E+00  0.10566000000E+00 0.  1.
     999900   -1    0    0    0    0 -0.00000000000E+00 -0.00000000000E+00 -0.74505805969E-08  0.93827000000E+00  0.93827000000E+00 0.  1.
     999902    2    1    2    0    0  0.31118028911E-03  0.10890376162E-01 -0.20646032638E-01  0.10205857118E+01  0.10203186950E+01 0.  0.
     999903    2    3    3    0    0 -0.95597336434E-02 -0.80503257971E-01  0.96972212346E-01  0.12801398763E+00  0.20293053257E-01 0.  0.
         14    1    1    2    0    0 -0.31118028911E-03 -0.10890376162E-01  0.20646032638E-01  0.23344288162E-01  0.00000000000E+00 0.  1.
     999901    1    3    3    0    0  0.98709139325E-02  0.91393634132E-01 -0.11761824498E+00  0.89257172421E+00  0.88000000000E+00 0.  1.
        -11    1    4    4    0    0 -0.10530955400E-01 -0.69419769110E-01  0.71495658691E-01  0.10020925954E+00  0.51100000000E-03 0. -1.
         11    1    4    4    0    0  0.97122175708E-03 -0.11083488861E-01  0.25476553655E-01  0.27804728090E-01  0.51100000000E-03 0.  1.
</event>
<event>
 8    1  0.1180500E+005  0.1043930E+01  0.7957747E-01            NaN
         13   -1    0    0    0    0  0.00000000000E+00  0.00000000000E+00  0.74505805969E-08  0.10566000000E+00  0.10566000000E+00 0. -1.
     999900   -1    0    0    0    0 -0.00000000000E+00 -0.00000000000E+00 -0.74505805969E-08  0.93827000000E+00  0.93827000000E+00 0. -1.
     999902    2    1    2    0    0  0.14199208410E-01  0.17444126145E-01 -0.72951316668E-02  0.10202839855E+01  0.10200099397E+01 0.  0.
     999903    2    3    3    0    0 -0.12294413699E+00  0.56618857946E-02 -0.33716390376E-01  0.12919184587E+00  0.20159868234E-01 0.  0.
         14    1    1    2    0    0 -0.14199208410E-01 -0.17444126145E-01  0.72951316668E-02  0.23646014516E-01  0.00000000000E+00 0. -1.
     999901    1    3    3    0    0  0.13714334540E+00  0.11782240351E-01  0.26421258710E-01  0.89109213962E+00  0.88000000000E+00 0.  1.
        -11    1    4    4    0    0 -0.62114185820E-01 -0.37987239061E-02 -0.24774958790E-01  0.66982550619E-01  0.51100000000E-03 0. -1.
         11    1    4    4    0    0 -0.60829951172E-01  0.94606097007E-02 -0.89414315861E-02  0.62209295248E-01  0.51100000000E-03 0.  1.
</event>
<event>
 8    1  0.1180500E+005  0.1043930E+01  0.7957747E-01            NaN
         13   -1    0    0    0    0  0.00000000000E+00  0.00000000000E+00  0.74505805969E-08  0.10566000000E+00  0.10566000000E+00 0.  1.
     999900   -1    0    0    0    0 -0.00000000000E+00 -0.00000000000E+00 -0.74505805969E-08  0.93827000000E+00  0.93827000000E+00 0. -1.
     999902    2    1    2    0    0 -0.12475602795E-01  0.18919060990E-01 -0.68665883280E-02  0.10202504398E+01  0.10199756068E+01 0.  0.
     999903    2    3    3    0    0  0.85461335635E-01 -0.87765215273E-01 -0.31587041886E-01  0.12807092902E+00  0.19951158989E-01 0.  0.
         14    1    1    2    0    0  0.12475602795E-01 -0.18919060990E-01  0.68665883280E-02  0.23679560154E-01  0.00000000000E+00 0. -1.
     999901    1    3    3    0    0 -0.97936938430E-01  0.10668427626E+00  0.24720453558E-01  0.89217951082E+00  0.88000000000E+00 0. -1.
        -11    1    4    4    0    0  0.58350525398E-01 -0.49204462938E-01 -0.25827461403E-01  0.80580282146E-01  0.51100000000E-03 0. -1.
         11    1    4    4    0    0  0.27110810237E-01 -0.38560752335E-01 -0.57595804838E-02  0.47490646876E-01  0.51100000000E-03 0.  1.
</event>
<event>
 8    1  0.1180500E+005  0.1043930E+01  0.7957747E-01            NaN
         13   -1    0    0    0    0  0.00000000000E+00  0.00000000000E+00  0.74505805969E-08  0.10566000000E+00  0.10566000000E+00 0.  1.
     999900   -1    0    0    0    0 -0.00000000000E+00 -0.00000000000E+00 -0.74505805969E-08  0.93827000000E+00  0.93827000000E+00 0. -1.
     999902    2    1    2    0    0  0.19384561406E-01 -0.13666169486E-01 -0.80467509501E-02  0.10188845291E+01  0.10185766580E+01 0.  0.
     999903    2    3    3    0    0 -0.79612934360E-01 -0.49860155092E-01  0.84249912357E-01  0.12780137769E+00  0.20270422369E-01 0.  0.
         14    1    1    2    0    0 -0.19384561406E-01  0.13666169486E-01  0.80467509501E-02  0.25045470851E-01  0.00000000000E+00 0. -1.
     999901    1    3    3    0    0  0.98997495766E-01  0.36193985607E-01 -0.92296663308E-01  0.89108315146E+00  0.88000000000E+00 0. -1.
        -11    1    4    4    0    0 -0.28921707223E-01 -0.28948695087E-01  0.41348927468E-01  0.58176344158E-01  0.51100000000E-03 0. -1.
         11    1    4    4    0    0 -0.50691227138E-01 -0.20911460006E-01  0.42900984890E-01  0.69625033528E-01  0.51100000000E-03 0.  1.
</event>
<event>
 8    1  0.1180500E+005  0.1043930E+01  0.7957747E-01            NaN
         13   -1    0    0    0    0  0.00000000000E+00  0.00000000000E+00  0.74505805969E-08  0.10566000000E+00  0.10566000000E+00 0. -1.
     999900   -1    0    0    0    0 -0.00000000000E+00 -0.00000000000E+00 -0.74505805969E-08  0.93827000000E+00  0.93827000000E+00 0.  1.
     999902    2    1    2    0    0  0.20666902511E-01 -0.10358646616E-01 -0.41182743873E-02  0.10204484625E+01  0.10201782599E+01 0.  0.
     999903    2    3    3    0    0  0.12865084880E-01 -0.15854703875E-01 -0.12852345815E+00  0.13164717721E+00  0.19895173454E-01 0.  0.
         14    1    1    2    0    0 -0.20666902511E-01  0.10358646616E-01  0.41182743873E-02  0.23481537493E-01  0.00000000000E+00 0.  1.
     999901    1    3    3    0    0  0.78018176305E-02  0.54960572594E-02  0.12440518377E+00  0.88880128530E+00  0.88000000000E+00 0. -1.
        -11    1    4    4    0    0 -0.27587049371E-02 -0.83896834028E-02 -0.71648505205E-01  0.72192566512E-01  0.51100000000E-03 0. -1.
         11    1    4    4    0    0  0.15623789817E-01 -0.74650204726E-02 -0.56874952949E-01  0.59454610694E-01  0.51100000000E-03 0.  1.
</event>
<event>
 8    1  0.1180500E+005  0.1043930E+01  0.7957747E-01            NaN
         13   -1    0    0    0    0  0.00000000000E+00  0.00000000000E+00  0.74505805969E-08  0.10566000000E+00  0.10566000000E+00 0. -1.
     999900   -1    0    0    0    0 -0.00000000000E+00 -0.00000000000E+00 -0.74505805969E-08  0.93827000000E+00  0.93827000000E+00 0. -1.
     999902    2    1    2    0    0  0.18290186228E-01 -0.73927834035E-02 -0.11950255994E-01  0.10208650314E+01  0.10206044383E+01 0.  0.
     999903    2    3    3    0    0  0.91952474727E-01  0.90428093312E-01 -0.21061428682E-01  0.13233924666E+00  0.20918765713E-01 0.  0.
         14    1    1    2    0    0 -0.18290186228E-01  0.73927834035E-02  0.11950255994E-01  0.23064968611E-01  0.00000000000E+00 0. -1.
     999901    1    3    3    0    0 -0.73662288499E-01 -0.97820876715E-01  0.91111726889E-02  0.88852578473E+00  0.88000000000E+00 0. -1.
        -11    1    4    4    0    0  0.33490837747E-01  0.47347527732E-01 -0.78690456571E-02  0.58528690365E-01  0.51100000000E-03 0. -1.
         11    1    4    4    0    0  0.58461636980E-01  0.43080565580E-01 -0.13192383025E-01  0.73810556291E-01  0.51100000000E-03 0.  1.
</event>
<event>
 8    1  0.1180500E+005  0.1043930E+01  0.7957747E-01            NaN
         13   -1    0    0    0    0  0.00000000000E+00  0.00000000000E+00  0.74505805969E-08  0.10566000000E+00  0.10566000000E+00 0. -1.
     999900   -1    0    0    0    0 -0.00000000000E+00 -0.00000000000E+00 -0.74505805969E-08  0.93827000000E+00  0.93827000000E+00 0. -1.
     999902    2    1    2    0    0 -0.77242987143E-02  0.21950073342E-01  0.49778171074E-02  0.10201340093E+01  0.10198564349E+01 0.  0.
     999903    2    3    3    0    0  0.13560821431E-01  0.11907962648E+00  0.54531948277E-01  0.13314876796E+00  0.19773914763E-01 0.  0.
         14    1    1    2    0    0  0.77242987143E-02 -0.21950073342E-01 -0.49778171074E-02  0.23795990703E-01  0.00000000000E+00 0.  1.
     999901    1    3    3    0    0 -0.21285120146E-01 -0.97129553142E-01 -0.49554131169E-01  0.88698524134E+00  0.88000000000E+00 0.  1.
        -11    1    4    4    0    0  0.15020392152E-01  0.80213139081E-01  0.28943580236E-01  0.86589559529E-01  0.51100000000E-03 0.  1.
         11    1    4    4    0    0 -0.14595707209E-02  0.38866487404E-01  0.25588368041E-01  0.46559208431E-01  0.51100000000E-03 0. -1.
</event>
<event>
 8    1  0.1180500E+005  0.1043930E+01  0.7957747E-01            NaN
         13   -1    0    0    0    0  0.00000000000E+00  0.00000000000E+00  0.74505805969E-08  0.10566000000E+00  0.10566000000E+00 0. -1.
     999900   -1    0    0    0    0 -0.00000000000E+00 -0.00000000000E+00 -0.74505805969E-08  0.93827000000E+00  0.93827000000E+00 0.  1.
     999902    2    1    2    0    0 -0.96089077411E-02  0.16507686716E-01  0.10592888546E-01  0.10220886604E+01  0.10218552664E+01 0.  0.
     999903    2    3    3    0    0  0.80159215794E-01  0.77234661658E-01  0.70498078037E-01  0.13341846665E+00  0.20971776247E-01 0.  0.
         14    1    1    2    0    0  0.96089077411E-02 -0.16507686716E-01 -0.10592888546E-01  0.21841339621E-01  0.00000000000E+00 0.  1.
     999901    1    3    3    0    0 -0.89768123535E-01 -0.60726974942E-01 -0.59905189491E-01  0.88867019373E+00  0.88000000000E+00 0.  1.
        -11    1    4    4    0    0  0.37093587614E-01  0.27728696360E-01  0.19237068009E-01  0.50151178954E-01  0.51100000000E-03 0. -1.
         11    1    4    4    0    0  0.43065628180E-01  0.49505965298E-01  0.51261010028E-01  0.83267287699E-01  0.51100000000E-03 0.  1.
</event>
<event>
 8    1  0.1180500E+005  0.1043930E+01  0.7957747E-01            NaN
         13   -1    0    0    0    0  0.00000000000E+00  0.00000000000E+00  0.74505805969E-08  0.10566000000E+00  0.10566000000E+00 0.  1.
     999900   -1    0    0    0    0 -0.00000000000E+00 -0.00000000000E+00 -0.74505805969E-08  0.93827000000E+00  0.93827000000E+00 0. -1.
     999902    2    1    2    0    0  0.47917447801E-02  0.78626447644E-02  0.22083251034E-01  0.10200040313E+01  0.10197233801E+01 0.  0.
     999903    2    3    3    0    0  0.12865500037E-01 -0.11708194826E+00 -0.47329900346E-01  0.12843545716E+00  0.19540816041E-01 0.  0.
         14    1    1    2    0    0 -0.47917447801E-02 -0.78626447644E-02 -0.22083251034E-01  0.23925968674E-01  0.00000000000E+00 0. -1.
     999901    1    3    3    0    0 -0.80737552573E-02  0.12494459302E+00  0.69413151380E-01  0.89156857416E+00  0.88000000000E+00 0.  1.
        -11    1    4    4    0    0  0.64454996580E-03 -0.61036345613E-01 -0.16139513383E-01  0.63139495910E-01  0.51100000000E-03 0.  1.
         11    1    4    4    0    0  0.12220950072E-01 -0.56045602643E-01 -0.31190386963E-01  0.65295961255E-01  0.51100000000E-03 0. -1.
</event>
<event>
 8    1  0.1180500E+005  0.1043930E+01  0.7957747E-01            NaN
         13   -1    0    0    0    0  0.00000000000E+00  0.00000000000E+00  0.74505805969E-08  0.10566000000E+00  0.10566000000E+00 0.  1.
     999900   -1    0    0    0    0 -0.00000000000E+00 -0.00000000000E+00 -0.74505805969E-08  0.93827000000E+00  0.93827000000E+00 0.  1.
     999902    2    1    2    0    0 -0.25910647331E-02 -0.21821306955E-01  0.74544683281E-02  0.10207254282E+01  0.10204616346E+01 0.  0.
     999903    2    3    3    0    0  0.29114019171E-02 -0.12280011090E+00 -0.47218942692E-01  0.13324800436E+00  0.20905946951E-01 0.  0.
         14    1    1    2    0    0  0.25910647331E-02  0.21821306955E-01 -0.74544683281E-02  0.23204571785E-01  0.00000000000E+00 0.  1.
     999901    1    3    3    0    0 -0.55024666501E-02  0.10097880395E+00  0.54673411020E-01  0.88747742386E+00  0.88000000000E+00 0. -1.
        -11    1    4    4    0    0  0.69608796471E-02 -0.90134854807E-01 -0.42831262166E-01  0.10003761311E+00  0.51100000000E-03 0. -1.
         11    1    4    4    0    0 -0.40494777300E-02 -0.32665256094E-01 -0.43876805257E-02  0.33210391250E-01  0.51100000000E-03 0.  1.
</event>
<event>
 8    1  0.1263822E+005  0.1043930E+01  0.7957747E-01            NaN
         13   -1    0    0    0    0  0.00000000000E+00  0.00000000000E+00  0.74505805969E-08  0.10566000000E+00  0.10566000000E+00 0.  1.
     999900   -1    0    0    0    0 -0.00000000000E+00 -0.00000000000E+00 -0.74505805969E-08  0.93827000000E+00  0.93827000000E+00 0. -1.
     999902    2    1    2    0    0 -0.19474965684E-01  0.10083734413E-01  0.97354922163E-02  0.10199355049E+01  0.10196532245E+01 0.  0.
     999903    2    3    3    0    0 -0.52952097829E-01 -0.15696177257E-02  0.11963728311E+00  0.13239118336E+00  0.20197959268E-01 0.  0.
         14    1    1    2    0    0  0.19474965684E-01 -0.10083734413E-01 -0.97354922163E-02  0.23994495135E-01  0.00000000000E+00 0. -1.
     999901    1    3    3    0    0  0.33477132145E-01  0.11653352139E-01 -0.10990179089E+00  0.88754432150E+00  0.88000000000E+00 0. -1.
        -11    1    4    4    0    0 -0.39771117114E-01 -0.56255627709E-02  0.68356712792E-01  0.79286127524E-01  0.51100000000E-03 0.  1.
         11    1    4    4    0    0 -0.13180980715E-01  0.40559450451E-02  0.51280570313E-01  0.53105055837E-01  0.51100000000E-03 0. -1.
</event>
<event>
 8    1  0.1180500E+005  0.1043930E+01  0.7957747E-01            NaN
         13   -1    0    0    0    0  0.00000000000E+00  0.00000000000E+00  0.74505805969E-08  0.10566000000E+00  0.10566000000E+00 0.  1.
     999900   -1    0    0    0    0 -0.00000000000E+00 -0.00000000000E+00 -0.74505805969E-08  0.93827000000E+00  0.93827000000E+00 0. -1.
     999902    2    1    2    0    0  0.66848374155E-03  0.14494738303E-01  0.24789390626E-01  0.10152061737E+01  0.10147997423E+01 0.  0.
     999903    2    3    3    0    0  0.81748050068E-01 -0.79585229453E-01 -0.43235382580E-01  0.12388563307E+00  0.21489516892E-01 0.  0.
         14    1    1    2    0    0 -0.66848374155E-03 -0.14494738303E-01 -0.24789390626E-01  0.28723826287E-01  0.00000000000E+00 0. -1.
     999901    1    3    3    0    0 -0.81079566327E-01  0.94079967756E-01  0.68024773206E-01  0.89132054065E+00  0.88000000000E+00 0.  1.
        -11    1    4    4    0    0  0.19513060509E-01 -0.11965912591E-01 -0.16344954973E-01  0.28131144105E-01  0.51100000000E-03 0.  1.
         11    1    4    4    0    0  0.62234989560E-01 -0.67619316862E-01 -0.26890427607E-01  0.95754488962E-01  0.51100000000E-03 0. -1.
</event>
<event>
 8    1  0.1180500E+005  0.1043930E+01  0.7957747E-01            NaN
         13   -1    0    0    0    0  0.00000000000E+00  0.00000000000E+00  0.74505805969E-08  0.10566000000E+00  0.10566000000E+00 0. -1.
     999900   -1    0    0    0    0 -0.00000000000E+00 -0.00000000000E+00 -0.74505805969E-08  0.93827000000E+00  0.93827000000E+00 0.  1.
     999902    2    1    2    0    0 -0.77046616831E-02 -0.21533115589E-01  0.49500846786E-02  0.10205304227E+01  0.10202621249E+01 0.  0.
     999903    2    3    3    0    0 -0.10097253205E+00 -0.14106572027E-02 -0.81421749771E-01  0.13116890862E+00  0.19450940112E-01 0.  0.
         14    1    1    2    0    0  0.77046616831E-02  0.21533115589E-01 -0.49500846786E-02  0.23399577281E-01  0.00000000000E+00 0. -1.
     999901    1    3    3    0    0  0.93267870363E-01 -0.20122458386E-01  0.86371834450E-01  0.88936151410E+00  0.88000000000E+00 0. -1.
        -11    1    4    4    0    0 -0.82861293058E-01  0.60760058698E-02 -0.68581260132E-01  0.10773375561E+00  0.51100000000E-03 0. -1.
         11    1    4    4    0    0 -0.18111238988E-01 -0.74866630725E-02 -0.12840489639E-01  0.23435153015E-01  0.51100000000E-03 0.  1.
</event>
<event>
 8    1  0.1180500E+005  0.1043930E+01  0.7957747E-01            NaN
         13   -1    0    0    0    0  0.00000000000E+00  0.00000000000E+00  0.74505805969E-08  0.10566000000E+00  0.10566000000E+00 0. -1.
     999900   -1    0    0    0    0 -0.00000000000E+00 -0.00000000000E+00 -0.74505805969E-08  0.93827000000E+00  0.93827000000E+00 0. -1.
     999902    2    1    2    0    0  0.18097629783E-01 -0.41800421573E-03  0.17501855072E-01  0.10187503681E+01  0.10184391482E+01 0.  0.
     999903    2    3    3    0    0  0.10065350644E+00 -0.26404273435E-01 -0.74999041046E-01  0.12967940652E+00  0.19067729329E-01 0.  0.
         14    1    1    2    0    0 -0.18097629783E-01  0.41800421573E-03 -0.17501855072E-01  0.25179631893E-01  0.00000000000E+00 0. -1.
     999901    1    3    3    0    0 -0.82555876662E-01  0.25986269219E-01  0.92500896118E-01  0.88907096159E+00  0.88000000000E+00 0.  1.
        -11    1    4    4    0    0  0.56392561596E-01 -0.21998733177E-01 -0.35401732207E-01  0.70125665979E-01  0.51100000000E-03 0.  1.
         11    1    4    4    0    0  0.44260944848E-01 -0.44055402579E-02 -0.39597308839E-01  0.59553740538E-01  0.51100000000E-03 0. -1.
</event>
<event>
 8    1  0.1180500E+005  0.1043930E+01  0.7957747E-01            NaN
         13   -1    0    0    0    0  0.00000000000E+00  0.00000000000E+00  0.74505805969E-08  0.10566000000E+00  0.10566000000E+00 0. -1.
     999900   -1    0    0    0    0 -0.00000000000E+00 -0.00000000000E+00 -0.74505805969E-08  0.93827000000E+00  0.93827000000E+00 0. -1.
     999902    2    1    2    0    0 -0.10141218867E-01 -0.25335984572E-02 -0.15126009618E-01  0.10255436026E+01  0.10253787697E+01 0.  0.
     999903    2    3    3    0    0  0.28348544081E-01  0.12957768602E+00  0.92862375257E-02  0.13451565068E+00  0.20352135136E-01 0.  0.
         14    1    1    2    0    0  0.10141218867E-01  0.25335984572E-02  0.15126009618E-01  0.18386397369E-01  0.00000000000E+00 0. -1.
     999901    1    3    3    0    0 -0.38489762948E-01 -0.13211128448E+00 -0.24412247144E-01  0.89102795195E+00  0.88000000000E+00 0.  1.
        -11    1    4    4    0    0  0.98028989560E-02  0.89405354668E-01  0.66183829677E-02  0.90185799244E-01  0.51100000000E-03 0. -1.
         11    1    4    4    0    0  0.18545645125E-01  0.40172331357E-01  0.26678545580E-02  0.44329851440E-01  0.51100000000E-03 0.  1.
</event>
<event>
 8    1  0.1180500E+005  0.1043930E+01  0.7957747E-01            NaN
         13   -1    0    0    0    0  0.00000000000E+00  0.00000000000E+00  0.74505805969E-08  0.10566000000E+00  0.10566000000E+00 0. -1.
     999900   -1    0    0    0    0 -0.00000000000E+00 -0.00000000000E+00 -0.74505805969E-08  0.93827000000E+00  0.93827000000E+00 0.  1.
     999902    2    1    2    0    0  0.15744210588E-01 -0.10180312625E-01  0.15242752132E-01  0.10197667961E+01  0.10194804843E+01 0.  0.
     999903    2    3    3    0    0 -0.26387765585E-01  0.12376016619E+00  0.11835199376E-01  0.12862889051E+00  0.19809760819E-01 0.  0.
         14    1    1    2    0    0 -0.15744210588E-01  0.10180312625E-01 -0.15242752132E-01  0.24163203942E-01  0.00000000000E+00 0. -1.
     999901    1    3    3    0    0  0.42131976173E-01 -0.13394047881E+00  0.34075527561E-02  0.89113790554E+00  0.88000000000E+00 0.  1.
        -11    1    4    4    0    0 -0.26830067038E-01  0.10662860553E+00  0.15658517601E-01  0.11106287548E+00  0.51100000000E-03 0.  1.
         11    1    4    4    0    0  0.44230145254E-03  0.17131560654E-01 -0.38233182248E-02  0.17566015036E-01  0.51100000000E-03 0. -1.
</event>
<event>
 8    1  0.1180500E+005  0.1043930E+01  0.7957747E-01            NaN
         13   -1    0    0    0    0  0.00000000000E+00  0.00000000000E+00  0.74505805969E-08  0.10566000000E+00  0.10566000000E+00 0. -1.
     999900   -1    0    0    0    0 -0.00000000000E+00 -0.00000000000E+00 -0.74505805969E-08  0.93827000000E+00  0.93827000000E+00 0. -1.
     999902    2    1    2    0    0 -0.45460868926E-03 -0.21198606916E-01 -0.99503423093E-02  0.10205078541E+01  0.10202390325E+01 0.  0.
     999903    2    3    3    0    0  0.63757270966E-01  0.10971553731E+00 -0.35171121446E-02  0.12848595694E+00  0.19843949355E-01 0.  0.
         14    1    1    2    0    0  0.45460868926E-03  0.21198606916E-01  0.99503423093E-02  0.23422145852E-01  0.00000000000E+00 0.  1.
     999901    1    3    3    0    0 -0.64211879656E-01 -0.13091414422E+00 -0.64332301647E-02  0.89202189721E+00  0.88000000000E+00 0. -1.
        -11    1    4    4    0    0  0.35793475888E-01  0.42383765368E-01  0.25900092386E-03  0.55478686767E-01  0.51100000000E-03 0.  1.
         11    1    4    4    0    0  0.27963795079E-01  0.67331771937E-01 -0.37761130685E-02  0.73007270174E-01  0.51100000000E-03 0. -1.
</event>
<event>
 8    1  0.1180500E+005  0.1043930E+01  0.7957747E-01            NaN
         13   -1    0    0    0    0  0.00000000000E+00  0.00000000000E+00  0.74505805969E-08  0.10566000000E+00  0.10566000000E+00 0.  1.
     999900   -1    0    0    0    0 -0.00000000000E+00 -0.00000000000E+00 -0.74505805969E-08  0.93827000000E+00  0.93827000000E+00 0. -1.
     999902    2    1    2    0    0 -0.17008644981E-01 -0.13385039948E-01 -0.10521683013E-01  0.10198642752E+01  0.10195802963E+01 0.  0.
     999903    2    3    3    0    0  0.11757844438E+00  0.17292488002E-01 -0.44355966488E-01  0.12846113736E+00  0.20275387181E-01 0.  0.
         14    1    1    2    0    0  0.17008644981E-01  0.13385039948E-01  0.10521683013E-01  0.24065724837E-01  0.00000000000E+00 0.  1.
     999901    1    3    3    0    0 -0.13458708936E+00 -0.30677527949E-01  0.33834283475E-01  0.89140313780E+00  0.88000000000E+00 0.  1.
        -11    1    4    4    0    0  0.47286797288E-01  0.42975895280E-02 -0.76277043741E-02  0.48093174865E-01  0.51100000000E-03 0.  1.
         11    1    4    4    0    0  0.70291647091E-01  0.12994898474E-01 -0.36728262114E-01  0.80367962498E-01  0.51100000000E-03 0. -1.
</event>
<event>
 8    1  0.1180500E+005  0.1043930E+01  0.7957747E-01            NaN
         13   -1    0    0    0    0  0.00000000000E+00  0.00000000000E+00  0.74505805969E-08  0.10566000000E+00  0.10566000000E+00 0.  1.
     999900   -1    0    0    0    0 -0.00000000000E+00 -0.00000000000E+00 -0.74505805969E-08  0.93827000000E+00  0.93827000000E+00 0.  1.
     999902    2    1    2    0    0  0.12773066331E-02  0.18973432868E-01  0.13906351621E-01  0.10203713650E+01  0.10200993644E+01 0.  0.
     999903    2    3    3    0    0 -0.63016140653E-01  0.98736686857E-01  0.60214034149E-01  0.13321848895E+00  0.20036680728E-01 0.  0.
         14    1    1    2    0    0 -0.12773066331E-02 -0.18973432868E-01 -0.13906351621E-01  0.23558634987E-01  0.00000000000E+00 0. -1.
     999901    1    3    3    0    0  0.64293447286E-01 -0.79763253990E-01 -0.46307682528E-01  0.88715287607E+00  0.88000000000E+00 0.  1.
        -11    1    4    4    0    0 -0.47203373841E-01  0.87499559637E-01  0.50903012573E-01  0.11169471451E+00  0.51100000000E-03 0.  1.
         11    1    4    4    0    0 -0.15812766811E-01  0.11237127221E-01  0.93110215755E-02  0.21523774441E-01  0.51100000000E-03 0. -1.
</event>
<event>
 8    1  0.1180500E+005  0.1043930E+01  0.7957747E-01            NaN
         13   -1    0    0    0    0  0.00000000000E+00  0.00000000000E+00  0.74505805969E-08  0.10566000000E+00  0.10566000000E+00 0. -1.
     999900   -1    0    0    0    0 -0.00000000000E+00 -0.00000000000E+00 -0.74505805969E-08  0.93827000000E+00  0.93827000000E+00 0. -1.
     999902    2    1    2    0    0 -0.17279036679E-01  0.61375344798E-02 -0.15011020690E-01  0.10202326335E+01  0.10199573821E+01 0.  0.
     999903    2    3    3    0    0  0.52880483372E-01  0.90450983217E-01  0.72580150788E-01  0.12910787834E+00  0.20572799393E-01 0.  0.
         14    1    1    2    0    0  0.17279036679E-01 -0.61375344798E-02  0.15011020690E-01  0.23697366524E-01  0.00000000000E+00 0. -1.
     999901    1    3    3    0    0 -0.70159520051E-01 -0.84313448738E-01 -0.87591171477E-01  0.89112475513E+00  0.88000000000E+00 0.  1.
        -11    1    4    4    0    0  0.49718517239E-01  0.70506504783E-01  0.54883088824E-01  0.10225220160E+00  0.51100000000E-03 0.  1.
         11    1    4    4    0    0  0.31619661332E-02  0.19944478435E-01  0.17697061964E-01  0.26855676737E-01  0.51100000000E-03 0. -1.
</event>
<event>
 8    1  0.1180500E+005  0.1043930E+01  0.7957747E-01            NaN
         13   -1    0    0    0    0  0.00000000000E+00  0.00000000000E+00  0.74505805969E-08  0.10566000000E+00  0.10566000000E+00 0. -1.
     999900   -1    0    0    0    0 -0.00000000000E+00 -0.00000000000E+00 -0.74505805969E-08  0.93827000000E+00  0.93827000000E+00 0. -1.
     999902    2    1    2    0    0  0.83082325334E-02  0.22452576100E-01 -0.54325262601E-04  0.10199894935E+01  0.10197084970E+01 0.  0.
     999903    2    3    3    0    0  0.10648771988E-01  0.32170604603E-02 -0.12837270678E+00  0.13047215794E+00  0.20486247274E-01 0.  0.
         14    1    1    2    0    0 -0.83082325334E-02 -0.22452576100E-01  0.54325262601E-04  0.23940506524E-01  0.00000000000E+00 0.  1.
     999901    1    3    3    0    0 -0.23405394546E-02  0.19235515640E-01  0.12831838152E+00  0.88951733554E+00  0.88000000000E+00 0.  1.
        -11    1    4    4    0    0  0.12792433563E-01  0.98892130881E-02 -0.83504491194E-01  0.85057063567E-01  0.51100000000E-03 0. -1.
         11    1    4    4    0    0 -0.21436615754E-02 -0.66721526278E-02 -0.44868215589E-01  0.45415094372E-01  0.51100000000E-03 0.  1.
</event>
<event>
 7    1  0.1180500E+005  0.1043930E+01  0.7957747E-01            NaN
         13   -1    0    0    0    0  0.00000000000E+00  0.00000000000E+00  0.74505805969E-08  0.10566000000E+00  0.10566000000E+00 0. -1.
     999900   -1    0    0    0    0 -0.00000000000E+00 -0.00000000000E+00 -0.74505805969E-08  0.93827000000E+00  0.93827000000E+00 0. -1.
     999903    2    1    2    0    0 -0.39244500705E-01  0.81081069429E-01 -0.61611052386E-01  0.11082496979E+00  0.19286821885E-01 0.  0.
         14    1    1    2    0    0  0.22526710027E-01 -0.44802408150E-01  0.20931309684E-02  0.50190533350E-01  0.00000000000E+00 0. -1.
     999901    1    1    2    0    0  0.16717790678E-01 -0.36278661278E-01  0.59517921417E-01  0.88291449686E+00  0.88000000000E+00 0.  1.
        -11    1    3    3    0    0 -0.32693262584E-01  0.49244214787E-01 -0.45184017164E-01  0.74402275748E-01  0.51100000000E-03 0. -1.
         11    1    3    3    0    0 -0.65512381211E-02  0.31836854642E-01 -0.16427035221E-01  0.36422694046E-01  0.51100000000E-03 0.  1.
</event>
<event>
 8    1  0.1180500E+005  0.1043930E+01  0.7957747E-01            NaN
         13   -1    0    0    0    0  0.00000000000E+00  0.00000000000E+00  0.74505805969E-08  0.10566000000E+00  0.10566000000E+00 0. -1.
     999900   -1    0    0    0    0 -0.00000000000E+00 -0.00000000000E+00 -0.74505805969E-08  0.93827000000E+00  0.93827000000E+00 0. -1.
     999902    2    1    2    0    0  0.57781554173E-03 -0.72262724886E-02 -0.23499581891E-01  0.10193376590E+01  0.10190409609E+01 0.  0.
     999903    2    3    3    0    0  0.10050610452E+00  0.77174823379E-01 -0.24617712631E-01  0.12966892398E+00  0.12270601508E-01 0.  0.
         14    1    1    2    0    0 -0.57781554173E-03  0.72262724886E-02  0.23499581891E-01  0.24592340961E-01  0.00000000000E+00 0.  1.
     999901    1    3    3    0    0 -0.99928288982E-01 -0.84401095868E-01  0.11181307398E-02  0.88966873506E+00  0.88000000000E+00 0. -1.
        -11    1    4    4    0    0  0.55964714672E-01  0.38795760880E-01 -0.79916557800E-02  0.68565939312E-01  0.51100000000E-03 0.  1.
         11    1    4    4    0    0  0.44541389851E-01  0.38379062499E-01 -0.16626056851E-01  0.61102984670E-01  0.51100000000E-03 0. -1.
</event>
<event>
 8    1  0.1180500E+005  0.1043930E+01  0.7957747E-01            NaN
         13   -1    0    0    0    0  0.00000000000E+00  0.00000000000E+00  0.74505805969E-08  0.10566000000E+00  0.10566000000E+00 0.  1.
     999900   -1    0    0    0    0 -0.00000000000E+00 -0.00000000000E+00 -0.74505805969E-08  0.93827000000E+00  0.93827000000E+00 0.  1.
     999902    2    1    2    0    0 -0.17577829471E-01 -0.12657339647E-01 -0.91974870104E-02  0.10203974246E+01  0.10201260325E+01 0.  0.
     999903    2    3    3    0    0 -0.20750533543E-01  0.50091652266E-01 -0.11806942704E+00  0.13146514299E+00  0.20073264546E-01 0.  0.
         14    1    1    2    0    0  0.17577829471E-01  0.12657339647E-01  0.91974870104E-02  0.23532575361E-01  0.00000000000E+00 0.  1.
     999901    1    3    3    0    0  0.31727040727E-02 -0.62748991912E-01  0.10887194003E+00  0.88893228165E+00  0.88000000000E+00 0. -1.
        -11    1    4    4    0    0 -0.86837037246E-02  0.39870144923E-01 -0.72080965164E-01  0.82830923129E-01  0.51100000000E-03 0.  1.
         11    1    4    4    0    0 -0.12066829819E-01  0.10221507343E-01 -0.45988461878E-01  0.48634219857E-01  0.51100000000E-03 0. -1.
</event>
<event>
 8    1  0.1180500E+005  0.1043930E+01  0.7957747E-01            NaN
         13   -1    0    0    0    0  0.00000000000E+00  0.00000000000E+00  0.74505805969E-08  0.10566000000E+00  0.10566000000E+00 0.  1.
     999900   -1    0    0    0    0 -0.00000000000E+00 -0.00000000000E+00 -0.74505805969E-08  0.93827000000E+00  0.93827000000E+00 0. -1.
     999902    2    1    2    0    0 -0.21194277314E-01  0.55070200217E-02 -0.95178673811E-02  0.10200529302E+01  0.10197734386E+01 0.  0.
     999903    2    3    3    0    0 -0.73369595363E-01 -0.82008163853E-01 -0.70594588054E-01  0.13207120914E+00  0.18728907018E-01 0.  0.
         14    1    1    2    0    0  0.21194277314E-01 -0.55070200217E-02  0.95178673811E-02  0.23877069751E-01  0.00000000000E+00 0.  1.
     999901    1    3    3    0    0  0.52175318049E-01  0.87515183874E-01  0.61076720673E-01  0.88798172111E+00  0.88000000000E+00 0. -1.
        -11    1    4    4    0    0 -0.49454884076E-01 -0.59828976467E-01 -0.58812609480E-01  0.97388275162E-01  0.51100000000E-03 0.  1.
         11    1    4    4    0    0 -0.23914711286E-01 -0.22179187386E-01 -0.11781978574E-01  0.34682933975E-01  0.51100000000E-03 0. -1.
</event>
<event>
 8    1  0.1180500E+005  0.1043930E+01  0.7957747E-01            NaN
         13   -1    0    0    0    0  0.00000000000E+00  0.00000000000E+00  0.74505805969E-08  0.10566000000E+00  0.10566000000E+00 0.  1.
     999900   -1    0    0    0    0 -0.00000000000E+00 -0.00000000000E+00 -0.74505805969E-08  0.93827000000E+00  0.93827000000E+00 0.  1.
     999902    2    1    2    0    0  0.20781319521E-01 -0.55173504496E-02  0.10354312270E-01  0.10200654619E+01  0.10197862670E+01 0.  0.
     999903    2    3    3    0    0 -0.10903877336E+00 -0.41760951690E-01 -0.48668993052E-01  0.12784878096E+00  0.18525893422E-01 0.  0.
         14    1    1    2    0    0 -0.20781319521E-01  0.55173504496E-02 -0.10354312270E-01  0.23864538118E-01  0.00000000000E+00 0. -1.
     999901    1    3    3    0    0  0.12982009288E+00  0.36243601240E-01  0.59023305322E-01  0.89221668092E+00  0.88000000000E+00 0. -1.
        -11    1    4    4    0    0 -0.87357014194E-01 -0.30801620327E-01 -0.30549246632E-01  0.97537199747E-01  0.51100000000E-03 0. -1.
         11    1    4    4    0    0 -0.21681759161E-01 -0.10959331363E-01 -0.18119746420E-01  0.30311581212E-01  0.51100000000E-03 0.  1.
</event>
<event>
 8    1  0.1180500E+005  0.1043930E+01  0.7957747E-01            NaN
         13   -1    0    0    0    0  0.00000000000E+00  0.00000000000E+00  0.74505805969E-08  0.10566000000E+00  0.10566000000E+00 0. -1.
     999900   -1    0    0    0    0 -0.00000000000E+00 -0.00000000000E+00 -0.74505805969E-08  0.93827000000E+00  0.93827000000E+00 0. -1.
     999902    2    1    2    0    0 -0.16940079531E-01 -0.41477905071E-02 -0.25296705564E-01  0.10132038910E+01  0.10127378886E+01 0.  0.
     999903    2    3    3    0    0 -0.10388105323E+00 -0.68646002460E-01 -0.10818520314E-01  0.12645230794E+00  0.19224955868E-01 0.  0.
         14    1    1    2    0    0  0.16940079531E-01  0.41477905071E-02  0.25296705564E-01  0.30726108979E-01  0.00000000000E+00 0. -1.
     999901    1    3    3    0    0  0.86940973695E-01  0.64498211952E-01 -0.14478185250E-01  0.88675158308E+00  0.88000000000E+00 0.  1.
        -11    1    4    4    0    0 -0.42457504997E-01 -0.34734950584E-01 -0.12513332122E-01  0.56267229578E-01  0.51100000000E-03 0. -1.
         11    1    4    4    0    0 -0.61423548228E-01 -0.33911051876E-01  0.16948118077E-02  0.70185078360E-01  0.51100000000E-03 0.  1.
</event>
<event>
 8    1  0.1180500E+005  0.1043930E+01  0.7957747E-01            NaN
         13   -1    0    0    0    0  0.00000000000E+00  0.00000000000E+00  0.74505805969E-08  0.10566000000E+00  0.10566000000E+00 0. -1.
     999900   -1    0    0    0    0 -0.00000000000E+00 -0.00000000000E+00 -0.74505805969E-08  0.93827000000E+00  0.93827000000E+00 0. -1.
     999902    2    1    2    0    0  0.26194299397E-02  0.22161205201E-01  0.68167083498E-02  0.10205965917E+01  0.10203298266E+01 0.  0.
     999903    2    3    3    0    0  0.93733136624E-01 -0.10550868362E-01 -0.87527088428E-01  0.13027499854E+00  0.20331313540E-01 0.  0.
         14    1    1    2    0    0 -0.26194299397E-02 -0.22161205201E-01 -0.68167083498E-02  0.23333408278E-01  0.00000000000E+00 0.  1.
     999901    1    3    3    0    0 -0.91113706684E-01  0.32712073562E-01  0.94343796778E-01  0.89032159319E+00  0.88000000000E+00 0.  1.
        -11    1    4    4    0    0  0.81823621366E-03 -0.13826665361E-02 -0.62940822560E-02  0.65159703572E-02  0.51100000000E-03 0. -1.
         11    1    4    4    0    0  0.92914900410E-01 -0.91682018255E-02 -0.81233006172E-01  0.12375902818E+00  0.51100000000E-03 0.  1.
</event>
<event>
 8    1  0.1180500E+005  0.1043930E+01  0.7957747E-01            NaN
         13   -1    0    0    0    0  0.00000000000E+00  0.00000000000E+00  0.74505805969E-08  0.10566000000E+00  0.10566000000E+00 0. -1.
     999900   -1    0    0    0    0 -0.00000000000E+00 -0.00000000000E+00 -0.74505805969E-08  0.93827000000E+00  0.93827000000E+00 0. -1.
     999902    2    1    2    0    0 -0.12290227260E-01 -0.43880374630E-02 -0.19343805141E-01  0.10205957471E+01  0.10203289625E+01 0.  0.
     999903    2    3    3    0    0 -0.10710403280E+00  0.72079439091E-01  0.14873222094E-01  0.13154696466E+00  0.20412540083E-01 0.  0.
         14    1    1    2    0    0  0.12290227260E-01  0.43880374630E-02  0.19343805141E-01  0.23334252853E-01  0.00000000000E+00 0. -1.
     999901    1    3    3    0    0  0.94813805545E-01 -0.76467476554E-01 -0.34217027234E-01  0.88904878249E+00  0.88000000000E+00 0.  1.
        -11    1    4    4    0    0 -0.73596380470E-01  0.60369259257E-01  0.99511497386E-02  0.95708730968E-01  0.51100000000E-03 0.  1.
         11    1    4    4    0    0 -0.33507652335E-01  0.11710179835E-01  0.49220723551E-02  0.35838233690E-01  0.51100000000E-03 0. -1.
</event>
<event>
 8    1  0.1180500E+005  0.1043930E+01  0.7957747E-01            NaN
         13   -1    0    0    0    0  0.00000000000E+00  0.00000000000E+00  0.74505805969E-08  0.10566000000E+00  0.10566000000E+00 0.  1.
     999900   -1    0    0    0    0 -0.00000000000E+00 -0.00000000000E+00 -0.74505805969E-08  0.93827000000E+00  0.93827000000E+00 0. -1.
     999902    2    1    2    0    0 -0.12010555066E-01 -0.27854153091E-02  0.20294193506E-01  0.10201841317E+01  0.10199077391E+01 0.  0.
     999903    2    3    3    0    0  0.84677807612E-01  0.94781061945E-01 -0.95704461976E-02  0.12902771800E+00  0.20069324041E-01 0.  0.
         14    1    1    2    0    0  0.12010555066E-01  0.27854153091E-02 -0.20294193506E-01  0.23745868303E-01  0.00000000000E+00 0. -1.
     999901    1    3    3    0    0 -0.96688362678E-01 -0.97566477255E-01  0.29864639703E-01  0.89115641369E+00  0.88000000000E+00 0.  1.
        -11    1    4    4    0    0  0.49215376282E-01  0.49146453625E-01 -0.14404219709E-01  0.71030062881E-01  0.51100000000E-03 0.  1.
         11    1    4    4    0    0  0.35462431330E-01  0.45634608321E-01  0.48337735110E-02  0.57997655123E-01  0.51100000000E-03 0. -1.
</event>
<event>
 8    1  0.1180500E+005  0.1043930E+01  0.7957747E-01            NaN
         13   -1    0    0    0    0  0.00000000000E+00  0.00000000000E+00  0.74505805969E-08  0.10566000000E+00  0.10566000000E+00 0. -1.
     999900   -1    0    0    0    0 -0.00000000000E+00 -0.00000000000E+00 -0.74505805969E-08  0.93827000000E+00  0.93827000000E+00 0.  1.
     999902    2    1    2    0    0 -0.22888429762E-01  0.65179870304E-02  0.52497114038E-04  0.10201315310E+01  0.10198538980E+01 0.  0.
     999903    2    3    3    0    0 -0.88441059621E-01  0.70156930719E-01  0.67002964202E-01  0.13287202695E+00  0.20536854199E-01 0.  0.
         14    1    1    2    0    0  0.22888429762E-01 -0.65179870304E-02 -0.52497114038E-04  0.23798469023E-01  0.00000000000E+00 0.  1.
     999901    1    3    3    0    0  0.65552629859E-01 -0.63638943689E-01 -0.66950467088E-01  0.88725950402E+00  0.88000000000E+00 0.  1.
        -11    1    4    4    0    0 -0.43428076068E-01  0.28084017475E-01  0.20321216231E-01  0.55569081138E-01  0.51100000000E-03 0. -1.
         11    1    4    4    0    0 -0.45012983553E-01  0.42072913244E-01  0.46681747971E-01  0.77302945816E-01  0.51100000000E-03 0.  1.
</event>
<event>
 7    1  0.1180500E+005  0.1043930E+01  0.7957747E-01            NaN
         13   -1    0    0    0    0  0.00000000000E+00  0.00000000000E+00  0.74505805969E-08  0.10566000000E+00  0.10566000000E+00 0.  1.
     999900   -1    0    0    0    0 -0.00000000000E+00 -0.00000000000E+00 -0.74505805969E-08  0.93827000000E+00  0.93827000000E+00 0. -1.
     999903    2    1    2    0    0  0.25594491451E-01 -0.10557540010E+00  0.25772122051E-01  0.11351046840E+00  0.20473911751E-01 0.  0.
         14    1    1    2    0    0  0.15399427339E-01 -0.10718205305E-01 -0.37294179164E-01  0.41747791400E-01  0.00000000000E+00 0. -1.
     999901    1    1    2    0    0 -0.40993918790E-01  0.11629360540E+00  0.11522057112E-01  0.88867174020E+00  0.88000000000E+00 0.  1.
        -11    1    3    3    0    0  0.93619312033E-02 -0.76059843141E-01  0.21193646766E-01  0.79512120326E-01  0.51100000000E-03 0.  1.
         11    1    3    3    0    0  0.16232560248E-01 -0.29515556955E-01  0.45784752856E-02  0.33998348070E-01  0.51100000000E-03 0. -1.
</event>
<event>
 8    1  0.1180500E+005  0.1043930E+01  0.7957747E-01            NaN
         13   -1    0    0    0    0  0.00000000000E+00  0.00000000000E+00  0.74505805969E-08  0.10566000000E+00  0.10566000000E+00 0.  1.
     999900   -1    0    0    0    0 -0.00000000000E+00 -0.00000000000E+00 -0.74505805969E-08  0.93827000000E+00  0.93827000000E+00 0. -1.
     999902    2    1    2    0    0  0.21227355380E-01  0.10627048037E-01  0.86314306615E-03  0.10201754261E+01  0.10198988284E+01 0.  0.
     999903    2    3    3    0    0  0.84162161471E-01  0.36987575849E-01 -0.93577720755E-01  0.13249601097E+00  0.18629356141E-01 0.  0.
         14    1    1    2    0    0 -0.21227355380E-01 -0.10627048037E-01 -0.86314306615E-03  0.23754573925E-01  0.00000000000E+00 0.  1.
     999901    1    3    3    0    0 -0.62934806091E-01 -0.26360527812E-01  0.94440863821E-01  0.88767941511E+00  0.88000000000E+00 0.  1.
        -11    1    4    4    0    0  0.71255849729E-01  0.23326383183E-01 -0.73690626058E-01  0.10512890070E+00  0.51100000000E-03 0.  1.
         11    1    4    4    0    0  0.12906311742E-01  0.13661192667E-01 -0.19887094697E-01  0.27367110266E-01  0.51100000000E-03 0. -1.
</event>
<event>
 8    1  0.1180500E+005  0.1043930E+01  0.7957747E-01            NaN
         13   -1    0    0    0    0  0.00000000000E+00  0.00000000000E+00  0.74505805969E-08  0.10566000000E+00  0.10566000000E+00 0. -1.
     999900   -1    0    0    0    0 -0.00000000000E+00 -0.00000000000E+00 -0.74505805969E-08  0.93827000000E+00  0.93827000000E+00 0.  1.
     999902    2    1    2    0    0  0.10719836146E-01  0.20763313213E-01 -0.31233485444E-02  0.10203548994E+01  0.10200825140E+01 0.  0.
     999903    2    3    3    0    0  0.67393574429E-01  0.87560731290E-01  0.70963794013E-01  0.13290759821E+00  0.20488876597E-01 0.  0.
         14    1    1    2    0    0 -0.10719836146E-01 -0.20763313213E-01  0.31233485444E-02  0.23575100609E-01  0.00000000000E+00 0.  1.
     999901    1    3    3    0    0 -0.56673738283E-01 -0.66797418076E-01 -0.74087142557E-01  0.88744730118E+00  0.88000000000E+00 0.  1.
        -11    1    4    4    0    0  0.34560766185E-01  0.53152702619E-01  0.30024626228E-01  0.70152659651E-01  0.51100000000E-03 0. -1.
         11    1    4    4    0    0  0.32832808245E-01  0.34408028670E-01  0.40939167785E-01  0.62754938564E-01  0.51100000000E-03 0.  1.
</event>
<event>
 8    1  0.1180500E+005  0.1043930E+01  0.7957747E-01            NaN
         13   -1    0    0    0    0  0.00000000000E+00  0.00000000000E+00  0.74505805969E-08  0.10566000000E+00  0.10566000000E+00 0. -1.
     999900   -1    0    0    0    0 -0.00000000000E+00 -0.00000000000E+00 -0.74505805969E-08  0.93827000000E+00  0.93827000000E+00 0.  1.
     999902    2    1    2    0    0 -0.64645565339E-02  0.11438442316E-01  0.19853992609E-01  0.10201222392E+01  0.10198443868E+01 0.  0.
     999903    2    3    3    0    0  0.13002680148E-02  0.48430048771E-01 -0.11745132291E+00  0.12867318222E+00  0.20366989149E-01 0.  0.
         14    1    1    2    0    0  0.64645565339E-02 -0.11438442316E-01 -0.19853992609E-01  0.23807760842E-01  0.00000000000E+00 0.  1.
     999901    1    3    3    0    0 -0.77648245486E-02 -0.36991606455E-01  0.13730531552E+00  0.89144905694E+00  0.88000000000E+00 0. -1.
        -11    1    4    4    0    0  0.28010553648E-02  0.31509572621E-01 -0.50446016736E-01  0.59546291265E-01  0.51100000000E-03 0.  1.
         11    1    4    4    0    0 -0.15007873500E-02  0.16920476150E-01 -0.67005306177E-01  0.69126890952E-01  0.51100000000E-03 0. -1.
</event>
<event>
 8    1  0.1180500E+005  0.1043930E+01  0.7957747E-01            NaN
         13   -1    0    0    0    0  0.00000000000E+00  0.00000000000E+00  0.74505805969E-08  0.10566000000E+00  0.10566000000E+00 0.  1.
     999900   -1    0    0    0    0 -0.00000000000E+00 -0.00000000000E+00 -0.74505805969E-08  0.93827000000E+00  0.93827000000E+00 0.  1.
     999902    2    1    2    0    0  0.10593584264E-01 -0.24082122731E-02 -0.15849732244E-01  0.10247144457E+01  0.10245342638E+01 0.  0.
     999903    2    3    3    0    0 -0.28995277121E-01  0.43492834140E-01 -0.12376450722E+00  0.13605265254E+00  0.21455029687E-01 0.  0.
         14    1    1    2    0    0 -0.10593584264E-01  0.24082122731E-02  0.15849732244E-01  0.19215554276E-01  0.00000000000E+00 0.  1.
     999901    1    3    3    0    0  0.39588861385E-01 -0.45901046413E-01  0.10791477498E+00  0.88866179318E+00  0.88000000000E+00 0. -1.
        -11    1    4    4    0    0 -0.24901882790E-01  0.26527994186E-01 -0.62216943061E-01  0.72076676996E-01  0.51100000000E-03 0.  1.
         11    1    4    4    0    0 -0.40933943307E-02  0.16964839955E-01 -0.61547564159E-01  0.63975975543E-01  0.51100000000E-03 0. -1.
</event>
<event>
 8    1  0.1180500E+005  0.1043930E+01  0.7957747E-01            NaN
         13   -1    0    0    0    0  0.00000000000E+00  0.00000000000E+00  0.74505805969E-08  0.10566000000E+00  0.10566000000E+00 0.  1.
     999900   -1    0    0    0    0 -0.00000000000E+00 -0.00000000000E+00 -0.74505805969E-08  0.93827000000E+00  0.93827000000E+00 0.  1.
     999902    2    1    2    0    0 -0.73345839203E-04  0.23379402243E-01 -0.41942116127E-02  0.10201772477E+01  0.10199006930E+01 0.  0.
     999903    2    3    3    0    0  0.27910651731E-01  0.12153315240E+00  0.40836539067E-01  0.13313439010E+00  0.22535112424E-01 0.  0.
         14    1    1    2    0    0  0.73345839203E-04 -0.23379402243E-01  0.41942116127E-02  0.23752752259E-01  0.00000000000E+00 0.  1.
     999901    1    3    3    0    0 -0.27983997570E-01 -0.98153750154E-01 -0.45030750680E-01  0.88704285764E+00  0.88000000000E+00 0.  1.
        -11    1    4    4    0    0  0.48021919075E-02  0.26049022274E-01  0.18704243844E-01  0.32430270849E-01  0.51100000000E-03 0.  1.
         11    1    4    4    0    0  0.23108459824E-01  0.95484130123E-01  0.22132295223E-01  0.10070411925E+00  0.51100000000E-03 0. -1.
</event>
<event>
 8    1  0.1180500E+005  0.1043930E+01  0.7957747E-01            NaN
         13   -1    0    0    0    0  0.00000000000E+00  0.00000000000E+00  0.74505805969E-08  0.10566000000E+00  0.10566000000E+00 0. -1.
     999900   -1    0    0    0    0 -0.00000000000E+00 -0.00000000000E+00 -0.74505805969E-08  0.93827000000E+00  0.93827000000E+00 0.  1.
     999902    2    1    2    0    0  0.28127820408E-02 -0.17533801458E-01 -0.87993318813E-02  0.10241114688E+01  0.10239196875E+01 0.  0.
     999903    2    3    3    0    0  0.73178342367E-02 -0.13072283958E+00 -0.33923862969E-01  0.13649483091E+00  0.18384746413E-01 0.  0.
         14    1    1    2    0    0 -0.28127820408E-02  0.17533801458E-01  0.87993318813E-02  0.19818531175E-01  0.00000000000E+00 0.  1.
     999901    1    3    3    0    0 -0.45050521959E-02  0.11318903812E+00  0.25124531088E-01  0.88761663792E+00  0.88000000000E+00 0. -1.
        -11    1    4    4    0    0  0.75555040706E-02 -0.98628631184E-01 -0.17560782899E-01  0.10046558987E+00  0.51100000000E-03 0. -1.
         11    1    4    4    0    0 -0.23766983393E-03 -0.32094208392E-01 -0.16363080069E-01  0.36029241036E-01  0.51100000000E-03 0.  1.
</event>
<event>
 8    1  0.1180500E+005  0.1043930E+01  0.7957747E-01            NaN
         13   -1    0    0    0    0  0.00000000000E+00  0.00000000000E+00  0.74505805969E-08  0.10566000000E+00  0.10566000000E+00 0. -1.
     999900   -1    0    0    0    0 -0.00000000000E+00 -0.00000000000E+00 -0.74505805969E-08  0.93827000000E+00  0.93827000000E+00 0. -1.
     999902    2    1    2    0    0  0.83628766127E-02 -0.17148950343E-01  0.13481319338E-01  0.10205682754E+01  0.10203008550E+01 0.  0.
     999903    2    3    3    0    0  0.44389157957E-01 -0.68672168124E-01 -0.99679276165E-01  0.13109772771E+00  0.23756937814E-01 0.  0.
         14    1    1    2    0    0 -0.83628766127E-02  0.17148950343E-01 -0.13481319338E-01  0.23361724555E-01  0.00000000000E+00 0.  1.
     999901    1    3    3    0    0 -0.36026281345E-01  0.51523217781E-01  0.11316059550E+00  0.88947054774E+00  0.88000000000E+00 0.  1.
        -11    1    4    4    0    0  0.12678342037E-01 -0.82464727413E-02 -0.89951536251E-02  0.17604504515E-01  0.51100000000E-03 0.  1.
         11    1    4    4    0    0  0.31710815921E-01 -0.60425695383E-01 -0.90684122540E-01  0.11349322319E+00  0.51100000000E-03 0. -1.
</event>
<event>
 8    1  0.1180500E+005  0.1043930E+01  0.7957747E-01            NaN
         13   -1    0    0    0    0  0.00000000000E+00  0.00000000000E+00  0.74505805969E-08  0.10566000000E+00  0.10566000000E+00 0.  1.
     999900   -1    0    0    0    0 -0.00000000000E+00 -0.00000000000E+00 -0.74505805969E-08  0.93827000000E+00  0.93827000000E+00 0. -1.
     999902    2    1    2    0    0  0.22403668423E-01  0.46969591106E-02  0.12682899877E-01  0.10177605191E+01  0.10174240180E+01 0.  0.
     999903    2    3    3    0    0 -0.77219300002E-01 -0.96973908711E-01 -0.94853527457E-02  0.12604692567E+00  0.20762858442E-01 0.  0.
         14    1    1    2    0    0 -0.22403668423E-01 -0.46969591106E-02 -0.12682899877E-01  0.26169480946E-01  0.00000000000E+00 0. -1.
     999901    1    3    3    0    0  0.99622968425E-01  0.10167086782E+00  0.22168252623E-01  0.89171359338E+00  0.88000000000E+00 0.  1.
        -11    1    4    4    0    0 -0.63008215471E-01 -0.86320729023E-01 -0.13809406636E-01  0.10776021672E+00  0.51100000000E-03 0. -1.
         11    1    4    4    0    0 -0.14211084531E-01 -0.10653179688E-01  0.43240538902E-02  0.18286708945E-01  0.51100000000E-03 0.  1.
</event>
<event>
 8    1  0.1180500E+005  0.1043930E+01  0.7957747E-01            NaN
         13   -1    0    0    0    0  0.00000000000E+00  0.00000000000E+00  0.74505805969E-08  0.10566000000E+00  0.10566000000E+00 0.  1.
     999900   -1    0    0    0    0 -0.00000000000E+00 -0.00000000000E+00 -0.74505805969E-08  0.93827000000E+00  0.93827000000E+00 0.  1.
     999902    2    1    2    0    0 -0.33463057717E-02  0.30846129197E-02  0.23405727017E-01  0.10200859094E+01  0.10198071984E+01 0.  0.
     999903    2    3    3    0    0  0.11099726119E+00 -0.59096383857E-01 -0.23682154019E-01  0.12926707473E+00  0.18340054925E-01 0.  0.
         14    1    1    2    0    0  0.33463057717E-02 -0.30846129197E-02 -0.23405727017E-01  0.23844090596E-01  0.00000000000E+00 0. -1.
     999901    1    3    3    0    0 -0.11434356696E+00  0.62180996777E-01  0.47087881036E-01  0.89081883467E+00  0.88000000000E+00 0. -1.
        -11    1    4    4    0    0  0.85676739132E-01 -0.39412713404E-01 -0.11722274145E-01  0.95034406602E-01  0.51100000000E-03 0. -1.
         11    1    4    4    0    0  0.25320522056E-01 -0.19683670453E-01 -0.11959879874E-01  0.34232668130E-01  0.51100000000E-03 0.  1.
</event>
<event>
 8    1  0.1180500E+005  0.1043930E+01  0.7957747E-01            NaN
         13   -1    0    0    0    0  0.00000000000E+00  0.00000000000E+00  0.74505805969E-08  0.10566000000E+00  0.10566000000E+00 0. -1.
     999900   -1    0    0    0    0 -0.00000000000E+00 -0.00000000000E+00 -0.74505805969E-08  0.93827000000E+00  0.93827000000E+00 0. -1.
     999902    2    1    2    0    0 -0.21113675616E-01  0.11239580903E-01  0.61892039719E-02  0.10192232859E+01  0.10189237875E+01 0.  0.
     999903    2    3    3    0    0 -0.32646215745E-01 -0.11469174916E+00 -0.41719037074E-01  0.12889362843E+00  0.25556147332E-01 0.  0.
         14    1    1    2    0    0  0.21113675616E-01 -0.11239580903E-01 -0.61892039719E-02  0.24706714122E-01  0.00000000000E+00 0.  1.
     999901    1    3    3    0    0  0.11532540128E-01  0.12593133007E+00  0.47908241046E-01  0.89032965745E+00  0.88000000000E+00 0.  1.
        -11    1    4    4    0    0 -0.11001505145E-01 -0.12474134003E-01 -0.73098184571E-03  0.16656307815E-01  0.51100000000E-03 0.  1.
         11    1    4    4    0    0 -0.21644710600E-01 -0.10221761516E+00 -0.40988055228E-01  0.11223732061E+00  0.51100000000E-03 0. -1.
</event>
<event>
 8    1  0.1180500E+005  0.1043930E+01  0.7957747E-01            NaN
         13   -1    0    0    0    0  0.00000000000E+00  0.00000000000E+00  0.74505805969E-08  0.10566000000E+00  0.10566000000E+00 0. -1.
     999900   -1    0    0    0    0 -0.00000000000E+00 -0.00000000000E+00 -0.74505805969E-08  0.93827000000E+00  0.93827000000E+00 0. -1.
     999902    2    1    2    0    0 -0.16246395319E-01  0.73624799041E-02 -0.17223873493E-01  0.10191345712E+01  0.10188328916E+01 0.  0.
     999903    2    3    3    0    0 -0.62875464005E-01 -0.95086771886E-01 -0.61191002059E-01  0.13087603472E+00  0.19732703041E-01 0.  0.
         14    1    1    2    0    0  0.16246395319E-01 -0.73624799041E-02  0.17223873493E-01  0.24795428799E-01  0.00000000000E+00 0. -1.
     999901    1    3    3    0    0  0.46629068686E-01  0.10244925179E+00  0.43967128566E-01  0.88825853648E+00  0.88000000000E+00 0.  1.
        -11    1    4    4    0    0 -0.48150961599E-03 -0.20693674672E-03 -0.33627918275E-02  0.34415351520E-02  0.51100000000E-03 0. -1.
         11    1    4    4    0    0 -0.62393954389E-01 -0.94879835140E-01 -0.57828210231E-01  0.12743449957E+00  0.51100000000E-03 0.  1.
</event>
<event>
 8    1  0.1180500E+005  0.1043930E+01  0.7957747E-01            NaN
         13   -1    0    0    0    0  0.00000000000E+00  0.00000000000E+00  0.74505805969E-08  0.10566000000E+00  0.10566000000E+00 0.  1.
     999900   -1    0    0    0    0 -0.00000000000E+00 -0.00000000000E+00 -0.74505805969E-08  0.93827000000E+00  0.93827000000E+00 0.  1.
     999902    2    1    2    0    0  0.77892658119E-02 -0.73566518687E-02 -0.20559981373E-01  0.10207458282E+01  0.10204825035E+01 0.  0.
     999903    2    3    3    0    0  0.11362410630E+00  0.50616178144E-01 -0.40331601974E-01  0.13229055106E+00  0.20042872981E-01 0.  0.
         14    1    1    2    0    0 -0.77892658119E-02  0.73566518687E-02  0.20559981373E-01  0.23184171813E-01  0.00000000000E+00 0.  1.
     999901    1    3    3    0    0 -0.10583484049E+00 -0.57972830013E-01  0.19771620601E-01  0.88845527713E+00  0.88000000000E+00 0.  1.
        -11    1    4    4    0    0  0.10924053600E+00  0.49855421934E-01 -0.34500916092E-01  0.12493851342E+00  0.51100000000E-03 0. -1.
         11    1    4    4    0    0  0.43835703021E-02  0.76075621013E-03 -0.58306858818E-02  0.73520376398E-02  0.51100000000E-03 0.  1.
</event>
<event>
 8    1  0.1180500E+005  0.1043930E+01  0.7957747E-01            NaN
         13   -1    0    0    0    0  0.00000000000E+00  0.00000000000E+00  0.74505805969E-08  0.10566000000E+00  0.10566000000E+00 0.  1.
     999900   -1    0    0    0    0 -0.00000000000E+00 -0.00000000000E+00 -0.74505805969E-08  0.93827000000E+00  0.93827000000E+00 0.  1.
     999902    2    1    2    0    0 -0.40320248243E-02  0.54255234066E-02  0.22486900431E-01  0.10204490669E+01  0.10201788784E+01 0.  0.
     999903    2    3    3    0    0  0.30327158034E-01  0.11894856811E+00  0.45028377548E-01  0.13220577066E+00  0.19552816671E-01 0.  0.
         14    1    1    2    0    0  0.40320248243E-02 -0.54255234066E-02 -0.22486900431E-01  0.23480933104E-01  0.00000000000E+00 0. -1.
     999901    1    3    3    0    0 -0.34359182858E-01 -0.11352304470E+00 -0.22541477117E-01  0.88824329624E+00  0.88000000000E+00 0.  1.
        -11    1    4    4    0    0  0.25600844265E-01  0.69816118412E-01  0.20796734417E-01  0.77216959929E-01  0.51100000000E-03 0. -1.
         11    1    4    4    0    0  0.47263137691E-02  0.49132449699E-01  0.24231643132E-01  0.54988810727E-01  0.51100000000E-03 0.  1.
</event>
<event>
 8    1  0.1180500E+005  0.1043930E+01  0.7957747E-01            NaN
         13   -1    0    0    0    0  0.00000000000E+00  0.00000000000E+00  0.74505805969E-08  0.10566000000E+00  0.10566000000E+00 0.  1.
     999900   -1    0    0    0    0 -0.00000000000E+00 -0.00000000000E+00 -0.74505805969E-08  0.93827000000E+00  0.93827000000E+00 0. -1.
     999902    2    1    2    0    0 -0.40473736656E-02  0.14051400754E-01  0.18923691576E-01  0.10200149587E+01  0.10197345668E+01 0.  0.
     999903    2    3    3    0    0  0.43064014698E-01 -0.10192333704E+00 -0.60537895410E-01  0.12761159334E+00  0.19416641837E-01 0.  0.
         14    1    1    2    0    0  0.40473736656E-02 -0.14051400754E-01 -0.18923691576E-01  0.23915041284E-01  0.00000000000E+00 0. -1.
     999901    1    3    3    0    0 -0.47111388364E-01  0.11597473779E+00  0.79461586986E-01  0.89240336537E+00  0.88000000000E+00 0.  1.
        -11    1    4    4    0    0  0.42632596336E-01 -0.84056990911E-01 -0.53653375022E-01  0.10845303944E+00  0.51100000000E-03 0.  1.
         11    1    4    4    0    0  0.43141836182E-03 -0.17866346128E-01 -0.68845203876E-02  0.19158553906E-01  0.51100000000E-03 0. -1.
</event>
<event>
 8    1  0.1180500E+005  0.1043930E+01  0.7957747E-01            NaN
         13   -1    0    0    0    0  0.00000000000E+00  0.00000000000E+00  0.74505805969E-08  0.10566000000E+00  0.10566000000E+00 0.  1.
     999900   -1    0    0    0    0 -0.00000000000E+00 -0.00000000000E+00 -0.74505805969E-08  0.93827000000E+00  0.93827000000E+00 0.  1.
     999902    2    1    2    0    0  0.65075649791E-02 -0.17819076180E-01  0.16668902573E-01  0.10186768776E+01  0.10183638155E+01 0.  0.
     999903    2    3    3    0    0  0.23045637914E-02  0.65500428361E-01  0.11025540464E+00  0.12979092405E+00  0.19844711738E-01 0.  0.
         14    1    1    2    0    0 -0.65075649791E-02  0.17819076180E-01 -0.16668902573E-01  0.25253122398E-01  0.00000000000E+00 0. -1.
     999901    1    3    3    0    0  0.42030011877E-02 -0.83319504541E-01 -0.93586502064E-01  0.88888595355E+00  0.88000000000E+00 0.  1.
        -11    1    4    4    0    0  0.10172703307E-01  0.50212366100E-01  0.80516802485E-01  0.95435749095E-01  0.51100000000E-03 0. -1.
         11    1    4    4    0    0 -0.78681395152E-02  0.15288062261E-01  0.29738602152E-01  0.34355174954E-01  0.51100000000E-03 0.  1.
</event>
<event>
 8    1  0.1180500E+005  0.1043930E+01  0.7957747E-01            NaN
         13   -1    0    0    0    0  0.00000000000E+00  0.00000000000E+00  0.74505805969E-08  0.10566000000E+00  0.10566000000E+00 0. -1.
     999900   -1    0    0    0    0 -0.00000000000E+00 -0.00000000000E+00 -0.74505805969E-08  0.93827000000E+00  0.93827000000E+00 0.  1.
     999902    2    1    2    0    0 -0.11245808484E-01  0.21390294550E-01 -0.19159469015E-01  0.10130901206E+01  0.10126206073E+01 0.  0.
     999903    2    3    3    0    0 -0.92354294478E-01 -0.73889580927E-01 -0.31737626809E-01  0.12414971132E+00  0.20417835028E-01 0.  0.
         14    1    1    2    0    0  0.11245808484E-01 -0.21390294550E-01  0.19159469015E-01  0.30839879415E-01  0.00000000000E+00 0. -1.
     999901    1    3    3    0    0  0.81108485994E-01  0.95279875477E-01  0.12578157794E-01  0.88894040927E+00  0.88000000000E+00 0.  1.
        -11    1    4    4    0    0 -0.17473944469E-01 -0.12570361428E-01 -0.14189001634E-01  0.25786461760E-01  0.51100000000E-03 0. -1.
         11    1    4    4    0    0 -0.74880350008E-01 -0.61319219500E-01 -0.17548625175E-01  0.98363249560E-01  0.51100000000E-03 0.  1.
</event>
<event>
 8    1  0.1180500E+005  0.1043930E+01  0.7957747E-01            NaN
         13   -1    0    0    0    0  0.00000000000E+00  0.00000000000E+00  0.74505805969E-08  0.10566000000E+00  0.10566000000E+00 0. -1.
     999900   -1    0    0    0    0 -0.00000000000E+00 -0.00000000000E+00 -0.74505805969E-08  0.93827000000E+00  0.93827000000E+00 0. -1.
     999902    2    1    2    0    0  0.16688422939E-01  0.19594188413E-02 -0.15416829392E-01  0.10211260220E+01  0.10208713589E+01 0.  0.
     999903    2    3    3    0    0 -0.27409556182E-02  0.39280505727E-01 -0.12575765712E+00  0.13323781819E+00  0.19668678226E-01 0.  0.
         14    1    1    2    0    0 -0.16688422939E-01 -0.19594188413E-02  0.15416829392E-01  0.22803977962E-01  0.00000000000E+00 0. -1.
     999901    1    3    3    0    0  0.19429378557E-01 -0.37321086885E-01  0.11034082773E+00  0.88788820385E+00  0.88000000000E+00 0. -1.
        -11    1    4    4    0    0 -0.72712288863E-02  0.16208772806E-01 -0.78057525001E-01  0.80055189811E-01  0.51100000000E-03 0. -1.
         11    1    4    4    0    0  0.45302732681E-02  0.23071732920E-01 -0.47700132117E-01  0.53182628374E-01  0.51100000000E-03 0.  1.
</event>
<event>
 8    1  0.1180500E+005  0.1043930E+01  0.7957747E-01            NaN
         13   -1    0    0    0    0  0.00000000000E+00  0.00000000000E+00  0.74505805969E-08  0.10566000000E+00  0.10566000000E+00 0.  1.
     999900   -1    0    0    0    0 -0.00000000000E+00 -0.00000000000E+00 -0.74505805969E-08  0.93827000000E+00  0.93827000000E+00 0. -1.
     999902    2    1    2    0    0 -0.20028159891E-01  0.10378595552E-01  0.74808301261E-02  0.10201643682E+01  0.10198875099E+01 0.  0.
     999903    2    3    3    0    0 -0.10124546002E+00  0.84237703016E-01  0.28762769512E-02  0.13333145301E+00  0.20551632770E-01 0.  0.
         14    1    1    2    0    0  0.20028159891E-01 -0.10378595552E-01 -0.74808301261E-02  0.23765631775E-01  0.00000000000E+00 0. -1.
     999901    1    3    3    0    0  0.81217300127E-01 -0.73859107464E-01  0.46045531748E-02  0.88683291521E+00  0.88000000000E+00 0.  1.
        -11    1    4    4    0    0 -0.72592229207E-01  0.70569700230E-01  0.60508446504E-02  0.10142281880E+00  0.51100000000E-03 0. -1.
         11    1    4    4    0    0 -0.28653230811E-01  0.13668002787E-01 -0.31745676992E-02  0.31908634210E-01  0.51100000000E-03 0.  1.
</event>
<event>
 8    1  0.1180500E+005  0.1043930E+01  0.7957747E-01            NaN
         13   -1    0    0    0    0  0.00000000000E+00  0.00000000000E+00  0.74505805969E-08  0.10566000000E+00  0.10566000000E+00 0. -1.
     999900   -1    0    0    0    0 -0.00000000000E+00 -0.00000000000E+00 -0.74505805969E-08  0.93827000000E+00  0.93827000000E+00 0. -1.
     999902    2    1    2    0    0 -0.93885808164E-02  0.98296183382E-02  0.20717656939E-01  0.10191512156E+01  0.10188499458E+01 0.  0.
     999903    2    3    3    0    0  0.91262512098E-01  0.53286333907E-01  0.75598813202E-01  0.13065187969E+00  0.13654801823E-01 0.  0.
         14    1    1    2    0    0  0.93885808164E-02 -0.98296183382E-02 -0.20717656939E-01  0.24778784383E-01  0.00000000000E+00 0.  1.
     999901    1    3    3    0    0 -0.10065109291E+00 -0.43456715569E-01 -0.54881156263E-01  0.88849933593E+00  0.88000000000E+00 0. -1.
        -11    1    4    4    0    0  0.21280959879E-01  0.60671762828E-02  0.15588693273E-01  0.27073203733E-01  0.51100000000E-03 0. -1.
         11    1    4    4    0    0  0.69981552220E-01  0.47219157625E-01  0.60010119930E-01  0.10357867596E+00  0.51100000000E-03 0.  1.
</event>
<event>
 8    1  0.1180500E+005  0.1043930E+01  0.7957747E-01            NaN
         13   -1    0    0    0    0  0.00000000000E+00  0.00000000000E+00  0.74505805969E-08  0.10566000000E+00  0.10566000000E+00 0. -1.
     999900   -1    0    0    0    0 -0.00000000000E+00 -0.00000000000E+00 -0.74505805969E-08  0.93827000000E+00  0.93827000000E+00 0.  1.
     999902    2    1    2    0    0  0.29635821694E-02 -0.19174363762E-01 -0.15143113196E-01  0.10193179517E+01  0.10190207720E+01 0.  0.
     999903    2    3    3    0    0  0.13621740137E-01 -0.12980884596E+00 -0.18334900832E-01  0.13232089843E+00  0.11694583318E-01 0.  0.
         14    1    1    2    0    0 -0.29635821694E-02  0.19174363762E-01  0.15143113196E-01  0.24612048314E-01  0.00000000000E+00 0. -1.
     999901    1    3    3    0    0 -0.10658157968E-01  0.11063448220E+00  0.31917876358E-02  0.88699705326E+00  0.88000000000E+00 0.  1.
        -11    1    4    4    0    0  0.87918685400E-02 -0.92957054140E-01 -0.18303848002E-01  0.95150422172E-01  0.51100000000E-03 0. -1.
         11    1    4    4    0    0  0.48298715969E-02 -0.36851791817E-01 -0.31052830393E-04  0.37170476255E-01  0.51100000000E-03 0.  1.
</event>
<event>
 8    1  0.1180500E+005  0.1043930E+01  0.7957747E-01            NaN
         13   -1    0    0    0    0  0.00000000000E+00  0.00000000000E+00  0.74505805969E-08  0.10566000000E+00  0.10566000000E+00 0.  1.
     999900   -1    0    0    0    0 -0.00000000000E+00 -0.00000000000E+00 -0.74505805969E-08  0.93827000000E+00  0.93827000000E+00 0.  1.
     999902    2    1    2    0    0  0.11141969948E-01 -0.74425296250E-02  0.19922711995E-01  0.10199206436E+01  0.10196380093E+01 0.  0.
     999903    2    3    3    0    0  0.10505089519E+00 -0.38430754606E-01  0.68905609375E-01  0.13302804550E+00  0.20877365859E-01 0.  0.
         14    1    1    2    0    0 -0.11141969948E-01  0.74425296250E-02 -0.19922711995E-01  0.24009356401E-01  0.00000000000E+00 0. -1.
     999901    1    3    3    0    0 -0.93908925247E-01  0.30988224981E-01 -0.48982897381E-01  0.88689259810E+00  0.88000000000E+00 0.  1.
        -11    1    4    4    0    0  0.63337081061E-02  0.25985545905E-02  0.35606385116E-02  0.77335381258E-02  0.51100000000E-03 0.  1.
         11    1    4    4    0    0  0.98717187089E-01 -0.41029309197E-01  0.65344970864E-01  0.12529450737E+00  0.51100000000E-03 0. -1.
</event>
<event>
 8    1  0.1180500E+005  0.1043930E+01  0.7957747E-01            NaN
         13   -1    0    0    0    0  0.00000000000E+00  0.00000000000E+00  0.74505805969E-08  0.10566000000E+00  0.10566000000E+00 0. -1.
     999900   -1    0    0    0    0 -0.00000000000E+00 -0.00000000000E+00 -0.74505805969E-08  0.93827000000E+00  0.93827000000E+00 0. -1.
     999902    2    1    2    0    0  0.60051993913E-02  0.14834659978E-01 -0.16510066211E-01  0.10209362651E+01  0.10206772975E+01 0.  0.
     999903    2    3    3    0    0 -0.90567228892E-01  0.74123801677E-01 -0.59185581745E-01  0.13264428845E+00  0.19869908105E-01 0.  0.
         14    1    1    2    0    0 -0.60051993913E-02 -0.14834659978E-01  0.16510066211E-01  0.22993734857E-01  0.00000000000E+00 0. -1.
     999901    1    3    3    0    0  0.96572428284E-01 -0.59289141699E-01  0.42675515534E-01  0.88829197669E+00  0.88000000000E+00 0.  1.
        -11    1    4    4    0    0 -0.48375389307E-01  0.27974626206E-01 -0.32586966661E-01  0.64691031211E-01  0.51100000000E-03 0.  1.
         11    1    4    4    0    0 -0.42191839585E-01  0.46149175471E-01 -0.26598615084E-01  0.67953257241E-01  0.51100000000E-03 0. -1.
</event>
<event>
 8    1  0.1180500E+005  0.1043930E+01  0.7957747E-01            NaN
         13   -1    0    0    0    0  0.00000000000E+00  0.00000000000E+00  0.74505805969E-08  0.10566000000E+00  0.10566000000E+00 0. -1.
     999900   -1    0    0    0    0 -0.00000000000E+00 -0.00000000000E+00 -0.74505805969E-08  0.93827000000E+00  0.93827000000E+00 0.  1.
     999902    2    1    2    0    0  0.37020244780E-02 -0.11150701116E-01 -0.20479312249E-01  0.10203197194E+01  0.10200465109E+01 0.  0.
     999903    2    3    3    0    0 -0.81858422756E-01  0.84683330409E-01  0.47310916494E-01  0.12841150278E+00  0.19471091437E-01 0.  0.
         14    1    1    2    0    0 -0.37020244780E-02  0.11150701116E-01  0.20479312249E-01  0.23610280617E-01  0.00000000000E+00 0.  1.
     999901    1    3    3    0    0  0.85560447234E-01 -0.95834031525E-01 -0.67790228744E-01  0.89190821660E+00  0.88000000000E+00 0.  1.
        -11    1    4    4    0    0 -0.76763979248E-01  0.77104242197E-01  0.37712962717E-01  0.11515338185E+00  0.51100000000E-03 0.  1.
         11    1    4    4    0    0 -0.50944435078E-02  0.75790882120E-02  0.95979537772E-02  0.13258120926E-01  0.51100000000E-03 0. -1.
</event>
<event>
 8    1  0.1180500E+005  0.1043930E+01  0.7957747E-01            NaN
         13   -1    0    0    0    0  0.00000000000E+00  0.00000000000E+00  0.74505805969E-08  0.10566000000E+00  0.10566000000E+00 0.  1.
     999900   -1    0    0    0    0 -0.00000000000E+00 -0.00000000000E+00 -0.74505805969E-08  0.93827000000E+00  0.93827000000E+00 0. -1.
     999902    2    1    2    0    0  0.27758248295E-01 -0.13466929356E-01  0.11863170117E-01  0.10108752978E+01  0.10103347239E+01 0.  0.
     999903    2    3    3    0    0 -0.40131940297E-01 -0.11050468643E+00 -0.26724736663E-01  0.12210399391E+00  0.19321372211E-01 0.  0.
         14    1    1    2    0    0 -0.27758248295E-01  0.13466929356E-01 -0.11863170117E-01  0.33054702237E-01  0.00000000000E+00 0. -1.
     999901    1    3    3    0    0  0.67890188593E-01  0.97037757073E-01  0.38587906780E-01  0.88877130385E+00  0.88000000000E+00 0.  1.
        -11    1    4    4    0    0 -0.21809627077E-01 -0.64264629021E-01 -0.57093632743E-02  0.68106242933E-01  0.51100000000E-03 0.  1.
         11    1    4    4    0    0 -0.18322313220E-01 -0.46240057408E-01 -0.21015373389E-01  0.53997750976E-01  0.51100000000E-03 0. -1.
</event>
<event>
 8    1  0.1180500E+005  0.1043930E+01  0.7957747E-01            NaN
         13   -1    0    0    0    0  0.00000000000E+00  0.00000000000E+00  0.74505805969E-08  0.10566000000E+00  0.10566000000E+00 0. -1.
     999900   -1    0    0    0    0 -0.00000000000E+00 -0.00000000000E+00 -0.74505805969E-08  0.93827000000E+00  0.93827000000E+00 0. -1.
     999902    2    1    2    0    0  0.75079620456E-02 -0.14060615587E-01 -0.18143037994E-01  0.10197796329E+01  0.10194936289E+01 0.  0.
     999903    2    3    3    0    0  0.51746485434E-01 -0.11396419332E+00  0.32870021615E-01  0.13155662932E+00  0.23689075176E-01 0.  0.
         14    1    1    2    0    0 -0.75079620456E-02  0.14060615587E-01  0.18143037994E-01  0.24150367128E-01  0.00000000000E+00 0. -1.
     999901    1    3    3    0    0 -0.44238523388E-01  0.99903577731E-01 -0.51013059609E-01  0.88822300356E+00  0.88000000000E+00 0. -1.
        -11    1    4    4    0    0  0.24239940276E-01 -0.27906319202E-01  0.75976004772E-02  0.37740190911E-01  0.51100000000E-03 0. -1.
         11    1    4    4    0    0  0.27506545158E-01 -0.86057874116E-01  0.25272421138E-01  0.93816438406E-01  0.51100000000E-03 0.  1.
</event>
<event>
 8    1  0.1180500E+005  0.1043930E+01  0.7957747E-01            NaN
         13   -1    0    0    0    0  0.00000000000E+00  0.00000000000E+00  0.74505805969E-08  0.10566000000E+00  0.10566000000E+00 0. -1.
     999900   -1    0    0    0    0 -0.00000000000E+00 -0.00000000000E+00 -0.74505805969E-08  0.93827000000E+00  0.93827000000E+00 0. -1.
     999902    2    1    2    0    0 -0.14590739046E-01  0.54017458027E-02  0.17368231772E-01  0.10206121099E+01  0.10203457036E+01 0.  0.
     999903    2    3    3    0    0  0.15066235111E-01  0.12735349513E+00  0.22525021582E-01  0.13169233975E+00  0.19738074612E-01 0.  0.
         14    1    1    2    0    0  0.14590739046E-01 -0.54017458027E-02 -0.17368231772E-01  0.23317890096E-01  0.00000000000E+00 0.  1.
     999901    1    3    3    0    0 -0.29656974157E-01 -0.12195174933E+00 -0.51567898095E-02  0.88891977015E+00  0.88000000000E+00 0. -1.
        -11    1    4    4    0    0 -0.28113454173E-02  0.56257226297E-01  0.70948439183E-02  0.56774792865E-01  0.51100000000E-03 0.  1.
         11    1    4    4    0    0  0.17877580528E-01  0.71096268838E-01  0.15430177663E-01  0.74917546890E-01  0.51100000000E-03 0. -1.
</event>
<event>
 8    1  0.1180500E+005  0.1043930E+01  0.7957747E-01            NaN
         13   -1    0    0    0    0  0.00000000000E+00  0.00000000000E+00  0.74505805969E-08  0.10566000000E+00  0.10566000000E+00 0.  1.
     999900   -1    0    0    0    0 -0.00000000000E+00 -0.00000000000E+00 -0.74505805969E-08  0.93827000000E+00  0.93827000000E+00 0. -1.
     999902    2    1    2    0    0 -0.22274287043E-01 -0.56699970174E-02 -0.56904023779E-02  0.10202514568E+01  0.10199766476E+01 0.  0.
     999903    2    3    3    0    0 -0.44729580177E-02  0.88924824531E-02  0.12788444731E+00  0.12987446158E+00  0.20343556990E-01 0.  0.
         14    1    1    2    0    0  0.22274287043E-01  0.56699970174E-02  0.56904023779E-02  0.23678543213E-01  0.00000000000E+00 0.  1.
     999901    1    3    3    0    0 -0.17801329025E-01 -0.14562479470E-01 -0.13357484968E+00  0.89037699521E+00  0.88000000000E+00 0. -1.
        -11    1    4    4    0    0 -0.48683641119E-02  0.24192205966E-02  0.11745886820E+00  0.11758571528E+00  0.51100000000E-03 0. -1.
         11    1    4    4    0    0  0.39540609416E-03  0.64732618566E-02  0.10425579101E-01  0.12288746300E-01  0.51100000000E-03 0.  1.
</event>
<event>
 8    1  0.1180500E+005  0.1043930E+01  0.7957747E-01            NaN
         13   -1    0    0    0    0  0.00000000000E+00  0.00000000000E+00  0.74505805969E-08  0.10566000000E+00  0.10566000000E+00 0. -1.
     999900   -1    0    0    0    0 -0.00000000000E+00 -0.00000000000E+00 -0.74505805969E-08  0.93827000000E+00  0.93827000000E+00 0.  1.
     999902    2    1    2    0    0  0.18269971440E-01 -0.63595391937E-02  0.13092782552E-01  0.10205707074E+01  0.10203033433E+01 0.  0.
     999903    2    3    3    0    0 -0.38682829505E-01 -0.12297813125E+00  0.10409664420E-01  0.13104796084E+00  0.21100352187E-01 0.  0.
         14    1    1    2    0    0 -0.18269971440E-01  0.63595391937E-02 -0.13092782552E-01  0.23359292587E-01  0.00000000000E+00 0.  1.
     999901    1    3    3    0    0  0.56952800945E-01  0.11661859206E+00  0.26831181323E-02  0.88952274657E+00  0.88000000000E+00 0. -1.
        -11    1    4    4    0    0 -0.35904781537E-01 -0.10021253106E+00  0.15690877293E-02  0.10646327007E+00  0.51100000000E-03 0.  1.
         11    1    4    4    0    0 -0.27780479677E-02 -0.22765600196E-01  0.88405766906E-02  0.24584690765E-01  0.51100000000E-03 0. -1.
</event>
<event>
 8    1  0.1180500E+005  0.1043930E+01  0.7957747E-01            NaN
         13   -1    0    0    0    0  0.00000000000E+00  0.00000000000E+00  0.74505805969E-08  0.10566000000E+00  0.10566000000E+00 0.  1.
     999900   -1    0    0    0    0 -0.00000000000E+00 -0.00000000000E+00 -0.74505805969E-08  0.93827000000E+00  0.93827000000E+00 0.  1.
     999902    2    1    2    0    0 -0.25797950556E-01 -0.27769558303E-02 -0.15373670056E-02  0.10179375158E+01  0.10176056097E+01 0.  0.
     999903    2    3    3    0    0 -0.36300387039E-01  0.88981056037E-01 -0.83457506315E-01  0.12932019484E+00  0.22873806013E-01 0.  0.
         14    1    1    2    0    0  0.25797950556E-01  0.27769558303E-02  0.15373670056E-02  0.25992484181E-01  0.00000000000E+00 0. -1.
     999901    1    3    3    0    0  0.10502436483E-01 -0.91758011867E-01  0.81920139309E-01  0.88861732098E+00  0.88000000000E+00 0. -1.
        -11    1    4    4    0    0 -0.23519781919E-01  0.51711459050E-01 -0.63316685954E-01  0.85067731719E-01  0.51100000000E-03 0. -1.
         11    1    4    4    0    0 -0.12780605119E-01  0.37269596987E-01 -0.20140820360E-01  0.44252463125E-01  0.51100000000E-03 0.  1.
</event>
<event>
 8    1  0.1180500E+005  0.1043930E+01  0.7957747E-01            NaN
         13   -1    0    0    0    0  0.00000000000E+00  0.00000000000E+00  0.74505805969E-08  0.10566000000E+00  0.10566000000E+00 0. -1.
     999900   -1    0    0    0    0 -0.00000000000E+00 -0.00000000000E+00 -0.74505805969E-08  0.93827000000E+00  0.93827000000E+00 0. -1.
     999902    2    1    2    0    0  0.67906328829E-02  0.10276354332E-01  0.25239793157E-01  0.10158450697E+01  0.10154567653E+01 0.  0.
     999903    2    3    3    0    0  0.57225293615E-01  0.27890100179E-01  0.11156475697E+00  0.13000879900E+00  0.20074882411E-01 0.  0.
         14    1    1    2    0    0 -0.67906328829E-02 -0.10276354332E-01 -0.25239793157E-01  0.28084930335E-01  0.00000000000E+00 0.  1.
     999901    1    3    3    0    0 -0.50434660732E-01 -0.17613745847E-01 -0.86324963808E-01  0.88583627066E+00  0.88000000000E+00 0. -1.
        -11    1    4    4    0    0  0.23794844744E-01  0.20513463452E-01  0.41771108524E-01  0.52269335633E-01  0.51100000000E-03 0. -1.
         11    1    4    4    0    0  0.33430448871E-01  0.73766367274E-02  0.69793648441E-01  0.77739463368E-01  0.51100000000E-03 0.  1.
</event>
<event>
 8    1  0.1180500E+005  0.1043930E+01  0.7957747E-01            NaN
         13   -1    0    0    0    0  0.00000000000E+00  0.00000000000E+00  0.74505805969E-08  0.10566000000E+00  0.10566000000E+00 0.  1.
     999900   -1    0    0    0    0 -0.00000000000E+00 -0.00000000000E+00 -0.74505805969E-08  0.93827000000E+00  0.93827000000E+00 0.  1.
     999902    2    1    2    0    0  0.80725320758E-02  0.11335964263E-01  0.18229267560E-01  0.10209958321E+01  0.10207382197E+01 0.  0.
     999903    2    3    3    0    0  0.71887552345E-01  0.57481547693E-01 -0.90783122696E-01  0.13077930066E+00  0.19740861361E-01 0.  0.
         14    1    1    2    0    0 -0.80725320758E-02 -0.11335964263E-01 -0.18229267560E-01  0.22934167865E-01  0.00000000000E+00 0.  1.
     999901    1    3    3    0    0 -0.63815020269E-01 -0.46145583431E-01  0.10901239026E+00  0.89021653148E+00  0.88000000000E+00 0. -1.
        -11    1    4    4    0    0  0.52357112318E-01  0.29903706828E-01 -0.56288021277E-01  0.82486976867E-01  0.51100000000E-03 0. -1.
         11    1    4    4    0    0  0.19530440027E-01  0.27577840865E-01 -0.34495101419E-01  0.48292323793E-01  0.51100000000E-03 0.  1.
</event>
<event>
 8    1  0.1180500E+005  0.1043930E+01  0.7957747E-01            NaN
         13   -1    0    0    0    0  0.00000000000E+00  0.00000000000E+00  0.74505805969E-08  0.10566000000E+00  0.10566000000E+00 0. -1.
     999900   -1    0    0    0    0 -0.00000000000E+00 -0.00000000000E+00 -0.74505805969E-08  0.93827000000E+00  0.93827000000E+00 0.  1.
     999902    2    1    2    0    0 -0.16801158608E-01  0.90077647063E-02  0.15126287381E-01  0.10195943610E+01  0.10193038986E+01 0.  0.
     999903    2    3    3    0    0  0.30463848226E-01  0.12176750670E+00 -0.29821822936E-01  0.13000508897E+00  0.16019060482E-01 0.  0.
         14    1    1    2    0    0  0.16801158608E-01 -0.90077647063E-02 -0.15126287381E-01  0.24335638999E-01  0.00000000000E+00 0.  1.
     999901    1    3    3    0    0 -0.47265006834E-01 -0.11275974199E+00  0.44948110316E-01  0.88958927203E+00  0.88000000000E+00 0.  1.
        -11    1    4    4    0    0  0.11738262744E-01  0.44161028232E-01 -0.30437750658E-02  0.45798568912E-01  0.51100000000E-03 0. -1.
         11    1    4    4    0    0  0.18725585481E-01  0.77606478469E-01 -0.26778047870E-01  0.84206520061E-01  0.51100000000E-03 0.  1.
</event>
<event>
 7    1  0.1372308E+005  0.1043930E+01  0.7957747E-01            NaN
         13   -1    0    0    0    0  0.00000000000E+00  0.00000000000E+00  0.74505805969E-08  0.10566000000E+00  0.10566000000E+00 0. -1.
     999900   -1    0    0    0    0 -0.00000000000E+00 -0.00000000000E+00 -0.74505805969E-08  0.93827000000E+00  0.93827000000E+00 0. -1.
     999903    2    1    2    0    0  0.70558411182E-02  0.11266478951E+00 -0.15860727502E-01  0.11533505595E+00  0.17534901319E-01 0.  0.
         14    1    1    2    0    0  0.38897476972E-01  0.56571614160E-02 -0.11788160210E-02  0.39324379172E-01  0.00000000000E+00 0.  1.
     999901    1    1    2    0    0 -0.45953318090E-01 -0.11832195093E+00  0.17039543523E-01  0.88927056488E+00  0.88000000000E+00 0.  1.
        -11    1    3    3    0    0  0.11861221016E-01  0.54816648655E-01 -0.10231227428E-01  0.57013092088E-01  0.51100000000E-03 0. -1.
         11    1    3    3    0    0 -0.48053798973E-02  0.57848140858E-01 -0.56295000744E-02  0.58321963862E-01  0.51100000000E-03 0.  1.
</event>
<event>
 8    1  0.1180500E+005  0.1043930E+01  0.7957747E-01            NaN
         13   -1    0    0    0    0  0.00000000000E+00  0.00000000000E+00  0.74505805969E-08  0.10566000000E+00  0.10566000000E+00 0. -1.
     999900   -1    0    0    0    0 -0.00000000000E+00 -0.00000000000E+00 -0.74505805969E-08  0.93827000000E+00  0.93827000000E+00 0.  1.
     999902    2    1    2    0    0  0.10429018456E-01 -0.19971047982E-01 -0.97498431456E-02  0.10193807307E+01  0.10190850835E+01 0.  0.
     999903    2    3    3    0    0  0.22189047640E-01  0.65842532197E-01 -0.10821615256E+00  0.12966286363E+00  0.16556861094E-01 0.  0.
         14    1    1    2    0    0 -0.10429018456E-01  0.19971047982E-01  0.97498431456E-02  0.24549269334E-01  0.00000000000E+00 0.  1.
     999901    1    3    3    0    0 -0.11760029184E-01 -0.85813580179E-01  0.98466309414E-01  0.88971786703E+00  0.88000000000E+00 0. -1.
        -11    1    4    4    0    0 -0.26735757734E-02  0.84122843195E-02 -0.13678528411E-01  0.16287350779E-01  0.51100000000E-03 0. -1.
         11    1    4    4    0    0  0.24862623413E-01  0.57430247878E-01 -0.94537624148E-01  0.11337551285E+00  0.51100000000E-03 0.  1.
</event>
<event>
 8    1  0.1180500E+005  0.1043930E+01  0.7957747E-01            NaN
         13   -1    0    0    0    0  0.00000000000E+00  0.00000000000E+00  0.74505805969E-08  0.10566000000E+00  0.10566000000E+00 0. -1.
     999900   -1    0    0    0    0 -0.00000000000E+00 -0.00000000000E+00 -0.74505805969E-08  0.93827000000E+00  0.93827000000E+00 0. -1.
     999902    2    1    2    0    0  0.22389218867E-01  0.59109439190E-02 -0.68356921261E-02  0.10197857861E+01  0.10194999296E+01 0.  0.
     999903    2    3    3    0    0 -0.10777012040E+00 -0.12231339942E-01  0.63536959533E-01  0.12724844446E+00  0.19779202827E-01 0.  0.
         14    1    1    2    0    0 -0.22389218867E-01 -0.59109439190E-02  0.68356921261E-02  0.24144213931E-01  0.00000000000E+00 0. -1.
     999901    1    3    3    0    0  0.13015933926E+00  0.18142283861E-01 -0.70372651659E-01  0.89253734161E+00  0.88000000000E+00 0.  1.
        -11    1    4    4    0    0 -0.44718676562E-02 -0.25278817093E-02  0.81198701959E-02  0.96219124538E-02  0.51100000000E-03 0.  1.
         11    1    4    4    0    0 -0.10329825274E+00 -0.97034582328E-02  0.55417089337E-01  0.11762653201E+00  0.51100000000E-03 0. -1.
</event>
<event>
 8    1  0.1180500E+005  0.1043930E+01  0.7957747E-01            NaN
         13   -1    0    0    0    0  0.00000000000E+00  0.00000000000E+00  0.74505805969E-08  0.10566000000E+00  0.10566000000E+00 0. -1.
     999900   -1    0    0    0    0 -0.00000000000E+00 -0.00000000000E+00 -0.74505805969E-08  0.93827000000E+00  0.93827000000E+00 0. -1.
     999902    2    1    2    0    0  0.59638811636E-02 -0.24361525671E-01  0.18772046025E-03  0.10188483922E+01  0.10185396208E+01 0.  0.
     999903    2    3    3    0    0 -0.81948406806E-01 -0.40331007412E-01 -0.89955504472E-01  0.12974243915E+00  0.19974388475E-01 0.  0.
         14    1    1    2    0    0 -0.59638811636E-02  0.24361525671E-01 -0.18772046025E-03  0.25081607813E-01  0.00000000000E+00 0.  1.
     999901    1    3    3    0    0  0.87912287970E-01  0.15969481742E-01  0.90143224932E-01  0.88910595304E+00  0.88000000000E+00 0.  1.
        -11    1    4    4    0    0 -0.18463230491E-01 -0.10234668403E-01 -0.33551417354E-01  0.39643385892E-01  0.51100000000E-03 0.  1.
         11    1    4    4    0    0 -0.63485176315E-01 -0.30096339010E-01 -0.56404087117E-01  0.90099053258E-01  0.51100000000E-03 0. -1.
</event>
<event>
 8    1  0.1180500E+005  0.1043930E+01  0.7957747E-01            NaN
         13   -1    0    0    0    0  0.00000000000E+00  0.00000000000E+00  0.74505805969E-08  0.10566000000E+00  0.10566000000E+00 0.  1.
     999900   -1    0    0    0    0 -0.00000000000E+00 -0.00000000000E+00 -0.74505805969E-08  0.93827000000E+00  0.93827000000E+00 0. -1.
     999902    2    1    2    0    0 -0.17518884342E-01  0.33464919149E-03 -0.16457482245E-01  0.10198910312E+01  0.10196076910E+01 0.  0.
     999903    2    3    3    0    0  0.74858170067E-01 -0.55605043310E-01 -0.88905044297E-01  0.13033416477E+00  0.19677935315E-01 0.  0.
         14    1    1    2    0    0  0.17518884342E-01 -0.33464919149E-03  0.16457482245E-01  0.24038968790E-01  0.00000000000E+00 0.  1.
     999901    1    3    3    0    0 -0.92377054409E-01  0.55939692501E-01  0.72447562052E-01  0.88955686644E+00  0.88000000000E+00 0.  1.
        -11    1    4    4    0    0  0.66426648508E-01 -0.50842943260E-01 -0.69958108007E-01  0.10905000004E+00  0.51100000000E-03 0. -1.
         11    1    4    4    0    0  0.84315215589E-02 -0.47621000498E-02 -0.18946936289E-01  0.21284164734E-01  0.51100000000E-03 0.  1.
</event>
<event>
 8    1  0.1180500E+005  0.1043930E+01  0.7957747E-01            NaN
         13   -1    0    0    0    0  0.00000000000E+00  0.00000000000E+00  0.74505805969E-08  0.10566000000E+00  0.10566000000E+00 0.  1.
     999900   -1    0    0    0    0 -0.00000000000E+00 -0.00000000000E+00 -0.74505805969E-08  0.93827000000E+00  0.93827000000E+00 0. -1.
     999902    2    1    2    0    0 -0.16889468761E-01 -0.11800829164E-01 -0.13033681207E-01  0.10195498735E+01  0.10192583352E+01 0.  0.
     999903    2    3    3    0    0 -0.68040968250E-01  0.54010824911E-01 -0.96924698199E-01  0.13163920654E+00  0.19691140372E-01 0.  0.
         14    1    1    2    0    0  0.16889468761E-01  0.11800829164E-01  0.13033681207E-01  0.24380126534E-01  0.00000000000E+00 0.  1.
     999901    1    3    3    0    0  0.51151499489E-01 -0.65811654075E-01  0.83891016992E-01  0.88791066693E+00  0.88000000000E+00 0.  1.
        -11    1    4    4    0    0 -0.30228717092E-01  0.27471753989E-01 -0.31683633698E-01  0.51697063452E-01  0.51100000000E-03 0.  1.
         11    1    4    4    0    0 -0.37812251158E-01  0.26539070922E-01 -0.65241064500E-01  0.79942143086E-01  0.51100000000E-03 0. -1.
</event>
<event>
 8    1  0.1180500E+005  0.1043930E+01  0.7957747E-01            NaN
         13   -1    0    0    0    0  0.00000000000E+00  0.00000000000E+00  0.74505805969E-08  0.10566000000E+00  0.10566000000E+00 0. -1.
     999900   -1    0    0    0    0 -0.00000000000E+00 -0.00000000000E+00 -0.74505805969E-08  0.93827000000E+00  0.93827000000E+00 0.  1.
     999902    2    1    2    0    0  0.13953563872E-01  0.21550033382E-01 -0.64619754148E-02  0.10174561826E+01  0.10171117050E+01 0.  0.
     999903    2    3    3    0    0 -0.39151314825E-01 -0.84050003156E-01  0.81761648848E-01  0.12518105474E+00  0.19700273081E-01 0.  0.
         14    1    1    2    0    0 -0.13953563872E-01 -0.21550033382E-01  0.64619754148E-02  0.26473817438E-01  0.00000000000E+00 0. -1.
     999901    1    3    3    0    0  0.53104878697E-01  0.10560003654E+00 -0.88223624263E-01  0.89227512783E+00  0.88000000000E+00 0. -1.
        -11    1    4    4    0    0 -0.47265899445E-02 -0.13580487883E-01  0.23200515291E-01  0.27300097700E-01  0.51100000000E-03 0. -1.
         11    1    4    4    0    0 -0.34424724880E-01 -0.70469515273E-01  0.58561133557E-01  0.97880957037E-01  0.51100000000E-03 0.  1.
</event>
<event>
 8    1  0.1180500E+005  0.1043930E+01  0.7957747E-01            NaN
         13   -1    0    0    0    0  0.00000000000E+00  0.00000000000E+00  0.74505805969E-08  0.10566000000E+00  0.10566000000E+00 0.  1.
     999900   -1    0    0    0    0 -0.00000000000E+00 -0.00000000000E+00 -0.74505805969E-08  0.93827000000E+00  0.93827000000E+00 0. -1.
     999902    2    1    2    0    0 -0.21757600693E-02 -0.21825627685E-01  0.57179825264E-02  0.10212631237E+01  0.10210115477E+01 0.  0.
     999903    2    3    3    0    0 -0.87877677767E-01  0.74378783960E-01 -0.55959383183E-01  0.12974520189E+00  0.21158333922E-01 0.  0.
         14    1    1    2    0    0  0.21757600693E-02  0.21825627685E-01 -0.57179825264E-02  0.22666876271E-01  0.00000000000E+00 0.  1.
     999901    1    3    3    0    0  0.85701917697E-01 -0.96204411646E-01  0.61677365709E-01  0.89151792184E+00  0.88000000000E+00 0.  1.
        -11    1    4    4    0    0 -0.37244479722E-01  0.44426048543E-01 -0.32018744102E-01  0.66229043129E-01  0.51100000000E-03 0.  1.
         11    1    4    4    0    0 -0.50633198045E-01  0.29952735417E-01 -0.23940639080E-01  0.63516158762E-01  0.51100000000E-03 0. -1.
</event>
<event>
 8    1  0.1180500E+005  0.1043930E+01  0.7957747E-01            NaN
         13   -1    0    0    0    0  0.00000000000E+00  0.00000000000E+00  0.74505805969E-08  0.10566000000E+00  0.10566000000E+00 0.  1.
     999900   -1    0    0    0    0 -0.00000000000E+00 -0.00000000000E+00 -0.74505805969E-08  0.93827000000E+00  0.93827000000E+00 0.  1.
     999902    2    1    2    0    0 -0.18654103656E-01 -0.14394840262E-01  0.42769369965E-02  0.10199825743E+01  0.10197014135E+01 0.  0.
     999903    2    3    3    0    0 -0.14400957511E-01  0.12125083059E+00  0.36333953182E-01  0.12900250178E+00  0.20306102914E-01 0.  0.
         14    1    1    2    0    0  0.18654103656E-01  0.14394840262E-01 -0.42769369965E-02  0.23947425737E-01  0.00000000000E+00 0. -1.
     999901    1    3    3    0    0 -0.42531461449E-02 -0.13564567085E+00 -0.32057016185E-01  0.89098007248E+00  0.88000000000E+00 0. -1.
        -11    1    4    4    0    0 -0.17781316330E-01  0.88521896884E-01  0.21016639590E-01  0.92705240947E-01  0.51100000000E-03 0.  1.
         11    1    4    4    0    0  0.33803588196E-02  0.32728933707E-01  0.15317313592E-01  0.36297260834E-01  0.51100000000E-03 0. -1.
</event>
<event>
 8    1  0.1180500E+005  0.1043930E+01  0.7957747E-01            NaN
         13   -1    0    0    0    0  0.00000000000E+00  0.00000000000E+00  0.74505805969E-08  0.10566000000E+00  0.10566000000E+00 0. -1.
     999900   -1    0    0    0    0 -0.00000000000E+00 -0.00000000000E+00 -0.74505805969E-08  0.93827000000E+00  0.93827000000E+00 0.  1.
     999902    2    1    2    0    0  0.38654488910E-02  0.14110993445E-01 -0.17037793044E-01  0.10214723015E+01  0.10212253985E+01 0.  0.
     999903    2    3    3    0    0 -0.41871031881E-01  0.31581305857E-01  0.11711974285E+00  0.12995938406E+00  0.20538869218E-01 0.  0.
         14    1    1    2    0    0 -0.38654488910E-02 -0.14110993445E-01  0.17037793044E-01  0.22457698523E-01  0.00000000000E+00 0. -1.
     999901    1    3    3    0    0  0.45736480772E-01 -0.17470312412E-01 -0.13415753589E+00  0.89151291742E+00  0.88000000000E+00 0.  1.
        -11    1    4    4    0    0 -0.14067635350E-01  0.10298427163E-02  0.20615391383E-01  0.24984283525E-01  0.51100000000E-03 0.  1.
         11    1    4    4    0    0 -0.27803396532E-01  0.30551463141E-01  0.96504351467E-01  0.10497510053E+00  0.51100000000E-03 0. -1.
</event>
<event>
 8    1  0.1180500E+005  0.1043930E+01  0.7957747E-01            NaN
         13   -1    0    0    0    0  0.00000000000E+00  0.00000000000E+00  0.74505805969E-08  0.10566000000E+00  0.10566000000E+00 0.  1.
     999900   -1    0    0    0    0 -0.00000000000E+00 -0.00000000000E+00 -0.74505805969E-08  0.93827000000E+00  0.93827000000E+00 0. -1.
     999902    2    1    2    0    0 -0.18300824983E-01  0.14156835728E-01 -0.25850406856E-02  0.10206487065E+01  0.10203831454E+01 0.  0.
     999903    2    3    3    0    0 -0.55729592564E-02  0.12364028212E+00  0.43170276157E-01  0.13259343082E+00  0.19984191604E-01 0.  0.
         14    1    1    2    0    0  0.18300824983E-01 -0.14156835728E-01  0.25850406856E-02  0.23281293526E-01  0.00000000000E+00 0. -1.
     999901    1    3    3    0    0 -0.12727865726E-01 -0.10948344640E+00 -0.45755316842E-01  0.88805527566E+00  0.88000000000E+00 0.  1.
        -11    1    4    4    0    0 -0.86205475641E-02  0.97368121909E-01  0.41164181103E-01  0.10606420665E+00  0.51100000000E-03 0. -1.
         11    1    4    4    0    0  0.30475883077E-02  0.26272160215E-01  0.20060950541E-02  0.26529224173E-01  0.51100000000E-03 0.  1.
</event>
<event>
 8    1  0.1180500E+005  0.1043930E+01  0.7957747E-01            NaN
         13   -1    0    0    0    0  0.00000000000E+00  0.00000000000E+00  0.74505805969E-08  0.10566000000E+00  0.10566000000E+00 0. -1.
     999900   -1    0    0    0    0 -0.00000000000E+00 -0.00000000000E+00 -0.74505805969E-08  0.93827000000E+00  0.93827000000E+00 0. -1.
     999902    2    1    2    0    0  0.54607134974E-02  0.16065704586E-01  0.16335381045E-01  0.10203764243E+01  0.10201045418E+01 0.  0.
     999903    2    3    3    0    0 -0.45492538760E-01  0.96191680421E-01 -0.72938706086E-01  0.13077748736E+00  0.21454274393E-01 0.  0.
         14    1    1    2    0    0 -0.54607134974E-02 -0.16065704586E-01 -0.16335381045E-01  0.23553575729E-01  0.00000000000E+00 0.  1.
     999901    1    3    3    0    0  0.50953252257E-01 -0.80125975836E-01  0.89274087131E-01  0.88959893691E+00  0.88000000000E+00 0. -1.
        -11    1    4    4    0    0 -0.16099922152E-01  0.35263527536E-01 -0.39383410932E-01  0.55263351737E-01  0.51100000000E-03 0. -1.
         11    1    4    4    0    0 -0.29392616608E-01  0.60928152885E-01 -0.33555295153E-01  0.75514135623E-01  0.51100000000E-03 0.  1.
</event>
<event>
 8    1  0.1180500E+005  0.1043930E+01  0.7957747E-01            NaN
         13   -1    0    0    0    0  0.00000000000E+00  0.00000000000E+00  0.74505805969E-08  0.10566000000E+00  0.10566000000E+00 0.  1.
     999900   -1    0    0    0    0 -0.00000000000E+00 -0.00000000000E+00 -0.74505805969E-08  0.93827000000E+00  0.93827000000E+00 0. -1.
     999902    2    1    2    0    0  0.21946882874E-01  0.47116437458E-02 -0.63591925283E-02  0.10205996639E+01  0.10203329698E+01 0.  0.
     999903    2    3    3    0    0 -0.34284161836E-01  0.35967211737E-01 -0.11999545488E+00  0.13096376022E+00  0.16839038808E-01 0.  0.
         14    1    1    2    0    0 -0.21946882874E-01 -0.47116437458E-02  0.63591925283E-02  0.23330336138E-01  0.00000000000E+00 0. -1.
     999901    1    3    3    0    0  0.56231044710E-01 -0.31255567991E-01  0.11363626235E+00  0.88963590364E+00  0.88000000000E+00 0.  1.
        -11    1    4    4    0    0 -0.19024322131E-01  0.11122927035E-01 -0.37915586885E-01  0.43857692463E-01  0.51100000000E-03 0. -1.
         11    1    4    4    0    0 -0.15259839705E-01  0.24844284703E-01 -0.82079867993E-01  0.87106067762E-01  0.51100000000E-03 0.  1.
</event>
<event>
 8    1  0.1180500E+005  0.1043930E+01  0.7957747E-01            NaN
         13   -1    0    0    0    0  0.00000000000E+00  0.00000000000E+00  0.74505805969E-08  0.10566000000E+00  0.10566000000E+00 0. -1.
     999900   -1    0    0    0    0 -0.00000000000E+00 -0.00000000000E+00 -0.74505805969E-08  0.93827000000E+00  0.93827000000E+00 0.  1.
     999902    2    1    2    0    0  0.56293438612E-02  0.76463887577E-03 -0.23020246571E-01  0.10202191177E+01  0.10199435486E+01 0.  0.
     999903    2    3    3    0    0 -0.44812650563E-01  0.11810605026E+00 -0.27022049580E-01  0.13098944210E+00  0.21698617954E-01 0.  0.
         14    1    1    2    0    0 -0.56293438612E-02 -0.76463887577E-03  0.23020246571E-01  0.23710882251E-01  0.00000000000E+00 0. -1.
     999901    1    3    3    0    0  0.50441994424E-01 -0.11734141138E+00  0.40018030094E-02  0.88922967565E+00  0.88000000000E+00 0. -1.
        -11    1    4    4    0    0 -0.68546046014E-02  0.46664610565E-01 -0.74265227152E-02  0.47749197314E-01  0.51100000000E-03 0. -1.
         11    1    4    4    0    0 -0.37958045962E-01  0.71441439690E-01 -0.19595526865E-01  0.83240244788E-01  0.51100000000E-03 0.  1.
</event>
<event>
 8    1  0.1180500E+005  0.1043930E+01  0.7957747E-01            NaN
         13   -1    0    0    0    0  0.00000000000E+00  0.00000000000E+00  0.74505805969E-08  0.10566000000E+00  0.10566000000E+00 0.  1.
     999900   -1    0    0    0    0 -0.00000000000E+00 -0.00000000000E+00 -0.74505805969E-08  0.93827000000E+00  0.93827000000E+00 0. -1.
     999902    2    1    2    0    0 -0.18421069552E-02  0.17100771635E-01  0.18258155509E-02  0.10266336608E+01  0.10264879493E+01 0.  0.
     999903    2    3    3    0    0  0.10777733067E+00  0.80751536088E-01 -0.17911779283E-01  0.13733201702E+00  0.20062090452E-01 0.  0.
         14    1    1    2    0    0  0.18421069552E-02 -0.17100771635E-01 -0.18258155509E-02  0.17296339236E-01  0.00000000000E+00 0. -1.
     999901    1    3    3    0    0 -0.10961943763E+00 -0.63650764453E-01  0.19737594833E-01  0.88930164375E+00  0.88000000000E+00 0.  1.
        -11    1    4    4    0    0  0.58708268989E-01  0.46743735622E-01 -0.19744582981E-01  0.77599918464E-01  0.51100000000E-03 0.  1.
         11    1    4    4    0    0  0.49069061684E-01  0.34007800466E-01  0.18328036987E-02  0.59732098552E-01  0.51100000000E-03 0. -1.
</event>
<event>
 8    1  0.1180500E+005  0.1043930E+01  0.7957747E-01            NaN
         13   -1    0    0    0    0  0.00000000000E+00  0.00000000000E+00  0.74505805969E-08  0.10566000000E+00  0.10566000000E+00 0.  1.
     999900   -1    0    0    0    0 -0.00000000000E+00 -0.00000000000E+00 -0.74505805969E-08  0.93827000000E+00  0.93827000000E+00 0.  1.
     999902    2    1    2    0    0 -0.76327689299E-02 -0.12689249627E-01  0.46052306851E-02  0.10284224416E+01  0.10283055159E+01 0.  0.
     999903    2    3    3    0    0  0.69234758053E-01  0.11139156173E+00  0.30624174627E-01  0.13602026215E+00  0.19029973671E-01 0.  0.
         14    1    1    2    0    0  0.76327689299E-02  0.12689249627E-01 -0.46052306851E-02  0.15507558393E-01  0.00000000000E+00 0. -1.
     999901    1    3    3    0    0 -0.76867526983E-01 -0.12408081135E+00 -0.26018943942E-01  0.89240217945E+00  0.88000000000E+00 0.  1.
        -11    1    4    4    0    0  0.34955570496E-01  0.47524551904E-01  0.52921203910E-02  0.59234640217E-01  0.51100000000E-03 0.  1.
         11    1    4    4    0    0  0.34279187557E-01  0.63867009823E-01  0.25332054236E-01  0.76785621936E-01  0.51100000000E-03 0. -1.
</event>
<event>
 8    1  0.1180500E+005  0.1043930E+01  0.7957747E-01            NaN
         13   -1    0    0    0    0  0.00000000000E+00  0.00000000000E+00  0.74505805969E-08  0.10566000000E+00  0.10566000000E+00 0. -1.
     999900   -1    0    0    0    0 -0.00000000000E+00 -0.00000000000E+00 -0.74505805969E-08  0.93827000000E+00  0.93827000000E+00 0. -1.
     999902    2    1    2    0    0  0.16051620474E-01 -0.87070156967E-03 -0.15268314387E-01  0.10217594325E+01  0.10215188710E+01 0.  0.
     999903    2    3    3    0    0 -0.30346628989E-03  0.36325134925E-01 -0.12723496429E+00  0.13373491151E+00  0.19408320332E-01 0.  0.
         14    1    1    2    0    0 -0.16051620474E-01  0.87070156967E-03  0.15268314387E-01  0.22170567546E-01  0.00000000000E+00 0. -1.
     999901    1    3    3    0    0  0.16355086764E-01 -0.37195836495E-01  0.11196664990E+00  0.88802452095E+00  0.88000000000E+00 0.  1.
        -11    1    4    4    0    0  0.80455264274E-02  0.21360750505E-01 -0.56202495299E-01  0.60662952091E-01  0.51100000000E-03 0. -1.
         11    1    4    4    0    0 -0.83489927173E-02  0.14964384420E-01 -0.71032468993E-01  0.73071959414E-01  0.51100000000E-03 0.  1.
</event>
<event>
 8    1  0.1180500E+005  0.1043930E+01  0.7957747E-01            NaN
         13   -1    0    0    0    0  0.00000000000E+00  0.00000000000E+00  0.74505805969E-08  0.10566000000E+00  0.10566000000E+00 0.  1.
     999900   -1    0    0    0    0 -0.00000000000E+00 -0.00000000000E+00 -0.74505805969E-08  0.93827000000E+00  0.93827000000E+00 0. -1.
     999902    2    1    2    0    0 -0.18088353570E-01  0.12626261513E-01  0.11450523154E-01  0.10190759159E+01  0.10187727896E+01 0.  0.
     999903    2    3    3    0    0 -0.72641518840E-01  0.27256101522E-01  0.10529145979E+00  0.13228608657E+00  0.19840157937E-01 0.  0.
         14    1    1    2    0    0  0.18088353570E-01 -0.12626261513E-01 -0.11450523154E-01  0.24854084074E-01  0.00000000000E+00 0. -1.
     999901    1    3    3    0    0  0.54553165270E-01 -0.14629840009E-01 -0.93840936631E-01  0.88678982936E+00  0.88000000000E+00 0. -1.
        -11    1    4    4    0    0 -0.20104263079E-01  0.35782576802E-02  0.41906619920E-01  0.46619858817E-01  0.51100000000E-03 0. -1.
         11    1    4    4    0    0 -0.52537255760E-01  0.23677843842E-01  0.63384839866E-01  0.85666227754E-01  0.51100000000E-03 0.  1.
</event>
<event>
 8    1  0.1180500E+005  0.1043930E+01  0.7957747E-01            NaN
         13   -1    0    0    0    0  0.00000000000E+00  0.00000000000E+00  0.74505805969E-08  0.10566000000E+00  0.10566000000E+00 0. -1.
     999900   -1    0    0    0    0 -0.00000000000E+00 -0.00000000000E+00 -0.74505805969E-08  0.93827000000E+00  0.93827000000E+00 0. -1.
     999902    2    1    2    0    0  0.31504830869E-03  0.11860588280E-02  0.24571259622E-01  0.10193281141E+01  0.10190311827E+01 0.  0.
     999903    2    3    3    0    0 -0.42828025765E-01 -0.31546598973E-01  0.11942527242E+00  0.13257559198E+00  0.22010547414E-01 0.  0.
         14    1    1    2    0    0 -0.31504830869E-03 -0.11860588280E-02 -0.24571259622E-01  0.24601885911E-01  0.00000000000E+00 0.  1.
     999901    1    3    3    0    0  0.43143074073E-01  0.32732657802E-01 -0.94854012800E-01  0.88675252211E+00  0.88000000000E+00 0. -1.
        -11    1    4    4    0    0 -0.29583510658E-01 -0.10004269068E-01  0.53288854727E-01  0.61767569659E-01  0.51100000000E-03 0.  1.
         11    1    4    4    0    0 -0.13244515106E-01 -0.21542329906E-01  0.66136417695E-01  0.70808022318E-01  0.51100000000E-03 0. -1.
</event>
<event>
 8    1  0.1180500E+005  0.1043930E+01  0.7957747E-01            NaN
         13   -1    0    0    0    0  0.00000000000E+00  0.00000000000E+00  0.74505805969E-08  0.10566000000E+00  0.10566000000E+00 0.  1.
     999900   -1    0    0    0    0 -0.00000000000E+00 -0.00000000000E+00 -0.74505805969E-08  0.93827000000E+00  0.93827000000E+00 0. -1.
     999902    2    1    2    0    0  0.12437115428E-01  0.13959212991E-01  0.14086866336E-01  0.10205210002E+01  0.10202524838E+01 0.  0.
     999903    2    3    3    0    0  0.11228627781E+00  0.13292254719E-01 -0.63760501719E-01  0.13145940912E+00  0.20767340868E-01 0.  0.
         14    1    1    2    0    0 -0.12437115428E-01 -0.13959212991E-01 -0.14086866336E-01  0.23408999779E-01  0.00000000000E+00 0. -1.
     999901    1    3    3    0    0 -0.99849162380E-01  0.66695827168E-03  0.77847368055E-01  0.88906159110E+00  0.88000000000E+00 0.  1.
        -11    1    4    4    0    0  0.62096405507E-01  0.16734547710E-01 -0.30757429243E-01  0.71290176312E-01  0.51100000000E-03 0.  1.
         11    1    4    4    0    0  0.50189872301E-01 -0.34422929910E-02 -0.33003072476E-01  0.60169232807E-01  0.51100000000E-03 0. -1.
</event>
<event>
 8    1  0.1180500E+005  0.1043930E+01  0.7957747E-01            NaN
         13   -1    0    0    0    0  0.00000000000E+00  0.00000000000E+00  0.74505805969E-08  0.10566000000E+00  0.10566000000E+00 0. -1.
     999900   -1    0    0    0    0 -0.00000000000E+00 -0.00000000000E+00 -0.74505805969E-08  0.93827000000E+00  0.93827000000E+00 0.  1.
     999902    2    1    2    0    0  0.10811663548E-01 -0.12840576179E-01 -0.26736908417E-02  0.10269323211E+01  0.10267916395E+01 0.  0.
     999903    2    3    3    0    0  0.58333013676E-02  0.10611244449E+00  0.80732001831E-01  0.13500681144E+00  0.20379026812E-01 0.  0.
         14    1    1    2    0    0 -0.10811663548E-01  0.12840576179E-01  0.26736908417E-02  0.16997678901E-01  0.00000000000E+00 0. -1.
     999901    1    3    3    0    0  0.49783621806E-02 -0.11895302067E+00 -0.83405692673E-01  0.89192550966E+00  0.88000000000E+00 0. -1.
        -11    1    4    4    0    0  0.10562847707E-01  0.79911027998E-01  0.52499020407E-01  0.96196436587E-01  0.51100000000E-03 0. -1.
         11    1    4    4    0    0 -0.47295463396E-02  0.26201416494E-01  0.28232981425E-01  0.38810374850E-01  0.51100000000E-03 0.  1.
</event>
<event>
 8    1  0.1180500E+005  0.1043930E+01  0.7957747E-01            NaN
         13   -1    0    0    0    0  0.00000000000E+00  0.00000000000E+00  0.74505805969E-08  0.10566000000E+00  0.10566000000E+00 0. -1.
     999900   -1    0    0    0    0 -0.00000000000E+00 -0.00000000000E+00 -0.74505805969E-08  0.93827000000E+00  0.93827000000E+00 0. -1.
     999902    2    1    2    0    0  0.10486923510E-01 -0.16782927476E-01  0.21318713079E-02  0.10240255509E+01  0.10238320867E+01 0.  0.
     999903    2    3    3    0    0  0.87871858153E-01 -0.99513814317E-01 -0.25205684391E-01  0.13634307967E+00  0.18156160201E-01 0.  0.
         14    1    1    2    0    0 -0.10486923510E-01  0.16782927476E-01 -0.21318713079E-02  0.19904449117E-01  0.00000000000E+00 0.  1.
     999901    1    3    3    0    0 -0.77384934643E-01  0.82730886840E-01  0.27337555699E-01  0.88768247121E+00  0.88000000000E+00 0.  1.
        -11    1    4    4    0    0  0.69569786061E-01 -0.71838473114E-01 -0.25315173144E-01  0.10315929655E+00  0.51100000000E-03 0. -1.
         11    1    4    4    0    0  0.18302072092E-01 -0.27675341202E-01  0.10948875246E-03  0.33183783122E-01  0.51100000000E-03 0.  1.
</event>
<event>
 8    1  0.1180500E+005  0.1043930E+01  0.7957747E-01            NaN
         13   -1    0    0    0    0  0.00000000000E+00  0.00000000000E+00  0.74505805969E-08  0.10566000000E+00  0.10566000000E+00 0.  1.
     999900   -1    0    0    0    0 -0.00000000000E+00 -0.00000000000E+00 -0.74505805969E-08  0.93827000000E+00  0.93827000000E+00 0. -1.
     999902    2    1    2    0    0 -0.16435050778E-01 -0.85516998804E-02  0.15116637553E-01  0.10200185969E+01  0.10197382914E+01 0.  0.
     999903    2    3    3    0    0  0.12237656817E+00 -0.20914030402E-01 -0.24394074584E-01  0.12817635241E+00  0.20510615213E-01 0.  0.
         14    1    1    2    0    0  0.16435050778E-01  0.85516998804E-02 -0.15116637553E-01  0.23911403050E-01  0.00000000000E+00 0. -1.
     999901    1    3    3    0    0 -0.13881161895E+00  0.12362330521E-01  0.39510712137E-01  0.89184224454E+00  0.88000000000E+00 0. -1.
        -11    1    4    4    0    0  0.45260181745E-01 -0.24860750725E-02 -0.38907061484E-03  0.45332958405E-01  0.51100000000E-03 0.  1.
         11    1    4    4    0    0  0.77116386430E-01 -0.18427955329E-01 -0.24005003969E-01  0.82843394004E-01  0.51100000000E-03 0. -1.
</event>
<event>
 8    1  0.1180500E+005  0.1043930E+01  0.7957747E-01            NaN
         13   -1    0    0    0    0  0.00000000000E+00  0.00000000000E+00  0.74505805969E-08  0.10566000000E+00  0.10566000000E+00 0.  1.
     999900   -1    0    0    0    0 -0.00000000000E+00 -0.00000000000E+00 -0.74505805969E-08  0.93827000000E+00  0.93827000000E+00 0. -1.
     999902    2    1    2    0    0  0.26511174479E-02 -0.24443681540E-01  0.22498505656E-02  0.10192402487E+01  0.10189411665E+01 0.  0.
     999903    2    3    3    0    0  0.91853894080E-01 -0.26996607305E-01 -0.85907744958E-01  0.13034463367E+00  0.21062483720E-01 0.  0.
         14    1    1    2    0    0 -0.26511174479E-02  0.24443681540E-01 -0.22498505656E-02  0.24689751285E-01  0.00000000000E+00 0. -1.
     999901    1    3    3    0    0 -0.89202776632E-01  0.25529257653E-02  0.88157595524E-01  0.88889561504E+00  0.88000000000E+00 0. -1.
        -11    1    4    4    0    0  0.55480535600E-01 -0.13653553163E-01 -0.37522880992E-01  0.68357421421E-01  0.51100000000E-03 0. -1.
         11    1    4    4    0    0  0.36373358480E-01 -0.13343054142E-01 -0.48384863966E-01  0.61987212254E-01  0.51100000000E-03 0.  1.
</event>
<event>
 8    1  0.1180500E+005  0.1043930E+01  0.7957747E-01            NaN
         13   -1    0    0    0    0  0.00000000000E+00  0.00000000000E+00  0.74505805969E-08  0.10566000000E+00  0.10566000000E+00 0. -1.
     999900   -1    0    0    0    0 -0.00000000000E+00 -0.00000000000E+00 -0.74505805969E-08  0.93827000000E+00  0.93827000000E+00 0. -1.
     999902    2    1    2    0    0 -0.10257649518E-01  0.11695620340E-01  0.17635416306E-01  0.10204137329E+01  0.10201427212E+01 0.  0.
     999903    2    3    3    0    0 -0.62712036256E-01  0.96646934602E-01 -0.59405926267E-01  0.13142354347E+00  0.21671507651E-01 0.  0.
         14    1    1    2    0    0  0.10257649518E-01 -0.11695620340E-01 -0.17635416306E-01  0.23516267072E-01  0.00000000000E+00 0.  1.
     999901    1    3    3    0    0  0.52454386738E-01 -0.84951314262E-01  0.77041342572E-01  0.88899018946E+00  0.88000000000E+00 0.  1.
        -11    1    4    4    0    0 -0.17714806841E-01  0.46770540362E-01 -0.23681283455E-01  0.55338613411E-01  0.51100000000E-03 0. -1.
         11    1    4    4    0    0 -0.44997229414E-01  0.49876394239E-01 -0.35724642812E-01  0.76084930061E-01  0.51100000000E-03 0.  1.
</event>
<event>
 8    1  0.1180500E+005  0.1043930E+01  0.7957747E-01            NaN
         13   -1    0    0    0    0  0.00000000000E+00  0.00000000000E+00  0.74505805969E-08  0.10566000000E+00  0.10566000000E+00 0.  1.
     999900   -1    0    0    0    0 -0.00000000000E+00 -0.00000000000E+00 -0.74505805969E-08  0.93827000000E+00  0.93827000000E+00 0.  1.
     999902    2    1    2    0    0  0.25292123063E-02 -0.11513332829E-01  0.21615779562E-01  0.10193089587E+01  0.10190115591E+01 0.  0.
     999903    2    3    3    0    0 -0.10047284462E-01  0.48148028190E-01  0.12043133838E+00  0.13168169408E+00  0.20425002976E-01 0.  0.
         14    1    1    2    0    0 -0.25292123063E-02  0.11513332829E-01 -0.21615779562E-01  0.24621041282E-01  0.00000000000E+00 0. -1.
     999901    1    3    3    0    0  0.12576496768E-01 -0.59661361020E-01 -0.98815558821E-01  0.88762726464E+00  0.88000000000E+00 0.  1.
        -11    1    4    4    0    0 -0.14596584180E-01  0.31298254503E-01  0.92545776399E-01  0.98780680575E-01  0.51100000000E-03 0.  1.
         11    1    4    4    0    0  0.45492997188E-02  0.16849773688E-01  0.27885561984E-01  0.32901013501E-01  0.51100000000E-03 0. -1.
</event>
<event>
 8    1  0.1180500E+005  0.1043930E+01  0.7957747E-01            NaN
         13   -1    0    0    0    0  0.00000000000E+00  0.00000000000E+00  0.74505805969E-08  0.10566000000E+00  0.10566000000E+00 0. -1.
     999900   -1    0    0    0    0 -0.00000000000E+00 -0.00000000000E+00 -0.74505805969E-08  0.93827000000E+00  0.93827000000E+00 0.  1.
     999902    2    1    2    0    0 -0.19624947287E-01 -0.10296098563E-01  0.66645067588E-02  0.10207877475E+01  0.10205253851E+01 0.  0.
     999903    2    3    3    0    0 -0.11605138168E+00  0.48521027729E-01 -0.37066688093E-01  0.13249166564E+00  0.18917948508E-01 0.  0.
         14    1    1    2    0    0  0.19624947287E-01  0.10296098563E-01 -0.66645067588E-02  0.23142252526E-01  0.00000000000E+00 0. -1.
     999901    1    3    3    0    0  0.96426434397E-01 -0.58817126292E-01  0.43731194852E-01  0.88829608183E+00  0.88000000000E+00 0. -1.
        -11    1    4    4    0    0 -0.37780256849E-01  0.80954372973E-02 -0.16562791314E-01  0.42041302189E-01  0.51100000000E-03 0.  1.
         11    1    4    4    0    0 -0.78271124835E-01  0.40425590432E-01 -0.20503896779E-01  0.90450363453E-01  0.51100000000E-03 0. -1.
</event>
<event>
 8    1  0.1180500E+005  0.1043930E+01  0.7957747E-01            NaN
         13   -1    0    0    0    0  0.00000000000E+00  0.00000000000E+00  0.74505805969E-08  0.10566000000E+00  0.10566000000E+00 0. -1.
     999900   -1    0    0    0    0 -0.00000000000E+00 -0.00000000000E+00 -0.74505805969E-08  0.93827000000E+00  0.93827000000E+00 0.  1.
     999902    2    1    2    0    0 -0.21598099563E-01 -0.28008864578E-02  0.15916493572E-01  0.10169548700E+01  0.10165970441E+01 0.  0.
     999903    2    3    3    0    0 -0.41699468186E-01  0.91874650335E-01  0.78651702888E-01  0.12942840350E+00  0.19642409333E-01 0.  0.
         14    1    1    2    0    0  0.21598099563E-01  0.28008864578E-02 -0.15916493572E-01  0.26975129978E-01  0.00000000000E+00 0.  1.
     999901    1    3    3    0    0  0.20101368623E-01 -0.94675536793E-01 -0.62735209316E-01  0.88752646652E+00  0.88000000000E+00 0.  1.
        -11    1    4    4    0    0 -0.30771641719E-01  0.78307501338E-01  0.56972944148E-01  0.10161267729E+00  0.51100000000E-03 0.  1.
         11    1    4    4    0    0 -0.10927826467E-01  0.13567148997E-01  0.21678758741E-01  0.27815726213E-01  0.51100000000E-03 0. -1.
</event>
<event>
 8    1  0.1180500E+005  0.1043930E+01  0.7957747E-01            NaN
         13   -1    0    0    0    0  0.00000000000E+00  0.00000000000E+00  0.74505805969E-08  0.10566000000E+00  0.10566000000E+00 0.  1.
     999900   -1    0    0    0    0 -0.00000000000E+00 -0.00000000000E+00 -0.74505805969E-08  0.93827000000E+00  0.93827000000E+00 0. -1.
     999902    2    1    2    0    0  0.99365318110E-02 -0.92708955874E-02 -0.19318037653E-01  0.10203107124E+01  0.10200372930E+01 0.  0.
     999903    2    3    3    0    0  0.34756654420E-01 -0.80220358423E-01  0.93615657609E-01  0.12991535957E+00  0.21697427737E-01 0.  0.
         14    1    1    2    0    0 -0.99365318110E-02  0.92708955874E-02  0.19318037653E-01  0.23619287631E-01  0.00000000000E+00 0. -1.
     999901    1    3    3    0    0 -0.24820122609E-01  0.70949462836E-01 -0.11293369526E+00  0.89039535280E+00  0.88000000000E+00 0. -1.
        -11    1    4    4    0    0  0.18804234554E-01 -0.19206153070E-01  0.24869927797E-01  0.36623079916E-01  0.51100000000E-03 0.  1.
         11    1    4    4    0    0  0.15952419865E-01 -0.61014205353E-01  0.68745729812E-01  0.93292279653E-01  0.51100000000E-03 0. -1.
</event>
<event>
 8    1  0.1180500E+005  0.1043930E+01  0.7957747E-01            NaN
         13   -1    0    0    0    0  0.00000000000E+00  0.00000000000E+00  0.74505805969E-08  0.10566000000E+00  0.10566000000E+00 0. -1.
     999900   -1    0    0    0    0 -0.00000000000E+00 -0.00000000000E+00 -0.74505805969E-08  0.93827000000E+00  0.93827000000E+00 0.  1.
     999902    2    1    2    0    0  0.14361388047E-02  0.24210755851E-01 -0.29449337458E-02  0.10194985484E+01  0.10192057664E+01 0.  0.
     999903    2    3    3    0    0  0.14752798475E-01  0.89513908178E-01  0.93342179223E-01  0.13174123737E+00  0.20312714771E-01 0.  0.
         14    1    1    2    0    0 -0.14361388047E-02 -0.24210755851E-01  0.29449337458E-02  0.24431451621E-01  0.00000000000E+00 0.  1.
     999901    1    3    3    0    0 -0.13316659670E-01 -0.65303152327E-01 -0.96287112968E-01  0.88775731101E+00  0.88000000000E+00 0.  1.
        -11    1    4    4    0    0  0.12312745148E-01  0.30489450189E-01  0.24397280190E-01  0.40947511128E-01  0.51100000000E-03 0. -1.
         11    1    4    4    0    0  0.24400533269E-02  0.59024457989E-01  0.68944899033E-01  0.90793726241E-01  0.51100000000E-03 0.  1.
</event>
<event>
 8    1  0.1180500E+005  0.1043930E+01  0.7957747E-01            NaN
         13   -1    0    0    0    0  0.00000000000E+00  0.00000000000E+00  0.74505805969E-08  0.10566000000E+00  0.10566000000E+00 0. -1.
     999900   -1    0    0    0    0 -0.00000000000E+00 -0.00000000000E+00 -0.74505805969E-08  0.93827000000E+00  0.93827000000E+00 0. -1.
     999902    2    1    2    0    0  0.15679492840E-01  0.31015181557E-02  0.19094674263E-01  0.10190287451E+01  0.10187244529E+01 0.  0.
     999903    2    3    3    0    0 -0.62522754859E-01  0.56963844474E-01  0.96560147058E-01  0.13053696617E+00  0.23707869682E-01 0.  0.
         14    1    1    2    0    0 -0.15679492840E-01 -0.31015181557E-02 -0.19094674263E-01  0.24901254904E-01  0.00000000000E+00 0. -1.
     999901    1    3    3    0    0  0.78202247699E-01 -0.53862326318E-01 -0.77465472794E-01  0.88849177892E+00  0.88000000000E+00 0. -1.
        -11    1    4    4    0    0 -0.30889855652E-01  0.25862719344E-01  0.63523110816E-01  0.75223069353E-01  0.51100000000E-03 0. -1.
         11    1    4    4    0    0 -0.31632899207E-01  0.31101125130E-01  0.33037036241E-01  0.55313896818E-01  0.51100000000E-03 0.  1.
</event>
<event>
 8    1  0.1180500E+005  0.1043930E+01  0.7957747E-01            NaN
         13   -1    0    0    0    0  0.00000000000E+00  0.00000000000E+00  0.74505805969E-08  0.10566000000E+00  0.10566000000E+00 0.  1.
     999900   -1    0    0    0    0 -0.00000000000E+00 -0.00000000000E+00 -0.74505805969E-08  0.93827000000E+00  0.93827000000E+00 0.  1.
     999902    2    1    2    0    0  0.71290887674E-02 -0.19715160762E-01 -0.13101922449E-01  0.10192081101E+01  0.10189082391E+01 0.  0.
     999903    2    3    3    0    0 -0.11631846250E+00  0.42758778578E-01  0.22646691355E-01  0.12768118708E+00  0.20768125565E-01 0.  0.
         14    1    1    2    0    0 -0.71290887674E-02  0.19715160762E-01  0.13101922449E-01  0.24721889944E-01  0.00000000000E+00 0. -1.
     999901    1    3    3    0    0  0.12344755127E+00 -0.62473939341E-01 -0.35748613804E-01  0.89152692298E+00  0.88000000000E+00 0.  1.
        -11    1    4    4    0    0 -0.32858624974E-01  0.13320179311E-01 -0.28688450694E-02  0.35575382010E-01  0.51100000000E-03 0. -1.
         11    1    4    4    0    0 -0.83459837527E-01  0.29438599267E-01  0.25515536424E-01  0.92105805066E-01  0.51100000000E-03 0.  1.
</event>
<event>
 8    1  0.1180500E+005  0.1043930E+01  0.7957747E-01            NaN
         13   -1    0    0    0    0  0.00000000000E+00  0.00000000000E+00  0.74505805969E-08  0.10566000000E+00  0.10566000000E+00 0. -1.
     999900   -1    0    0    0    0 -0.00000000000E+00 -0.00000000000E+00 -0.74505805969E-08  0.93827000000E+00  0.93827000000E+00 0.  1.
     999902    2    1    2    0    0 -0.56297609054E-02  0.45664369106E-02 -0.22557218215E-01  0.10202366539E+01  0.10199614970E+01 0.  0.
     999903    2    3    3    0    0 -0.64132663864E-01  0.10024106577E+00 -0.55115609352E-01  0.13252258224E+00  0.19058713701E-01 0.  0.
         14    1    1    2    0    0  0.56297609054E-02 -0.45664369106E-02  0.22557218215E-01  0.23693346060E-01  0.00000000000E+00 0. -1.
     999901    1    3    3    0    0  0.58502902959E-01 -0.95674628860E-01  0.32558391137E-01  0.88771407170E+00  0.88000000000E+00 0.  1.
        -11    1    4    4    0    0 -0.35496586572E-01  0.38294065290E-01 -0.21958934639E-01  0.56647144907E-01  0.51100000000E-03 0.  1.
         11    1    4    4    0    0 -0.28636077292E-01  0.61947000481E-01 -0.33156674714E-01  0.75875437332E-01  0.51100000000E-03 0. -1.
</event>
<event>
 8    1  0.1180500E+005  0.1043930E+01  0.7957747E-01            NaN
         13   -1    0    0    0    0  0.00000000000E+00  0.00000000000E+00  0.74505805969E-08  0.10566000000E+00  0.10566000000E+00 0.  1.
     999900   -1    0    0    0    0 -0.00000000000E+00 -0.00000000000E+00 -0.74505805969E-08  0.93827000000E+00  0.93827000000E+00 0. -1.
     999902    2    1    2    0    0 -0.47931289213E-02 -0.22002984341E-01 -0.57238262079E-02  0.10206949491E+01  0.10204304540E+01 0.  0.
     999903    2    3    3    0    0 -0.11848528775E+00  0.50501435447E-01 -0.11843433103E-02  0.13041218233E+00  0.20415098248E-01 0.  0.
         14    1    1    2    0    0  0.47931289213E-02  0.22002984341E-01  0.57238262079E-02  0.23235050919E-01  0.00000000000E+00 0.  1.
     999901    1    3    3    0    0  0.11369215883E+00 -0.72504419788E-01 -0.45394828976E-02  0.89028276675E+00  0.88000000000E+00 0.  1.
        -11    1    4    4    0    0 -0.11363343054E+00  0.50700032008E-01 -0.44946398356E-02  0.12451310249E+00  0.51100000000E-03 0. -1.
         11    1    4    4    0    0 -0.48518572051E-02 -0.19859656095E-03  0.33102965253E-02  0.58990798451E-02  0.51100000000E-03 0.  1.
</event>
<event>
 8    1  0.1180500E+005  0.1043930E+01  0.7957747E-01            NaN
         13   -1    0    0    0    0  0.00000000000E+00  0.00000000000E+00  0.74505805969E-08  0.10566000000E+00  0.10566000000E+00 0.  1.
     999900   -1    0    0    0    0 -0.00000000000E+00 -0.00000000000E+00 -0.74505805969E-08  0.93827000000E+00  0.93827000000E+00 0. -1.
     999902    2    1    2    0    0 -0.13895789223E-01  0.21992797813E-02  0.19597778149E-01  0.10198052679E+01  0.10195198781E+01 0.  0.
     999903    2    3    3    0    0 -0.37877974567E-01  0.72660941533E-01 -0.97340808164E-01  0.12895476196E+00  0.20970081472E-01 0.  0.
         14    1    1    2    0    0  0.13895789223E-01 -0.21992797813E-02 -0.19597778149E-01  0.24124732083E-01  0.00000000000E+00 0. -1.
     999901    1    3    3    0    0  0.23982185343E-01 -0.70461661752E-01  0.11693858631E+00  0.89085050595E+00  0.88000000000E+00 0.  1.
        -11    1    4    4    0    0 -0.35835845995E-01  0.68704249178E-01 -0.97409628630E-01  0.12447240089E+00  0.51100000000E-03 0.  1.
         11    1    4    4    0    0 -0.20421285714E-02  0.39566923552E-02  0.68820465852E-04  0.44823610689E-02  0.51100000000E-03 0. -1.
</event>
<event>
 8    1  0.1180500E+005  0.1043930E+01  0.7957747E-01            NaN
         13   -1    0    0    0    0  0.00000000000E+00  0.00000000000E+00  0.74505805969E-08  0.10566000000E+00  0.10566000000E+00 0. -1.
     999900   -1    0    0    0    0 -0.00000000000E+00 -0.00000000000E+00 -0.74505805969E-08  0.93827000000E+00  0.93827000000E+00 0. -1.
     999902    2    1    2    0    0 -0.71842970358E-02 -0.40491138557E-03  0.24212161563E-01  0.10186712026E+01  0.10183579981E+01 0.  0.
     999903    2    3    3    0    0  0.97382193078E-01 -0.69842946059E-02  0.84219373288E-01  0.13042669541E+00  0.19650652397E-01 0.  0.
         14    1    1    2    0    0  0.71842970358E-02  0.40491138557E-03 -0.24212161563E-01  0.25258797372E-01  0.00000000000E+00 0.  1.
     999901    1    3    3    0    0 -0.10456649011E+00  0.65793832203E-02 -0.60007211725E-01  0.88824450721E+00  0.88000000000E+00 0.  1.
        -11    1    4    4    0    0  0.42875944772E-01  0.60457283439E-02  0.41248694024E-01  0.59804793713E-01  0.51100000000E-03 0. -1.
         11    1    4    4    0    0  0.54506248306E-01 -0.13030022950E-01  0.42970679263E-01  0.70621901700E-01  0.51100000000E-03 0.  1.
</event>
<event>
 8    1  0.1180500E+005  0.1043930E+01  0.7957747E-01            NaN
         13   -1    0    0    0    0  0.00000000000E+00  0.00000000000E+00  0.74505805969E-08  0.10566000000E+00  0.10566000000E+00 0. -1.
     999900   -1    0    0    0    0 -0.00000000000E+00 -0.00000000000E+00 -0.74505805969E-08  0.93827000000E+00  0.93827000000E+00 0.  1.
     999902    2    1    2    0    0 -0.11478959534E-01 -0.19160940572E-01  0.69361815993E-02  0.10205415676E+01  0.10202735282E+01 0.  0.
     999903    2    3    3    0    0  0.11471758712E+00  0.37170308616E-01 -0.39314653530E-01  0.12855618779E+00  0.20959360633E-01 0.  0.
         14    1    1    2    0    0  0.11478959534E-01  0.19160940572E-01 -0.69361815993E-02  0.23388432414E-01  0.00000000000E+00 0. -1.
     999901    1    3    3    0    0 -0.12619654666E+00 -0.56331249189E-01  0.46250835130E-01  0.89198537980E+00  0.88000000000E+00 0. -1.
        -11    1    4    4    0    0  0.79371229588E-01  0.16893711588E-01 -0.20674346133E-01  0.83742935741E-01  0.51100000000E-03 0.  1.
         11    1    4    4    0    0  0.35346357536E-01  0.20276597029E-01 -0.18640307398E-01  0.44813252047E-01  0.51100000000E-03 0. -1.
</event>
<event>
 8    1  0.1180500E+005  0.1043930E+01  0.7957747E-01            NaN
         13   -1    0    0    0    0  0.00000000000E+00  0.00000000000E+00  0.74505805969E-08  0.10566000000E+00  0.10566000000E+00 0. -1.
     999900   -1    0    0    0    0 -0.00000000000E+00 -0.00000000000E+00 -0.74505805969E-08  0.93827000000E+00  0.93827000000E+00 0.  1.
     999902    2    1    2    0    0  0.11428928104E-01 -0.17111375327E-01  0.11858178810E-01  0.10201805586E+01  0.10199040818E+01 0.  0.
     999903    2    3    3    0    0 -0.41336565025E-01  0.66958337052E-01  0.10161472512E+00  0.13006362726E+00  0.19971586477E-01 0.  0.
         14    1    1    2    0    0 -0.11428928104E-01  0.17111375327E-01 -0.11858178810E-01  0.23749441423E-01  0.00000000000E+00 0.  1.
     999901    1    3    3    0    0  0.52765493129E-01 -0.84069712380E-01 -0.89756546312E-01  0.89011693131E+00  0.88000000000E+00 0.  1.
        -11    1    4    4    0    0 -0.24848697725E-01  0.51657039633E-01  0.82944386831E-01  0.10082628601E+00  0.51100000000E-03 0.  1.
         11    1    4    4    0    0 -0.16487867300E-01  0.15301297420E-01  0.18670338291E-01  0.29237341256E-01  0.51100000000E-03 0. -1.
</event>
<event>
 8    1  0.1180500E+005  0.1043930E+01  0.7957747E-01            NaN
         13   -1    0    0    0    0  0.00000000000E+00  0.00000000000E+00  0.74505805969E-08  0.10566000000E+00  0.10566000000E+00 0.  1.
     999900   -1    0    0    0    0 -0.00000000000E+00 -0.00000000000E+00 -0.74505805969E-08  0.93827000000E+00  0.93827000000E+00 0. -1.
     999902    2    1    2    0    0 -0.21940568033E-01  0.90451555858E-02  0.30413891028E-02  0.10200040013E+01  0.10197233494E+01 0.  0.
     999903    2    3    3    0    0 -0.34675838087E-02 -0.44180527197E-01 -0.12018848569E+00  0.12963338944E+00  0.19889707008E-01 0.  0.
         14    1    1    2    0    0  0.21940568033E-01 -0.90451555858E-02 -0.30413891028E-02  0.23925998681E-01  0.00000000000E+00 0.  1.
     999901    1    3    3    0    0 -0.18472984225E-01  0.53225682783E-01  0.12322987479E+00  0.89037061188E+00  0.88000000000E+00 0.  1.
        -11    1    4    4    0    0 -0.10715522773E-01 -0.35276188255E-01 -0.86206837496E-01  0.93760929166E-01  0.51100000000E-03 0.  1.
         11    1    4    4    0    0  0.72479389645E-02 -0.89043389425E-02 -0.33981648194E-01  0.35872460275E-01  0.51100000000E-03 0. -1.
</event>
<event>
 8    1  0.1180500E+005  0.1043930E+01  0.7957747E-01            NaN
         13   -1    0    0    0    0  0.00000000000E+00  0.00000000000E+00  0.74505805969E-08  0.10566000000E+00  0.10566000000E+00 0. -1.
     999900   -1    0    0    0    0 -0.00000000000E+00 -0.00000000000E+00 -0.74505805969E-08  0.93827000000E+00  0.93827000000E+00 0. -1.
     999902    2    1    2    0    0  0.35091046201E-02  0.19757474343E-01  0.12364156031E-01  0.10203600199E+01  0.10200877542E+01 0.  0.
     999903    2    3    3    0    0  0.10643795422E+00 -0.40558815572E-01 -0.58185075707E-01  0.12951233538E+00  0.20344197257E-01 0.  0.
         14    1    1    2    0    0 -0.35091046201E-02 -0.19757474343E-01 -0.12364156031E-01  0.23569980102E-01  0.00000000000E+00 0.  1.
     999901    1    3    3    0    0 -0.10292884960E+00  0.60316289915E-01  0.70549231738E-01  0.89084768452E+00  0.88000000000E+00 0.  1.
        -11    1    4    4    0    0  0.32273851225E-01 -0.22575802030E-01 -0.19455235446E-01  0.43932170643E-01  0.51100000000E-03 0.  1.
         11    1    4    4    0    0  0.74164102995E-01 -0.17983013542E-01 -0.38729840261E-01  0.85580164739E-01  0.51100000000E-03 0. -1.
</event>
<event>
 8    1  0.1180500E+005  0.1043930E+01  0.7957747E-01            NaN
         13   -1    0    0    0    0  0.00000000000E+00  0.00000000000E+00  0.74505805969E-08  0.10566000000E+00  0.10566000000E+00 0.  1.
     999900   -1    0    0    0    0 -0.00000000000E+00 -0.00000000000E+00 -0.74505805969E-08  0.93827000000E+00  0.93827000000E+00 0. -1.
     999902    2    1    2    0    0  0.15154949813E-01  0.16409405389E-01 -0.48565790370E-02  0.10210711407E+01  0.10208152364E+01 0.  0.
     999903    2    3    3    0    0 -0.39976377721E-02 -0.65654329344E-02 -0.13000641903E+00  0.13171342455E+00  0.19689367727E-01 0.  0.
         14    1    1    2    0    0 -0.15154949813E-01 -0.16409405389E-01  0.48565790370E-02  0.22858859311E-01  0.00000000000E+00 0.  1.
     999901    1    3    3    0    0  0.19152587585E-01  0.22974838323E-01  0.12514983999E+00  0.88935771614E+00  0.88000000000E+00 0.  1.
        -11    1    4    4    0    0  0.42168284536E-02 -0.10089080214E-01 -0.48676978002E-01  0.49892689747E-01  0.51100000000E-03 0. -1.
         11    1    4    4    0    0 -0.82144662257E-02  0.35236472797E-02 -0.81329441023E-01  0.81820734803E-01  0.51100000000E-03 0.  1.
</event>
<event>
 8    1  0.1180500E+005  0.1043930E+01  0.7957747E-01            NaN
         13   -1    0    0    0    0  0.00000000000E+00  0.00000000000E+00  0.74505805969E-08  0.10566000000E+00  0.10566000000E+00 0.  1.
     999900   -1    0    0    0    0 -0.00000000000E+00 -0.00000000000E+00 -0.74505805969E-08  0.93827000000E+00  0.93827000000E+00 0.  1.
     999902    2    1    2    0    0 -0.27494976842E-01  0.23614900547E-01 -0.11245846011E-01  0.10059812671E+01  0.10052652403E+01 0.  0.
     999903    2    3    3    0    0  0.64497381088E-02 -0.53724332482E-01 -0.10213131968E+00  0.11727784636E+00  0.19884259213E-01 0.  0.
         14    1    1    2    0    0  0.27494976842E-01 -0.23614900547E-01  0.11245846011E-01  0.37948732942E-01  0.00000000000E+00 0. -1.
     999901    1    3    3    0    0 -0.33944714951E-01  0.77339233029E-01  0.90885473670E-01  0.88870342070E+00  0.88000000000E+00 0. -1.
        -11    1    4    4    0    0  0.83669209718E-02 -0.92092544109E-02 -0.30151673236E-01  0.32622082295E-01  0.51100000000E-03 0. -1.
         11    1    4    4    0    0 -0.19171828630E-02 -0.44515078071E-01 -0.71979646445E-01  0.84655764063E-01  0.51100000000E-03 0.  1.
</event>
<event>
 8    1  0.1180500E+005  0.1043930E+01  0.7957747E-01            NaN
         13   -1    0    0    0    0  0.00000000000E+00  0.00000000000E+00  0.74505805969E-08  0.10566000000E+00  0.10566000000E+00 0.  1.
     999900   -1    0    0    0    0 -0.00000000000E+00 -0.00000000000E+00 -0.74505805969E-08  0.93827000000E+00  0.93827000000E+00 0. -1.
     999902    2    1    2    0    0 -0.22292500089E-01 -0.38101894601E-02  0.71201780664E-02  0.10202198747E+01  0.10199443234E+01 0.  0.
     999903    2    3    3    0    0  0.96145332289E-01 -0.61245196061E-01 -0.54975795469E-01  0.12826572231E+00  0.20853260416E-01 0.  0.
         14    1    1    2    0    0  0.22292500089E-01  0.38101894601E-02 -0.71201780664E-02  0.23710125255E-01  0.00000000000E+00 0. -1.
     999901    1    3    3    0    0 -0.11843783238E+00  0.57435006601E-01  0.62095973536E-01  0.89195415244E+00  0.88000000000E+00 0.  1.
        -11    1    4    4    0    0  0.89518449163E-01 -0.59425783647E-01 -0.56212554960E-01  0.12126454123E+00  0.51100000000E-03 0. -1.
         11    1    4    4    0    0  0.66268831256E-02 -0.18194124142E-02  0.12367594904E-02  0.70011810811E-02  0.51100000000E-03 0.  1.
</event>
<event>
 8    1  0.1180500E+005  0.1043930E+01  0.7957747E-01            NaN
         13   -1    0    0    0    0  0.00000000000E+00  0.00000000000E+00  0.74505805969E-08  0.10566000000E+00  0.10566000000E+00 0. -1.
     999900   -1    0    0    0    0 -0.00000000000E+00 -0.00000000000E+00 -0.74505805969E-08  0.93827000000E+00  0.93827000000E+00 0.  1.
     999902    2    1    2    0    0 -0.15199078317E-01  0.37813996307E-02 -0.18444986945E-01  0.10197323037E+01  0.10194451641E+01 0.  0.
     999903    2    3    3    0    0 -0.25675735662E-01  0.17067374423E-01  0.12301810711E+00  0.12827390056E+00  0.19240587757E-01 0.  0.
         14    1    1    2    0    0  0.15199078317E-01 -0.37813996307E-02  0.18444986945E-01  0.24197696342E-01  0.00000000000E+00 0. -1.
     999901    1    3    3    0    0  0.10476657346E-01 -0.13285974792E-01 -0.14146309405E+00  0.89145840310E+00  0.88000000000E+00 0.  1.
        -11    1    4    4    0    0 -0.13781686122E-01  0.37362268206E-02  0.85859631911E-01  0.87040403124E-01  0.51100000000E-03 0. -1.
         11    1    4    4    0    0 -0.11894049540E-01  0.13331147602E-01  0.37158475196E-01  0.41233497436E-01  0.51100000000E-03 0.  1.
</event>
<event>
 8    1  0.1180500E+005  0.1043930E+01  0.7957747E-01            NaN
         13   -1    0    0    0    0  0.00000000000E+00  0.00000000000E+00  0.74505805969E-08  0.10566000000E+00  0.10566000000E+00 0.  1.
     999900   -1    0    0    0    0 -0.00000000000E+00 -0.00000000000E+00 -0.74505805969E-08  0.93827000000E+00  0.93827000000E+00 0.  1.
     999902    2    1    2    0    0 -0.44527238229E-02 -0.19036717911E-01 -0.14433941416E-01  0.10196285177E+01  0.10193388799E+01 0.  0.
     999903    2    3    3    0    0 -0.79362783901E-01  0.81985814699E-01  0.54525020902E-01  0.12801626581E+00  0.19876144682E-01 0.  0.
         14    1    1    2    0    0  0.44527238229E-02  0.19036717911E-01  0.14433941416E-01  0.24301482322E-01  0.00000000000E+00 0.  1.
     999901    1    3    3    0    0  0.74910060078E-01 -0.10102253261E+00 -0.68958962318E-01  0.89161225187E+00  0.88000000000E+00 0.  1.
        -11    1    4    4    0    0 -0.66893065323E-01  0.62235817866E-01  0.36018966517E-01  0.98212047548E-01  0.51100000000E-03 0.  1.
         11    1    4    4    0    0 -0.12469718578E-01  0.19749996833E-01  0.18506054385E-01  0.29804218262E-01  0.51100000000E-03 0. -1.
</event>
<event>
 8    1  0.1180500E+005  0.1043930E+01  0.7957747E-01            NaN
         13   -1    0    0    0    0  0.00000000000E+00  0.00000000000E+00  0.74505805969E-08  0.10566000000E+00  0.10566000000E+00 0.  1.
     999900   -1    0    0    0    0 -0.00000000000E+00 -0.00000000000E+00 -0.74505805969E-08  0.93827000000E+00  0.93827000000E+00 0.  1.
     999902    2    1    2    0    0 -0.86082414171E-02 -0.33575684317E-02 -0.19330677929E-01  0.10225045433E+01  0.10222800452E+01 0.  0.
     999903    2    3    3    0    0 -0.16722050351E-01 -0.10764075147E+00 -0.76275514649E-01  0.13448228535E+00  0.20034285447E-01 0.  0.
         14    1    1    2    0    0  0.86082414171E-02  0.33575684317E-02  0.19330677929E-01  0.21425456711E-01  0.00000000000E+00 0.  1.
     999901    1    3    3    0    0  0.81138089334E-02  0.10428318304E+00  0.56944836719E-01  0.88802225794E+00  0.88000000000E+00 0. -1.
        -11    1    4    4    0    0  0.18114215826E-02 -0.29555580257E-02  0.21534216537E-03  0.35105647183E-02  0.51100000000E-03 0. -1.
         11    1    4    4    0    0 -0.18533471933E-01 -0.10468519345E+00 -0.76490856814E-01  0.13097172063E+00  0.51100000000E-03 0.  1.
</event>
<event>
 8    1  0.1180500E+005  0.1043930E+01  0.7957747E-01            NaN
         13   -1    0    0    0    0  0.00000000000E+00  0.00000000000E+00  0.74505805969E-08  0.10566000000E+00  0.10566000000E+00 0.  1.
     999900   -1    0    0    0    0 -0.00000000000E+00 -0.00000000000E+00 -0.74505805969E-08  0.93827000000E+00  0.93827000000E+00 0.  1.
     999902    2    1    2    0    0 -0.10897044659E-01 -0.47634038481E-02 -0.15751249811E-01  0.10241932964E+01  0.10240031108E+01 0.  0.
     999903    2    3    3    0    0  0.12509741422E+00 -0.40162527953E-01  0.83125206293E-03  0.13288943676E+00  0.19912803084E-01 0.  0.
         14    1    1    2    0    0  0.10897044659E-01  0.47634038481E-02  0.15751249811E-01  0.19736703604E-01  0.00000000000E+00 0.  1.
     999901    1    3    3    0    0 -0.13599445888E+00  0.35399124105E-01 -0.16582501874E-01  0.89130385964E+00  0.88000000000E+00 0.  1.
        -11    1    4    4    0    0  0.10692382662E+00 -0.41372816961E-01  0.14175723108E-02  0.11465899579E+00  0.51100000000E-03 0.  1.
         11    1    4    4    0    0  0.18173587596E-01  0.12102890081E-02 -0.58632024789E-03  0.18230440972E-01  0.51100000000E-03 0. -1.
</event>
<event>
 8    1  0.1180500E+005  0.1043930E+01  0.7957747E-01            NaN
         13   -1    0    0    0    0  0.00000000000E+00  0.00000000000E+00  0.74505805969E-08  0.10566000000E+00  0.10566000000E+00 0.  1.
     999900   -1    0    0    0    0 -0.00000000000E+00 -0.00000000000E+00 -0.74505805969E-08  0.93827000000E+00  0.93827000000E+00 0. -1.
     999902    2    1    2    0    0 -0.54162513772E-02 -0.14452669010E-01  0.31715122216E-01  0.10086587029E+01  0.10080418218E+01 0.  0.
     999903    2    3    3    0    0 -0.98844814336E-02 -0.94047676393E-03  0.12193275016E+00  0.12393175928E+00  0.19821652925E-01 0.  0.
         14    1    1    2    0    0  0.54162513772E-02  0.14452669010E-01 -0.31715122216E-01  0.35271297080E-01  0.00000000000E+00 0. -1.
     999901    1    3    3    0    0  0.44682300563E-02 -0.13512192246E-01 -0.90217627948E-01  0.88472694365E+00  0.88000000000E+00 0. -1.
        -11    1    4    4    0    0  0.49649228233E-02 -0.46191210727E-02  0.41919160481E-01  0.42467209404E-01  0.51100000000E-03 0.  1.
         11    1    4    4    0    0 -0.14849404257E-01  0.36786443088E-02  0.80013589683E-01  0.81464549872E-01  0.51100000000E-03 0. -1.
</event>
<event>
 8    1  0.1180500E+005  0.1043930E+01  0.7957747E-01            NaN
         13   -1    0    0    0    0  0.00000000000E+00  0.00000000000E+00  0.74505805969E-08  0.10566000000E+00  0.10566000000E+00 0. -1.
     999900   -1    0    0    0    0 -0.00000000000E+00 -0.00000000000E+00 -0.74505805969E-08  0.93827000000E+00  0.93827000000E+00 0. -1.
     999902    2    1    2    0    0  0.93521756281E-02  0.20966922872E-01  0.54928124560E-02  0.10203239408E+01  0.10200508311E+01 0.  0.
     999903    2    3    3    0    0 -0.43238472256E-02 -0.20500223007E-01  0.12749256566E+00  0.13083504395E+00  0.20603388733E-01 0.  0.
         14    1    1    2    0    0 -0.93521756281E-02 -0.20966922872E-01 -0.54928124560E-02  0.23606059230E-01  0.00000000000E+00 0.  1.
     999901    1    3    3    0    0  0.13676022854E-01  0.41467145879E-01 -0.12199975321E+00  0.88948889682E+00  0.88000000000E+00 0. -1.
        -11    1    4    4    0    0 -0.10216709445E-01 -0.21035529518E-01  0.10473987962E+00  0.10731998024E+00  0.51100000000E-03 0.  1.
         11    1    4    4    0    0  0.58928622199E-02  0.53530651095E-03  0.22752686038E-01  0.23515063707E-01  0.51100000000E-03 0. -1.
</event>
<event>
 8    1  0.1180500E+005  0.1043930E+01  0.7957747E-01            NaN
         13   -1    0    0    0    0  0.00000000000E+00  0.00000000000E+00  0.74505805969E-08  0.10566000000E+00  0.10566000000E+00 0.  1.
     999900   -1    0    0    0    0 -0.00000000000E+00 -0.00000000000E+00 -0.74505805969E-08  0.93827000000E+00  0.93827000000E+00 0.  1.
     999902    2    1    2    0    0 -0.20916823349E-01 -0.52027329100E-03  0.70122781946E-02  0.10218629153E+01  0.10216246186E+01 0.  0.
     999903    2    3    3    0    0  0.59712828818E-01  0.42271745033E-01 -0.10286118585E+00  0.13034484156E+00  0.32508949741E-01 0.  0.
         14    1    1    2    0    0  0.20916823349E-01  0.52027329100E-03 -0.70122781946E-02  0.22067084737E-01  0.00000000000E+00 0. -1.
     999901    1    3    3    0    0 -0.80629652167E-01 -0.42792018324E-01  0.10987346404E+00  0.89151807370E+00  0.88000000000E+00 0. -1.
        -11    1    4    4    0    0  0.50339656461E-01  0.17061977310E-01 -0.67789621750E-01  0.86144564659E-01  0.51100000000E-03 0. -1.
         11    1    4    4    0    0  0.93731723568E-02  0.25209767723E-01 -0.35071564098E-01  0.44200276899E-01  0.51100000000E-03 0.  1.
</event>
<event>
 8    1  0.1180500E+005  0.1043930E+01  0.7957747E-01            NaN
         13   -1    0    0    0    0  0.00000000000E+00  0.00000000000E+00  0.74505805969E-08  0.10566000000E+00  0.10566000000E+00 0. -1.
     999900   -1    0    0    0    0 -0.00000000000E+00 -0.00000000000E+00 -0.74505805969E-08  0.93827000000E+00  0.93827000000E+00 0. -1.
     999902    2    1    2    0    0 -0.89488271980E-02  0.35610755825E-02  0.21561250630E-01  0.10203153796E+01  0.10200420695E+01 0.  0.
     999903    2    3    3    0    0  0.43046654260E-01 -0.54450914782E-01 -0.10552696154E+00  0.12777947849E+00  0.19332329055E-01 0.  0.
         14    1    1    2    0    0  0.89488271980E-02 -0.35610755825E-02 -0.21561250630E-01  0.23614620392E-01  0.00000000000E+00 0.  1.
     999901    1    3    3    0    0 -0.51995481458E-01  0.58011990365E-01  0.12708821217E+00  0.89253590112E+00  0.88000000000E+00 0.  1.
        -11    1    4    4    0    0  0.26364120520E-01 -0.33906064608E-01 -0.81044471187E-01  0.91723254952E-01  0.51100000000E-03 0.  1.
         11    1    4    4    0    0  0.16682533740E-01 -0.20544850174E-01 -0.24482490354E-01  0.36056223535E-01  0.51100000000E-03 0. -1.
</event>
<event>
 8    1  0.1180500E+005  0.1043930E+01  0.7957747E-01            NaN
         13   -1    0    0    0    0  0.00000000000E+00  0.00000000000E+00  0.74505805969E-08  0.10566000000E+00  0.10566000000E+00 0. -1.
     999900   -1    0    0    0    0 -0.00000000000E+00 -0.00000000000E+00 -0.74505805969E-08  0.93827000000E+00  0.93827000000E+00 0. -1.
     999902    2    1    2    0    0 -0.10670418219E-01  0.18939136095E-01  0.22102898118E-02  0.10220797350E+01  0.10218461482E+01 0.  0.
     999903    2    3    3    0    0  0.69297880992E-01 -0.17632969808E-01  0.10836601824E+00  0.13134886288E+00  0.19905073146E-01 0.  0.
         14    1    1    2    0    0  0.10670418219E-01 -0.18939136095E-01 -0.22102898118E-02  0.21850265034E-01  0.00000000000E+00 0. -1.
     999901    1    3    3    0    0 -0.79968299211E-01  0.36572105903E-01 -0.10615572843E+00  0.89073087209E+00  0.88000000000E+00 0. -1.
        -11    1    4    4    0    0  0.35612274927E-01 -0.66022996081E-02  0.37653430320E-01  0.52248123616E-01  0.51100000000E-03 0. -1.
         11    1    4    4    0    0  0.33685606066E-01 -0.11030670200E-01  0.70712587918E-01  0.79100739264E-01  0.51100000000E-03 0.  1.
</event>
<event>
 8    1  0.1180500E+005  0.1043930E+01  0.7957747E-01            NaN
         13   -1    0    0    0    0  0.00000000000E+00  0.00000000000E+00  0.74505805969E-08  0.10566000000E+00  0.10566000000E+00 0. -1.
     999900   -1    0    0    0    0 -0.00000000000E+00 -0.00000000000E+00 -0.74505805969E-08  0.93827000000E+00  0.93827000000E+00 0. -1.
     999902    2    1    2    0    0  0.10220086159E-01  0.15854276445E-01 -0.14507406413E-01  0.10201335069E+01  0.10198559206E+01 0.  0.
     999903    2    3    3    0    0  0.12254711142E+00  0.31486190445E-01  0.33576147991E-01  0.13155388440E+00  0.13034265624E-01 0.  0.
         14    1    1    2    0    0 -0.10220086159E-01 -0.15854276445E-01  0.14507406413E-01  0.23796493093E-01  0.00000000000E+00 0. -1.
     999901    1    3    3    0    0 -0.11232702526E+00 -0.15631914000E-01 -0.48083554403E-01  0.88857962251E+00  0.88000000000E+00 0. -1.
        -11    1    4    4    0    0  0.80073018168E-01  0.19976982371E-01  0.28219901503E-01  0.87220364738E-01  0.51100000000E-03 0.  1.
         11    1    4    4    0    0  0.42474093249E-01  0.11509208074E-01  0.53562464876E-02  0.44333519658E-01  0.51100000000E-03 0. -1.
</event>
<event>
 8    1  0.1584806E+005  0.1043930E+01  0.7957747E-01            NaN
         13   -1    0    0    0    0  0.00000000000E+00  0.00000000000E+00  0.74505805969E-08  0.10566000000E+00  0.10566000000E+00 0.  1.
     999900   -1    0    0    0    0 -0.00000000000E+00 -0.00000000000E+00 -0.74505805969E-08  0.93827000000E+00  0.93827000000E+00 0.  1.
     999902    2    1    2    0    0  0.11065935797E-01 -0.26118225333E-02 -0.22050259608E-01  0.10191209190E+01  0.10188189030E+01 0.  0.
     999903    2    3    3    0    0 -0.10419735901E+00  0.57907067832E-01  0.40066298477E-01  0.12737732915E+00  0.20232587057E-01 0.  0.
         14    1    1    2    0    0 -0.11065935797E-01  0.26118225333E-02  0.22050259608E-01  0.24809081014E-01  0.00000000000E+00 0.  1.
     999901    1    3    3    0    0  0.11526329481E+00 -0.60518890365E-01 -0.62116558085E-01  0.89174358983E+00  0.88000000000E+00 0. -1.
        -11    1    4    4    0    0 -0.59713520964E-01  0.26879016261E-01  0.30742558227E-01  0.72343293459E-01  0.51100000000E-03 0. -1.
         11    1    4    4    0    0 -0.44483838044E-01  0.31028051571E-01  0.93237402498E-02  0.55034035693E-01  0.51100000000E-03 0.  1.
</event>
<event>
 8    1  0.1180500E+005  0.1043930E+01  0.7957747E-01            NaN
         13   -1    0    0    0    0  0.00000000000E+00  0.00000000000E+00  0.74505805969E-08  0.10566000000E+00  0.10566000000E+00 0. -1.
     999900   -1    0    0    0    0 -0.00000000000E+00 -0.00000000000E+00 -0.74505805969E-08  0.93827000000E+00  0.93827000000E+00 0. -1.
     999902    2    1    2    0    0  0.73549626081E-02 -0.17310377567E-01 -0.14362821924E-01  0.10202649350E+01  0.10199904423E+01 0.  0.
     999903    2    3    3    0    0 -0.69717357640E-01  0.24448453300E-01  0.10151343065E+00  0.12835056222E+00  0.26658083113E-01 0.  0.
         14    1    1    2    0    0 -0.73549626081E-02  0.17310377567E-01  0.14362821924E-01  0.23665064971E-01  0.00000000000E+00 0. -1.
     999901    1    3    3    0    0  0.77072320248E-01 -0.41758830867E-01 -0.11587625258E+00  0.89191437280E+00  0.88000000000E+00 0. -1.
        -11    1    4    4    0    0 -0.13288644499E-01  0.16070942554E-01  0.20340566095E-01  0.29135253856E-01  0.51100000000E-03 0.  1.
         11    1    4    4    0    0 -0.56428713141E-01  0.83775107463E-02  0.81172864559E-01  0.99215308369E-01  0.51100000000E-03 0. -1.
</event>
<event>
 8    1  0.1180500E+005  0.1043930E+01  0.7957747E-01            NaN
         13   -1    0    0    0    0  0.00000000000E+00  0.00000000000E+00  0.74505805969E-08  0.10566000000E+00  0.10566000000E+00 0.  1.
     999900   -1    0    0    0    0 -0.00000000000E+00 -0.00000000000E+00 -0.74505805969E-08  0.93827000000E+00  0.93827000000E+00 0. -1.
     999902    2    1    2    0    0 -0.14275837371E-01 -0.85597985313E-02  0.16883522792E-01  0.10202208662E+01  0.10199453381E+01 0.  0.
     999903    2    3    3    0    0 -0.10482585550E+00  0.76186511564E-01  0.54169445936E-02  0.13145052170E+00  0.21378770804E-01 0.  0.
         14    1    1    2    0    0  0.14275837371E-01  0.85597985313E-02 -0.16883522792E-01  0.23709133797E-01  0.00000000000E+00 0. -1.
     999901    1    3    3    0    0  0.90550018124E-01 -0.84746310095E-01  0.11466578199E-01  0.88877034451E+00  0.88000000000E+00 0.  1.
        -11    1    4    4    0    0 -0.40783246093E-01  0.42491572329E-01  0.25897761704E-03  0.58899363930E-01  0.51100000000E-03 0. -1.
         11    1    4    4    0    0 -0.64042609402E-01  0.33694939234E-01  0.51579669765E-02  0.72551157767E-01  0.51100000000E-03 0.  1.
</event>
<event>
 8    1  0.1180500E+005  0.1043930E+01  0.7957747E-01            NaN
         13   -1    0    0    0    0  0.00000000000E+00  0.00000000000E+00  0.74505805969E-08  0.10566000000E+00  0.10566000000E+00 0. -1.
     999900   -1    0    0    0    0 -0.00000000000E+00 -0.00000000000E+00 -0.74505805969E-08  0.93827000000E+00  0.93827000000E+00 0.  1.
     999902    2    1    2    0    0  0.60363754551E-02 -0.21987204713E-01 -0.12725118842E-01  0.10178186299E+01  0.10174836410E+01 0.  0.
     999903    2    3    3    0    0  0.77769159922E-01  0.68022403282E-01  0.71653038601E-01  0.12632157697E+00  0.12161138312E-01 0.  0.
         14    1    1    2    0    0 -0.60363754551E-02  0.21987204713E-01  0.12725118842E-01  0.26111370114E-01  0.00000000000E+00 0. -1.
     999901    1    3    3    0    0 -0.71732784467E-01 -0.90009607995E-01 -0.84378157442E-01  0.89149705291E+00  0.88000000000E+00 0.  1.
        -11    1    4    4    0    0  0.15264775028E-01  0.84738082299E-02  0.15350137614E-01  0.23253099327E-01  0.51100000000E-03 0. -1.
         11    1    4    4    0    0  0.62504384894E-01  0.59548595052E-01  0.56302900987E-01  0.10306847765E+00  0.51100000000E-03 0.  1.
</event>
<event>
 8    1  0.1180500E+005  0.1043930E+01  0.7957747E-01            NaN
         13   -1    0    0    0    0  0.00000000000E+00  0.00000000000E+00  0.74505805969E-08  0.10566000000E+00  0.10566000000E+00 0.  1.
     999900   -1    0    0    0    0 -0.00000000000E+00 -0.00000000000E+00 -0.74505805969E-08  0.93827000000E+00  0.93827000000E+00 0. -1.
     999902    2    1    2    0    0 -0.78903271781E-02  0.21571290635E-01  0.58344014321E-02  0.10202315173E+01  0.10199562396E+01 0.  0.
     999903    2    3    3    0    0 -0.82906813628E-01  0.57025052950E-02 -0.98951950707E-01  0.13070384983E+00  0.19645597434E-01 0.  0.
         14    1    1    2    0    0  0.78903271781E-02 -0.21571290635E-01 -0.58344014321E-02  0.23698482709E-01  0.00000000000E+00 0. -1.
     999901    1    3    3    0    0  0.75016486450E-01  0.15868785340E-01  0.10478635214E+00  0.88952766746E+00  0.88000000000E+00 0.  1.
        -11    1    4    4    0    0 -0.41540077386E-01 -0.67375239913E-02 -0.52108362012E-01  0.66981450950E-01  0.51100000000E-03 0.  1.
         11    1    4    4    0    0 -0.41366736243E-01  0.12440029286E-01 -0.46843588695E-01  0.63722398879E-01  0.51100000000E-03 0. -1.
</event>
<event>
 8    1  0.1180500E+005  0.1043930E+01  0.7957747E-01            NaN
         13   -1    0    0    0    0  0.00000000000E+00  0.00000000000E+00  0.74505805969E-08  0.10566000000E+00  0.10566000000E+00 0. -1.
     999900   -1    0    0    0    0 -0.00000000000E+00 -0.00000000000E+00 -0.74505805969E-08  0.93827000000E+00  0.93827000000E+00 0.  1.
     999902    2    1    2    0    0  0.85278785108E-02  0.35402283608E-02  0.21655025680E-01  0.10203885883E+01  0.10201169899E+01 0.  0.
     999903    2    3    3    0    0  0.75667268556E-01 -0.91821279594E-01  0.53590988490E-01  0.13211981104E+00  0.20663192020E-01 0.  0.
         14    1    1    2    0    0 -0.85278785108E-02 -0.35402283608E-02 -0.21655025680E-01  0.23541411724E-01  0.00000000000E+00 0.  1.
     999901    1    3    3    0    0 -0.67139390045E-01  0.95361507955E-01 -0.31935962809E-01  0.88826877724E+00  0.88000000000E+00 0.  1.
        -11    1    4    4    0    0  0.69241608759E-01 -0.76131206815E-01  0.51347543998E-01  0.11500953191E+00  0.51100000000E-03 0. -1.
         11    1    4    4    0    0  0.64256597967E-02 -0.15690072779E-01  0.22434444916E-02  0.17110279127E-01  0.51100000000E-03 0.  1.
</event>
<event>
 8    1  0.1180500E+005  0.1043930E+01  0.7957747E-01            NaN
         13   -1    0    0    0    0  0.00000000000E+00  0.00000000000E+00  0.74505805969E-08  0.10566000000E+00  0.10566000000E+00 0.  1.
     999900   -1    0    0    0    0 -0.00000000000E+00 -0.00000000000E+00 -0.74505805969E-08  0.93827000000E+00  0.93827000000E+00 0.  1.
     999902    2    1    2    0    0 -0.10126408024E-01 -0.11202210379E-01 -0.20179276835E-01  0.10187260941E+01  0.10184142664E+01 0.  0.
     999903    2    3    3    0    0 -0.30169371965E-01 -0.58374419401E-01 -0.11328206590E+00  0.13233167458E+00  0.19002152384E-01 0.  0.
         14    1    1    2    0    0  0.10126408024E-01  0.11202210379E-01  0.20179276835E-01  0.25203905857E-01  0.00000000000E+00 0. -1.
     999901    1    3    3    0    0  0.20042963942E-01  0.47172209022E-01  0.93102789069E-01  0.88639441957E+00  0.88000000000E+00 0. -1.
        -11    1    4    4    0    0 -0.68342687515E-02 -0.30321274396E-01 -0.42019040142E-01  0.52268037708E-01  0.51100000000E-03 0.  1.
         11    1    4    4    0    0 -0.23335103214E-01 -0.28053145005E-01 -0.71263025763E-01  0.80063636868E-01  0.51100000000E-03 0. -1.
</event>
<event>
 8    1  0.1180500E+005  0.1043930E+01  0.7957747E-01            NaN
         13   -1    0    0    0    0  0.00000000000E+00  0.00000000000E+00  0.74505805969E-08  0.10566000000E+00  0.10566000000E+00 0. -1.
     999900   -1    0    0    0    0 -0.00000000000E+00 -0.00000000000E+00 -0.74505805969E-08  0.93827000000E+00  0.93827000000E+00 0. -1.
     999902    2    1    2    0    0  0.89338253510E-02 -0.25406986397E-01 -0.29181485930E-02  0.10168404488E+01  0.10164795396E+01 0.  0.
     999903    2    3    3    0    0 -0.16633505890E-01 -0.30915045646E-01  0.12109840451E+00  0.12775995042E+00  0.20624446495E-01 0.  0.
         14    1    1    2    0    0 -0.89338253510E-02  0.25406986397E-01  0.29181485930E-02  0.27089551204E-01  0.00000000000E+00 0. -1.
     999901    1    3    3    0    0  0.25567331241E-01  0.55080592482E-02 -0.12401655310E+00  0.88908049837E+00  0.88000000000E+00 0. -1.
        -11    1    4    4    0    0 -0.15769250006E-01 -0.13245095262E-01  0.42980011309E-01  0.47661769663E-01  0.51100000000E-03 0. -1.
         11    1    4    4    0    0 -0.86425588482E-03 -0.17669950384E-01  0.78118393196E-01  0.80098180762E-01  0.51100000000E-03 0.  1.
</event>
<event>
 8    1  0.1180500E+005  0.1043930E+01  0.7957747E-01            NaN
         13   -1    0    0    0    0  0.00000000000E+00  0.00000000000E+00  0.74505805969E-08  0.10566000000E+00  0.10566000000E+00 0. -1.
     999900   -1    0    0    0    0 -0.00000000000E+00 -0.00000000000E+00 -0.74505805969E-08  0.93827000000E+00  0.93827000000E+00 0. -1.
     999902    2    1    2    0    0  0.33899307732E-02 -0.16997460674E-01  0.15501371699E-01  0.10206770900E+01  0.10204121835E+01 0.  0.
     999903    2    3    3    0    0 -0.42101343927E-01  0.68961882613E-01 -0.97099367388E-01  0.12818765518E+00  0.21806498592E-01 0.  0.
         14    1    1    2    0    0 -0.33899307732E-02  0.16997460674E-01 -0.15501371699E-01  0.23252910023E-01  0.00000000000E+00 0.  1.
     999901    1    3    3    0    0  0.45491274700E-01 -0.85959343286E-01  0.11260073909E+00  0.89248943479E+00  0.88000000000E+00 0.  1.
        -11    1    4    4    0    0 -0.28026364339E-01  0.54685830454E-01 -0.59299029311E-01  0.85397032435E-01  0.51100000000E-03 0.  1.
         11    1    4    4    0    0 -0.14074979588E-01  0.14276052159E-01 -0.37800338076E-01  0.42790622750E-01  0.51100000000E-03 0. -1.
</event>
<event>
 8    1  0.1180500E+005  0.1043930E+01  0.7957747E-01            NaN
         13   -1    0    0    0    0  0.00000000000E+00  0.00000000000E+00  0.74505805969E-08  0.10566000000E+00  0.10566000000E+00 0. -1.
     999900   -1    0    0    0    0 -0.00000000000E+00 -0.00000000000E+00 -0.74505805969E-08  0.93827000000E+00  0.93827000000E+00 0.  1.
     999902    2    1    2    0    0 -0.49375512726E-02 -0.13432994179E-01  0.18641346271E-01  0.10204284142E+01  0.10201577446E+01 0.  0.
     999903    2    3    3    0    0 -0.61079482409E-01  0.11218735356E-01 -0.11112854159E+00  0.12880077441E+00  0.19583757003E-01 0.  0.
         14    1    1    2    0    0  0.49375512726E-02  0.13432994179E-01 -0.18641346271E-01  0.23501585818E-01  0.00000000000E+00 0.  1.
     999901    1    3    3    0    0  0.56141931137E-01 -0.24651729536E-01  0.12976988787E+00  0.89162763977E+00  0.88000000000E+00 0. -1.
        -11    1    4    4    0    0 -0.10804035031E-01  0.93360651801E-02 -0.31797258168E-01  0.34859948853E-01  0.51100000000E-03 0. -1.
         11    1    4    4    0    0 -0.50275447379E-01  0.18826701763E-02 -0.79331283426E-01  0.93940825562E-01  0.51100000000E-03 0.  1.
</event>
<event>
 8    1  0.1180500E+005  0.1043930E+01  0.7957747E-01            NaN
         13   -1    0    0    0    0  0.00000000000E+00  0.00000000000E+00  0.74505805969E-08  0.10566000000E+00  0.10566000000E+00 0.  1.
     999900   -1    0    0    0    0 -0.00000000000E+00 -0.00000000000E+00 -0.74505805969E-08  0.93827000000E+00  0.93827000000E+00 0.  1.
     999902    2    1    2    0    0 -0.17165374790E-01 -0.30886114432E-01 -0.13080477714E-01  0.10062510795E+01  0.10055453912E+01 0.  0.
     999903    2    3    3    0    0  0.13749951119E-01 -0.61005115021E-01  0.98098284417E-01  0.11820624459E+00  0.20946542451E-01 0.  0.
         14    1    1    2    0    0  0.17165374790E-01  0.30886114432E-01  0.13080477714E-01  0.37678920547E-01  0.00000000000E+00 0. -1.
     999901    1    3    3    0    0 -0.30915325909E-01  0.30119000589E-01 -0.11117876213E+00  0.88804483486E+00  0.88000000000E+00 0.  1.
        -11    1    4    4    0    0  0.69854037310E-02 -0.43519781434E-01  0.50419693713E-01  0.66971440753E-01  0.51100000000E-03 0. -1.
         11    1    4    4    0    0  0.67645473883E-02 -0.17485333587E-01  0.47678590704E-01  0.51234803840E-01  0.51100000000E-03 0.  1.
</event>
<event>
 8    1  0.1180500E+005  0.1043930E+01  0.7957747E-01            NaN
         13   -1    0    0    0    0  0.00000000000E+00  0.00000000000E+00  0.74505805969E-08  0.10566000000E+00  0.10566000000E+00 0.  1.
     999900   -1    0    0    0    0 -0.00000000000E+00 -0.00000000000E+00 -0.74505805969E-08  0.93827000000E+00  0.93827000000E+00 0. -1.
     999902    2    1    2    0    0 -0.22312786525E-01  0.90594914558E-02 -0.53872978795E-02  0.10192529295E+01  0.10189541582E+01 0.  0.
     999903    2    3    3    0    0  0.14432656283E-01  0.73521477034E-01  0.10381250566E+00  0.12940453108E+00  0.18835795156E-01 0.  0.
         14    1    1    2    0    0  0.22312786525E-01 -0.90594914558E-02  0.53872978795E-02  0.24677070458E-01  0.00000000000E+00 0. -1.
     999901    1    3    3    0    0 -0.36745442808E-01 -0.64461985578E-01 -0.10919980354E+00  0.88984839846E+00  0.88000000000E+00 0. -1.
        -11    1    4    4    0    0  0.15460014239E-01  0.72480175833E-01  0.95165217066E-01  0.12061951579E+00  0.51100000000E-03 0. -1.
         11    1    4    4    0    0 -0.10273579563E-02  0.10413012012E-02  0.86472885973E-02  0.87850152900E-02  0.51100000000E-03 0.  1.
</event>
<event>
 8    1  0.1180500E+005  0.1043930E+01  0.7957747E-01            NaN
         13   -1    0    0    0    0  0.00000000000E+00  0.00000000000E+00  0.74505805969E-08  0.10566000000E+00  0.10566000000E+00 0.  1.
     999900   -1    0    0    0    0 -0.00000000000E+00 -0.00000000000E+00 -0.74505805969E-08  0.93827000000E+00  0.93827000000E+00 0. -1.
     999902    2    1    2    0    0  0.21677121040E-01 -0.38812163060E-02  0.81826291702E-02  0.10204370896E+01  0.10201666222E+01 0.  0.
     999903    2    3    3    0    0 -0.89148964282E-01 -0.60078306225E-01  0.71685761122E-01  0.12944147694E+00  0.77010968683E-02 0.  0.
         14    1    1    2    0    0 -0.21677121040E-01  0.38812163060E-02 -0.81826291702E-02  0.23492910350E-01  0.00000000000E+00 0. -1.
     999901    1    3    3    0    0  0.11082608532E+00  0.56197089919E-01 -0.63503131952E-01  0.89099561271E+00  0.88000000000E+00 0. -1.
        -11    1    4    4    0    0 -0.38344581135E-01 -0.24258939161E-01  0.34516045354E-01  0.57012468282E-01  0.51100000000E-03 0.  1.
         11    1    4    4    0    0 -0.50804383146E-01 -0.35819367064E-01  0.37169715768E-01  0.72429008657E-01  0.51100000000E-03 0. -1.
</event>
<event>
 8    1  0.1180500E+005  0.1043930E+01  0.7957747E-01            NaN
         13   -1    0    0    0    0  0.00000000000E+00  0.00000000000E+00  0.74505805969E-08  0.10566000000E+00  0.10566000000E+00 0. -1.
     999900   -1    0    0    0    0 -0.00000000000E+00 -0.00000000000E+00 -0.74505805969E-08  0.93827000000E+00  0.93827000000E+00 0. -1.
     999902    2    1    2    0    0  0.15065704088E-01  0.12163337484E-01  0.13469209947E-01  0.10203431004E+01  0.10200704390E+01 0.  0.
     999903    2    3    3    0    0  0.83985512870E-01 -0.11875790546E-01 -0.97063507234E-01  0.13043001399E+00  0.19901340115E-01 0.  0.
         14    1    1    2    0    0 -0.15065704088E-01 -0.12163337484E-01 -0.13469209947E-01  0.23586899648E-01  0.00000000000E+00 0.  1.
     999901    1    3    3    0    0 -0.68919808782E-01  0.24039128030E-01  0.11053271718E+00  0.88991308637E+00  0.88000000000E+00 0.  1.
        -11    1    4    4    0    0  0.25216986083E-01 -0.15008154388E-02 -0.16528818190E-01  0.30192909530E-01  0.51100000000E-03 0.  1.
         11    1    4    4    0    0  0.58768526787E-01 -0.10374975108E-01 -0.80534689044E-01  0.10023710446E+00  0.51100000000E-03 0. -1.
</event>
<event>
 8    1  0.1180500E+005  0.1043930E+01  0.7957747E-01            NaN
         13   -1    0    0    0    0  0.00000000000E+00  0.00000000000E+00  0.74505805969E-08  0.10566000000E+00  0.10566000000E+00 0.  1.
     999900   -1    0    0    0    0 -0.00000000000E+00 -0.00000000000E+00 -0.74505805969E-08  0.93827000000E+00  0.93827000000E+00 0. -1.
     999902    2    1    2    0    0  0.26086999245E-02  0.24651558248E-01  0.27669440229E-03  0.10191392517E+01  0.10188376874E+01 0.  0.
     999903    2    3    3    0    0  0.22610775752E-01 -0.12108842106E+00  0.21848205022E-01  0.12666765294E+00  0.19841807931E-01 0.  0.
         14    1    1    2    0    0 -0.26086999245E-02 -0.24651558248E-01 -0.27669440229E-03  0.24790748257E-01  0.00000000000E+00 0. -1.
     999901    1    3    3    0    0 -0.20002075828E-01  0.14573997931E+00 -0.21571510619E-01  0.89247159881E+00  0.88000000000E+00 0.  1.
        -11    1    4    4    0    0  0.76230418070E-02 -0.11896299489E-01 -0.74775648095E-03  0.14158141427E-01  0.51100000000E-03 0.  1.
         11    1    4    4    0    0  0.14987733945E-01 -0.10919212157E+00  0.22595961503E-01  0.11250951151E+00  0.51100000000E-03 0. -1.
</event>
<event>
 8    1  0.1180500E+005  0.1043930E+01  0.7957747E-01            NaN
         13   -1    0    0    0    0  0.00000000000E+00  0.00000000000E+00  0.74505805969E-08  0.10566000000E+00  0.10566000000E+00 0.  1.
     999900   -1    0    0    0    0 -0.00000000000E+00 -0.00000000000E+00 -0.74505805969E-08  0.93827000000E+00  0.93827000000E+00 0. -1.
     999902    2    1    2    0    0  0.20016593991E-01 -0.11665555912E-01  0.20999335838E-02  0.10206671766E+01  0.10204020416E+01 0.  0.
     999903    2    3    3    0    0 -0.10028925110E+00  0.19137705546E-01  0.76047464782E-01  0.12887652035E+00  0.20043825417E-01 0.  0.
         14    1    1    2    0    0 -0.20016593991E-01  0.11665555912E-01 -0.20999335838E-02  0.23262823363E-01  0.00000000000E+00 0. -1.
     999901    1    3    3    0    0  0.12030584509E+00 -0.30803261458E-01 -0.73947531198E-01  0.89179065629E+00  0.88000000000E+00 0.  1.
        -11    1    4    4    0    0 -0.26926388276E-01  0.13945721739E-01  0.18887526304E-01  0.35728326455E-01  0.51100000000E-03 0. -1.
         11    1    4    4    0    0 -0.73362862821E-01  0.51919838069E-02  0.57159938478E-01  0.93148193890E-01  0.51100000000E-03 0.  1.
</event>
<event>
 8    1  0.1180500E+005  0.1043930E+01  0.7957747E-01            NaN
         13   -1    0    0    0    0  0.00000000000E+00  0.00000000000E+00  0.74505805969E-08  0.10566000000E+00  0.10566000000E+00 0.  1.
     999900   -1    0    0    0    0 -0.00000000000E+00 -0.00000000000E+00 -0.74505805969E-08  0.93827000000E+00  0.93827000000E+00 0.  1.
     999902    2    1    2    0    0  0.15468382424E-01  0.14588658809E-01 -0.96692931184E-02  0.10205720238E+01  0.10203046902E+01 0.  0.
     999903    2    3    3    0    0 -0.61566925255E-01 -0.81099527088E-01  0.74794968470E-01  0.12803357703E+00  0.20753071109E-01 0.  0.
         14    1    1    2    0    0 -0.15468382424E-01 -0.14588658809E-01  0.96692931184E-02  0.23357976155E-01  0.00000000000E+00 0. -1.
     999901    1    3    3    0    0  0.77035307680E-01  0.95688185896E-01 -0.84464261589E-01  0.89253844681E+00  0.88000000000E+00 0.  1.
        -11    1    4    4    0    0 -0.43481877254E-01 -0.69197493996E-01  0.64185365875E-01  0.10391818483E+00  0.51100000000E-03 0.  1.
         11    1    4    4    0    0 -0.18085048001E-01 -0.11902033091E-01  0.10609602595E-01  0.24115392204E-01  0.51100000000E-03 0. -1.
</event>
<event>
 8    1  0.1180500E+005  0.1043930E+01  0.7957747E-01            NaN
         13   -1    0    0    0    0  0.00000000000E+00  0.00000000000E+00  0.74505805969E-08  0.10566000000E+00  0.10566000000E+00 0. -1.
     999900   -1    0    0    0    0 -0.00000000000E+00 -0.00000000000E+00 -0.74505805969E-08  0.93827000000E+00  0.93827000000E+00 0.  1.
     999902    2    1    2    0    0  0.60188371777E-02  0.22998998492E-01  0.31435546265E-02  0.10199495440E+01  0.10196675979E+01 0.  0.
     999903    2    3    3    0    0 -0.11511124552E+00  0.49317622659E-01 -0.30789837015E-01  0.13061460039E+00  0.20720352875E-01 0.  0.
         14    1    1    2    0    0 -0.60188371777E-02 -0.22998998492E-01 -0.31435546265E-02  0.23980455965E-01  0.00000000000E+00 0.  1.
     999901    1    3    3    0    0  0.12113008270E+00 -0.26318624167E-01  0.33933391641E-01  0.88933494364E+00  0.88000000000E+00 0. -1.
        -11    1    4    4    0    0 -0.80992412581E-01  0.31909312769E-01 -0.11767474042E-01  0.87844804646E-01  0.51100000000E-03 0.  1.
         11    1    4    4    0    0 -0.34118832938E-01  0.17408309889E-01 -0.19022362973E-01  0.42769795748E-01  0.51100000000E-03 0. -1.
</event>
<event>
 8    1  0.1180500E+005  0.1043930E+01  0.7957747E-01            NaN
         13   -1    0    0    0    0  0.00000000000E+00  0.00000000000E+00  0.74505805969E-08  0.10566000000E+00  0.10566000000E+00 0.  1.
     999900   -1    0    0    0    0 -0.00000000000E+00 -0.00000000000E+00 -0.74505805969E-08  0.93827000000E+00  0.93827000000E+00 0.  1.
     999902    2    1    2    0    0  0.11365510592E-01 -0.18394185989E-01  0.93768829531E-02  0.10203620802E+01  0.10200898627E+01 0.  0.
     999903    2    3    3    0    0 -0.15580846452E-02 -0.12793104548E+00  0.29347678949E-01  0.13325206697E+00  0.22935715977E-01 0.  0.
         14    1    1    2    0    0 -0.11365510592E-01  0.18394185989E-01 -0.93768829531E-02  0.23567919788E-01  0.00000000000E+00 0.  1.
     999901    1    3    3    0    0  0.12923595237E-01  0.10953685949E+00 -0.19970795996E-01  0.88711001324E+00  0.88000000000E+00 0. -1.
        -11    1    4    4    0    0 -0.62391306366E-02 -0.10164789534E+00  0.14998204833E-01  0.10293895592E+00  0.51100000000E-03 0.  1.
         11    1    4    4    0    0  0.46810459914E-02 -0.26283150141E-01  0.14349474116E-01  0.30313111046E-01  0.51100000000E-03 0. -1.
</event>
<event>
 8    1  0.1180500E+005  0.1043930E+01  0.7957747E-01            NaN
         13   -1    0    0    0    0  0.00000000000E+00  0.00000000000E+00  0.74505805969E-08  0.10566000000E+00  0.10566000000E+00 0.  1.
     999900   -1    0    0    0    0 -0.00000000000E+00 -0.00000000000E+00 -0.74505805969E-08  0.93827000000E+00  0.93827000000E+00 0.  1.
     999902    2    1    2    0    0  0.17628725423E-01 -0.13828585855E-01 -0.77051960622E-02  0.10202367142E+01  0.10199615587E+01 0.  0.
     999903    2    3    3    0    0  0.85660903011E-01 -0.77815662189E-02  0.97252215044E-01  0.13137170655E+00  0.20054647181E-01 0.  0.
         14    1    1    2    0    0 -0.17628725423E-01  0.13828585855E-01  0.77051960622E-02  0.23693285824E-01  0.00000000000E+00 0. -1.
     999901    1    3    3    0    0 -0.68032177588E-01 -0.60470196364E-02 -0.10495741111E+00  0.88886500762E+00  0.88000000000E+00 0.  1.
        -11    1    4    4    0    0  0.19286803128E-01  0.48249068836E-02  0.14893453997E-01  0.24846259161E-01  0.51100000000E-03 0. -1.
         11    1    4    4    0    0  0.66374099883E-01 -0.12606473103E-01  0.82358761047E-01  0.10652544739E+00  0.51100000000E-03 0.  1.
</event>
<event>
 7    1  0.1180500E+005  0.1043930E+01  0.7957747E-01            NaN
         13   -1    0    0    0    0  0.00000000000E+00  0.00000000000E+00  0.74505805969E-08  0.10566000000E+00  0.10566000000E+00 0. -1.
     999900   -1    0    0    0    0 -0.00000000000E+00 -0.00000000000E+00 -0.74505805969E-08  0.93827000000E+00  0.93827000000E+00 0. -1.
     999903    2    1    2    0    0  0.65233981091E-01 -0.71309733495E-01 -0.50796469110E-01  0.11076931219E+00  0.18681779085E-01 0.  0.
         14    1    1    2    0    0  0.32301783226E-01 -0.87480998807E-02 -0.23754951297E-01  0.41039397683E-01  0.00000000000E+00 0.  1.
     999901    1    1    2    0    0 -0.97535764317E-01  0.80057833376E-01  0.74551420407E-01  0.89212129012E+00  0.88000000000E+00 0. -1.
        -11    1    3    3    0    0  0.33066676230E-01 -0.48439885140E-01 -0.26013616865E-01  0.64162270320E-01  0.51100000000E-03 0. -1.
         11    1    3    3    0    0  0.32167304862E-01 -0.22869848355E-01 -0.24782852245E-01  0.46607041874E-01  0.51100000000E-03 0.  1.
</event>
<event>
 8    1  0.1180500E+005  0.1043930E+01  0.7957747E-01            NaN
         13   -1    0    0    0    0  0.00000000000E+00  0.00000000000E+00  0.74505805969E-08  0.10566000000E+00  0.10566000000E+00 0. -1.
     999900   -1    0    0    0    0 -0.00000000000E+00 -0.00000000000E+00 -0.74505805969E-08  0.93827000000E+00  0.93827000000E+00 0. -1.
     999902    2    1    2    0    0 -0.13166019474E-01  0.14957768821E-01 -0.12624807101E-01  0.10203404966E+01  0.10200677744E+01 0.  0.
     999903    2    3    3    0    0 -0.65043957023E-01  0.50158318666E-01 -0.10330805527E+00  0.13346178413E+00  0.19822216410E-01 0.  0.
         14    1    1    2    0    0  0.13166019474E-01 -0.14957768821E-01  0.12624807101E-01  0.23589503412E-01  0.00000000000E+00 0. -1.
     999901    1    3    3    0    0  0.51877937549E-01 -0.35200549845E-01  0.90683248166E-01  0.88687871246E+00  0.88000000000E+00 0.  1.
        -11    1    4    4    0    0 -0.24562622545E-01  0.27143690238E-01 -0.57309004409E-01  0.68005039912E-01  0.51100000000E-03 0.  1.
         11    1    4    4    0    0 -0.40481334478E-01  0.23014628428E-01 -0.45999050858E-01  0.65456744218E-01  0.51100000000E-03 0. -1.
</event>
<event>
 8    1  0.1180500E+005  0.1043930E+01  0.7957747E-01            NaN
         13   -1    0    0    0    0  0.00000000000E+00  0.00000000000E+00  0.74505805969E-08  0.10566000000E+00  0.10566000000E+00 0. -1.
     999900   -1    0    0    0    0 -0.00000000000E+00 -0.00000000000E+00 -0.74505805969E-08  0.93827000000E+00  0.93827000000E+00 0. -1.
     999902    2    1    2    0    0 -0.15604685894E-02  0.31105606659E-02  0.24874046137E-01  0.10188136941E+01  0.10185040572E+01 0.  0.
     999903    2    3    3    0    0 -0.12348082120E+00 -0.28463909700E-01  0.19421297454E-01  0.12983042542E+00  0.20519386214E-01 0.  0.
         14    1    1    2    0    0  0.15604685894E-02 -0.31105606659E-02 -0.24874046137E-01  0.25116305881E-01  0.00000000000E+00 0.  1.
     999901    1    3    3    0    0  0.12192035261E+00  0.31574470366E-01  0.54527486832E-02  0.88898326870E+00  0.88000000000E+00 0. -1.
        -11    1    4    4    0    0 -0.20045646665E-01 -0.78312100104E-02 -0.37232998717E-02  0.21846736218E-01  0.51100000000E-03 0. -1.
         11    1    4    4    0    0 -0.10343517453E+00 -0.20632699689E-01  0.23144597326E-01  0.10798368920E+00  0.51100000000E-03 0.  1.
</event>
<event>
 8    1  0.1180500E+005  0.1043930E+01  0.7957747E-01            NaN
         13   -1    0    0    0    0  0.00000000000E+00  0.00000000000E+00  0.74505805969E-08  0.10566000000E+00  0.10566000000E+00 0.  1.
     999900   -1    0    0    0    0 -0.00000000000E+00 -0.00000000000E+00 -0.74505805969E-08  0.93827000000E+00  0.93827000000E+00 0.  1.
     999902    2    1    2    0    0 -0.38680879854E-02 -0.17763627506E-01  0.13993733150E-01  0.10209880486E+01  0.10207302593E+01 0.  0.
     999903    2    3    3    0    0  0.12112333562E+00 -0.32011697253E-02 -0.43389390969E-01  0.13018630629E+00  0.19614412510E-01 0.  0.
         14    1    1    2    0    0  0.38680879854E-02  0.17763627506E-01 -0.13993733150E-01  0.22941951405E-01  0.00000000000E+00 0. -1.
     999901    1    3    3    0    0 -0.12499142361E+00 -0.14562457780E-01  0.57383124119E-01  0.89080174230E+00  0.88000000000E+00 0. -1.
        -11    1    4    4    0    0  0.11559951160E+00  0.50479577419E-03 -0.38252105953E-01  0.12176611447E+00  0.51100000000E-03 0.  1.
         11    1    4    4    0    0  0.55238240208E-02 -0.37059654995E-02 -0.51372850165E-02  0.84201918290E-02  0.51100000000E-03 0. -1.
</event>
<event>
 8    1  0.1180500E+005  0.1043930E+01  0.7957747E-01            NaN
         13   -1    0    0    0    0  0.00000000000E+00  0.00000000000E+00  0.74505805969E-08  0.10566000000E+00  0.10566000000E+00 0. -1.
     999900   -1    0    0    0    0 -0.00000000000E+00 -0.00000000000E+00 -0.74505805969E-08  0.93827000000E+00  0.93827000000E+00 0. -1.
     999902    2    1    2    0    0  0.15212488203E-01 -0.11003716429E-01  0.16911143514E-01  0.10186616730E+01  0.10183482291E+01 0.  0.
     999903    2    3    3    0    0 -0.86556185941E-01 -0.74024153424E-01  0.58478933338E-01  0.12958556849E+00  0.20027114196E-01 0.  0.
         14    1    1    2    0    0 -0.15212488203E-01  0.11003716429E-01 -0.16911143514E-01  0.25268326963E-01  0.00000000000E+00 0. -1.
     999901    1    3    3    0    0  0.10176867414E+00  0.63020436995E-01 -0.41567789823E-01  0.88907610454E+00  0.88000000000E+00 0. -1.
        -11    1    4    4    0    0 -0.24549935085E-01 -0.10172631070E-01  0.11777495812E-01  0.29071502613E-01  0.51100000000E-03 0.  1.
         11    1    4    4    0    0 -0.62006250856E-01 -0.63851522354E-01  0.46701437526E-01  0.10051406588E+00  0.51100000000E-03 0. -1.
</event>
<event>
 8    1  0.1180500E+005  0.1043930E+01  0.7957747E-01            NaN
         13   -1    0    0    0    0  0.00000000000E+00  0.00000000000E+00  0.74505805969E-08  0.10566000000E+00  0.10566000000E+00 0.  1.
     999900   -1    0    0    0    0 -0.00000000000E+00 -0.00000000000E+00 -0.74505805969E-08  0.93827000000E+00  0.93827000000E+00 0. -1.
     999902    2    1    2    0    0  0.18127365741E-02 -0.10636831633E-01  0.21161466833E-01  0.10201763502E+01  0.10198997743E+01 0.  0.
     999903    2    3    3    0    0  0.11386606020E+00 -0.92653802525E-02 -0.57026741442E-01  0.12963088580E+00  0.22378346182E-01 0.  0.
         14    1    1    2    0    0 -0.18127365741E-02  0.10636831633E-01 -0.21161466833E-01  0.23753649816E-01  0.00000000000E+00 0. -1.
     999901    1    3    3    0    0 -0.11205332363E+00 -0.13714513800E-02  0.78188208275E-01  0.89054546438E+00  0.88000000000E+00 0.  1.
        -11    1    4    4    0    0  0.16009442794E-02  0.92844432010E-03 -0.52319666251E-02  0.55731164718E-02  0.51100000000E-03 0.  1.
         11    1    4    4    0    0  0.11226511592E+00 -0.10193824573E-01 -0.51794774816E-01  0.12405776933E+00  0.51100000000E-03 0. -1.
</event>
<event>
 8    1  0.1180500E+005  0.1043930E+01  0.7957747E-01            NaN
         13   -1    0    0    0    0  0.00000000000E+00  0.00000000000E+00  0.74505805969E-08  0.10566000000E+00  0.10566000000E+00 0. -1.
     999900   -1    0    0    0    0 -0.00000000000E+00 -0.00000000000E+00 -0.74505805969E-08  0.93827000000E+00  0.93827000000E+00 0. -1.
     999902    2    1    2    0    0  0.11177981053E-01 -0.20857115960E-01  0.36853946995E-03  0.10202635180E+01  0.10199889920E+01 0.  0.
     999903    2    3    3    0    0 -0.34826071629E-01 -0.36120235918E-01  0.11893949377E+00  0.13098942819E+00  0.22228369488E-01 0.  0.
         14    1    1    2    0    0 -0.11177981053E-01  0.20857115960E-01 -0.36853946995E-03  0.23666481951E-01  0.00000000000E+00 0.  1.
     999901    1    3    3    0    0  0.46004052682E-01  0.15263119958E-01 -0.11857095430E+00  0.88927408986E+00  0.88000000000E+00 0. -1.
        -11    1    4    4    0    0 -0.27159756078E-01 -0.12417591999E-01  0.68627029174E-01  0.74845034541E-01  0.51100000000E-03 0.  1.
         11    1    4    4    0    0 -0.76663155504E-02 -0.23702643919E-01  0.50312464599E-01  0.56144393646E-01  0.51100000000E-03 0. -1.
</event>
<event>
 8    1  0.1180500E+005  0.1043930E+01  0.7957747E-01            NaN
         13   -1    0    0    0    0  0.00000000000E+00  0.00000000000E+00  0.74505805969E-08  0.10566000000E+00  0.10566000000E+00 0.  1.
     999900   -1    0    0    0    0 -0.00000000000E+00 -0.00000000000E+00 -0.74505805969E-08  0.93827000000E+00  0.93827000000E+00 0. -1.
     999902    2    1    2    0    0 -0.45851254243E-02 -0.13698171640E-01 -0.18000890770E-01  0.10208498061E+01  0.10205888650E+01 0.  0.
     999903    2    3    3    0    0 -0.79659936551E-01  0.10100518379E+00 -0.37350042387E-02  0.13012167557E+00  0.19234020727E-01 0.  0.
         14    1    1    2    0    0  0.45851254243E-02  0.13698171640E-01  0.18000890770E-01  0.23080193889E-01  0.00000000000E+00 0.  1.
     999901    1    3    3    0    0  0.75074811126E-01 -0.11470335543E+00 -0.14265886532E-01  0.89072813054E+00  0.88000000000E+00 0. -1.
        -11    1    4    4    0    0 -0.30332638031E-01  0.53501553121E-01  0.51332430920E-03  0.61506176430E-01  0.51100000000E-03 0. -1.
         11    1    4    4    0    0 -0.49327298520E-01  0.47503630671E-01 -0.42483285479E-02  0.68615499143E-01  0.51100000000E-03 0.  1.
</event>
<event>
 8    1  0.1180500E+005  0.1043930E+01  0.7957747E-01            NaN
         13   -1    0    0    0    0  0.00000000000E+00  0.00000000000E+00  0.74505805969E-08  0.10566000000E+00  0.10566000000E+00 0. -1.
     999900   -1    0    0    0    0 -0.00000000000E+00 -0.00000000000E+00 -0.74505805969E-08  0.93827000000E+00  0.93827000000E+00 0. -1.
     999902    2    1    2    0    0  0.17605792052E-01 -0.58305970709E-03 -0.12183910225E-01  0.10225115140E+01  0.10222871636E+01 0.  0.
     999903    2    3    3    0    0  0.13032646814E+00  0.30361061978E-02  0.26131010564E-01  0.13448725630E+00  0.20243175551E-01 0.  0.
         14    1    1    2    0    0 -0.17605792052E-01  0.58305970709E-03  0.12183910225E-01  0.21418485959E-01  0.00000000000E+00 0. -1.
     999901    1    3    3    0    0 -0.11272067609E+00 -0.36191659049E-02 -0.38314920789E-01  0.88802425774E+00  0.88000000000E+00 0. -1.
        -11    1    4    4    0    0  0.80047064141E-01 -0.78486881336E-02  0.17648210223E-01  0.82345946034E-01  0.51100000000E-03 0. -1.
         11    1    4    4    0    0  0.50279403996E-01  0.10884794331E-01  0.84828003405E-02  0.52141310268E-01  0.51100000000E-03 0.  1.
</event>
<event>
 8    1  0.1180500E+005  0.1043930E+01  0.7957747E-01            NaN
         13   -1    0    0    0    0  0.00000000000E+00  0.00000000000E+00  0.74505805969E-08  0.10566000000E+00  0.10566000000E+00 0.  1.
     999900   -1    0    0    0    0 -0.00000000000E+00 -0.00000000000E+00 -0.74505805969E-08  0.93827000000E+00  0.93827000000E+00 0.  1.
     999902    2    1    2    0    0 -0.87832957018E-02  0.43897827112E-02 -0.21225838480E-01  0.10205429802E+01  0.10202749736E+01 0.  0.
     999903    2    3    3    0    0  0.28051726470E-01 -0.27274466881E-01  0.12018967466E+00  0.12793007927E+00  0.19742122102E-01 0.  0.
         14    1    1    2    0    0  0.87832957018E-02 -0.43897827112E-02  0.21225838480E-01  0.23387019793E-01  0.00000000000E+00 0.  1.
     999901    1    3    3    0    0 -0.36835022172E-01  0.31664249592E-01 -0.14141551314E+00  0.89261290094E+00  0.88000000000E+00 0.  1.
        -11    1    4    4    0    0  0.25422660193E-01 -0.28011100748E-01  0.90202744082E-01  0.97814771775E-01  0.51100000000E-03 0.  1.
         11    1    4    4    0    0  0.26290662773E-02  0.73663386638E-03  0.29986930580E-01  0.30115307496E-01  0.51100000000E-03 0. -1.
</event>
<event>
 8    1  0.1180500E+005  0.1043930E+01  0.7957747E-01            NaN
         13   -1    0    0    0    0  0.00000000000E+00  0.00000000000E+00  0.74505805969E-08  0.10566000000E+00  0.10566000000E+00 0. -1.
     999900   -1    0    0    0    0 -0.00000000000E+00 -0.00000000000E+00 -0.74505805969E-08  0.93827000000E+00  0.93827000000E+00 0.  1.
     999902    2    1    2    0    0  0.17168352520E-01 -0.98988296749E-02  0.10534734699E-01  0.10214862973E+01  0.10212397053E+01 0.  0.
     999903    2    3    3    0    0 -0.33435862133E-01  0.11845511594E+00  0.38114201397E-01  0.13030946359E+00  0.19449745118E-01 0.  0.
         14    1    1    2    0    0 -0.17168352520E-01  0.98988296749E-02 -0.10534734699E-01  0.22443702733E-01  0.00000000000E+00 0.  1.
     999901    1    3    3    0    0  0.50604214653E-01 -0.12835394561E+00 -0.27579466698E-01  0.89117683367E+00  0.88000000000E+00 0. -1.
        -11    1    4    4    0    0 -0.90372487826E-02  0.24732304255E-01  0.16501642859E-01  0.31079319126E-01  0.51100000000E-03 0. -1.
         11    1    4    4    0    0 -0.24398613350E-01  0.93722811683E-01  0.21612558539E-01  0.99230144466E-01  0.51100000000E-03 0.  1.
</event>
<event>
 8    1  0.1180500E+005  0.1043930E+01  0.7957747E-01            NaN
         13   -1    0    0    0    0  0.00000000000E+00  0.00000000000E+00  0.74505805969E-08  0.10566000000E+00  0.10566000000E+00 0.  1.
     999900   -1    0    0    0    0 -0.00000000000E+00 -0.00000000000E+00 -0.74505805969E-08  0.93827000000E+00  0.93827000000E+00 0. -1.
     999902    2    1    2    0    0  0.11965700443E-01  0.31050620892E-02  0.17230314057E-01  0.10227237952E+01  0.10225039160E+01 0.  0.
     999903    2    3    3    0    0 -0.14853668477E-01 -0.87656707544E-01  0.98095969293E-01  0.13396272973E+00  0.20466165259E-01 0.  0.
         14    1    1    2    0    0 -0.11965700443E-01 -0.31050620892E-02 -0.17230314057E-01  0.21206204757E-01  0.00000000000E+00 0. -1.
     999901    1    3    3    0    0  0.26819368920E-01  0.90761769633E-01 -0.80865655236E-01  0.88876106551E+00  0.88000000000E+00 0. -1.
        -11    1    4    4    0    0  0.51607162752E-02 -0.15956201042E-01  0.17262681996E-01  0.24072695214E-01  0.51100000000E-03 0. -1.
         11    1    4    4    0    0 -0.20014384752E-01 -0.71700506502E-01  0.80833287298E-01  0.10989003452E+00  0.51100000000E-03 0.  1.
</event>
<event>
 8    1  0.1180500E+005  0.1043930E+01  0.7957747E-01            NaN
         13   -1    0    0    0    0  0.00000000000E+00  0.00000000000E+00  0.74505805969E-08  0.10566000000E+00  0.10566000000E+00 0. -1.
     999900   -1    0    0    0    0 -0.00000000000E+00 -0.00000000000E+00 -0.74505805969E-08  0.93827000000E+00  0.93827000000E+00 0. -1.
     999902    2    1    2    0    0  0.10165036017E-01  0.94069028361E-03  0.20512894012E-01  0.10210173032E+01  0.10207601783E+01 0.  0.
     999903    2    3    3    0    0 -0.10166020691E+00  0.34125672745E-02  0.81259379564E-01  0.13185976334E+00  0.20915715030E-01 0.  0.
         14    1    1    2    0    0 -0.10165036017E-01 -0.94069028361E-03 -0.20512894012E-01  0.22912696833E-01  0.00000000000E+00 0.  1.
     999901    1    3    3    0    0  0.11182524293E+00 -0.24718769909E-02 -0.60746485552E-01  0.88915753983E+00  0.88000000000E+00 0. -1.
        -11    1    4    4    0    0 -0.15244770149E-01 -0.63393257767E-02  0.17204018784E-01  0.23850145734E-01  0.51100000000E-03 0. -1.
         11    1    4    4    0    0 -0.86415436762E-01  0.97518930512E-02  0.64055360779E-01  0.10800961760E+00  0.51100000000E-03 0.  1.
</event>
<event>
 8    1  0.1180500E+005  0.1043930E+01  0.7957747E-01            NaN
         13   -1    0    0    0    0  0.00000000000E+00  0.00000000000E+00  0.74505805969E-08  0.10566000000E+00  0.10566000000E+00 0.  1.
     999900   -1    0    0    0    0 -0.00000000000E+00 -0.00000000000E+00 -0.74505805969E-08  0.93827000000E+00  0.93827000000E+00 0. -1.
     999902    2    1    2    0    0  0.21798153784E-02  0.17918810068E-01  0.15021494656E-01  0.10204463748E+01  0.10201761236E+01 0.  0.
     999903    2    3    3    0    0  0.95136812851E-01  0.15089437537E-01  0.88688206256E-01  0.13248478043E+00  0.20196901573E-01 0.  0.
         14    1    1    2    0    0 -0.21798153784E-02 -0.17918810068E-01 -0.15021494656E-01  0.23483625168E-01  0.00000000000E+00 0. -1.
     999901    1    3    3    0    0 -0.92956997472E-01  0.28293725310E-02 -0.73666711601E-01  0.88796159440E+00  0.88000000000E+00 0.  1.
        -11    1    4    4    0    0  0.29319182093E-01  0.89439613771E-02  0.39934689802E-01  0.50345302207E-01  0.51100000000E-03 0. -1.
         11    1    4    4    0    0  0.65817630758E-01  0.61454761595E-02  0.48753516454E-01  0.82139478227E-01  0.51100000000E-03 0.  1.
</event>
<event>
 8    1  0.1180500E+005  0.1043930E+01  0.7957747E-01            NaN
         13   -1    0    0    0    0  0.00000000000E+00  0.00000000000E+00  0.74505805969E-08  0.10566000000E+00  0.10566000000E+00 0. -1.
     999900   -1    0    0    0    0 -0.00000000000E+00 -0.00000000000E+00 -0.74505805969E-08  0.93827000000E+00  0.93827000000E+00 0.  1.
     999902    2    1    2    0    0  0.14961384448E-01  0.49226117395E-02  0.18104642841E-01  0.10199330580E+01  0.10196507194E+01 0.  0.
     999903    2    3    3    0    0  0.98740040235E-01 -0.10401694827E-01  0.86439104150E-01  0.13318433595E+00  0.20212813113E-01 0.  0.
         14    1    1    2    0    0 -0.14961384448E-01 -0.49226117395E-02 -0.18104642841E-01  0.23996941958E-01  0.00000000000E+00 0.  1.
     999901    1    3    3    0    0 -0.83778655787E-01  0.15324306567E-01 -0.68334461310E-01  0.88674872210E+00  0.88000000000E+00 0.  1.
        -11    1    4    4    0    0  0.61600308538E-01  0.26363164917E-02  0.47713390650E-01  0.77963946442E-01  0.51100000000E-03 0.  1.
         11    1    4    4    0    0  0.37139731698E-01 -0.13038011319E-01  0.38725713501E-01  0.55220389503E-01  0.51100000000E-03 0. -1.
</event>
<event>
 8    1  0.1180500E+005  0.1043930E+01  0.7957747E-01            NaN
         13   -1    0    0    0    0  0.00000000000E+00  0.00000000000E+00  0.74505805969E-08  0.10566000000E+00  0.10566000000E+00 0. -1.
     999900   -1    0    0    0    0 -0.00000000000E+00 -0.00000000000E+00 -0.74505805969E-08  0.93827000000E+00  0.93827000000E+00 0. -1.
     999902    2    1    2    0    0  0.12776601289E-01  0.17126703867E-01  0.98166634271E-02  0.10204154852E+01  0.10201445143E+01 0.  0.
     999903    2    3    3    0    0 -0.90746581843E-01 -0.47910952243E-01  0.75477723052E-01  0.12954045416E+00  0.23525329474E-01 0.  0.
         14    1    1    2    0    0 -0.12776601289E-01 -0.17126703867E-01 -0.98166634271E-02  0.23514514808E-01  0.00000000000E+00 0.  1.
     999901    1    3    3    0    0  0.10352318313E+00  0.65037656109E-01 -0.65661059625E-01  0.89087503103E+00  0.88000000000E+00 0. -1.
        -11    1    4    4    0    0 -0.77449057688E-01 -0.31087486564E-01  0.55486752776E-01  0.10021890646E+00  0.51100000000E-03 0. -1.
         11    1    4    4    0    0 -0.13297524154E-01 -0.16823465679E-01  0.19990970276E-01  0.29321547702E-01  0.51100000000E-03 0.  1.
</event>
<event>
 8    1  0.1180500E+005  0.1043930E+01  0.7957747E-01            NaN
         13   -1    0    0    0    0  0.00000000000E+00  0.00000000000E+00  0.74505805969E-08  0.10566000000E+00  0.10566000000E+00 0.  1.
     999900   -1    0    0    0    0 -0.00000000000E+00 -0.00000000000E+00 -0.74505805969E-08  0.93827000000E+00  0.93827000000E+00 0. -1.
     999902    2    1    2    0    0  0.36933001135E-02 -0.16408588019E-01  0.16290553286E-01  0.10205149546E+01  0.10202462978E+01 0.  0.
     999903    2    3    3    0    0  0.96126891700E-01  0.42653540854E-01  0.76923625768E-01  0.13163438137E+00  0.18725979332E-01 0.  0.
         14    1    1    2    0    0 -0.36933001135E-02  0.16408588019E-01 -0.16290553286E-01  0.23415045438E-01  0.00000000000E+00 0. -1.
     999901    1    3    3    0    0 -0.92433591586E-01 -0.59062128873E-01 -0.60633072482E-01  0.88888057319E+00  0.88000000000E+00 0. -1.
        -11    1    4    4    0    0  0.23158577509E-01  0.30883208040E-02  0.12105200124E-01  0.26318328759E-01  0.51100000000E-03 0.  1.
         11    1    4    4    0    0  0.72968314191E-01  0.39565220050E-01  0.64818425644E-01  0.10531605261E+00  0.51100000000E-03 0. -1.
</event>
<event>
 8    1  0.1180500E+005  0.1043930E+01  0.7957747E-01            NaN
         13   -1    0    0    0    0  0.00000000000E+00  0.00000000000E+00  0.74505805969E-08  0.10566000000E+00  0.10566000000E+00 0.  1.
     999900   -1    0    0    0    0 -0.00000000000E+00 -0.00000000000E+00 -0.74505805969E-08  0.93827000000E+00  0.93827000000E+00 0.  1.
     999902    2    1    2    0    0  0.12959201352E-02 -0.20422699476E-01  0.51879387725E-02  0.10228188472E+01  0.10226009551E+01 0.  0.
     999903    2    3    3    0    0 -0.18466202758E-01 -0.82960863533E-01  0.10285013752E+00  0.13499033420E+00  0.20511801929E-01 0.  0.
         14    1    1    2    0    0 -0.12959201352E-02  0.20422699476E-01 -0.51879387725E-02  0.21111152778E-01  0.00000000000E+00 0.  1.
     999901    1    3    3    0    0  0.19762122893E-01  0.62538164057E-01 -0.97662198747E-01  0.88782851302E+00  0.88000000000E+00 0.  1.
        -11    1    4    4    0    0 -0.10344477825E-01 -0.13109835796E-01  0.25130848617E-01  0.30177751561E-01  0.51100000000E-03 0.  1.
         11    1    4    4    0    0 -0.81217249321E-02 -0.69851027737E-01  0.77719288902E-01  0.10481258264E+00  0.51100000000E-03 0. -1.
</event>
<event>
 8    1  0.1180500E+005  0.1043930E+01  0.7957747E-01            NaN
         13   -1    0    0    0    0  0.00000000000E+00  0.00000000000E+00  0.74505805969E-08  0.10566000000E+00  0.10566000000E+00 0. -1.
     999900   -1    0    0    0    0 -0.00000000000E+00 -0.00000000000E+00 -0.74505805969E-08  0.93827000000E+00  0.93827000000E+00 0. -1.
     999902    2    1    2    0    0 -0.16754713834E-01 -0.16439539384E-01  0.30430084867E-02  0.10202606360E+01  0.10199860424E+01 0.  0.
     999903    2    3    3    0    0 -0.27056059720E-01 -0.12629350211E+00 -0.24430547032E-01  0.13294513006E+00  0.19886601916E-01 0.  0.
         14    1    1    2    0    0  0.16754713834E-01  0.16439539384E-01 -0.30430084867E-02  0.23669363986E-01  0.00000000000E+00 0. -1.
     999901    1    3    3    0    0  0.10301345886E-01  0.10985396273E+00  0.27473555519E-01  0.88731550595E+00  0.88000000000E+00 0. -1.
        -11    1    4    4    0    0 -0.18193387027E-01 -0.81137662168E-01 -0.59954141370E-02  0.83369812674E-01  0.51100000000E-03 0.  1.
         11    1    4    4    0    0 -0.88626726926E-02 -0.45155839942E-01 -0.18435132895E-01  0.49575317387E-01  0.51100000000E-03 0. -1.
</event>
<event>
 8    1  0.1180500E+005  0.1043930E+01  0.7957747E-01            NaN
         13   -1    0    0    0    0  0.00000000000E+00  0.00000000000E+00  0.74505805969E-08  0.10566000000E+00  0.10566000000E+00 0.  1.
     999900   -1    0    0    0    0 -0.00000000000E+00 -0.00000000000E+00 -0.74505805969E-08  0.93827000000E+00  0.93827000000E+00 0.  1.
     999902    2    1    2    0    0  0.17055907716E-01  0.33530232072E-02  0.18044874463E-01  0.10188747761E+01  0.10185666620E+01 0.  0.
     999903    2    3    3    0    0 -0.35628537629E-01  0.10206047882E+00  0.69952789702E-01  0.13027292807E+00  0.19796690916E-01 0.  0.
         14    1    1    2    0    0 -0.17055907716E-01 -0.33530232072E-02 -0.18044874463E-01  0.25055223947E-01  0.00000000000E+00 0. -1.
     999901    1    3    3    0    0  0.52684445345E-01 -0.98707455608E-01 -0.51907915239E-01  0.88860184798E+00  0.88000000000E+00 0.  1.
        -11    1    4    4    0    0 -0.91773672820E-02  0.50146740617E-01  0.39729448529E-01  0.64634432512E-01  0.51100000000E-03 0. -1.
         11    1    4    4    0    0 -0.26451170347E-01  0.51913738198E-01  0.30223341173E-01  0.65638495558E-01  0.51100000000E-03 0.  1.
</event>
<event>
 8    1  0.1180500E+005  0.1043930E+01  0.7957747E-01            NaN
         13   -1    0    0    0    0  0.00000000000E+00  0.00000000000E+00  0.74505805969E-08  0.10566000000E+00  0.10566000000E+00 0. -1.
     999900   -1    0    0    0    0 -0.00000000000E+00 -0.00000000000E+00 -0.74505805969E-08  0.93827000000E+00  0.93827000000E+00 0. -1.
     999902    2    1    2    0    0 -0.86456235910E-03 -0.87449392293E-02  0.19619264554E-01  0.10224326287E+01  0.10222066050E+01 0.  0.
     999903    2    3    3    0    0 -0.38303118066E-01  0.11863883324E+00 -0.35733315784E-01  0.13075321375E+00  0.16650268507E-01 0.  0.
         14    1    1    2    0    0  0.86456235910E-03  0.87449392293E-02 -0.19619264554E-01  0.21497371277E-01  0.00000000000E+00 0.  1.
     999901    1    3    3    0    0  0.37438555707E-01 -0.12738377247E+00  0.55352580337E-01  0.89167941498E+00  0.88000000000E+00 0.  1.
        -11    1    4    4    0    0 -0.24658471043E-01  0.78100977704E-01 -0.15186820609E-01  0.83298880867E-01  0.51100000000E-03 0.  1.
         11    1    4    4    0    0 -0.13644647024E-01  0.40537855538E-01 -0.20546495175E-01  0.47454332879E-01  0.51100000000E-03 0. -1.
</event>
<event>
 8    1  0.1180500E+005  0.1043930E+01  0.7957747E-01            NaN
         13   -1    0    0    0    0  0.00000000000E+00  0.00000000000E+00  0.74505805969E-08  0.10566000000E+00  0.10566000000E+00 0.  1.
     999900   -1    0    0    0    0 -0.00000000000E+00 -0.00000000000E+00 -0.74505805969E-08  0.93827000000E+00  0.93827000000E+00 0.  1.
     999902    2    1    2    0    0  0.41195508947E-02 -0.45853374209E-02  0.22463965151E-01  0.10206356713E+01  0.10203698093E+01 0.  0.
     999903    2    3    3    0    0 -0.11443579863E+00 -0.33714477196E-01 -0.47723001278E-01  0.12943979613E+00  0.15651133803E-01 0.  0.
         14    1    1    2    0    0 -0.41195508947E-02  0.45853374209E-02 -0.22463965151E-01  0.23294328691E-01  0.00000000000E+00 0. -1.
     999901    1    3    3    0    0  0.11855534953E+00  0.29129139775E-01  0.70186966429E-01  0.89119587518E+00  0.88000000000E+00 0. -1.
        -11    1    4    4    0    0 -0.28268645163E-01 -0.76104969021E-02 -0.47059360890E-02  0.29655402845E-01  0.51100000000E-03 0.  1.
         11    1    4    4    0    0 -0.86167153469E-01 -0.26103980293E-01 -0.43017065189E-01  0.99784393282E-01  0.51100000000E-03 0. -1.
</event>
<event>
 8    1  0.1180500E+005  0.1043930E+01  0.7957747E-01            NaN
         13   -1    0    0    0    0  0.00000000000E+00  0.00000000000E+00  0.74505805969E-08  0.10566000000E+00  0.10566000000E+00 0. -1.
     999900   -1    0    0    0    0 -0.00000000000E+00 -0.00000000000E+00 -0.74505805969E-08  0.93827000000E+00  0.93827000000E+00 0. -1.
     999902    2    1    2    0    0 -0.21091160089E-01  0.24283394463E-02  0.96120229813E-02  0.10206249608E+01  0.10203588515E+01 0.  0.
     999903    2    3    3    0    0  0.87536729598E-01  0.90289054031E-01 -0.20470123191E-01  0.12909567967E+00  0.20781632767E-01 0.  0.
         14    1    1    2    0    0  0.21091160089E-01 -0.24283394463E-02 -0.96120229813E-02  0.23305039201E-01  0.00000000000E+00 0.  1.
     999901    1    3    3    0    0 -0.10862788969E+00 -0.87860714585E-01  0.30082146173E-01  0.89152928113E+00  0.88000000000E+00 0.  1.
        -11    1    4    4    0    0  0.36487483682E-01  0.35508914559E-01 -0.18549712135E-01  0.54190150580E-01  0.51100000000E-03 0. -1.
         11    1    4    4    0    0  0.51049245916E-01  0.54780139472E-01 -0.19204110560E-02  0.74905529094E-01  0.51100000000E-03 0.  1.
</event>
<event>
 8    1  0.1180500E+005  0.1043930E+01  0.7957747E-01            NaN
         13   -1    0    0    0    0  0.00000000000E+00  0.00000000000E+00  0.74505805969E-08  0.10566000000E+00  0.10566000000E+00 0.  1.
     999900   -1    0    0    0    0 -0.00000000000E+00 -0.00000000000E+00 -0.74505805969E-08  0.93827000000E+00  0.93827000000E+00 0. -1.
     999902    2    1    2    0    0 -0.51754665664E-02 -0.22444533959E-01 -0.96666876566E-02  0.10189502600E+01  0.10186440227E+01 0.  0.
     999903    2    3    3    0    0  0.17491289978E-01  0.95363734142E-01  0.78715675595E-01  0.12642350300E+00  0.19661065858E-01 0.  0.
         14    1    1    2    0    0  0.51754665664E-02  0.22444533959E-01  0.96666876566E-02  0.24979739972E-01  0.00000000000E+00 0. -1.
     999901    1    3    3    0    0 -0.22666756545E-01 -0.11780826810E+00 -0.88382363252E-01  0.89252675703E+00  0.88000000000E+00 0. -1.
        -11    1    4    4    0    0 -0.73830928818E-03  0.49944911148E-01  0.38160092074E-01  0.62860901984E-01  0.51100000000E-03 0.  1.
         11    1    4    4    0    0  0.18229599266E-01  0.45418822994E-01  0.40555583521E-01  0.63562601012E-01  0.51100000000E-03 0. -1.
</event>
<event>
 8    1  0.1180500E+005  0.1043930E+01  0.7957747E-01            NaN
         13   -1    0    0    0    0  0.00000000000E+00  0.00000000000E+00  0.74505805969E-08  0.10566000000E+00  0.10566000000E+00 0. -1.
     999900   -1    0    0    0    0 -0.00000000000E+00 -0.00000000000E+00 -0.74505805969E-08  0.93827000000E+00  0.93827000000E+00 0.  1.
     999902    2    1    2    0    0  0.99255669743E-02 -0.45707629301E-02  0.21572288959E-01  0.10197479322E+01  0.10194611679E+01 0.  0.
     999903    2    3    3    0    0  0.98367008880E-01 -0.40036174919E-01  0.77416157724E-01  0.13284420472E+00  0.19374145453E-01 0.  0.
         14    1    1    2    0    0 -0.99255669743E-02  0.45707629301E-02 -0.21572288959E-01  0.24182067828E-01  0.00000000000E+00 0.  1.
     999901    1    3    3    0    0 -0.88441441906E-01  0.35465411989E-01 -0.55843868765E-01  0.88690372745E+00  0.88000000000E+00 0. -1.
        -11    1    4    4    0    0  0.36443067923E-01 -0.10492829599E-01  0.38130118711E-01  0.53780700503E-01  0.51100000000E-03 0.  1.
         11    1    4    4    0    0  0.61923940957E-01 -0.29543345320E-01  0.39286039013E-01  0.79063504214E-01  0.51100000000E-03 0. -1.
</event>
<event>
 8    1  0.1180500E+005  0.1043930E+01  0.7957747E-01            NaN
         13   -1    0    0    0    0  0.00000000000E+00  0.00000000000E+00  0.74505805969E-08  0.10566000000E+00  0.10566000000E+00 0.  1.
     999900   -1    0    0    0    0 -0.00000000000E+00 -0.00000000000E+00 -0.74505805969E-08  0.93827000000E+00  0.93827000000E+00 0. -1.
     999902    2    1    2    0    0  0.17517673534E-01 -0.57174875292E-02  0.15656101986E-01  0.10197500066E+01  0.10194632921E+01 0.  0.
     999903    2    3    3    0    0  0.78335331839E-01  0.70100604001E-01 -0.74330608380E-01  0.12983721394E+00  0.16797139199E-01 0.  0.
         14    1    1    2    0    0 -0.17517673534E-01  0.57174875292E-02 -0.15656101986E-01  0.24179993364E-01  0.00000000000E+00 0. -1.
     999901    1    3    3    0    0 -0.60817658306E-01 -0.75818091530E-01  0.89986710367E-01  0.88991279270E+00  0.88000000000E+00 0.  1.
        -11    1    4    4    0    0  0.50692321227E-01  0.50466880856E-01 -0.41818167536E-01  0.82859144045E-01  0.51100000000E-03 0.  1.
         11    1    4    4    0    0  0.27643010612E-01  0.19633723145E-01 -0.32512440845E-01  0.46978069893E-01  0.51100000000E-03 0. -1.
</event>
<event>
 8    1  0.1180500E+005  0.1043930E+01  0.7957747E-01            NaN
         13   -1    0    0    0    0  0.00000000000E+00  0.00000000000E+00  0.74505805969E-08  0.10566000000E+00  0.10566000000E+00 0. -1.
     999900   -1    0    0    0    0 -0.00000000000E+00 -0.00000000000E+00 -0.74505805969E-08  0.93827000000E+00  0.93827000000E+00 0. -1.
     999902    2    1    2    0    0  0.10172871540E-01  0.19292729710E-01  0.27610440329E-02  0.10219454577E+01  0.10217089598E+01 0.  0.
     999903    2    3    3    0    0 -0.41160324051E-01 -0.33423354274E-01  0.11852683430E+00  0.13131882401E+00  0.19614540601E-01 0.  0.
         14    1    1    2    0    0 -0.10172871540E-01 -0.19292729710E-01 -0.27610440329E-02  0.21984542278E-01  0.00000000000E+00 0.  1.
     999901    1    3    3    0    0  0.51333195592E-01  0.52716083984E-01 -0.11576579027E+00  0.89062663371E+00  0.88000000000E+00 0. -1.
        -11    1    4    4    0    0 -0.10798553179E-03 -0.24080481490E-02  0.43211804418E-03  0.25016402154E-02  0.51100000000E-03 0. -1.
         11    1    4    4    0    0 -0.41052338520E-01 -0.31015306125E-01  0.11809471626E+00  0.12881718379E+00  0.51100000000E-03 0.  1.
</event>
<event>
 8    1  0.1180500E+005  0.1043930E+01  0.7957747E-01            NaN
         13   -1    0    0    0    0  0.00000000000E+00  0.00000000000E+00  0.74505805969E-08  0.10566000000E+00  0.10566000000E+00 0. -1.
     999900   -1    0    0    0    0 -0.00000000000E+00 -0.00000000000E+00 -0.74505805969E-08  0.93827000000E+00  0.93827000000E+00 0.  1.
     999902    2    1    2    0    0 -0.83312930129E-03 -0.14202211334E-01 -0.19501088439E-01  0.10197910406E+01  0.10195053100E+01 0.  0.
     999903    2    3    3    0    0  0.92572102876E-01  0.47171431916E-01  0.71958450172E-01  0.12801970853E+00  0.20403161524E-01 0.  0.
         14    1    1    2    0    0  0.83312930129E-03  0.14202211334E-01  0.19501088439E-01  0.24138959413E-01  0.00000000000E+00 0. -1.
     999901    1    3    3    0    0 -0.93405232177E-01 -0.61373643250E-01 -0.91459538611E-01  0.89177133206E+00  0.88000000000E+00 0.  1.
        -11    1    4    4    0    0  0.33969227614E-01  0.20742629632E-01  0.39198019305E-01  0.55865113865E-01  0.51100000000E-03 0.  1.
         11    1    4    4    0    0  0.58602875262E-01  0.26428802284E-01  0.32760430867E-01  0.72154594661E-01  0.51100000000E-03 0. -1.
</event>
<event>
 8    1  0.1180500E+005  0.1043930E+01  0.7957747E-01            NaN
         13   -1    0    0    0    0  0.00000000000E+00  0.00000000000E+00  0.74505805969E-08  0.10566000000E+00  0.10566000000E+00 0.  1.
     999900   -1    0    0    0    0 -0.00000000000E+00 -0.00000000000E+00 -0.74505805969E-08  0.93827000000E+00  0.93827000000E+00 0. -1.
     999902    2    1    2    0    0 -0.15574586546E-01 -0.10579287243E-01  0.15225142820E-01  0.10197164906E+01  0.10194289711E+01 0.  0.
     999903    2    3    3    0    0 -0.97239042987E-02 -0.12733193971E+00 -0.22444109126E-01  0.13118715236E+00  0.19958800647E-01 0.  0.
         14    1    1    2    0    0  0.15574586546E-01  0.10579287243E-01 -0.15225142820E-01  0.24213509422E-01  0.00000000000E+00 0. -1.
     999901    1    3    3    0    0 -0.58506822468E-02  0.11675265247E+00  0.37669251946E-01  0.88852933822E+00  0.88000000000E+00 0. -1.
        -11    1    4    4    0    0  0.50408566415E-02 -0.53538728331E-01 -0.13111001161E-01  0.55353095120E-01  0.51100000000E-03 0. -1.
         11    1    4    4    0    0 -0.14764760940E-01 -0.73793211380E-01 -0.93331079649E-02  0.75834057235E-01  0.51100000000E-03 0.  1.
</event>
<event>
 8    1  0.1180500E+005  0.1043930E+01  0.7957747E-01            NaN
         13   -1    0    0    0    0  0.00000000000E+00  0.00000000000E+00  0.74505805969E-08  0.10566000000E+00  0.10566000000E+00 0. -1.
     999900   -1    0    0    0    0 -0.00000000000E+00 -0.00000000000E+00 -0.74505805969E-08  0.93827000000E+00  0.93827000000E+00 0. -1.
     999902    2    1    2    0    0  0.52102121143E-02  0.22609710097E-01 -0.31652524768E-02  0.10205128242E+01  0.10202441179E+01 0.  0.
     999903    2    3    3    0    0  0.49620739944E-01  0.44429255109E-01 -0.11095062483E+00  0.13255670249E+00  0.28723886968E-01 0.  0.
         14    1    1    2    0    0 -0.52102121143E-02 -0.22609710097E-01  0.31652524768E-02  0.23417175838E-01  0.00000000000E+00 0. -1.
     999901    1    3    3    0    0 -0.44410527830E-01 -0.21819545011E-01  0.10778537235E+00  0.88795612167E+00  0.88000000000E+00 0.  1.
        -11    1    4    4    0    0 -0.18282266365E-02 -0.44349662992E-03 -0.13097391719E-01  0.13241672581E-01  0.51100000000E-03 0.  1.
         11    1    4    4    0    0  0.51448966581E-01  0.44872751739E-01 -0.97853233109E-01  0.11931502991E+00  0.51100000000E-03 0. -1.
</event>
<event>
 8    1  0.1180500E+005  0.1043930E+01  0.7957747E-01            NaN
         13   -1    0    0    0    0  0.00000000000E+00  0.00000000000E+00  0.74505805969E-08  0.10566000000E+00  0.10566000000E+00 0. -1.
     999900   -1    0    0    0    0 -0.00000000000E+00 -0.00000000000E+00 -0.74505805969E-08  0.93827000000E+00  0.93827000000E+00 0.  1.
     999902    2    1    2    0    0 -0.16748566256E-01 -0.10901163022E-01 -0.12792256655E-01  0.10202025548E+01  0.10199265959E+01 0.  0.
     999903    2    3    3    0    0 -0.10450004854E+00 -0.78450594388E-01  0.14638214019E-01  0.13283809805E+00  0.18892513846E-01 0.  0.
         14    1    1    2    0    0  0.16748566256E-01  0.10901163022E-01  0.12792256655E-01  0.23727445231E-01  0.00000000000E+00 0. -1.
     999901    1    3    3    0    0  0.87751482287E-01  0.67549431365E-01 -0.27430470674E-01  0.88736445672E+00  0.88000000000E+00 0.  1.
        -11    1    4    4    0    0 -0.80414753422E-01 -0.55022654931E-01  0.37375999452E-02  0.97510286114E-01  0.51100000000E-03 0. -1.
         11    1    4    4    0    0 -0.24085295121E-01 -0.23427939456E-01  0.10900614074E-01  0.35327811939E-01  0.51100000000E-03 0.  1.
</event>
<event>
 8    1  0.1180500E+005  0.1043930E+01  0.7957747E-01            NaN
         13   -1    0    0    0    0  0.00000000000E+00  0.00000000000E+00  0.74505805969E-08  0.10566000000E+00  0.10566000000E+00 0. -1.
     999900   -1    0    0    0    0 -0.00000000000E+00 -0.00000000000E+00 -0.74505805969E-08  0.93827000000E+00  0.93827000000E+00 0.  1.
     999902    2    1    2    0    0 -0.95398775852E-02 -0.99384904860E-02 -0.20262935763E-01  0.10194275629E+01  0.10191330564E+01 0.  0.
     999903    2    3    3    0    0  0.37289421140E-01  0.29383507682E-01  0.11603449429E+00  0.12683796394E+00  0.19234702425E-01 0.  0.
         14    1    1    2    0    0  0.95398775852E-02  0.99384904860E-02  0.20262935763E-01  0.24502437087E-01  0.00000000000E+00 0. -1.
     999901    1    3    3    0    0 -0.46829298725E-01 -0.39321998168E-01 -0.13629743006E+00  0.89258959898E+00  0.88000000000E+00 0.  1.
        -11    1    4    4    0    0  0.37514811919E-01  0.22504068335E-01  0.92722905608E-01  0.10252605791E+00  0.51100000000E-03 0. -1.
         11    1    4    4    0    0 -0.22539077943E-03  0.68794393469E-02  0.23311588685E-01  0.24311906028E-01  0.51100000000E-03 0.  1.
</event>
<event>
 8    1  0.1180500E+005  0.1043930E+01  0.7957747E-01            NaN
         13   -1    0    0    0    0  0.00000000000E+00  0.00000000000E+00  0.74505805969E-08  0.10566000000E+00  0.10566000000E+00 0.  1.
     999900   -1    0    0    0    0 -0.00000000000E+00 -0.00000000000E+00 -0.74505805969E-08  0.93827000000E+00  0.93827000000E+00 0.  1.
     999902    2    1    2    0    0  0.17797743381E-02 -0.18224144632E-01 -0.13623938542E-01  0.10211067937E+01  0.10208516961E+01 0.  0.
     999903    2    3    3    0    0  0.12764308538E+00 -0.21607079778E-01  0.11504796834E-01  0.13178993754E+00  0.21831265309E-01 0.  0.
         14    1    1    2    0    0 -0.17797743381E-02  0.18224144632E-01  0.13623938542E-01  0.22823206297E-01  0.00000000000E+00 0.  1.
     999901    1    3    3    0    0 -0.12586331104E+00  0.33829351459E-02 -0.25128735376E-01  0.88931685616E+00  0.88000000000E+00 0. -1.
        -11    1    4    4    0    0  0.96758998427E-01 -0.67893511294E-02  0.97369653672E-02  0.97485735782E-01  0.51100000000E-03 0. -1.
         11    1    4    4    0    0  0.30884086951E-01 -0.14817728649E-01  0.17678314666E-02  0.34304201757E-01  0.51100000000E-03 0.  1.
</event>
<event>
 8    1  0.1180500E+005  0.1043930E+01  0.7957747E-01            NaN
         13   -1    0    0    0    0  0.00000000000E+00  0.00000000000E+00  0.74505805969E-08  0.10566000000E+00  0.10566000000E+00 0. -1.
     999900   -1    0    0    0    0 -0.00000000000E+00 -0.00000000000E+00 -0.74505805969E-08  0.93827000000E+00  0.93827000000E+00 0.  1.
     999902    2    1    2    0    0  0.17932186219E-01  0.10697416999E-01  0.11071536198E-01  0.10202957675E+01  0.10200219979E+01 0.  0.
     999903    2    3    3    0    0 -0.40706458379E-02 -0.17935089585E-01  0.12928765034E+00  0.13165692369E+00  0.16733542055E-01 0.  0.
         14    1    1    2    0    0 -0.17932186219E-01 -0.10697416999E-01 -0.11071536198E-01  0.23634232520E-01  0.00000000000E+00 0.  1.
     999901    1    3    3    0    0  0.22002832057E-01  0.28632506583E-01 -0.11821611414E+00  0.88863884379E+00  0.88000000000E+00 0.  1.
        -11    1    4    4    0    0  0.17713839373E-02  0.19085999944E-02  0.36204234009E-01  0.36301353090E-01  0.51100000000E-03 0. -1.
         11    1    4    4    0    0 -0.58420297751E-02 -0.19843689579E-01  0.93083416327E-01  0.95355570598E-01  0.51100000000E-03 0.  1.
</event>
<event>
 8    1  0.1180500E+005  0.1043930E+01  0.7957747E-01            NaN
         13   -1    0    0    0    0  0.00000000000E+00  0.00000000000E+00  0.74505805969E-08  0.10566000000E+00  0.10566000000E+00 0. -1.
     999900   -1    0    0    0    0 -0.00000000000E+00 -0.00000000000E+00 -0.74505805969E-08  0.93827000000E+00  0.93827000000E+00 0.  1.
     999902    2    1    2    0    0  0.21705966705E-01 -0.71615425155E-02 -0.59375471392E-02  0.10203145147E+01  0.10200411843E+01 0.  0.
     999903    2    3    3    0    0 -0.93309511748E-01  0.69582689061E-01 -0.50698994464E-01  0.12839421299E+00  0.19138189311E-01 0.  0.
         14    1    1    2    0    0 -0.21705966705E-01  0.71615425155E-02  0.59375471392E-02  0.23615485339E-01  0.00000000000E+00 0.  1.
     999901    1    3    3    0    0  0.11501547845E+00 -0.76744231577E-01  0.44761447325E-01  0.89192030167E+00  0.88000000000E+00 0. -1.
        -11    1    4    4    0    0 -0.32739786840E-01  0.14160909385E-01 -0.12083539642E-01  0.37665608295E-01  0.51100000000E-03 0. -1.
         11    1    4    4    0    0 -0.60569724908E-01  0.55421779676E-01 -0.38615454822E-01  0.90728604695E-01  0.51100000000E-03 0.  1.
</event>
<event>
 8    1  0.1180500E+005  0.1043930E+01  0.7957747E-01            NaN
         13   -1    0    0    0    0  0.00000000000E+00  0.00000000000E+00  0.74505805969E-08  0.10566000000E+00  0.10566000000E+00 0.  1.
     999900   -1    0    0    0    0 -0.00000000000E+00 -0.00000000000E+00 -0.74505805969E-08  0.93827000000E+00  0.93827000000E+00 0. -1.
     999902    2    1    2    0    0 -0.15315963402E-01  0.58560654661E-02 -0.17740562955E-01  0.10197721894E+01  0.10194860070E+01 0.  0.
     999903    2    3    3    0    0 -0.29811553471E-01  0.28311347888E-01 -0.12473159515E+00  0.13288919669E+00  0.20280695928E-01 0.  0.
         14    1    1    2    0    0  0.15315963402E-01 -0.58560654661E-02  0.17740562955E-01  0.24157810572E-01  0.00000000000E+00 0. -1.
     999901    1    3    3    0    0  0.14495590069E-01 -0.22455282422E-01  0.10699103220E+00  0.88688299274E+00  0.88000000000E+00 0.  1.
        -11    1    4    4    0    0 -0.24494062791E-01  0.30925174588E-01 -0.11379175125E+00  0.12043732523E+00  0.51100000000E-03 0. -1.
         11    1    4    4    0    0 -0.53174906802E-02 -0.26138266998E-02 -0.10939843902E-01  0.12451871456E-01  0.51100000000E-03 0.  1.
</event>
<event>
 8    1  0.1180500E+005  0.1043930E+01  0.7957747E-01            NaN
         13   -1    0    0    0    0  0.00000000000E+00  0.00000000000E+00  0.74505805969E-08  0.10566000000E+00  0.10566000000E+00 0. -1.
     999900   -1    0    0    0    0 -0.00000000000E+00 -0.00000000000E+00 -0.74505805969E-08  0.93827000000E+00  0.93827000000E+00 0.  1.
     999902    2    1    2    0    0  0.19816782819E-01  0.20699979049E-02 -0.14374624056E-01  0.10193613291E+01  0.10190652088E+01 0.  0.
     999903    2    3    3    0    0  0.59227354346E-01 -0.30778680316E-01  0.10832633749E+00  0.12936820848E+00  0.23373731103E-01 0.  0.
         14    1    1    2    0    0 -0.19816782819E-01 -0.20699979049E-02  0.14374624056E-01  0.24568670891E-01  0.00000000000E+00 0. -1.
     999901    1    3    3    0    0 -0.39410571527E-01  0.32848678221E-01 -0.12270096154E+00  0.88999312063E+00  0.88000000000E+00 0.  1.
        -11    1    4    4    0    0  0.24741238153E-01 -0.34272864167E-02  0.53594604565E-01  0.59131361536E-01  0.51100000000E-03 0.  1.
         11    1    4    4    0    0  0.34486116193E-01 -0.27351393899E-01  0.54731732924E-01  0.70236846941E-01  0.51100000000E-03 0. -1.
</event>
<event>
 8    1  0.1180500E+005  0.1043930E+01  0.7957747E-01            NaN
         13   -1    0    0    0    0  0.00000000000E+00  0.00000000000E+00  0.74505805969E-08  0.10566000000E+00  0.10566000000E+00 0. -1.
     999900   -1    0    0    0    0 -0.00000000000E+00 -0.00000000000E+00 -0.74505805969E-08  0.93827000000E+00  0.93827000000E+00 0.  1.
     999902    2    1    2    0    0 -0.24060312611E-02  0.59545418956E-02  0.22529840095E-01  0.10205026815E+01  0.10202337398E+01 0.  0.
     999903    2    3    3    0    0  0.87268830257E-01 -0.88702561234E-01 -0.29708656344E-01  0.12936273267E+00  0.19186433693E-01 0.  0.
         14    1    1    2    0    0  0.24060312611E-02 -0.59545418956E-02 -0.22529840095E-01  0.23427318462E-01  0.00000000000E+00 0.  1.
     999901    1    3    3    0    0 -0.89674861518E-01  0.94657103129E-01  0.52238496439E-01  0.89113994887E+00  0.88000000000E+00 0. -1.
        -11    1    4    4    0    0  0.49864533060E-01 -0.63676244729E-01 -0.20161400178E-01  0.83353937988E-01  0.51100000000E-03 0. -1.
         11    1    4    4    0    0  0.37404297197E-01 -0.25026316505E-01 -0.95472561664E-02  0.46008794680E-01  0.51100000000E-03 0.  1.
</event>
<event>
 8    1  0.1180500E+005  0.1043930E+01  0.7957747E-01            NaN
         13   -1    0    0    0    0  0.00000000000E+00  0.00000000000E+00  0.74505805969E-08  0.10566000000E+00  0.10566000000E+00 0. -1.
     999900   -1    0    0    0    0 -0.00000000000E+00 -0.00000000000E+00 -0.74505805969E-08  0.93827000000E+00  0.93827000000E+00 0.  1.
     999902    2    1    2    0    0  0.97291683240E-02 -0.52738599182E-02 -0.21229280289E-01  0.10199893932E+01  0.10197083943E+01 0.  0.
     999903    2    3    3    0    0  0.10738972171E+00  0.67893744235E-01  0.22188385107E-01  0.13050854701E+00  0.19951029383E-01 0.  0.
         14    1    1    2    0    0 -0.97291683240E-02  0.52738599182E-02  0.21229280289E-01  0.23940606849E-01  0.00000000000E+00 0. -1.
     999901    1    3    3    0    0 -0.97660553386E-01 -0.73167604153E-01 -0.43417665396E-01  0.88948084614E+00  0.88000000000E+00 0.  1.
        -11    1    4    4    0    0  0.88528832504E-01  0.56549880169E-01  0.25867266943E-01  0.10818789097E+00  0.51100000000E-03 0. -1.
         11    1    4    4    0    0  0.18860889207E-01  0.11343864066E-01 -0.36788818362E-02  0.22320656043E-01  0.51100000000E-03 0.  1.
</event>
<event>
 8    1  0.1180500E+005  0.1043930E+01  0.7957747E-01            NaN
         13   -1    0    0    0    0  0.00000000000E+00  0.00000000000E+00  0.74505805969E-08  0.10566000000E+00  0.10566000000E+00 0. -1.
     999900   -1    0    0    0    0 -0.00000000000E+00 -0.00000000000E+00 -0.74505805969E-08  0.93827000000E+00  0.93827000000E+00 0. -1.
     999902    2    1    2    0    0  0.99127834393E-02 -0.43832424831E-02 -0.26302265849E-01  0.10154820602E+01  0.10150835085E+01 0.  0.
     999903    2    3    3    0    0  0.88318139141E-01 -0.87991842027E-01  0.14694752983E-01  0.12710232536E+00  0.19909981956E-01 0.  0.
         14    1    1    2    0    0 -0.99127834393E-02  0.43832424831E-02  0.26302265849E-01  0.28447939802E-01  0.00000000000E+00 0. -1.
     999901    1    3    3    0    0 -0.78405355702E-01  0.83608599544E-01 -0.40997018832E-01  0.88837973484E+00  0.88000000000E+00 0. -1.
        -11    1    4    4    0    0  0.75589581484E-01 -0.66586626633E-01  0.16705779970E-01  0.10211223179E+00  0.51100000000E-03 0.  1.
         11    1    4    4    0    0  0.12728557657E-01 -0.21405215394E-01 -0.20110269874E-02  0.24990093570E-01  0.51100000000E-03 0. -1.
</event>
<event>
 8    1  0.1180500E+005  0.1043930E+01  0.7957747E-01            NaN
         13   -1    0    0    0    0  0.00000000000E+00  0.00000000000E+00  0.74505805969E-08  0.10566000000E+00  0.10566000000E+00 0.  1.
     999900   -1    0    0    0    0 -0.00000000000E+00 -0.00000000000E+00 -0.74505805969E-08  0.93827000000E+00  0.93827000000E+00 0.  1.
     999902    2    1    2    0    0  0.18426538473E-02 -0.18264332677E-01  0.14302318075E-01  0.10206590412E+01  0.10203937185E+01 0.  0.
     999903    2    3    3    0    0 -0.12342072897E+00 -0.37952747859E-01 -0.11326790107E-01  0.13120111642E+00  0.20306387333E-01 0.  0.
         14    1    1    2    0    0 -0.18426538473E-02  0.18264332677E-01 -0.14302318075E-01  0.23270958804E-01  0.00000000000E+00 0. -1.
     999901    1    3    3    0    0  0.12526338281E+00  0.19688415182E-01  0.25629108183E-01  0.88945792478E+00  0.88000000000E+00 0.  1.
        -11    1    4    4    0    0 -0.33845345866E-01 -0.15779376576E-01  0.43488335685E-02  0.37598798336E-01  0.51100000000E-03 0.  1.
         11    1    4    4    0    0 -0.89575383099E-01 -0.22173371283E-01 -0.15675623676E-01  0.93602318080E-01  0.51100000000E-03 0. -1.
</event>
<event>
 8    1  0.1180500E+005  0.1043930E+01  0.7957747E-01            NaN
         13   -1    0    0    0    0  0.00000000000E+00  0.00000000000E+00  0.74505805969E-08  0.10566000000E+00  0.10566000000E+00 0. -1.
     999900   -1    0    0    0    0 -0.00000000000E+00 -0.00000000000E+00 -0.74505805969E-08  0.93827000000E+00  0.93827000000E+00 0. -1.
     999902    2    1    2    0    0  0.97578378158E-02  0.10259234252E-01  0.19146057083E-01  0.10201174237E+01  0.10198394577E+01 0.  0.
     999903    2    3    3    0    0 -0.10280107040E+00  0.76430020285E-01  0.14838231239E-01  0.13047331619E+00  0.19836961801E-01 0.  0.
         14    1    1    2    0    0 -0.97578378158E-02 -0.10259234252E-01 -0.19146057083E-01  0.23812576259E-01  0.00000000000E+00 0.  1.
     999901    1    3    3    0    0  0.11255890822E+00 -0.66170786034E-01  0.43078258436E-02  0.88964410755E+00  0.88000000000E+00 0.  1.
        -11    1    4    4    0    0 -0.62781959162E-01  0.39671751057E-01  0.16613537109E-01  0.76103173156E-01  0.51100000000E-03 0.  1.
         11    1    4    4    0    0 -0.40019111241E-01  0.36758269228E-01 -0.17753058698E-02  0.54370143030E-01  0.51100000000E-03 0. -1.
</event>
<event>
 8    1  0.1180500E+005  0.1043930E+01  0.7957747E-01            NaN
         13   -1    0    0    0    0  0.00000000000E+00  0.00000000000E+00  0.74505805969E-08  0.10566000000E+00  0.10566000000E+00 0. -1.
     999900   -1    0    0    0    0 -0.00000000000E+00 -0.00000000000E+00 -0.74505805969E-08  0.93827000000E+00  0.93827000000E+00 0. -1.
     999902    2    1    2    0    0  0.19269478913E-01  0.16164432564E-02  0.13800510105E-01  0.10201733212E+01  0.10198966740E+01 0.  0.
     999903    2    3    3    0    0 -0.56076920372E-01 -0.10795199899E+00 -0.35589025449E-01  0.12881388216E+00  0.22982219665E-01 0.  0.
         14    1    1    2    0    0 -0.19269478913E-01 -0.16164432564E-02 -0.13800510105E-01  0.23756678757E-01  0.00000000000E+00 0.  1.
     999901    1    3    3    0    0  0.75346399286E-01  0.10956844224E+00  0.49389535555E-01  0.89135943908E+00  0.88000000000E+00 0.  1.
        -11    1    4    4    0    0 -0.47104175896E-01 -0.67759454106E-01 -0.21421636406E-01  0.85260158543E-01  0.51100000000E-03 0.  1.
         11    1    4    4    0    0 -0.89727444764E-02 -0.40192544882E-01 -0.14167389044E-01  0.43553723616E-01  0.51100000000E-03 0. -1.
</event>
<event>
 8    1  0.1180500E+005  0.1043930E+01  0.7957747E-01            NaN
         13   -1    0    0    0    0  0.00000000000E+00  0.00000000000E+00  0.74505805969E-08  0.10566000000E+00  0.10566000000E+00 0.  1.
     999900   -1    0    0    0    0 -0.00000000000E+00 -0.00000000000E+00 -0.74505805969E-08  0.93827000000E+00  0.93827000000E+00 0.  1.
     999902    2    1    2    0    0  0.61357053797E-02 -0.22947394849E-01  0.16018042241E-02  0.10201225308E+01  0.10198446854E+01 0.  0.
     999903    2    3    3    0    0  0.11114332288E+00 -0.55497839162E-01  0.41209376393E-01  0.13239797281E+00  0.19954000326E-01 0.  0.
         14    1    1    2    0    0 -0.61357053797E-02  0.22947394849E-01 -0.16018042241E-02  0.23807469156E-01  0.00000000000E+00 0.  1.
     999901    1    3    3    0    0 -0.10500761750E+00  0.32550444313E-01 -0.39607572169E-01  0.88772455803E+00  0.88000000000E+00 0. -1.
        -11    1    4    4    0    0  0.36128133973E-01 -0.22985906697E-01  0.54802383797E-02  0.43172770409E-01  0.51100000000E-03 0. -1.
         11    1    4    4    0    0  0.75015188910E-01 -0.32511932465E-01  0.35729138013E-01  0.89225202403E-01  0.51100000000E-03 0.  1.
</event>
<event>
 8    1  0.1180500E+005  0.1043930E+01  0.7957747E-01            NaN
         13   -1    0    0    0    0  0.00000000000E+00  0.00000000000E+00  0.74505805969E-08  0.10566000000E+00  0.10566000000E+00 0. -1.
     999900   -1    0    0    0    0 -0.00000000000E+00 -0.00000000000E+00 -0.74505805969E-08  0.93827000000E+00  0.93827000000E+00 0. -1.
     999902    2    1    2    0    0 -0.20991703525E-02  0.22974710457E-01 -0.59817338461E-02  0.10200967254E+01  0.10198182702E+01 0.  0.
     999903    2    3    3    0    0  0.31135590684E-01  0.94071605882E-01  0.84682738260E-01  0.13196421033E+00  0.20603266936E-01 0.  0.
         14    1    1    2    0    0  0.20991703525E-02 -0.22974710457E-01  0.59817338461E-02  0.23833274567E-01  0.00000000000E+00 0. -1.
     999901    1    3    3    0    0 -0.33234761037E-01 -0.71096895425E-01 -0.90664472106E-01  0.88813251510E+00  0.88000000000E+00 0. -1.
        -11    1    4    4    0    0  0.21675323847E-01  0.52368175246E-01  0.35909475923E-01  0.67096922616E-01  0.51100000000E-03 0. -1.
         11    1    4    4    0    0  0.94602668376E-02  0.41703430636E-01  0.48773262337E-01  0.64867287715E-01  0.51100000000E-03 0.  1.
</event>
<event>
 8    1  0.1180500E+005  0.1043930E+01  0.7957747E-01            NaN
         13   -1    0    0    0    0  0.00000000000E+00  0.00000000000E+00  0.74505805969E-08  0.10566000000E+00  0.10566000000E+00 0. -1.
     999900   -1    0    0    0    0 -0.00000000000E+00 -0.00000000000E+00 -0.74505805969E-08  0.93827000000E+00  0.93827000000E+00 0.  1.
     999902    2    1    2    0    0 -0.92631345331E-02 -0.98884451128E-02  0.20541345203E-01  0.10193224022E+01  0.10190253312E+01 0.  0.
     999903    2    3    3    0    0 -0.27089911668E-01  0.71102408748E-01  0.10579089718E+00  0.13132195256E+00  0.16258088926E-01 0.  0.
         14    1    1    2    0    0  0.92631345331E-02  0.98884451128E-02 -0.20541345203E-01  0.24607597828E-01  0.00000000000E+00 0.  1.
     999901    1    3    3    0    0  0.17826777135E-01 -0.80990853861E-01 -0.85249551975E-01  0.88800044961E+00  0.88000000000E+00 0.  1.
        -11    1    4    4    0    0 -0.22762453582E-01  0.41384644048E-01  0.72010606453E-01  0.86119722589E-01  0.51100000000E-03 0. -1.
         11    1    4    4    0    0 -0.43274580857E-02  0.29717764700E-01  0.33780290725E-01  0.45202229975E-01  0.51100000000E-03 0.  1.
</event>
<event>
 8    1  0.1180500E+005  0.1043930E+01  0.7957747E-01            NaN
         13   -1    0    0    0    0  0.00000000000E+00  0.00000000000E+00  0.74505805969E-08  0.10566000000E+00  0.10566000000E+00 0. -1.
     999900   -1    0    0    0    0 -0.00000000000E+00 -0.00000000000E+00 -0.74505805969E-08  0.93827000000E+00  0.93827000000E+00 0.  1.
     999902    2    1    2    0    0 -0.17090718715E-01  0.14141462088E-01  0.96783932846E-02  0.10197278325E+01  0.10194405855E+01 0.  0.
     999903    2    3    3    0    0  0.17560007518E-02 -0.11910458351E+00  0.44039734580E-01  0.12883479217E+00  0.21677640519E-01 0.  0.
         14    1    1    2    0    0  0.17090718715E-01 -0.14141462088E-01 -0.96783932846E-02  0.24202167522E-01  0.00000000000E+00 0.  1.
     999901    1    3    3    0    0 -0.18846719467E-01  0.13324604560E+00 -0.34361341296E-01  0.89089304031E+00  0.88000000000E+00 0.  1.
        -11    1    4    4    0    0  0.49336446690E-02 -0.33134779037E-01  0.33608666643E-02  0.33672109784E-01  0.51100000000E-03 0. -1.
         11    1    4    4    0    0 -0.31776439171E-02 -0.85969804473E-01  0.40678867916E-01  0.95162682381E-01  0.51100000000E-03 0.  1.
</event>
<event>
 8    1  0.1180500E+005  0.1043930E+01  0.7957747E-01            NaN
         13   -1    0    0    0    0  0.00000000000E+00  0.00000000000E+00  0.74505805969E-08  0.10566000000E+00  0.10566000000E+00 0. -1.
     999900   -1    0    0    0    0 -0.00000000000E+00 -0.00000000000E+00 -0.74505805969E-08  0.93827000000E+00  0.93827000000E+00 0. -1.
     999902    2    1    2    0    0 -0.25117992527E-02  0.19256926146E-01 -0.13865770724E-01  0.10200679394E+01  0.10197888031E+01 0.  0.
     999903    2    3    3    0    0  0.28534565699E-01 -0.11622174746E+00  0.38581743516E-01  0.12761677009E+00  0.21812222616E-01 0.  0.
         14    1    1    2    0    0  0.25117992527E-02 -0.19256926146E-01  0.13865770724E-01  0.23862060638E-01  0.00000000000E+00 0. -1.
     999901    1    3    3    0    0 -0.31046364952E-01  0.13547867360E+00 -0.52447514240E-01  0.89245116927E+00  0.88000000000E+00 0.  1.
        -11    1    4    4    0    0  0.19156742419E-01 -0.39613076549E-01  0.87286520881E-02  0.44862312714E-01  0.51100000000E-03 0.  1.
         11    1    4    4    0    0  0.93778232795E-02 -0.76608670907E-01  0.29853091428E-01  0.82754457381E-01  0.51100000000E-03 0. -1.
</event>
<event>
 8    1  0.1180500E+005  0.1043930E+01  0.7957747E-01            NaN
         13   -1    0    0    0    0  0.00000000000E+00  0.00000000000E+00  0.74505805969E-08  0.10566000000E+00  0.10566000000E+00 0.  1.
     999900   -1    0    0    0    0 -0.00000000000E+00 -0.00000000000E+00 -0.74505805969E-08  0.93827000000E+00  0.93827000000E+00 0.  1.
     999902    2    1    2    0    0 -0.18558622918E-01  0.12837067952E-01  0.13141969093E-02  0.10213260200E+01  0.10210758538E+01 0.  0.
     999903    2    3    3    0    0 -0.10334918947E+00  0.73040391727E-01 -0.39933094662E-01  0.13424360025E+00  0.20266681338E-01 0.  0.
         14    1    1    2    0    0  0.18558622918E-01 -0.12837067952E-01 -0.13141969093E-02  0.22603979998E-01  0.00000000000E+00 0. -1.
     999901    1    3    3    0    0  0.84790566547E-01 -0.60203323775E-01  0.41247291572E-01  0.88708241975E+00  0.88000000000E+00 0. -1.
        -11    1    4    4    0    0 -0.51682996586E-01  0.34239966026E-01 -0.29979894142E-01  0.68866265932E-01  0.51100000000E-03 0.  1.
         11    1    4    4    0    0 -0.51666192879E-01  0.38800425701E-01 -0.99532005200E-02  0.65377334320E-01  0.51100000000E-03 0. -1.
</event>
<event>
 8    1  0.1180500E+005  0.1043930E+01  0.7957747E-01            NaN
         13   -1    0    0    0    0  0.00000000000E+00  0.00000000000E+00  0.74505805969E-08  0.10566000000E+00  0.10566000000E+00 0.  1.
     999900   -1    0    0    0    0 -0.00000000000E+00 -0.00000000000E+00 -0.74505805969E-08  0.93827000000E+00  0.93827000000E+00 0.  1.
     999902    2    1    2    0    0  0.21142578472E-01 -0.38917330693E-02  0.99538806432E-02  0.10202396232E+01  0.10199645361E+01 0.  0.
     999903    2    3    3    0    0 -0.83199870488E-01 -0.90063835812E-01 -0.34060959023E-01  0.12880803078E+00  0.19941085552E-01 0.  0.
         14    1    1    2    0    0 -0.21142578472E-01  0.38917330693E-02 -0.99538806432E-02  0.23690376750E-01  0.00000000000E+00 0. -1.
     999901    1    3    3    0    0  0.10434244896E+00  0.86172102742E-01  0.44014839667E-01  0.89143159247E+00  0.88000000000E+00 0. -1.
        -11    1    4    4    0    0 -0.46987965129E-01 -0.45609275187E-01 -0.27750939742E-01  0.71122785572E-01  0.51100000000E-03 0. -1.
         11    1    4    4    0    0 -0.36211905359E-01 -0.44454560625E-01 -0.63100192808E-02  0.57685245206E-01  0.51100000000E-03 0.  1.
</event>
<event>
 8    1  0.1180500E+005  0.1043930E+01  0.7957747E-01            NaN
         13   -1    0    0    0    0  0.00000000000E+00  0.00000000000E+00  0.74505805969E-08  0.10566000000E+00  0.10566000000E+00 0.  1.
     999900   -1    0    0    0    0 -0.00000000000E+00 -0.00000000000E+00 -0.74505805969E-08  0.93827000000E+00  0.93827000000E+00 0.  1.
     999902    2    1    2    0    0  0.78028584084E-02 -0.21754977007E-01  0.84183196650E-02  0.10193326073E+01  0.10190357857E+01 0.  0.
     999903    2    3    3    0    0  0.12610968637E+00  0.17205280751E-01  0.20776289217E-01  0.13047540464E+00  0.19811671788E-01 0.  0.
         14    1    1    2    0    0 -0.78028584084E-02  0.21754977007E-01 -0.84183196650E-02  0.24597392746E-01  0.00000000000E+00 0.  1.
     999901    1    3    3    0    0 -0.11830682797E+00 -0.38960257759E-01 -0.12357969552E-01  0.88885720261E+00  0.88000000000E+00 0. -1.
        -11    1    4    4    0    0  0.58044543707E-01 -0.10938993570E-02  0.13586944481E-01  0.59625764995E-01  0.51100000000E-03 0.  1.
         11    1    4    4    0    0  0.68065142668E-01  0.18299180108E-01  0.71893447361E-02  0.70849639644E-01  0.51100000000E-03 0. -1.
</event>
<event>
 8    1  0.1180500E+005  0.1043930E+01  0.7957747E-01            NaN
         13   -1    0    0    0    0  0.00000000000E+00  0.00000000000E+00  0.74505805969E-08  0.10566000000E+00  0.10566000000E+00 0. -1.
     999900   -1    0    0    0    0 -0.00000000000E+00 -0.00000000000E+00 -0.74505805969E-08  0.93827000000E+00  0.93827000000E+00 0. -1.
     999902    2    1    2    0    0  0.22833709157E-01 -0.35684375576E-02 -0.27040929923E-02  0.10206614775E+01  0.10203962110E+01 0.  0.
     999903    2    3    3    0    0 -0.60576071102E-01 -0.77263376856E-01 -0.82901650681E-01  0.13003260767E+00  0.19917469153E-01 0.  0.
         14    1    1    2    0    0 -0.22833709157E-01  0.35684375576E-02  0.27040929923E-02  0.23268522501E-01  0.00000000000E+00 0. -1.
     999901    1    3    3    0    0  0.83409780258E-01  0.73694939299E-01  0.80197557689E-01  0.89062886983E+00  0.88000000000E+00 0.  1.
        -11    1    4    4    0    0 -0.60597962320E-01 -0.71695358684E-01 -0.74063507443E-01  0.11957425204E+00  0.51100000000E-03 0.  1.
         11    1    4    4    0    0  0.21891218520E-04 -0.55680181725E-02 -0.88381432378E-02  0.10458355630E-01  0.51100000000E-03 0. -1.
</event>
<event>
 8    1  0.1180500E+005  0.1043930E+01  0.7957747E-01            NaN
         13   -1    0    0    0    0  0.00000000000E+00  0.00000000000E+00  0.74505805969E-08  0.10566000000E+00  0.10566000000E+00 0. -1.
     999900   -1    0    0    0    0 -0.00000000000E+00 -0.00000000000E+00 -0.74505805969E-08  0.93827000000E+00  0.93827000000E+00 0. -1.
     999902    2    1    2    0    0  0.17046292231E-01  0.83300316821E-03  0.17135227753E-01  0.10197455835E+01  0.10194587628E+01 0.  0.
     999903    2    3    3    0    0 -0.97474176014E-01  0.61899247771E-01  0.55979803645E-01  0.12937884725E+00  0.16505024555E-01 0.  0.
         14    1    1    2    0    0 -0.17046292231E-01 -0.83300316821E-03 -0.17135227753E-01  0.24184416537E-01  0.00000000000E+00 0.  1.
     999901    1    3    3    0    0  0.11452046824E+00 -0.61066244603E-01 -0.38844575892E-01  0.89036673621E+00  0.88000000000E+00 0.  1.
        -11    1    4    4    0    0 -0.19116642773E-01  0.18223126480E-01  0.77631354332E-02  0.27532812468E-01  0.51100000000E-03 0. -1.
         11    1    4    4    0    0 -0.78357533241E-01  0.43676121292E-01  0.48216668212E-01  0.10184603478E+00  0.51100000000E-03 0.  1.
</event>
<event>
 8    1  0.1180500E+005  0.1043930E+01  0.7957747E-01            NaN
         13   -1    0    0    0    0  0.00000000000E+00  0.00000000000E+00  0.74505805969E-08  0.10566000000E+00  0.10566000000E+00 0. -1.
     999900   -1    0    0    0    0 -0.00000000000E+00 -0.00000000000E+00 -0.74505805969E-08  0.93827000000E+00  0.93827000000E+00 0.  1.
     999902    2    1    2    0    0 -0.63434194125E-02  0.22667293829E-01 -0.25761587041E-02  0.10202512802E+01  0.10199764668E+01 0.  0.
     999903    2    3    3    0    0 -0.52611494291E-01 -0.54592944494E-01 -0.10404695380E+00  0.12985462618E+00  0.16973403419E-01 0.  0.
         14    1    1    2    0    0  0.63434194125E-02 -0.22667293829E-01  0.25761587041E-02  0.23678719835E-01  0.00000000000E+00 0.  1.
     999901    1    3    3    0    0  0.46268074879E-01  0.77260238322E-01  0.10147079510E+00  0.89039665399E+00  0.88000000000E+00 0. -1.
        -11    1    4    4    0    0 -0.19189101757E-01 -0.20924659490E-01 -0.53248260505E-01  0.60346510825E-01  0.51100000000E-03 0.  1.
         11    1    4    4    0    0 -0.33422392534E-01 -0.33668285004E-01 -0.50798693297E-01  0.69508115350E-01  0.51100000000E-03 0. -1.
</event>
<event>
 8    1  0.1180500E+005  0.1043930E+01  0.7957747E-01            NaN
         13   -1    0    0    0    0  0.00000000000E+00  0.00000000000E+00  0.74505805969E-08  0.10566000000E+00  0.10566000000E+00 0. -1.
     999900   -1    0    0    0    0 -0.00000000000E+00 -0.00000000000E+00 -0.74505805969E-08  0.93827000000E+00  0.93827000000E+00 0.  1.
     999902    2    1    2    0    0 -0.23011943672E-01 -0.48256295458E-02  0.37542317787E-02  0.10201196974E+01  0.10198417851E+01 0.  0.
     999903    2    3    3    0    0  0.10446480074E-01  0.75969496678E-01  0.10319219497E+00  0.13021227131E+00  0.20642507726E-01 0.  0.
         14    1    1    2    0    0  0.23011943672E-01  0.48256295458E-02 -0.37542317787E-02  0.23810302567E-01  0.00000000000E+00 0.  1.
     999901    1    3    3    0    0 -0.33458423746E-01 -0.80795126223E-01 -0.99437963196E-01  0.88990742612E+00  0.88000000000E+00 0.  1.
        -11    1    4    4    0    0  0.14743294423E-02  0.39662999245E-01  0.68651292056E-01  0.79300619029E-01  0.51100000000E-03 0.  1.
         11    1    4    4    0    0  0.89721506320E-02  0.36306497432E-01  0.34540902919E-01  0.50911652283E-01  0.51100000000E-03 0. -1.
</event>
<event>
 8    1  0.1180500E+005  0.1043930E+01  0.7957747E-01            NaN
         13   -1    0    0    0    0  0.00000000000E+00  0.00000000000E+00  0.74505805969E-08  0.10566000000E+00  0.10566000000E+00 0. -1.
     999900   -1    0    0    0    0 -0.00000000000E+00 -0.00000000000E+00 -0.74505805969E-08  0.93827000000E+00  0.93827000000E+00 0.  1.
     999902    2    1    2    0    0  0.11940163690E-01  0.78366302217E-02 -0.18649770374E-01  0.10204396995E+01  0.10201692929E+01 0.  0.
     999903    2    3    3    0    0 -0.87046309413E-01  0.47386829770E-01  0.79346520575E-01  0.12860686025E+00  0.20525168883E-01 0.  0.
         14    1    1    2    0    0 -0.11940163690E-01 -0.78366302217E-02  0.18649770374E-01  0.23490300492E-01  0.00000000000E+00 0.  1.
     999901    1    3    3    0    0  0.98986473103E-01 -0.39550199548E-01 -0.97996290949E-01  0.89183283926E+00  0.88000000000E+00 0.  1.
        -11    1    4    4    0    0 -0.32949278896E-01  0.71133669977E-02  0.28467731237E-01  0.44124004947E-01  0.51100000000E-03 0. -1.
         11    1    4    4    0    0 -0.54097030517E-01  0.40273462772E-01  0.50878789338E-01  0.84482855302E-01  0.51100000000E-03 0.  1.
</event>
<event>
 8    1  0.1180500E+005  0.1043930E+01  0.7957747E-01            NaN
         13   -1    0    0    0    0  0.00000000000E+00  0.00000000000E+00  0.74505805969E-08  0.10566000000E+00  0.10566000000E+00 0. -1.
     999900   -1    0    0    0    0 -0.00000000000E+00 -0.00000000000E+00 -0.74505805969E-08  0.93827000000E+00  0.93827000000E+00 0.  1.
     999902    2    1    2    0    0  0.22994847095E-01 -0.14744611616E-02 -0.36382392418E-02  0.10206024666E+01  0.10203358374E+01 0.  0.
     999903    2    3    3    0    0 -0.46574484268E-01  0.11850141001E+00  0.15031923810E-01  0.12954541092E+00  0.18554999282E-01 0.  0.
         14    1    1    2    0    0 -0.22994847095E-01  0.14744611616E-02  0.36382392418E-02  0.23327533376E-01  0.00000000000E+00 0. -1.
     999901    1    3    3    0    0  0.69569331363E-01 -0.11997587117E+00 -0.18670163052E-01  0.89105705570E+00  0.88000000000E+00 0.  1.
        -11    1    4    4    0    0 -0.22550330189E-01  0.33893975916E-01  0.43234612510E-02  0.40942306154E-01  0.51100000000E-03 0. -1.
         11    1    4    4    0    0 -0.24024154080E-01  0.84607434093E-01  0.10708462559E-01  0.88603104768E-01  0.51100000000E-03 0.  1.
</event>
<event>
 8    1  0.1180500E+005  0.1043930E+01  0.7957747E-01            NaN
         13   -1    0    0    0    0  0.00000000000E+00  0.00000000000E+00  0.74505805969E-08  0.10566000000E+00  0.10566000000E+00 0. -1.
     999900   -1    0    0    0    0 -0.00000000000E+00 -0.00000000000E+00 -0.74505805969E-08  0.93827000000E+00  0.93827000000E+00 0.  1.
     999902    2    1    2    0    0  0.80740480433E-02  0.12138071756E-01  0.18861674298E-01  0.10200912543E+01  0.10198126697E+01 0.  0.
     999903    2    3    3    0    0  0.48127092049E-01 -0.23052012413E-01 -0.11512271161E+00  0.12835451962E+00  0.19339899531E-01 0.  0.
         14    1    1    2    0    0 -0.80740480433E-02 -0.12138071756E-01 -0.18861674298E-01  0.23838745669E-01  0.00000000000E+00 0.  1.
     999901    1    3    3    0    0 -0.40053044005E-01  0.35190084169E-01  0.13398438591E+00  0.89173673471E+00  0.88000000000E+00 0. -1.
        -11    1    4    4    0    0  0.25534219037E-01 -0.13364317550E-01 -0.39952425622E-01  0.49265188109E-01  0.51100000000E-03 0.  1.
         11    1    4    4    0    0  0.22592873012E-01 -0.96876948629E-02 -0.75170285990E-01  0.79089331515E-01  0.51100000000E-03 0. -1.
</event>
<event>
 8    1  0.1180500E+005  0.1043930E+01  0.7957747E-01            NaN
         13   -1    0    0    0    0  0.00000000000E+00  0.00000000000E+00  0.74505805969E-08  0.10566000000E+00  0.10566000000E+00 0.  1.
     999900   -1    0    0    0    0 -0.00000000000E+00 -0.00000000000E+00 -0.74505805969E-08  0.93827000000E+00  0.93827000000E+00 0. -1.
     999902    2    1    2    0    0 -0.67334404945E-02 -0.20485538698E-01 -0.97741952466E-02  0.10202544555E+01  0.10199797167E+01 0.  0.
     999903    2    3    3    0    0 -0.12515949939E+00 -0.18993569213E-01 -0.32048453306E-01  0.13204102392E+00  0.19546679509E-01 0.  0.
         14    1    1    2    0    0  0.67334404945E-02  0.20485538698E-01  0.97741952466E-02  0.23675544542E-01  0.00000000000E+00 0.  1.
     999901    1    3    3    0    0  0.11842605889E+00 -0.14919694856E-02  0.22274258059E-01  0.88821343154E+00  0.88000000000E+00 0.  1.
        -11    1    4    4    0    0 -0.55578703540E-01 -0.14548212611E-01 -0.22339403324E-01  0.61643757504E-01  0.51100000000E-03 0. -1.
         11    1    4    4    0    0 -0.69580795846E-01 -0.44453566015E-02 -0.97090499822E-02  0.70397266413E-01  0.51100000000E-03 0.  1.
</event>
<event>
 8    1  0.1180500E+005  0.1043930E+01  0.7957747E-01            NaN
         13   -1    0    0    0    0  0.00000000000E+00  0.00000000000E+00  0.74505805969E-08  0.10566000000E+00  0.10566000000E+00 0.  1.
     999900   -1    0    0    0    0 -0.00000000000E+00 -0.00000000000E+00 -0.74505805969E-08  0.93827000000E+00  0.93827000000E+00 0. -1.
     999902    2    1    2    0    0 -0.64370743594E-02 -0.22609638924E-02  0.22102782648E-01  0.10207981846E+01  0.10205360615E+01 0.  0.
     999903    2    3    3    0    0 -0.95125494791E-01 -0.88028214853E-01 -0.10830285966E-01  0.13158153816E+00  0.19964461446E-01 0.  0.
         14    1    1    2    0    0  0.64370743594E-02  0.22609638924E-02 -0.22102782648E-01  0.23131815424E-01  0.00000000000E+00 0. -1.
     999901    1    3    3    0    0  0.88688420431E-01  0.85767250961E-01  0.32933068614E-01  0.88921664642E+00  0.88000000000E+00 0. -1.
        -11    1    4    4    0    0 -0.84683315652E-01 -0.72572086906E-01 -0.14798524599E-01  0.11250435191E+00  0.51100000000E-03 0. -1.
         11    1    4    4    0    0 -0.10442179139E-01 -0.15456127947E-01  0.39682386328E-02  0.19077186248E-01  0.51100000000E-03 0.  1.
</event>
<event>
 8    1  0.1180500E+005  0.1043930E+01  0.7957747E-01            NaN
         13   -1    0    0    0    0  0.00000000000E+00  0.00000000000E+00  0.74505805969E-08  0.10566000000E+00  0.10566000000E+00 0. -1.
     999900   -1    0    0    0    0 -0.00000000000E+00 -0.00000000000E+00 -0.74505805969E-08  0.93827000000E+00  0.93827000000E+00 0.  1.
     999902    2    1    2    0    0  0.13917944060E-01 -0.71586254298E-02  0.18708596949E-01  0.10195380611E+01  0.10192462368E+01 0.  0.
     999903    2    3    3    0    0 -0.12237932531E+00 -0.29030510117E-01 -0.13065066596E-01  0.12821046099E+00  0.21160258967E-01 0.  0.
         14    1    1    2    0    0 -0.13917944060E-01  0.71586254298E-02 -0.18708596949E-01  0.24391938928E-01  0.00000000000E+00 0.  1.
     999901    1    3    3    0    0  0.13629726937E+00  0.21871884687E-01  0.31773663544E-01  0.89132760008E+00  0.88000000000E+00 0. -1.
        -11    1    4    4    0    0 -0.79575325779E-01 -0.29008212062E-01 -0.72253319217E-02  0.85006913732E-01  0.51100000000E-03 0. -1.
         11    1    4    4    0    0 -0.42803999534E-01 -0.22298054516E-04 -0.58397346739E-02  0.43203547255E-01  0.51100000000E-03 0.  1.
</event>
<event>
 8    1  0.1180500E+005  0.1043930E+01  0.7957747E-01            NaN
         13   -1    0    0    0    0  0.00000000000E+00  0.00000000000E+00  0.74505805969E-08  0.10566000000E+00  0.10566000000E+00 0. -1.
     999900   -1    0    0    0    0 -0.00000000000E+00 -0.00000000000E+00 -0.74505805969E-08  0.93827000000E+00  0.93827000000E+00 0. -1.
     999902    2    1    2    0    0  0.80848438378E-02 -0.20608865847E-01  0.66228307877E-02  0.10208225999E+01  0.10205610362E+01 0.  0.
     999903    2    3    3    0    0  0.12688050438E+00  0.24845680842E-01  0.64025639134E-02  0.13167774484E+00  0.24126031857E-01 0.  0.
         14    1    1    2    0    0 -0.80848438378E-02  0.20608865847E-01 -0.66228307877E-02  0.23107400092E-01  0.00000000000E+00 0. -1.
     999901    1    3    3    0    0 -0.11879566054E+00 -0.45454546689E-01  0.22026687426E-03  0.88914485507E+00  0.88000000000E+00 0. -1.
        -11    1    4    4    0    0  0.37815817443E-01  0.16284414607E-01  0.90618989777E-02  0.42161562377E-01  0.51100000000E-03 0. -1.
         11    1    4    4    0    0  0.89064686936E-01  0.85612662347E-02 -0.26593350643E-02  0.89516182462E-01  0.51100000000E-03 0.  1.
</event>
<event>
 8    1  0.1180500E+005  0.1043930E+01  0.7957747E-01            NaN
         13   -1    0    0    0    0  0.00000000000E+00  0.00000000000E+00  0.74505805969E-08  0.10566000000E+00  0.10566000000E+00 0. -1.
     999900   -1    0    0    0    0 -0.00000000000E+00 -0.00000000000E+00 -0.74505805969E-08  0.93827000000E+00  0.93827000000E+00 0. -1.
     999902    2    1    2    0    0 -0.64406705535E-02 -0.76068398255E-02 -0.87243056083E-02  0.10306838776E+01  0.10305987560E+01 0.  0.
     999903    2    3    3    0    0 -0.35375682109E-01 -0.11758733287E+00 -0.67158029064E-01  0.14144406534E+00  0.20445122035E-01 0.  0.
         14    1    1    2    0    0  0.64406705535E-02  0.76068398255E-02  0.87243056083E-02  0.13246122363E-01  0.00000000000E+00 0.  1.
     999901    1    3    3    0    0  0.28935011556E-01  0.10998049304E+00  0.58433723456E-01  0.88923981230E+00  0.88000000000E+00 0.  1.
        -11    1    4    4    0    0 -0.10609723521E-01 -0.16040698850E-01 -0.51712915874E-02  0.19921687440E-01  0.51100000000E-03 0. -1.
         11    1    4    4    0    0 -0.24765958588E-01 -0.10154663402E+00 -0.61986737476E-01  0.12152237790E+00  0.51100000000E-03 0.  1.
</event>
<event>
 8    1  0.1180500E+005  0.1043930E+01  0.7957747E-01            NaN
         13   -1    0    0    0    0  0.00000000000E+00  0.00000000000E+00  0.74505805969E-08  0.10566000000E+00  0.10566000000E+00 0.  1.
     999900   -1    0    0    0    0 -0.00000000000E+00 -0.00000000000E+00 -0.74505805969E-08  0.93827000000E+00  0.93827000000E+00 0.  1.
     999902    2    1    2    0    0  0.22494795319E-01  0.10707558936E-02  0.10529811996E-01  0.10190696043E+01  0.10187663221E+01 0.  0.
     999903    2    3    3    0    0  0.10306451303E+00  0.67954123218E-01  0.43952465964E-01  0.13223143526E+00  0.17699618549E-01 0.  0.
         14    1    1    2    0    0 -0.22494795319E-01 -0.10707558936E-02 -0.10529811996E-01  0.24860395718E-01  0.00000000000E+00 0. -1.
     999901    1    3    3    0    0 -0.80569717716E-01 -0.66883367325E-01 -0.33422653968E-01  0.88683816902E+00  0.88000000000E+00 0.  1.
        -11    1    4    4    0    0  0.45555410359E-01  0.32188913155E-01  0.10764414654E-01  0.56811577050E-01  0.51100000000E-03 0.  1.
         11    1    4    4    0    0  0.57509102676E-01  0.35765210063E-01  0.33188051310E-01  0.75419858208E-01  0.51100000000E-03 0. -1.
</event>
<event>
 8    1  0.1180500E+005  0.1043930E+01  0.7957747E-01            NaN
         13   -1    0    0    0    0  0.00000000000E+00  0.00000000000E+00  0.74505805969E-08  0.10566000000E+00  0.10566000000E+00 0.  1.
     999900   -1    0    0    0    0 -0.00000000000E+00 -0.00000000000E+00 -0.74505805969E-08  0.93827000000E+00  0.93827000000E+00 0.  1.
     999902    2    1    2    0    0 -0.19555411298E-01  0.11661993805E-01  0.93392910413E-02  0.10193202749E+01  0.10190231520E+01 0.  0.
     999903    2    3    3    0    0  0.51565439397E-01 -0.82742881736E-01  0.81090070990E-01  0.12852364812E+00  0.20912902574E-01 0.  0.
         14    1    1    2    0    0  0.19555411298E-01 -0.11661993805E-01 -0.93392910413E-02  0.24609725064E-01  0.00000000000E+00 0. -1.
     999901    1    3    3    0    0 -0.71120850695E-01  0.94404875541E-01 -0.71750779948E-01  0.89079662682E+00  0.88000000000E+00 0. -1.
        -11    1    4    4    0    0  0.35706482501E-02 -0.10618406317E-01  0.18539369171E-01  0.21667242831E-01  0.51100000000E-03 0. -1.
         11    1    4    4    0    0  0.47994791147E-01 -0.72124475419E-01  0.62550701819E-01  0.10685640529E+00  0.51100000000E-03 0.  1.
</event>
<event>
 7    1  0.1180500E+005  0.1043930E+01  0.7957747E-01            NaN
         13   -1    0    0    0    0  0.00000000000E+00  0.00000000000E+00  0.74505805969E-08  0.10566000000E+00  0.10566000000E+00 0.  1.
     999900   -1    0    0    0    0 -0.00000000000E+00 -0.00000000000E+00 -0.74505805969E-08  0.93827000000E+00  0.93827000000E+00 0. -1.
     999903    2    1    2    0    0 -0.10130108632E+00  0.35706949844E-01 -0.40320248058E-01  0.11661467432E+00  0.20889315632E-01 0.  0.
         14    1    1    2    0    0  0.63693613152E-02 -0.40802140409E-01  0.48759080307E-03  0.41299166702E-01  0.00000000000E+00 0. -1.
     999901    1    1    2    0    0  0.94931725004E-01  0.50951905651E-02  0.39832657255E-01  0.88601615897E+00  0.88000000000E+00 0. -1.
        -11    1    3    3    0    0 -0.97784653991E-01  0.35422184648E-01 -0.42592280573E-01  0.11238742459E+00  0.51100000000E-03 0. -1.
         11    1    3    3    0    0 -0.35164323279E-02  0.28476519618E-03  0.22720325145E-02  0.42272497301E-02  0.51100000000E-03 0.  1.
</event>
<event>
 8    1  0.1180500E+005  0.1043930E+01  0.7957747E-01            NaN
         13   -1    0    0    0    0  0.00000000000E+00  0.00000000000E+00  0.74505805969E-08  0.10566000000E+00  0.10566000000E+00 0.  1.
     999900   -1    0    0    0    0 -0.00000000000E+00 -0.00000000000E+00 -0.74505805969E-08  0.93827000000E+00  0.93827000000E+00 0.  1.
     999902    2    1    2    0    0  0.42389747861E-03 -0.67789138063E-02  0.22588895552E-01  0.10203420462E+01  0.10200693602E+01 0.  0.
     999903    2    3    3    0    0  0.11616076184E+00 -0.20502619672E-01 -0.50464444584E-01  0.12965683113E+00  0.18723078978E-01 0.  0.
         14    1    1    2    0    0 -0.42389747861E-03  0.67789138063E-02 -0.22588895552E-01  0.23587953784E-01  0.00000000000E+00 0. -1.
     999901    1    3    3    0    0 -0.11573686436E+00  0.13723705866E-01  0.73053340136E-01  0.89068521509E+00  0.88000000000E+00 0. -1.
        -11    1    4    4    0    0  0.66617856858E-01 -0.23472399660E-02 -0.27602098118E-01  0.72149742407E-01  0.51100000000E-03 0.  1.
         11    1    4    4    0    0  0.49542904979E-01 -0.18155379706E-01 -0.22862346466E-01  0.57507088719E-01  0.51100000000E-03 0. -1.
</event>
<event>
 7    1  0.1180500E+005  0.1043930E+01  0.7957747E-01            NaN
         13   -1    0    0    0    0  0.00000000000E+00  0.00000000000E+00  0.74505805969E-08  0.10566000000E+00  0.10566000000E+00 0.  1.
     999900   -1    0    0    0    0 -0.00000000000E+00 -0.00000000000E+00 -0.74505805969E-08  0.93827000000E+00  0.93827000000E+00 0. -1.
     999903    2    1    2    0    0 -0.67800758569E-01  0.55294691289E-01  0.14463216896E-01  0.91015533396E-01  0.20498705549E-01 0.  0.
         14    1    1    2    0    0  0.86378862072E-02 -0.48854490211E-01  0.47559858661E-01  0.68726373743E-01  0.00000000000E+00 0.  1.
     999901    1    1    2    0    0  0.59162872362E-01 -0.64402010775E-02 -0.62023075557E-01  0.88418809286E+00  0.88000000000E+00 0. -1.
        -11    1    3    3    0    0 -0.42535378437E-01  0.21506836846E-01  0.75767027382E-02  0.48264583240E-01  0.51100000000E-03 0. -1.
         11    1    3    3    0    0 -0.25265380132E-01  0.33787854443E-01  0.68865141579E-02  0.42750950157E-01  0.51100000000E-03 0.  1.
</event>
<event>
 8    1  0.1180500E+005  0.1043930E+01  0.7957747E-01            NaN
         13   -1    0    0    0    0  0.00000000000E+00  0.00000000000E+00  0.74505805969E-08  0.10566000000E+00  0.10566000000E+00 0.  1.
     999900   -1    0    0    0    0 -0.00000000000E+00 -0.00000000000E+00 -0.74505805969E-08  0.93827000000E+00  0.93827000000E+00 0. -1.
     999902    2    1    2    0    0  0.15056457483E-01 -0.66648340369E-02 -0.15738069168E-01  0.10211527362E+01  0.10208986761E+01 0.  0.
     999903    2    3    3    0    0 -0.26565399974E-01  0.15200291604E-01  0.12363186201E+00  0.12894511438E+00  0.20130471333E-01 0.  0.
         14    1    1    2    0    0 -0.15056457483E-01  0.66648340369E-02  0.15738069168E-01  0.22777263791E-01  0.00000000000E+00 0.  1.
     999901    1    3    3    0    0  0.41621857457E-01 -0.21865125641E-01 -0.13936993118E+00  0.89220762183E+00  0.88000000000E+00 0. -1.
        -11    1    4    4    0    0 -0.89333684351E-02 -0.33255520369E-02  0.52327910733E-01  0.53191500548E-01  0.51100000000E-03 0.  1.
         11    1    4    4    0    0 -0.17632031539E-01  0.18525843641E-01  0.71303951281E-01  0.75753613828E-01  0.51100000000E-03 0. -1.
</event>
<event>
 8    1  0.1180500E+005  0.1043930E+01  0.7957747E-01            NaN
         13   -1    0    0    0    0  0.00000000000E+00  0.00000000000E+00  0.74505805969E-08  0.10566000000E+00  0.10566000000E+00 0. -1.
     999900   -1    0    0    0    0 -0.00000000000E+00 -0.00000000000E+00 -0.74505805969E-08  0.93827000000E+00  0.93827000000E+00 0. -1.
     999902    2    1    2    0    0 -0.19412090232E-04  0.86720179288E-02  0.22445499635E-01  0.10198674830E+01  0.10195835807E+01 0.  0.
     999903    2    3    3    0    0 -0.85389608334E-01  0.43240768618E-01  0.89447596560E-01  0.13252744109E+00  0.20037485630E-01 0.  0.
         14    1    1    2    0    0  0.19412090232E-04 -0.86720179288E-02 -0.22445499635E-01  0.24062517026E-01  0.00000000000E+00 0.  1.
     999901    1    3    3    0    0  0.85370196244E-01 -0.34568750690E-01 -0.67002096926E-01  0.88734004188E+00  0.88000000000E+00 0. -1.
        -11    1    4    4    0    0 -0.65318518451E-01  0.40619679357E-01  0.64404369361E-01  0.10032273480E+00  0.51100000000E-03 0. -1.
         11    1    4    4    0    0 -0.20071089883E-01  0.26210892610E-02  0.25043227199E-01  0.32204706295E-01  0.51100000000E-03 0.  1.
</event>
<event>
 8    1  0.1180500E+005  0.1043930E+01  0.7957747E-01            NaN
         13   -1    0    0    0    0  0.00000000000E+00  0.00000000000E+00  0.74505805969E-08  0.10566000000E+00  0.10566000000E+00 0.  1.
     999900   -1    0    0    0    0 -0.00000000000E+00 -0.00000000000E+00 -0.74505805969E-08  0.93827000000E+00  0.93827000000E+00 0.  1.
     999902    2    1    2    0    0  0.22653431279E-01  0.51972589728E-02  0.31267954753E-02  0.10204786397E+01  0.10202091392E+01 0.  0.
     999903    2    3    3    0    0 -0.44545770281E-01  0.11177780998E+00  0.45905730526E-01  0.13047572745E+00  0.20927850013E-01 0.  0.
         14    1    1    2    0    0 -0.22653431279E-01 -0.51972589728E-02 -0.31267954753E-02  0.23451360291E-01  0.00000000000E+00 0.  1.
     999901    1    3    3    0    0  0.67199201560E-01 -0.10658055100E+00 -0.42778935051E-01  0.89000291226E+00  0.88000000000E+00 0.  1.
        -11    1    4    4    0    0 -0.23992106555E-01  0.78795470037E-01  0.38450746452E-01  0.90901420775E-01  0.51100000000E-03 0.  1.
         11    1    4    4    0    0 -0.20553663726E-01  0.32982339938E-01  0.74549840742E-02  0.39574306677E-01  0.51100000000E-03 0. -1.
</event>
<event>
 8    1  0.1198967E+005  0.1043930E+01  0.7957747E-01            NaN
         13   -1    0    0    0    0  0.00000000000E+00  0.00000000000E+00  0.74505805969E-08  0.10566000000E+00  0.10566000000E+00 0.  1.
     999900   -1    0    0    0    0 -0.00000000000E+00 -0.00000000000E+00 -0.74505805969E-08  0.93827000000E+00  0.93827000000E+00 0.  1.
     999902    2    1    2    0    0  0.10348907927E-01  0.52437609500E-02  0.22085506434E-01  0.10189827252E+01  0.10186772933E+01 0.  0.
     999903    2    3    3    0    0 -0.97837990057E-01 -0.88113248785E-02  0.83033694474E-01  0.13015392734E+00  0.19888153221E-01 0.  0.
         14    1    1    2    0    0 -0.10348907927E-01 -0.52437609500E-02 -0.22085506434E-01  0.24947274774E-01  0.00000000000E+00 0.  1.
     999901    1    3    3    0    0  0.10818689798E+00  0.14055085829E-01 -0.60948188040E-01  0.88882879789E+00  0.88000000000E+00 0.  1.
        -11    1    4    4    0    0 -0.40431338617E-01  0.60423296154E-02  0.31994900230E-01  0.51914715171E-01  0.51100000000E-03 0. -1.
         11    1    4    4    0    0 -0.57406651440E-01 -0.14853654494E-01  0.51038794244E-01  0.78239212165E-01  0.51100000000E-03 0.  1.
</event>
<event>
 8    1  0.1180500E+005  0.1043930E+01  0.7957747E-01            NaN
         13   -1    0    0    0    0  0.00000000000E+00  0.00000000000E+00  0.74505805969E-08  0.10566000000E+00  0.10566000000E+00 0. -1.
     999900   -1    0    0    0    0 -0.00000000000E+00 -0.00000000000E+00 -0.74505805969E-08  0.93827000000E+00  0.93827000000E+00 0. -1.
     999902    2    1    2    0    0 -0.17237184240E-01 -0.10526977252E-03 -0.16766768529E-01  0.10198830432E+01  0.10195995124E+01 0.  0.
     999903    2    3    3    0    0 -0.97476407465E-01 -0.84044770407E-02 -0.88353285013E-01  0.13329867663E+00  0.19747125669E-01 0.  0.
         14    1    1    2    0    0  0.17237184240E-01  0.10526977252E-03  0.16766768529E-01  0.24046956754E-01  0.00000000000E+00 0. -1.
     999901    1    3    3    0    0  0.80239223225E-01  0.82992072682E-02  0.71586516484E-01  0.88658436662E+00  0.88000000000E+00 0.  1.
        -11    1    4    4    0    0 -0.21646147537E-01 -0.78972455679E-02 -0.28734380075E-01  0.36835416518E-01  0.51100000000E-03 0.  1.
         11    1    4    4    0    0 -0.75830259927E-01 -0.50723147272E-03 -0.59618904938E-01  0.96463260112E-01  0.51100000000E-03 0. -1.
</event>
<event>
 8    1  0.1180500E+005  0.1043930E+01  0.7957747E-01            NaN
         13   -1    0    0    0    0  0.00000000000E+00  0.00000000000E+00  0.74505805969E-08  0.10566000000E+00  0.10566000000E+00 0. -1.
     999900   -1    0    0    0    0 -0.00000000000E+00 -0.00000000000E+00 -0.74505805969E-08  0.93827000000E+00  0.93827000000E+00 0.  1.
     999902    2    1    2    0    0  0.76024297375E-02 -0.13404054786E-01  0.18999137005E-01  0.10194671132E+01  0.10191735682E+01 0.  0.
     999903    2    3    3    0    0  0.12029095040E+00 -0.47552260764E-01 -0.93807951201E-02  0.13117086578E+00  0.19663836366E-01 0.  0.
         14    1    1    2    0    0 -0.76024297375E-02  0.13404054786E-01 -0.18999137005E-01  0.24462886779E-01  0.00000000000E+00 0.  1.
     999901    1    3    3    0    0 -0.11268852067E+00  0.34148205978E-01  0.28379932125E-01  0.88829624744E+00  0.88000000000E+00 0. -1.
        -11    1    4    4    0    0  0.31830649342E-01 -0.55118002058E-02  0.30037136362E-02  0.32447705553E-01  0.51100000000E-03 0. -1.
         11    1    4    4    0    0  0.88460301063E-01 -0.42040460558E-01 -0.12384508756E-01  0.98723160232E-01  0.51100000000E-03 0.  1.
</event>
<event>
 8    1  0.1180500E+005  0.1043930E+01  0.7957747E-01            NaN
         13   -1    0    0    0    0  0.00000000000E+00  0.00000000000E+00  0.74505805969E-08  0.10566000000E+00  0.10566000000E+00 0. -1.
     999900   -1    0    0    0    0 -0.00000000000E+00 -0.00000000000E+00 -0.74505805969E-08  0.93827000000E+00  0.93827000000E+00 0. -1.
     999902    2    1    2    0    0 -0.18678899758E-01 -0.12731328642E-01 -0.68120612554E-02  0.10203208449E+01  0.10200476628E+01 0.  0.
     999903    2    3    3    0    0 -0.93534969387E-01 -0.15310348715E-01  0.89504255332E-01  0.13190263521E+00  0.20102143571E-01 0.  0.
         14    1    1    2    0    0  0.18678899758E-01  0.12731328642E-01  0.68120612554E-02  0.23609155082E-01  0.00000000000E+00 0.  1.
     999901    1    3    3    0    0  0.74856069629E-01  0.25790200727E-02 -0.96316316587E-01  0.88841820971E+00  0.88000000000E+00 0. -1.
        -11    1    4    4    0    0 -0.37890803584E-01 -0.13985002585E-01  0.29236728202E-01  0.49863219816E-01  0.51100000000E-03 0.  1.
         11    1    4    4    0    0 -0.55644165803E-01 -0.13253461298E-02  0.60267527130E-01  0.82039415391E-01  0.51100000000E-03 0. -1.
</event>
<event>
 8    1  0.1180500E+005  0.1043930E+01  0.7957747E-01            NaN
         13   -1    0    0    0    0  0.00000000000E+00  0.00000000000E+00  0.74505805969E-08  0.10566000000E+00  0.10566000000E+00 0. -1.
     999900   -1    0    0    0    0 -0.00000000000E+00 -0.00000000000E+00 -0.74505805969E-08  0.93827000000E+00  0.93827000000E+00 0.  1.
     999902    2    1    2    0    0 -0.98387746216E-02 -0.33937720286E-01 -0.53201936157E-02  0.10081966150E+01  0.10075631691E+01 0.  0.
     999903    2    3    3    0    0  0.91761195130E-01  0.68574613273E-01  0.55247708653E-02  0.11637323245E+00  0.19738582039E-01 0.  0.
         14    1    1    2    0    0  0.98387746216E-02  0.33937720286E-01  0.53201936157E-02  0.35733385011E-01  0.00000000000E+00 0. -1.
     999901    1    3    3    0    0 -0.10159996975E+00 -0.10251233356E+00 -0.10844964481E-01  0.89182338254E+00  0.88000000000E+00 0. -1.
        -11    1    4    4    0    0  0.40171358132E-01  0.27614860745E-01 -0.72053860811E-02  0.49279785488E-01  0.51100000000E-03 0. -1.
         11    1    4    4    0    0  0.51589836997E-01  0.40959752528E-01  0.12730156946E-01  0.67093446964E-01  0.51100000000E-03 0.  1.
</event>
<event>
 8    1  0.1180500E+005  0.1043930E+01  0.7957747E-01            NaN
         13   -1    0    0    0    0  0.00000000000E+00  0.00000000000E+00  0.74505805969E-08  0.10566000000E+00  0.10566000000E+00 0. -1.
     999900   -1    0    0    0    0 -0.00000000000E+00 -0.00000000000E+00 -0.74505805969E-08  0.93827000000E+00  0.93827000000E+00 0.  1.
     999902    2    1    2    0    0  0.99326913598E-02  0.71342555854E-03  0.21253605906E-01  0.10204591010E+01  0.10201891461E+01 0.  0.
     999903    2    3    3    0    0 -0.16893850500E-02 -0.26732132253E-01  0.12911573434E+00  0.13337253816E+00  0.19997503975E-01 0.  0.
         14    1    1    2    0    0 -0.99326913598E-02 -0.71342555854E-03 -0.21253605906E-01  0.23470898953E-01  0.00000000000E+00 0.  1.
     999901    1    3    3    0    0  0.11622076410E-01  0.27445557812E-01 -0.10786212843E+00  0.88708656289E+00  0.88000000000E+00 0.  1.
        -11    1    4    4    0    0  0.27006084826E-02 -0.28090004054E-01  0.10059434452E+00  0.10447882505E+00  0.51100000000E-03 0.  1.
         11    1    4    4    0    0 -0.43899935326E-02  0.13578718009E-02  0.28521389821E-01  0.28893713111E-01  0.51100000000E-03 0. -1.
</event>
<event>
 8    1  0.1180500E+005  0.1043930E+01  0.7957747E-01            NaN
         13   -1    0    0    0    0  0.00000000000E+00  0.00000000000E+00  0.74505805969E-08  0.10566000000E+00  0.10566000000E+00 0. -1.
     999900   -1    0    0    0    0 -0.00000000000E+00 -0.00000000000E+00 -0.74505805969E-08  0.93827000000E+00  0.93827000000E+00 0.  1.
     999902    2    1    2    0    0 -0.46951274358E-02  0.81532137543E-02  0.21749342773E-01  0.10202328899E+01  0.10199576445E+01 0.  0.
     999903    2    3    3    0    0  0.71750287074E-01 -0.43268417228E-01 -0.94472461529E-01  0.12782289817E+00  0.19834003274E-01 0.  0.
         14    1    1    2    0    0  0.46951274358E-02 -0.81532137543E-02 -0.21749342773E-01  0.23697110102E-01  0.00000000000E+00 0.  1.
     999901    1    3    3    0    0 -0.76445414509E-01  0.51421630982E-01  0.11622180430E+00  0.89240999172E+00  0.88000000000E+00 0. -1.
        -11    1    4    4    0    0  0.59847789058E-02 -0.40208491372E-02 -0.18864268530E-01  0.20201647322E-01  0.51100000000E-03 0. -1.
         11    1    4    4    0    0  0.65765508168E-01 -0.39247568091E-01 -0.75608192999E-01  0.10762125085E+00  0.51100000000E-03 0.  1.
</event>
<event>
 8    1  0.1180500E+005  0.1043930E+01  0.7957747E-01            NaN
         13   -1    0    0    0    0  0.00000000000E+00  0.00000000000E+00  0.74505805969E-08  0.10566000000E+00  0.10566000000E+00 0.  1.
     999900   -1    0    0    0    0 -0.00000000000E+00 -0.00000000000E+00 -0.74505805969E-08  0.93827000000E+00  0.93827000000E+00 0.  1.
     999902    2    1    2    0    0 -0.14771131525E-01 -0.25394652359E-02 -0.18710565409E-01  0.10199566717E+01  0.10196748951E+01 0.  0.
     999903    2    3    3    0    0  0.38251340138E-01 -0.12180555633E+00  0.13407418331E-01  0.12975032045E+00  0.18858107436E-01 0.  0.
         14    1    1    2    0    0  0.14771131525E-01  0.25394652359E-02  0.18710565409E-01  0.23973328266E-01  0.00000000000E+00 0.  1.
     999901    1    3    3    0    0 -0.53022471663E-01  0.11926609109E+00 -0.32117983741E-01  0.89020635128E+00  0.88000000000E+00 0.  1.
        -11    1    4    4    0    0  0.78035908673E-02 -0.46646523084E-01 -0.13878816142E-02  0.47317876988E-01  0.51100000000E-03 0. -1.
         11    1    4    4    0    0  0.30447749270E-01 -0.75159033244E-01  0.14795299946E-01  0.82432443463E-01  0.51100000000E-03 0.  1.
</event>
<event>
 8    1  0.1180500E+005  0.1043930E+01  0.7957747E-01            NaN
         13   -1    0    0    0    0  0.00000000000E+00  0.00000000000E+00  0.74505805969E-08  0.10566000000E+00  0.10566000000E+00 0.  1.
     999900   -1    0    0    0    0 -0.00000000000E+00 -0.00000000000E+00 -0.74505805969E-08  0.93827000000E+00  0.93827000000E+00 0. -1.
     999902    2    1    2    0    0 -0.13788813387E-01 -0.13503156450E-01  0.14308657708E-01  0.10199049236E+01  0.10196219147E+01 0.  0.
     999903    2    3    3    0    0  0.16528776095E-01  0.10171514613E+00 -0.72545541907E-01  0.12763923144E+00  0.20242192606E-01 0.  0.
         14    1    1    2    0    0  0.13788813387E-01  0.13503156450E-01 -0.14308657708E-01  0.24025076361E-01  0.00000000000E+00 0.  1.
     999901    1    3    3    0    0 -0.30317589482E-01 -0.11521830258E+00  0.86854199616E-01  0.89226569220E+00  0.88000000000E+00 0.  1.
        -11    1    4    4    0    0  0.15866215648E-01  0.79112254436E-01 -0.46443451534E-01  0.93100703071E-01  0.51100000000E-03 0.  1.
         11    1    4    4    0    0  0.66256044761E-03  0.22602891692E-01 -0.26102090374E-01  0.34538528372E-01  0.51100000000E-03 0. -1.
</event>
<event>
 8    1  0.1180500E+005  0.1043930E+01  0.7957747E-01            NaN
         13   -1    0    0    0    0  0.00000000000E+00  0.00000000000E+00  0.74505805969E-08  0.10566000000E+00  0.10566000000E+00 0. -1.
     999900   -1    0    0    0    0 -0.00000000000E+00 -0.00000000000E+00 -0.74505805969E-08  0.93827000000E+00  0.93827000000E+00 0. -1.
     999902    2    1    2    0    0  0.21218461619E-01  0.56777503365E-02 -0.94409324042E-02  0.10200220271E+01  0.10197418029E+01 0.  0.
     999903    2    3    3    0    0 -0.15278415064E-01 -0.82954085078E-01  0.95137696129E-01  0.12866109361E+00  0.19689732988E-01 0.  0.
         14    1    1    2    0    0 -0.21218461619E-01 -0.56777503365E-02  0.94409324042E-02  0.23907972876E-01  0.00000000000E+00 0. -1.
     999901    1    3    3    0    0  0.36496876683E-01  0.88631835415E-01 -0.10457862853E+00  0.89136093352E+00  0.88000000000E+00 0. -1.
        -11    1    4    4    0    0 -0.14119417451E-01 -0.37631488632E-01  0.54889662169E-01  0.68033984301E-01  0.51100000000E-03 0.  1.
         11    1    4    4    0    0 -0.11589976134E-02 -0.45322596446E-01  0.40248033960E-01  0.60627109305E-01  0.51100000000E-03 0. -1.
</event>
<event>
 8    1  0.1180500E+005  0.1043930E+01  0.7957747E-01            NaN
         13   -1    0    0    0    0  0.00000000000E+00  0.00000000000E+00  0.74505805969E-08  0.10566000000E+00  0.10566000000E+00 0.  1.
     999900   -1    0    0    0    0 -0.00000000000E+00 -0.00000000000E+00 -0.74505805969E-08  0.93827000000E+00  0.93827000000E+00 0.  1.
     999902    2    1    2    0    0  0.95930582582E-02 -0.16841814261E-01 -0.15227336522E-01  0.10192815669E+01  0.10189834972E+01 0.  0.
     999903    2    3    3    0    0  0.12733207489E+00  0.59883518889E-02  0.19082330451E-01  0.13048415146E+00  0.20314054113E-01 0.  0.
         14    1    1    2    0    0 -0.95930582582E-02  0.16841814261E-01  0.15227336522E-01  0.24648433052E-01  0.00000000000E+00 0.  1.
     999901    1    3    3    0    0 -0.11773901663E+00 -0.22830166150E-01 -0.34309666974E-01  0.88879741548E+00  0.88000000000E+00 0.  1.
        -11    1    4    4    0    0  0.95436770993E-01  0.34365281894E-02  0.23037456690E-01  0.98239363370E-01  0.51100000000E-03 0.  1.
         11    1    4    4    0    0  0.31895303893E-01  0.25518236995E-02 -0.39551262389E-02  0.32244788094E-01  0.51100000000E-03 0. -1.
</event>
<event>
 8    1  0.1180500E+005  0.1043930E+01  0.7957747E-01            NaN
         13   -1    0    0    0    0  0.00000000000E+00  0.00000000000E+00  0.74505805969E-08  0.10566000000E+00  0.10566000000E+00 0. -1.
     999900   -1    0    0    0    0 -0.00000000000E+00 -0.00000000000E+00 -0.74505805969E-08  0.93827000000E+00  0.93827000000E+00 0.  1.
     999902    2    1    2    0    0 -0.19184662143E-02 -0.21069184727E-01 -0.25066857597E-01  0.10111284999E+01  0.10105963116E+01 0.  0.
     999903    2    3    3    0    0  0.31519953103E-01 -0.94756335570E-01 -0.74425123381E-01  0.12603858218E+00  0.19348246256E-01 0.  0.
         14    1    1    2    0    0  0.19184662143E-02  0.21069184727E-01  0.25066857597E-01  0.32801500080E-01  0.00000000000E+00 0. -1.
     999901    1    3    3    0    0 -0.33438419318E-01  0.73687150842E-01  0.49358265783E-01  0.88508991774E+00  0.88000000000E+00 0. -1.
        -11    1    4    4    0    0  0.30721133354E-01 -0.84223807010E-01 -0.58958987852E-01  0.10730266106E+00  0.51100000000E-03 0. -1.
         11    1    4    4    0    0  0.79881974979E-03 -0.10532528560E-01 -0.15466135528E-01  0.18735921115E-01  0.51100000000E-03 0.  1.
</event>
<event>
 8    1  0.1180500E+005  0.1043930E+01  0.7957747E-01            NaN
         13   -1    0    0    0    0  0.00000000000E+00  0.00000000000E+00  0.74505805969E-08  0.10566000000E+00  0.10566000000E+00 0.  1.
     999900   -1    0    0    0    0 -0.00000000000E+00 -0.00000000000E+00 -0.74505805969E-08  0.93827000000E+00  0.93827000000E+00 0. -1.
     999902    2    1    2    0    0  0.12308596084E-01 -0.17144145343E-01  0.12166613487E-01  0.10195691761E+01  0.10192781049E+01 0.  0.
     999903    2    3    3    0    0  0.10043231215E+00  0.73406366298E-01  0.34367588662E-01  0.13026716453E+00  0.17699126198E-01 0.  0.
         14    1    1    2    0    0 -0.12308596084E-01  0.17144145343E-01 -0.12166613487E-01  0.24360823894E-01  0.00000000000E+00 0. -1.
     999901    1    3    3    0    0 -0.88123716065E-01 -0.90550511640E-01 -0.22200975175E-01  0.88930201157E+00  0.88000000000E+00 0. -1.
        -11    1    4    4    0    0  0.34220321484E-01  0.35414198535E-01  0.11456691882E-01  0.50563947336E-01  0.51100000000E-03 0.  1.
         11    1    4    4    0    0  0.66211990664E-01  0.37992167763E-01  0.22910896780E-01  0.79703217195E-01  0.51100000000E-03 0. -1.
</event>
<event>
 8    1  0.1180500E+005  0.1043930E+01  0.7957747E-01            NaN
         13   -1    0    0    0    0  0.00000000000E+00  0.00000000000E+00  0.74505805969E-08  0.10566000000E+00  0.10566000000E+00 0. -1.
     999900   -1    0    0    0    0 -0.00000000000E+00 -0.00000000000E+00 -0.74505805969E-08  0.93827000000E+00  0.93827000000E+00 0.  1.
     999902    2    1    2    0    0  0.85379202619E-02 -0.15402940064E-01 -0.51979459986E-02  0.10255679389E+01  0.10254035459E+01 0.  0.
     999903    2    3    3    0    0  0.45007023652E-01  0.12376766636E+00 -0.12315133387E-01  0.13385660246E+00  0.20539233083E-01 0.  0.
         14    1    1    2    0    0 -0.85379202619E-02  0.15402940064E-01  0.51979459986E-02  0.18362061094E-01  0.00000000000E+00 0.  1.
     999901    1    3    3    0    0 -0.36469103390E-01 -0.13917060643E+00  0.71171873885E-02  0.89171133645E+00  0.88000000000E+00 0.  1.
        -11    1    4    4    0    0  0.21543725411E-01  0.42923127353E-01 -0.12676375924E-01  0.49673721362E-01  0.51100000000E-03 0.  1.
         11    1    4    4    0    0  0.23463298241E-01  0.80844539011E-01  0.36124253720E-03  0.84182881095E-01  0.51100000000E-03 0. -1.
</event>
<event>
 8    1  0.1180500E+005  0.1043930E+01  0.7957747E-01            NaN
         13   -1    0    0    0    0  0.00000000000E+00  0.00000000000E+00  0.74505805969E-08  0.10566000000E+00  0.10566000000E+00 0. -1.
     999900   -1    0    0    0    0 -0.00000000000E+00 -0.00000000000E+00 -0.74505805969E-08  0.93827000000E+00  0.93827000000E+00 0.  1.
     999902    2    1    2    0    0  0.41847635441E-02 -0.27492676472E-02  0.23430909007E-01  0.10199700706E+01  0.10196886126E+01 0.  0.
     999903    2    3    3    0    0 -0.10579707625E+00 -0.84427391095E-02  0.75749439526E-01  0.13156382947E+00  0.17514635300E-01 0.  0.
         14    1    1    2    0    0 -0.41847635441E-02  0.27492676472E-02 -0.23430909007E-01  0.23959929370E-01  0.00000000000E+00 0.  1.
     999901    1    3    3    0    0  0.10998183979E+00  0.56934714623E-02 -0.52318530518E-01  0.88840624116E+00  0.88000000000E+00 0.  1.
        -11    1    4    4    0    0 -0.58865130585E-01 -0.13205079590E-01  0.44736254824E-01  0.75107065863E-01  0.51100000000E-03 0.  1.
         11    1    4    4    0    0 -0.46931945661E-01  0.47623404801E-02  0.31013184701E-01  0.56456763605E-01  0.51100000000E-03 0. -1.
</event>
<event>
 8    1  0.1180500E+005  0.1043930E+01  0.7957747E-01            NaN
         13   -1    0    0    0    0  0.00000000000E+00  0.00000000000E+00  0.74505805969E-08  0.10566000000E+00  0.10566000000E+00 0. -1.
     999900   -1    0    0    0    0 -0.00000000000E+00 -0.00000000000E+00 -0.74505805969E-08  0.93827000000E+00  0.93827000000E+00 0.  1.
     999902    2    1    2    0    0 -0.15722647102E-01  0.17344626524E-01 -0.16718075203E-03  0.10205191980E+01  0.10202506397E+01 0.  0.
     999903    2    3    3    0    0 -0.32594367047E-02  0.12905617726E+00 -0.25814899445E-01  0.13299871504E+00  0.18871363291E-01 0.  0.
         14    1    1    2    0    0  0.15722647102E-01 -0.17344626524E-01  0.16718075203E-03  0.23410802006E-01  0.00000000000E+00 0. -1.
     999901    1    3    3    0    0 -0.12463210398E-01 -0.11171155074E+00  0.25647718693E-01  0.88752048295E+00  0.88000000000E+00 0.  1.
        -11    1    4    4    0    0 -0.10685925773E-01  0.72707585765E-01 -0.11490377990E-01  0.74383277319E-01  0.51100000000E-03 0. -1.
         11    1    4    4    0    0  0.74264890679E-02  0.56348591499E-01 -0.14324521455E-01  0.58615437725E-01  0.51100000000E-03 0.  1.
</event>
<event>
 8    1  0.1180500E+005  0.1043930E+01  0.7957747E-01            NaN
         13   -1    0    0    0    0  0.00000000000E+00  0.00000000000E+00  0.74505805969E-08  0.10566000000E+00  0.10566000000E+00 0. -1.
     999900   -1    0    0    0    0 -0.00000000000E+00 -0.00000000000E+00 -0.74505805969E-08  0.93827000000E+00  0.93827000000E+00 0. -1.
     999902    2    1    2    0    0 -0.17361697489E-01 -0.62444657365E-02 -0.15223610253E-01  0.10200097115E+01  0.10197291951E+01 0.  0.
     999903    2    3    3    0    0 -0.38915891056E-01  0.44105296886E-02 -0.12561998149E+00  0.13278624983E+00  0.17830004090E-01 0.  0.
         14    1    1    2    0    0  0.17361697489E-01  0.62444657365E-02  0.15223610253E-01  0.23920288485E-01  0.00000000000E+00 0. -1.
     999901    1    3    3    0    0  0.21554193567E-01 -0.10654995425E-01  0.11039637123E+00  0.88722346169E+00  0.88000000000E+00 0.  1.
        -11    1    4    4    0    0 -0.33535061178E-01  0.10055172200E-01 -0.10732085841E+00  0.11288815078E+00  0.51100000000E-03 0. -1.
         11    1    4    4    0    0 -0.53808298785E-02 -0.56446425116E-02 -0.18299123079E-01  0.19898099048E-01  0.51100000000E-03 0.  1.
</event>
<event>
 7    1  0.1180500E+005  0.1043930E+01  0.7957747E-01            NaN
         13   -1    0    0    0    0  0.00000000000E+00  0.00000000000E+00  0.74505805969E-08  0.10566000000E+00  0.10566000000E+00 0.  1.
     999900   -1    0    0    0    0 -0.00000000000E+00 -0.00000000000E+00 -0.74505805969E-08  0.93827000000E+00  0.93827000000E+00 0. -1.
     999902    2    1    2    0    0 -0.13321801807E-01  0.70708684722E-02 -0.17347761512E-01  0.10209427772E+01  0.10206839579E+01 0.  0.
         14    1    1    2    0    0  0.13321801807E-01 -0.70708684722E-02  0.17347761512E-01  0.22987222839E-01  0.00000000000E+00 0.  1.
     999901    1    3    3    0    0  0.41297394059E-01 -0.82388622608E-01 -0.81519230419E-01  0.88855992753E+00  0.88000000000E+00 0. -1.
        -11    1    3    3    0    0 -0.24213671595E-01  0.75467983927E-01  0.30561048466E-01  0.84946790960E-01  0.51100000000E-03 0. -1.
         11    1    3    3    0    0 -0.30405524272E-01  0.13991507153E-01  0.33610420441E-01  0.47436058667E-01  0.51100000000E-03 0.  1.
</event>
<event>
 8    1  0.1180500E+005  0.1043930E+01  0.7957747E-01            NaN
         13   -1    0    0    0    0  0.00000000000E+00  0.00000000000E+00  0.74505805969E-08  0.10566000000E+00  0.10566000000E+00 0. -1.
     999900   -1    0    0    0    0 -0.00000000000E+00 -0.00000000000E+00 -0.74505805969E-08  0.93827000000E+00  0.93827000000E+00 0. -1.
     999902    2    1    2    0    0 -0.32993627841E-02  0.20445501782E-01 -0.11014189723E-01  0.10204733013E+01  0.10202036767E+01 0.  0.
     999903    2    3    3    0    0 -0.84536675910E-01  0.57996573125E-01 -0.82290956106E-01  0.13306698996E+00  0.20614807609E-01 0.  0.
         14    1    1    2    0    0  0.32993627841E-02 -0.20445501782E-01  0.11014189723E-01  0.23456698685E-01  0.00000000000E+00 0. -1.
     999901    1    3    3    0    0  0.81237313125E-01 -0.37551071342E-01  0.71276766383E-01  0.88740631135E+00  0.88000000000E+00 0.  1.
        -11    1    4    4    0    0 -0.34009624264E-01  0.35280457500E-01 -0.42343331029E-01  0.64765608370E-01  0.51100000000E-03 0.  1.
         11    1    4    4    0    0 -0.50527051645E-01  0.22716115625E-01 -0.39947625078E-01  0.68301381592E-01  0.51100000000E-03 0. -1.
</event>
<event>
 8    1  0.1180500E+005  0.1043930E+01  0.7957747E-01            NaN
         13   -1    0    0    0    0  0.00000000000E+00  0.00000000000E+00  0.74505805969E-08  0.10566000000E+00  0.10566000000E+00 0. -1.
     999900   -1    0    0    0    0 -0.00000000000E+00 -0.00000000000E+00 -0.74505805969E-08  0.93827000000E+00  0.93827000000E+00 0. -1.
     999902    2    1    2    0    0  0.16545097038E-01  0.50880528929E-02  0.16223643024E-01  0.10202058538E+01  0.10199299726E+01 0.  0.
     999903    2    3    3    0    0 -0.83646196572E-01 -0.16980416636E-01  0.95772792354E-01  0.13068161031E+00  0.24904512996E-01 0.  0.
         14    1    1    2    0    0 -0.16545097038E-01 -0.50880528929E-02 -0.16223643024E-01  0.23724146164E-01  0.00000000000E+00 0. -1.
     999901    1    3    3    0    0  0.10019129361E+00  0.22068469529E-01 -0.79549149329E-01  0.88952424353E+00  0.88000000000E+00 0. -1.
        -11    1    4    4    0    0 -0.12143675283E-01  0.44354936792E-02  0.23258811951E-01  0.26615332197E-01  0.51100000000E-03 0. -1.
         11    1    4    4    0    0 -0.71502521289E-01 -0.21415910315E-01  0.72513980402E-01  0.10406627811E+00  0.51100000000E-03 0.  1.
</event>
<event>
 8    1  0.1180500E+005  0.1043930E+01  0.7957747E-01            NaN
         13   -1    0    0    0    0  0.00000000000E+00  0.00000000000E+00  0.74505805969E-08  0.10566000000E+00  0.10566000000E+00 0. -1.
     999900   -1    0    0    0    0 -0.00000000000E+00 -0.00000000000E+00 -0.74505805969E-08  0.93827000000E+00  0.93827000000E+00 0.  1.
     999902    2    1    2    0    0 -0.13444338703E-02  0.19441568992E-01 -0.16068452203E-01  0.10186717882E+01  0.10183585983E+01 0.  0.
     999903    2    3    3    0    0 -0.10000902836E+00 -0.48610532783E-01 -0.62775306282E-01  0.12931959644E+00  0.20445764675E-01 0.  0.
         14    1    1    2    0    0  0.13444338703E-02 -0.19441568992E-01  0.16068452203E-01  0.25258211804E-01  0.00000000000E+00 0. -1.
     999901    1    3    3    0    0  0.98664594493E-01  0.68052101775E-01  0.46706854079E-01  0.88935219176E+00  0.88000000000E+00 0. -1.
        -11    1    4    4    0    0 -0.23036139919E-01 -0.19158409846E-01 -0.10648877567E-01  0.31802014474E-01  0.51100000000E-03 0. -1.
         11    1    4    4    0    0 -0.76972888444E-01 -0.29452122937E-01 -0.52126428716E-01  0.97517581966E-01  0.51100000000E-03 0.  1.
</event>
<event>
 8    1  0.1180500E+005  0.1043930E+01  0.7957747E-01            NaN
         13   -1    0    0    0    0  0.00000000000E+00  0.00000000000E+00  0.74505805969E-08  0.10566000000E+00  0.10566000000E+00 0. -1.
     999900   -1    0    0    0    0 -0.00000000000E+00 -0.00000000000E+00 -0.74505805969E-08  0.93827000000E+00  0.93827000000E+00 0.  1.
     999902    2    1    2    0    0 -0.12079715425E-01 -0.20086606042E-01  0.75120084750E-02  0.10193165578E+01  0.10190193440E+01 0.  0.
     999903    2    3    3    0    0  0.71629387074E-01 -0.39797999002E-01  0.99398156087E-01  0.13036278115E+00  0.19995285876E-01 0.  0.
         14    1    1    2    0    0  0.12079715425E-01  0.20086606042E-01 -0.75120084750E-02  0.24613442229E-01  0.00000000000E+00 0.  1.
     999901    1    3    3    0    0 -0.83709102499E-01  0.19711392960E-01 -0.91886147612E-01  0.88895377663E+00  0.88000000000E+00 0.  1.
        -11    1    4    4    0    0  0.15682929904E-01 -0.18327425738E-01  0.33595419201E-01  0.41361360432E-01  0.51100000000E-03 0.  1.
         11    1    4    4    0    0  0.55946457171E-01 -0.21470573265E-01  0.65802736886E-01  0.89001420713E-01  0.51100000000E-03 0. -1.
</event>
<event>
 8    1  0.1180500E+005  0.1043930E+01  0.7957747E-01            NaN
         13   -1    0    0    0    0  0.00000000000E+00  0.00000000000E+00  0.74505805969E-08  0.10566000000E+00  0.10566000000E+00 0.  1.
     999900   -1    0    0    0    0 -0.00000000000E+00 -0.00000000000E+00 -0.74505805969E-08  0.93827000000E+00  0.93827000000E+00 0. -1.
     999902    2    1    2    0    0 -0.46331431588E-02 -0.21217767114E-01 -0.92450486547E-02  0.10203263863E+01  0.10200533339E+01 0.  0.
     999903    2    3    3    0    0 -0.15530703065E-01 -0.92402160575E-01  0.90486376289E-01  0.13177006739E+00  0.19904882561E-01 0.  0.
         14    1    1    2    0    0  0.46331431588E-02  0.21217767114E-01  0.92450486547E-02  0.23603613737E-01  0.00000000000E+00 0.  1.
     999901    1    3    3    0    0  0.10897559906E-01  0.71184393462E-01 -0.99731424944E-01  0.88855631887E+00  0.88000000000E+00 0. -1.
        -11    1    4    4    0    0 -0.89477099157E-02 -0.83962699695E-01  0.75002259889E-01  0.11293979176E+00  0.51100000000E-03 0. -1.
         11    1    4    4    0    0 -0.65829931494E-02 -0.84394608803E-02  0.15484116400E-01  0.18830275634E-01  0.51100000000E-03 0.  1.
</event>
<event>
 8    1  0.1180500E+005  0.1043930E+01  0.7957747E-01            NaN
         13   -1    0    0    0    0  0.00000000000E+00  0.00000000000E+00  0.74505805969E-08  0.10566000000E+00  0.10566000000E+00 0. -1.
     999900   -1    0    0    0    0 -0.00000000000E+00 -0.00000000000E+00 -0.74505805969E-08  0.93827000000E+00  0.93827000000E+00 0.  1.
     999902    2    1    2    0    0 -0.73438681825E-02  0.21586793561E-01 -0.67392324408E-02  0.10201531350E+01  0.10198760118E+01 0.  0.
     999903    2    3    3    0    0  0.33917201636E-01  0.29805745018E-01 -0.12200443770E+00  0.13163971663E+00  0.20128913892E-01 0.  0.
         14    1    1    2    0    0  0.73438681825E-02 -0.21586793561E-01  0.67392324408E-02  0.23776865017E-01  0.00000000000E+00 0. -1.
     999901    1    3    3    0    0 -0.41261069819E-01 -0.82189514568E-02  0.11526520526E+00  0.88851341835E+00  0.88000000000E+00 0. -1.
        -11    1    4    4    0    0  0.63655320587E-02  0.15943807303E-01 -0.59637291739E-01  0.62061201058E-01  0.51100000000E-03 0.  1.
         11    1    4    4    0    0  0.27551669578E-01  0.13861937714E-01 -0.62367145958E-01  0.69578515575E-01  0.51100000000E-03 0. -1.
</event>
<event>
 8    1  0.1180500E+005  0.1043930E+01  0.7957747E-01            NaN
         13   -1    0    0    0    0  0.00000000000E+00  0.00000000000E+00  0.74505805969E-08  0.10566000000E+00  0.10566000000E+00 0.  1.
     999900   -1    0    0    0    0 -0.00000000000E+00 -0.00000000000E+00 -0.74505805969E-08  0.93827000000E+00  0.93827000000E+00 0. -1.
     999902    2    1    2    0    0 -0.18571205050E-02  0.18814677048E-01  0.14618699122E-01  0.10200313111E+01  0.10197513070E+01 0.  0.
     999903    2    3    3    0    0 -0.18259195992E-01  0.53814663909E-01  0.11880969967E+00  0.13304213877E+00  0.18842761554E-01 0.  0.
         14    1    1    2    0    0  0.18571205050E-02 -0.18814677048E-01 -0.14618699122E-01  0.23898688939E-01  0.00000000000E+00 0. -1.
     999901    1    3    3    0    0  0.16402075487E-01 -0.34999986860E-01 -0.10419100055E+00  0.88698917229E+00  0.88000000000E+00 0. -1.
        -11    1    4    4    0    0 -0.67339806174E-02  0.37239594605E-02  0.23808745456E-01  0.25026622829E-01  0.51100000000E-03 0.  1.
         11    1    4    4    0    0 -0.11525215374E-01  0.50090704448E-01  0.95000954216E-01  0.10801551594E+00  0.51100000000E-03 0. -1.
</event>
<event>
 8    1  0.1180500E+005  0.1043930E+01  0.7957747E-01            NaN
         13   -1    0    0    0    0  0.00000000000E+00  0.00000000000E+00  0.74505805969E-08  0.10566000000E+00  0.10566000000E+00 0.  1.
     999900   -1    0    0    0    0 -0.00000000000E+00 -0.00000000000E+00 -0.74505805969E-08  0.93827000000E+00  0.93827000000E+00 0.  1.
     999902    2    1    2    0    0 -0.17460211632E-01  0.16159068322E-01  0.35640082467E-02  0.10198743014E+01  0.10195905620E+01 0.  0.
     999903    2    3    3    0    0  0.51412866863E-01  0.11741465392E+00  0.19929275412E-01  0.13124388526E+00  0.19957393774E-01 0.  0.
         14    1    1    2    0    0  0.17460211632E-01 -0.16159068322E-01 -0.35640082467E-02  0.24055698577E-01  0.00000000000E+00 0. -1.
     999901    1    3    3    0    0 -0.68873078495E-01 -0.10125558560E+00 -0.16365267165E-01  0.88863041616E+00  0.88000000000E+00 0.  1.
        -11    1    4    4    0    0  0.11831988997E-01  0.23367687901E-01 -0.38310616861E-02  0.26476082718E-01  0.51100000000E-03 0. -1.
         11    1    4    4    0    0  0.39580877867E-01  0.94046966018E-01  0.23760337098E-01  0.10476780254E+00  0.51100000000E-03 0.  1.
</event>
<event>
 8    1  0.1180500E+005  0.1043930E+01  0.7957747E-01            NaN
         13   -1    0    0    0    0  0.00000000000E+00  0.00000000000E+00  0.74505805969E-08  0.10566000000E+00  0.10566000000E+00 0.  1.
     999900   -1    0    0    0    0 -0.00000000000E+00 -0.00000000000E+00 -0.74505805969E-08  0.93827000000E+00  0.93827000000E+00 0.  1.
     999902    2    1    2    0    0 -0.10820375987E-01  0.20163787155E-01 -0.85814507702E-02  0.10194902752E+01  0.10191972926E+01 0.  0.
     999903    2    3    3    0    0  0.42306958119E-01 -0.10575174687E+00  0.52173457445E-01  0.12687143486E+00  0.20024501233E-01 0.  0.
         14    1    1    2    0    0  0.10820375987E-01 -0.20163787155E-01  0.85814507702E-02  0.24439724758E-01  0.00000000000E+00 0.  1.
     999901    1    3    3    0    0 -0.53127334105E-01  0.12591553402E+00 -0.60754908215E-01  0.89261884038E+00  0.88000000000E+00 0.  1.
        -11    1    4    4    0    0  0.28021839234E-01 -0.90494648780E-01  0.42286503800E-01  0.10374446711E+00  0.51100000000E-03 0.  1.
         11    1    4    4    0    0  0.14285118885E-01 -0.15257098090E-01  0.98869536452E-02  0.23126967745E-01  0.51100000000E-03 0. -1.
</event>
<event>
 8    1  0.1180500E+005  0.1043930E+01  0.7957747E-01            NaN
         13   -1    0    0    0    0  0.00000000000E+00  0.00000000000E+00  0.74505805969E-08  0.10566000000E+00  0.10566000000E+00 0.  1.
     999900   -1    0    0    0    0 -0.00000000000E+00 -0.00000000000E+00 -0.74505805969E-08  0.93827000000E+00  0.93827000000E+00 0.  1.
     999902    2    1    2    0    0 -0.11721611325E-02 -0.16333684581E-01 -0.21506216592E-01  0.10168988963E+01  0.10165395638E+01 0.  0.
     999903    2    3    3    0    0  0.66128708249E-01  0.75043619290E-01  0.71733870450E-01  0.12472574468E+00  0.20154710766E-01 0.  0.
         14    1    1    2    0    0  0.11721611325E-02  0.16333684581E-01  0.21506216592E-01  0.27031103674E-01  0.00000000000E+00 0. -1.
     999901    1    3    3    0    0 -0.67300869381E-01 -0.91377303871E-01 -0.93240087042E-01  0.89217315164E+00  0.88000000000E+00 0.  1.
        -11    1    4    4    0    0  0.28323517614E-01  0.39252751008E-01  0.45470789988E-01  0.66414260328E-01  0.51100000000E-03 0.  1.
         11    1    4    4    0    0  0.37805190635E-01  0.35790868282E-01  0.26263080462E-01  0.58311484355E-01  0.51100000000E-03 0. -1.
</event>
<event>
 8    1  0.1180500E+005  0.1043930E+01  0.7957747E-01            NaN
         13   -1    0    0    0    0  0.00000000000E+00  0.00000000000E+00  0.74505805969E-08  0.10566000000E+00  0.10566000000E+00 0.  1.
     999900   -1    0    0    0    0 -0.00000000000E+00 -0.00000000000E+00 -0.74505805969E-08  0.93827000000E+00  0.93827000000E+00 0.  1.
     999902    2    1    2    0    0  0.21031039667E-01  0.54352752261E-02 -0.80179984613E-02  0.10207754077E+01  0.10205127622E+01 0.  0.
     999903    2    3    3    0    0 -0.61960015638E-01 -0.10919307940E-01 -0.11290888644E+00  0.13051865481E+00  0.18122576893E-01 0.  0.
         14    1    1    2    0    0 -0.21031039667E-01 -0.54352752261E-02  0.80179984613E-02  0.23154592321E-01  0.00000000000E+00 0. -1.
     999901    1    3    3    0    0  0.82991055304E-01  0.16354583166E-01  0.10489088797E+00  0.89025675287E+00  0.88000000000E+00 0. -1.
        -11    1    4    4    0    0 -0.30755205336E-01 -0.80787439856E-02 -0.39578460916E-01  0.50772674237E-01  0.51100000000E-03 0. -1.
         11    1    4    4    0    0 -0.31204810302E-01 -0.28405639539E-02 -0.73330425519E-01  0.79745980572E-01  0.51100000000E-03 0.  1.
</event>
<event>
 8    1  0.1281714E+005  0.1043930E+01  0.7957747E-01            NaN
         13   -1    0    0    0    0  0.00000000000E+00  0.00000000000E+00  0.74505805969E-08  0.10566000000E+00  0.10566000000E+00 0. -1.
     999900   -1    0    0    0    0 -0.00000000000E+00 -0.00000000000E+00 -0.74505805969E-08  0.93827000000E+00  0.93827000000E+00 0. -1.
     999902    2    1    2    0    0  0.14733061038E-01  0.20011634493E-01  0.81711807303E-03  0.10190664467E+01  0.10187630865E+01 0.  0.
     999903    2    3    3    0    0 -0.21770271130E-01 -0.60206533725E-02  0.12550295030E+00  0.12914693905E+00  0.20438893338E-01 0.  0.
         14    1    1    2    0    0 -0.14733061038E-01 -0.20011634493E-01 -0.81711807303E-03  0.24863553338E-01  0.00000000000E+00 0.  1.
     999901    1    3    3    0    0  0.36503332168E-01  0.26032287866E-01 -0.12468583222E+00  0.88991950761E+00  0.88000000000E+00 0. -1.
        -11    1    4    4    0    0 -0.73175091733E-02 -0.12246094881E-01  0.70719411606E-01  0.72145748864E-01  0.51100000000E-03 0.  1.
         11    1    4    4    0    0 -0.14452761956E-01  0.62254415088E-02  0.54783538691E-01  0.57001190186E-01  0.51100000000E-03 0. -1.
</event>
<event>
 8    1  0.1180500E+005  0.1043930E+01  0.7957747E-01            NaN
         13   -1    0    0    0    0  0.00000000000E+00  0.00000000000E+00  0.74505805969E-08  0.10566000000E+00  0.10566000000E+00 0.  1.
     999900   -1    0    0    0    0 -0.00000000000E+00 -0.00000000000E+00 -0.74505805969E-08  0.93827000000E+00  0.93827000000E+00 0.  1.
     999902    2    1    2    0    0  0.99617489917E-02  0.13527187492E-02  0.20995391524E-01  0.10206518395E+01  0.10203863507E+01 0.  0.
     999903    2    3    3    0    0  0.35546202272E-01  0.12422123335E+00 -0.99860738562E-02  0.13120758193E+00  0.20524633369E-01 0.  0.
         14    1    1    2    0    0 -0.99617489917E-02 -0.13527187492E-02 -0.20995391524E-01  0.23278160499E-01  0.00000000000E+00 0. -1.
     999901    1    3    3    0    0 -0.25584453281E-01 -0.12286851460E+00  0.30981465380E-01  0.88944425757E+00  0.88000000000E+00 0. -1.
        -11    1    4    4    0    0  0.32118185334E-01  0.80251572073E-01 -0.10659619657E-01  0.87096390634E-01  0.51100000000E-03 0. -1.
         11    1    4    4    0    0  0.34280169386E-02  0.43969661273E-01  0.67354580041E-03  0.44111191296E-01  0.51100000000E-03 0.  1.
</event>
<event>
 8    1  0.1180500E+005  0.1043930E+01  0.7957747E-01            NaN
         13   -1    0    0    0    0  0.00000000000E+00  0.00000000000E+00  0.74505805969E-08  0.10566000000E+00  0.10566000000E+00 0. -1.
     999900   -1    0    0    0    0 -0.00000000000E+00 -0.00000000000E+00 -0.74505805969E-08  0.93827000000E+00  0.93827000000E+00 0. -1.
     999902    2    1    2    0    0 -0.16184745536E-01  0.17964238675E-03 -0.15464811834E-01  0.10215438734E+01  0.10212985590E+01 0.  0.
     999903    2    3    3    0    0 -0.10088171717E+00  0.82291374859E-01  0.17974603608E-01  0.13304282774E+00  0.20695806435E-01 0.  0.
         14    1    1    2    0    0  0.16184745536E-01 -0.17964238675E-03  0.15464811834E-01  0.22386126608E-01  0.00000000000E+00 0. -1.
     999901    1    3    3    0    0  0.84696971632E-01 -0.82111732473E-01 -0.33439415441E-01  0.88850104565E+00  0.88000000000E+00 0. -1.
        -11    1    4    4    0    0 -0.90154187016E-01  0.76049682355E-01  0.10197667332E-01  0.11838743668E+00  0.51100000000E-03 0.  1.
         11    1    4    4    0    0 -0.10727530153E-01  0.62416925043E-02  0.77769362753E-02  0.14655391067E-01  0.51100000000E-03 0. -1.
</event>
<event>
 8    1  0.1180500E+005  0.1043930E+01  0.7957747E-01            NaN
         13   -1    0    0    0    0  0.00000000000E+00  0.00000000000E+00  0.74505805969E-08  0.10566000000E+00  0.10566000000E+00 0.  1.
     999900   -1    0    0    0    0 -0.00000000000E+00 -0.00000000000E+00 -0.74505805969E-08  0.93827000000E+00  0.93827000000E+00 0.  1.
     999902    2    1    2    0    0 -0.65576576074E-02 -0.17171401667E-01  0.10338588407E-01  0.10228409906E+01  0.10226235601E+01 0.  0.
     999903    2    3    3    0    0 -0.63873859298E-01  0.84919805302E-01  0.76950866157E-01  0.13259104979E+00  0.19175699395E-01 0.  0.
         14    1    1    2    0    0  0.65576576074E-02  0.17171401667E-01 -0.10338588407E-01  0.21089009430E-01  0.00000000000E+00 0. -1.
     999901    1    3    3    0    0  0.57316201691E-01 -0.10209120697E+00 -0.66612277750E-01  0.89024994078E+00  0.88000000000E+00 0.  1.
        -11    1    4    4    0    0 -0.17403284238E-01  0.33240857647E-01  0.35564107422E-01  0.51700055872E-01  0.51100000000E-03 0. -1.
         11    1    4    4    0    0 -0.46470575060E-01  0.51678947654E-01  0.41386758734E-01  0.80890993915E-01  0.51100000000E-03 0.  1.
</event>
<event>
 8    1  0.1180500E+005  0.1043930E+01  0.7957747E-01            NaN
         13   -1    0    0    0    0  0.00000000000E+00  0.00000000000E+00  0.74505805969E-08  0.10566000000E+00  0.10566000000E+00 0.  1.
     999900   -1    0    0    0    0 -0.00000000000E+00 -0.00000000000E+00 -0.74505805969E-08  0.93827000000E+00  0.93827000000E+00 0. -1.
     999902    2    1    2    0    0  0.22186373826E-01  0.38724178062E-02  0.90713521948E-02  0.10196499622E+01  0.10193608415E+01 0.  0.
     999903    2    3    3    0    0  0.73844215147E-01  0.79583150933E-01 -0.70985199847E-01  0.13127521068E+00  0.20194957735E-01 0.  0.
         14    1    1    2    0    0 -0.22186373826E-01 -0.38724178062E-02 -0.90713521948E-02  0.24280037765E-01  0.00000000000E+00 0.  1.
     999901    1    3    3    0    0 -0.51657841321E-01 -0.75710733127E-01  0.80056552042E-01  0.88837475156E+00  0.88000000000E+00 0.  1.
        -11    1    4    4    0    0  0.86439017164E-02  0.21003724980E-01 -0.12927107851E-01  0.26138950597E-01  0.51100000000E-03 0.  1.
         11    1    4    4    0    0  0.65200313430E-01  0.58579425953E-01 -0.58058091996E-01  0.10513626008E+00  0.51100000000E-03 0. -1.
</event>
<event>
 8    1  0.1180500E+005  0.1043930E+01  0.7957747E-01            NaN
         13   -1    0    0    0    0  0.00000000000E+00  0.00000000000E+00  0.74505805969E-08  0.10566000000E+00  0.10566000000E+00 0. -1.
     999900   -1    0    0    0    0 -0.00000000000E+00 -0.00000000000E+00 -0.74505805969E-08  0.93827000000E+00  0.93827000000E+00 0. -1.
     999902    2    1    2    0    0 -0.62684319407E-02 -0.16654102638E-01  0.16148805918E-01  0.10199000956E+01  0.10196169715E+01 0.  0.
     999903    2    3    3    0    0  0.34428931039E-01 -0.69036482489E-01  0.10642780288E+00  0.13279779801E+00  0.18894198110E-01 0.  0.
         14    1    1    2    0    0  0.62684319407E-02  0.16654102638E-01 -0.16148805918E-01  0.24029904416E-01  0.00000000000E+00 0.  1.
     999901    1    3    3    0    0 -0.40697362979E-01  0.52382379851E-01 -0.90278996965E-01  0.88710229758E+00  0.88000000000E+00 0.  1.
        -11    1    4    4    0    0  0.26094484717E-01 -0.53801319466E-01  0.67552383264E-01  0.90216903708E-01  0.51100000000E-03 0.  1.
         11    1    4    4    0    0  0.83344463214E-02 -0.15235163023E-01  0.38875419619E-01  0.42580894300E-01  0.51100000000E-03 0. -1.
</event>
<event>
 8    1  0.1180500E+005  0.1043930E+01  0.7957747E-01            NaN
         13   -1    0    0    0    0  0.00000000000E+00  0.00000000000E+00  0.74505805969E-08  0.10566000000E+00  0.10566000000E+00 0.  1.
     999900   -1    0    0    0    0 -0.00000000000E+00 -0.00000000000E+00 -0.74505805969E-08  0.93827000000E+00  0.93827000000E+00 0. -1.
     999902    2    1    2    0    0  0.19530461214E-02  0.39720128162E-02  0.24231760584E-01  0.10192973084E+01  0.10189996238E+01 0.  0.
     999903    2    3    3    0    0 -0.43162127421E-01 -0.11731311230E+00  0.29182784699E-01  0.12981994887E+00  0.19397129694E-01 0.  0.
         14    1    1    2    0    0 -0.19530461214E-02 -0.39720128162E-02 -0.24231760584E-01  0.24632691610E-01  0.00000000000E+00 0. -1.
     999901    1    3    3    0    0  0.45115173543E-01  0.12128512512E+00 -0.49510241152E-02  0.88947735952E+00  0.88000000000E+00 0. -1.
        -11    1    4    4    0    0 -0.14356274019E-01 -0.62391347284E-01  0.20315060288E-01  0.67169528918E-01  0.51100000000E-03 0. -1.
         11    1    4    4    0    0 -0.28805853402E-01 -0.54921765018E-01  0.88677244114E-02  0.62650419951E-01  0.51100000000E-03 0.  1.
</event>
<event>
 8    1  0.1180500E+005  0.1043930E+01  0.7957747E-01            NaN
         13   -1    0    0    0    0  0.00000000000E+00  0.00000000000E+00  0.74505805969E-08  0.10566000000E+00  0.10566000000E+00 0.  1.
     999900   -1    0    0    0    0 -0.00000000000E+00 -0.00000000000E+00 -0.74505805969E-08  0.93827000000E+00  0.93827000000E+00 0.  1.
     999902    2    1    2    0    0  0.13924912187E-01 -0.19853569588E-02  0.19078424196E-01  0.10202270236E+01  0.10199516403E+01 0.  0.
     999903    2    3    3    0    0 -0.99582114806E-01 -0.73544414229E-01 -0.29173153939E-01  0.12874917267E+00  0.19997452330E-01 0.  0.
         14    1    1    2    0    0 -0.13924912187E-01  0.19853569588E-02 -0.19078424196E-01  0.23702976427E-01  0.00000000000E+00 0.  1.
     999901    1    3    3    0    0  0.11350702699E+00  0.71559057270E-01  0.48251578135E-01  0.89147785090E+00  0.88000000000E+00 0. -1.
        -11    1    4    4    0    0 -0.36351761199E-01 -0.38819533327E-01 -0.10176632698E-01  0.54150084803E-01  0.51100000000E-03 0. -1.
         11    1    4    4    0    0 -0.63230353606E-01 -0.34724880902E-01 -0.18996521241E-01  0.74599087870E-01  0.51100000000E-03 0.  1.
</event>
<event>
 8    1  0.1180500E+005  0.1043930E+01  0.7957747E-01            NaN
         13   -1    0    0    0    0  0.00000000000E+00  0.00000000000E+00  0.74505805969E-08  0.10566000000E+00  0.10566000000E+00 0.  1.
     999900   -1    0    0    0    0 -0.00000000000E+00 -0.00000000000E+00 -0.74505805969E-08  0.93827000000E+00  0.93827000000E+00 0. -1.
     999902    2    1    2    0    0 -0.23261933547E-01 -0.90197218655E-02 -0.13954735170E-02  0.10189415971E+01  0.10186351447E+01 0.  0.
     999903    2    3    3    0    0 -0.76808565860E-01  0.15802678670E-01 -0.10285070544E+00  0.13114851448E+00  0.21734415075E-01 0.  0.
         14    1    1    2    0    0  0.23261933547E-01  0.90197218655E-02  0.13954735170E-02  0.24988402934E-01  0.00000000000E+00 0.  1.
     999901    1    3    3    0    0  0.53546632314E-01 -0.24822400535E-01  0.10145523192E+00  0.88779308258E+00  0.88000000000E+00 0.  1.
        -11    1    4    4    0    0 -0.46428723940E-01  0.11801845218E-01 -0.45234363824E-01  0.65888684528E-01  0.51100000000E-03 0.  1.
         11    1    4    4    0    0 -0.30379841920E-01  0.40008334519E-02 -0.57616341616E-01  0.65259829954E-01  0.51100000000E-03 0. -1.
</event>
<event>
 8    1  0.1180500E+005  0.1043930E+01  0.7957747E-01            NaN
         13   -1    0    0    0    0  0.00000000000E+00  0.00000000000E+00  0.74505805969E-08  0.10566000000E+00  0.10566000000E+00 0. -1.
     999900   -1    0    0    0    0 -0.00000000000E+00 -0.00000000000E+00 -0.74505805969E-08  0.93827000000E+00  0.93827000000E+00 0.  1.
     999902    2    1    2    0    0  0.10891359990E-01 -0.20306160571E-01 -0.45697813174E-03  0.10208828590E+01  0.10206226732E+01 0.  0.
     999903    2    3    3    0    0 -0.99966511092E-01  0.73824785982E-01  0.25355222581E-01  0.12857328694E+00  0.21090292462E-01 0.  0.
         14    1    1    2    0    0 -0.10891359990E-01  0.20306160571E-01  0.45697813174E-03  0.23047141007E-01  0.00000000000E+00 0. -1.
     999901    1    3    3    0    0  0.11085787108E+00 -0.94130946553E-01 -0.25812200712E-01  0.89230957206E+00  0.88000000000E+00 0.  1.
        -11    1    4    4    0    0 -0.53353101945E-01  0.48170197195E-01  0.22356958143E-01  0.75279586099E-01  0.51100000000E-03 0.  1.
         11    1    4    4    0    0 -0.46613409147E-01  0.25654588787E-01  0.29982644376E-02  0.53293700836E-01  0.51100000000E-03 0. -1.
</event>
<event>
 8    1  0.1180500E+005  0.1043930E+01  0.7957747E-01            NaN
         13   -1    0    0    0    0  0.00000000000E+00  0.00000000000E+00  0.74505805969E-08  0.10566000000E+00  0.10566000000E+00 0.  1.
     999900   -1    0    0    0    0 -0.00000000000E+00 -0.00000000000E+00 -0.74505805969E-08  0.93827000000E+00  0.93827000000E+00 0. -1.
     999902    2    1    2    0    0 -0.99513861848E-02 -0.20010584708E-01 -0.76252171339E-02  0.10203164970E+01  0.10200432131E+01 0.  0.
     999903    2    3    3    0    0 -0.49860846180E-01  0.10963259535E+00 -0.43860881175E-01  0.12918623577E+00  0.16121311091E-01 0.  0.
         14    1    1    2    0    0  0.99513861848E-02  0.20010584708E-01  0.76252171339E-02  0.23613502995E-01  0.00000000000E+00 0.  1.
     999901    1    3    3    0    0  0.39909459995E-01 -0.12964318006E+00  0.36235664041E-01  0.89113026123E+00  0.88000000000E+00 0.  1.
        -11    1    4    4    0    0 -0.19541657851E-01  0.25895975112E-01 -0.11034293838E-01  0.34270901360E-01  0.51100000000E-03 0.  1.
         11    1    4    4    0    0 -0.30319188329E-01  0.83736620237E-01 -0.32826587337E-01  0.94915334414E-01  0.51100000000E-03 0. -1.
</event>
<event>
 8    1  0.1180500E+005  0.1043930E+01  0.7957747E-01            NaN
         13   -1    0    0    0    0  0.00000000000E+00  0.00000000000E+00  0.74505805969E-08  0.10566000000E+00  0.10566000000E+00 0.  1.
     999900   -1    0    0    0    0 -0.00000000000E+00 -0.00000000000E+00 -0.74505805969E-08  0.93827000000E+00  0.93827000000E+00 0. -1.
     999902    2    1    2    0    0  0.11800763683E-01  0.43870413907E-03 -0.19272157774E-01  0.10213276428E+01  0.10210775129E+01 0.  0.
     999903    2    3    3    0    0  0.74907920748E-01  0.10312904542E+00  0.27709412205E-01  0.13186989375E+00  0.19366485312E-01 0.  0.
         14    1    1    2    0    0 -0.11800763683E-01 -0.43870413907E-03  0.19272157774E-01  0.22602357179E-01  0.00000000000E+00 0.  1.
     999901    1    3    3    0    0 -0.63107157066E-01 -0.10269034128E+00 -0.46981569979E-01  0.88945774907E+00  0.88000000000E+00 0. -1.
        -11    1    4    4    0    0  0.45503864570E-01  0.46530433706E-01  0.15984131633E-01  0.67018180643E-01  0.51100000000E-03 0.  1.
         11    1    4    4    0    0  0.29404056179E-01  0.56598611711E-01  0.11725280572E-01  0.64851713107E-01  0.51100000000E-03 0. -1.
</event>
<event>
 8    1  0.1180500E+005  0.1043930E+01  0.7957747E-01            NaN
         13   -1    0    0    0    0  0.00000000000E+00  0.00000000000E+00  0.74505805969E-08  0.10566000000E+00  0.10566000000E+00 0. -1.
     999900   -1    0    0    0    0 -0.00000000000E+00 -0.00000000000E+00 -0.74505805969E-08  0.93827000000E+00  0.93827000000E+00 0. -1.
     999902    2    1    2    0    0 -0.18845514983E-01  0.14370069214E-01 -0.50235644421E-02  0.10197042178E+01  0.10194164033E+01 0.  0.
     999903    2    3    3    0    0  0.21885360746E-01 -0.95301753177E-01  0.79911704056E-01  0.12790776528E+00  0.20325422520E-01 0.  0.
         14    1    1    2    0    0  0.18845514983E-01 -0.14370069214E-01  0.50235644421E-02  0.24225782214E-01  0.00000000000E+00 0. -1.
     999901    1    3    3    0    0 -0.40730875728E-01  0.10967182239E+00 -0.84935268498E-01  0.89179645250E+00  0.88000000000E+00 0. -1.
        -11    1    4    4    0    0  0.25624879959E-01 -0.79440996037E-01  0.68873978833E-01  0.10821918686E+00  0.51100000000E-03 0. -1.
         11    1    4    4    0    0 -0.37395192130E-02 -0.15860757140E-01  0.11037725223E-01  0.19688578417E-01  0.51100000000E-03 0.  1.
</event>
<event>
 8    1  0.1180500E+005  0.1043930E+01  0.7957747E-01            NaN
         13   -1    0    0    0    0  0.00000000000E+00  0.00000000000E+00  0.74505805969E-08  0.10566000000E+00  0.10566000000E+00 0. -1.
     999900   -1    0    0    0    0 -0.00000000000E+00 -0.00000000000E+00 -0.74505805969E-08  0.93827000000E+00  0.93827000000E+00 0.  1.
     999902    2    1    2    0    0 -0.23499162142E-01  0.42502324141E-02 -0.47847956958E-02  0.10195749314E+01  0.10192839994E+01 0.  0.
     999903    2    3    3    0    0 -0.12629066663E+00  0.17413264381E-01  0.31874251215E-01  0.13273602577E+00  0.18717115005E-01 0.  0.
         14    1    1    2    0    0  0.23499162142E-01 -0.42502324141E-02  0.47847956958E-02  0.24355068606E-01  0.00000000000E+00 0.  1.
     999901    1    3    3    0    0  0.10279150448E+00 -0.13163031967E-01 -0.36659046910E-01  0.88683890562E+00  0.88000000000E+00 0.  1.
        -11    1    4    4    0    0 -0.75727452351E-01  0.63128057137E-02  0.10445126310E-01  0.76706325295E-01  0.51100000000E-03 0. -1.
         11    1    4    4    0    0 -0.50563214274E-01  0.11100458667E-01  0.21429124905E-01  0.56029700477E-01  0.51100000000E-03 0.  1.
</event>
<event>
 8    1  0.1180500E+005  0.1043930E+01  0.7957747E-01            NaN
         13   -1    0    0    0    0  0.00000000000E+00  0.00000000000E+00  0.74505805969E-08  0.10566000000E+00  0.10566000000E+00 0. -1.
     999900   -1    0    0    0    0 -0.00000000000E+00 -0.00000000000E+00 -0.74505805969E-08  0.93827000000E+00  0.93827000000E+00 0.  1.
     999902    2    1    2    0    0  0.72691618060E-02  0.14722095163E-01  0.18346569091E-01  0.10193093299E+01  0.10190119394E+01 0.  0.
     999903    2    3    3    0    0  0.10121336275E-01  0.11510199108E-01 -0.12517588327E+00  0.12767199021E+00  0.19905004402E-01 0.  0.
         14    1    1    2    0    0 -0.72691618060E-02 -0.14722095163E-01 -0.18346569091E-01  0.24620670112E-01  0.00000000000E+00 0.  1.
     999901    1    3    3    0    0 -0.28521744688E-02  0.32118960550E-02  0.14352245236E+00  0.89163733968E+00  0.88000000000E+00 0. -1.
        -11    1    4    4    0    0 -0.55178339405E-02  0.57563268567E-02 -0.52770365723E-01  0.53371850350E-01  0.51100000000E-03 0.  1.
         11    1    4    4    0    0  0.15639170215E-01  0.57538722508E-02 -0.72405517548E-01  0.74300139860E-01  0.51100000000E-03 0. -1.
</event>
<event>
 8    1  0.1180500E+005  0.1043930E+01  0.7957747E-01            NaN
         13   -1    0    0    0    0  0.00000000000E+00  0.00000000000E+00  0.74505805969E-08  0.10566000000E+00  0.10566000000E+00 0.  1.
     999900   -1    0    0    0    0 -0.00000000000E+00 -0.00000000000E+00 -0.74505805969E-08  0.93827000000E+00  0.93827000000E+00 0. -1.
     999902    2    1    2    0    0  0.18927944388E-01 -0.13301450836E-01 -0.35037546497E-02  0.10205318811E+01  0.10202636171E+01 0.  0.
     999903    2    3    3    0    0  0.27666824691E-02 -0.13135838856E+00 -0.89419137717E-02  0.13248447213E+00  0.14474002869E-01 0.  0.
         14    1    1    2    0    0 -0.18927944388E-01  0.13301450836E-01  0.35037546497E-02  0.23398118936E-01  0.00000000000E+00 0.  1.
     999901    1    3    3    0    0  0.16161261919E-01  0.11805693772E+00  0.54381591220E-02  0.88804740893E+00  0.88000000000E+00 0. -1.
        -11    1    4    4    0    0 -0.15105837142E-02 -0.67761499566E-01  0.19989201785E-02  0.67809730050E-01  0.51100000000E-03 0. -1.
         11    1    4    4    0    0  0.42772661832E-02 -0.63596888990E-01 -0.10940833950E-01  0.64674742084E-01  0.51100000000E-03 0.  1.
</event>
<event>
 8    1  0.1180500E+005  0.1043930E+01  0.7957747E-01            NaN
         13   -1    0    0    0    0  0.00000000000E+00  0.00000000000E+00  0.74505805969E-08  0.10566000000E+00  0.10566000000E+00 0. -1.
     999900   -1    0    0    0    0 -0.00000000000E+00 -0.00000000000E+00 -0.74505805969E-08  0.93827000000E+00  0.93827000000E+00 0. -1.
     999902    2    1    2    0    0  0.17072803734E-01  0.12940786863E-02  0.17614597438E-01  0.10193652018E+01  0.10190691759E+01 0.  0.
     999903    2    3    3    0    0 -0.57431811351E-01 -0.11089129091E+00  0.25091891176E-01  0.12908861292E+00  0.20951745213E-01 0.  0.
         14    1    1    2    0    0 -0.17072803734E-01 -0.12940786863E-02 -0.17614597438E-01  0.24564798186E-01  0.00000000000E+00 0.  1.
     999901    1    3    3    0    0  0.74504615086E-01  0.11218536959E+00 -0.74772937376E-02  0.89027658890E+00  0.88000000000E+00 0.  1.
        -11    1    4    4    0    0 -0.46305260308E-01 -0.68347980890E-01  0.18694830840E-01  0.84648576155E-01  0.51100000000E-03 0.  1.
         11    1    4    4    0    0 -0.11126551044E-01 -0.42543310017E-01  0.63970603363E-02  0.44440036760E-01  0.51100000000E-03 0. -1.
</event>
<event>
 8    1  0.1180500E+005  0.1043930E+01  0.7957747E-01            NaN
         13   -1    0    0    0    0  0.00000000000E+00  0.00000000000E+00  0.74505805969E-08  0.10566000000E+00  0.10566000000E+00 0. -1.
     999900   -1    0    0    0    0 -0.00000000000E+00 -0.00000000000E+00 -0.74505805969E-08  0.93827000000E+00  0.93827000000E+00 0. -1.
     999902    2    1    2    0    0 -0.13851860799E-01 -0.25724390137E-01 -0.16050993121E-01  0.10105945433E+01  0.10100445922E+01 0.  0.
     999903    2    3    3    0    0 -0.11313164695E+00  0.35201516139E-01 -0.25711032048E-01  0.12286611726E+00  0.19927601981E-01 0.  0.
         14    1    1    2    0    0  0.13851860799E-01  0.25724390137E-01  0.16050993121E-01  0.33335456734E-01  0.00000000000E+00 0. -1.
     999901    1    3    3    0    0  0.99279786150E-01 -0.60925906276E-01  0.96600389274E-02  0.88772842601E+00  0.88000000000E+00 0. -1.
        -11    1    4    4    0    0 -0.49940469077E-01  0.65371007065E-02 -0.15687152862E-01  0.52755398048E-01  0.51100000000E-03 0. -1.
         11    1    4    4    0    0 -0.63191177872E-01  0.28664415433E-01 -0.10023879186E-01  0.70110719209E-01  0.51100000000E-03 0.  1.
</event>
<event>
 8    1  0.1180500E+005  0.1043930E+01  0.7957747E-01            NaN
         13   -1    0    0    0    0  0.00000000000E+00  0.00000000000E+00  0.74505805969E-08  0.10566000000E+00  0.10566000000E+00 0. -1.
     999900   -1    0    0    0    0 -0.00000000000E+00 -0.00000000000E+00 -0.74505805969E-08  0.93827000000E+00  0.93827000000E+00 0. -1.
     999902    2    1    2    0    0  0.19838913723E-01  0.10504390755E-01  0.80019814027E-02  0.10200981635E+01  0.10198197423E+01 0.  0.
     999903    2    3    3    0    0 -0.54913922285E-01  0.67832620215E-01  0.95308387402E-01  0.13077430750E+00  0.20035657405E-01 0.  0.
         14    1    1    2    0    0 -0.19838913723E-01 -0.10504390755E-01 -0.80019814027E-02  0.23831836463E-01  0.00000000000E+00 0.  1.
     999901    1    3    3    0    0  0.74752836007E-01 -0.57328229460E-01 -0.87306405999E-01  0.88932385603E+00  0.88000000000E+00 0. -1.
        -11    1    4    4    0    0 -0.17241903216E-01  0.25411981323E-01  0.47585088411E-01  0.56636152600E-01  0.51100000000E-03 0. -1.
         11    1    4    4    0    0 -0.37672019069E-01  0.42420638892E-01  0.47723298991E-01  0.74138154902E-01  0.51100000000E-03 0.  1.
</event>
<event>
 8    1  0.1180500E+005  0.1043930E+01  0.7957747E-01            NaN
         13   -1    0    0    0    0  0.00000000000E+00  0.00000000000E+00  0.74505805969E-08  0.10566000000E+00  0.10566000000E+00 0. -1.
     999900   -1    0    0    0    0 -0.00000000000E+00 -0.00000000000E+00 -0.74505805969E-08  0.93827000000E+00  0.93827000000E+00 0. -1.
     999902    2    1    2    0    0  0.10968765075E-01  0.14865151202E-01  0.11286596519E-01  0.10222811250E+01  0.10220518699E+01 0.  0.
     999903    2    3    3    0    0  0.77371647144E-01 -0.39609885873E-01 -0.96731604069E-01  0.13152593750E+00  0.19666066431E-01 0.  0.
         14    1    1    2    0    0 -0.10968765075E-01 -0.14865151202E-01 -0.11286596519E-01  0.21648874994E-01  0.00000000000E+00 0.  1.
     999901    1    3    3    0    0 -0.66402882069E-01  0.54475037074E-01  0.10801820059E+00  0.89075518751E+00  0.88000000000E+00 0.  1.
        -11    1    4    4    0    0  0.48559508572E-01 -0.23680655230E-01 -0.45546650898E-01  0.70665110443E-01  0.51100000000E-03 0.  1.
         11    1    4    4    0    0  0.28812138572E-01 -0.15929230643E-01 -0.51184953171E-01  0.60860827057E-01  0.51100000000E-03 0. -1.
</event>
<event>
 8    1  0.1180500E+005  0.1043930E+01  0.7957747E-01            NaN
         13   -1    0    0    0    0  0.00000000000E+00  0.00000000000E+00  0.74505805969E-08  0.10566000000E+00  0.10566000000E+00 0.  1.
     999900   -1    0    0    0    0 -0.00000000000E+00 -0.00000000000E+00 -0.74505805969E-08  0.93827000000E+00  0.93827000000E+00 0.  1.
     999902    2    1    2    0    0  0.59024815561E-02  0.19593205446E-01  0.94683848479E-02  0.10213826432E+01  0.10211337427E+01 0.  0.
     999903    2    3    3    0    0  0.47757831564E-01 -0.93010987944E-01 -0.73673917773E-01  0.12933767952E+00  0.19197261007E-01 0.  0.
         14    1    1    2    0    0 -0.59024815561E-02 -0.19593205446E-01 -0.94683848479E-02  0.22547356825E-01  0.00000000000E+00 0.  1.
     999901    1    3    3    0    0 -0.41855350008E-01  0.11260419339E+00  0.83142302621E-01  0.89204496365E+00  0.88000000000E+00 0. -1.
        -11    1    4    4    0    0  0.17645052742E-01 -0.25870724274E-01 -0.12790860351E-01  0.33830599909E-01  0.51100000000E-03 0.  1.
         11    1    4    4    0    0  0.30112778822E-01 -0.67140263670E-01 -0.60883057422E-01  0.95507079613E-01  0.51100000000E-03 0. -1.
</event>
<event>
 8    1  0.1180500E+005  0.1043930E+01  0.7957747E-01            NaN
         13   -1    0    0    0    0  0.00000000000E+00  0.00000000000E+00  0.74505805969E-08  0.10566000000E+00  0.10566000000E+00 0. -1.
     999900   -1    0    0    0    0 -0.00000000000E+00 -0.00000000000E+00 -0.74505805969E-08  0.93827000000E+00  0.93827000000E+00 0. -1.
     999902    2    1    2    0    0  0.21953659523E-02  0.20140697473E-01 -0.11976816060E-01  0.10203946766E+01  0.10201232203E+01 0.  0.
     999903    2    3    3    0    0  0.12432166159E-01 -0.99622706739E-01 -0.79705346062E-01  0.12964486947E+00  0.19380596855E-01 0.  0.
         14    1    1    2    0    0 -0.21953659523E-02 -0.20140697473E-01  0.11976816060E-01  0.23535323438E-01  0.00000000000E+00 0.  1.
     999901    1    3    3    0    0 -0.10236800207E-01  0.11976340421E+00  0.67728530002E-01  0.89074980710E+00  0.88000000000E+00 0.  1.
        -11    1    4    4    0    0  0.10412269611E-01 -0.75201148635E-01 -0.49013483702E-01  0.90367089253E-01  0.51100000000E-03 0. -1.
         11    1    4    4    0    0  0.20198965484E-02 -0.24421558104E-01 -0.30691862360E-01  0.39277780212E-01  0.51100000000E-03 0.  1.
</event>
<event>
 8    1  0.1180500E+005  0.1043930E+01  0.7957747E-01            NaN
         13   -1    0    0    0    0  0.00000000000E+00  0.00000000000E+00  0.74505805969E-08  0.10566000000E+00  0.10566000000E+00 0.  1.
     999900   -1    0    0    0    0 -0.00000000000E+00 -0.00000000000E+00 -0.74505805969E-08  0.93827000000E+00  0.93827000000E+00 0.  1.
     999902    2    1    2    0    0 -0.19072889284E-01 -0.11952287302E-01  0.72464256607E-02  0.10202837960E+01  0.10200097458E+01 0.  0.
     999903    2    3    3    0    0  0.89865637794E-01 -0.91295205346E-01  0.94108622946E-02  0.13002114596E+00  0.20156554560E-01 0.  0.
         14    1    1    2    0    0  0.19072889284E-01  0.11952287302E-01 -0.72464256607E-02  0.23646203971E-01  0.00000000000E+00 0.  1.
     999901    1    3    3    0    0 -0.10893852708E+00  0.79342918044E-01 -0.21644366339E-02  0.89026265007E+00  0.88000000000E+00 0.  1.
        -11    1    4    4    0    0  0.42757948011E-01 -0.47082602517E-01 -0.50911231113E-02  0.63805910647E-01  0.51100000000E-03 0. -1.
         11    1    4    4    0    0  0.47107689783E-01 -0.44212602829E-01  0.14501985406E-01  0.66215235311E-01  0.51100000000E-03 0.  1.
</event>
<event>
 8    1  0.1180500E+005  0.1043930E+01  0.7957747E-01            NaN
         13   -1    0    0    0    0  0.00000000000E+00  0.00000000000E+00  0.74505805969E-08  0.10566000000E+00  0.10566000000E+00 0.  1.
     999900   -1    0    0    0    0 -0.00000000000E+00 -0.00000000000E+00 -0.74505805969E-08  0.93827000000E+00  0.93827000000E+00 0.  1.
     999902    2    1    2    0    0  0.28051764776E-02 -0.22156731312E-01 -0.75766570448E-02  0.10203462028E+01  0.10200736141E+01 0.  0.
     999903    2    3    3    0    0 -0.94952987222E-01  0.17717915387E-01  0.83914956422E-01  0.12932579825E+00  0.18800209420E-01 0.  0.
         14    1    1    2    0    0 -0.28051764776E-02  0.22156731312E-01  0.75766570448E-02  0.23583797181E-01  0.00000000000E+00 0.  1.
     999901    1    3    3    0    0  0.97758163700E-01 -0.39874646699E-01 -0.91491613467E-01  0.89102040457E+00  0.88000000000E+00 0.  1.
        -11    1    4    4    0    0 -0.71010057287E-01  0.94839167185E-02  0.51701158102E-01  0.88349554511E-01  0.51100000000E-03 0.  1.
         11    1    4    4    0    0 -0.23942929935E-01  0.82339986689E-02  0.32213798320E-01  0.40976243741E-01  0.51100000000E-03 0. -1.
</event>
<event>
 8    1  0.1180500E+005  0.1043930E+01  0.7957747E-01            NaN
         13   -1    0    0    0    0  0.00000000000E+00  0.00000000000E+00  0.74505805969E-08  0.10566000000E+00  0.10566000000E+00 0.  1.
     999900   -1    0    0    0    0 -0.00000000000E+00 -0.00000000000E+00 -0.74505805969E-08  0.93827000000E+00  0.93827000000E+00 0. -1.
     999902    2    1    2    0    0 -0.12844412041E-02  0.18562024094E-01  0.13775169048E-01  0.10207793238E+01  0.10205167681E+01 0.  0.
     999903    2    3    3    0    0  0.67107343589E-01 -0.20073215797E-01  0.11005942048E+00  0.13204945758E+00  0.20436576365E-01 0.  0.
         14    1    1    2    0    0  0.12844412041E-02 -0.18562024094E-01 -0.13775169048E-01  0.23150676231E-01  0.00000000000E+00 0.  1.
     999901    1    3    3    0    0 -0.68391784793E-01  0.38635239891E-01 -0.96284251432E-01  0.88872986619E+00  0.88000000000E+00 0. -1.
        -11    1    4    4    0    0  0.47913406866E-01 -0.17024376136E-01  0.93834844971E-01  0.10672751844E+00  0.51100000000E-03 0. -1.
         11    1    4    4    0    0  0.19193936723E-01 -0.30488396611E-02  0.16224575509E-01  0.25321939137E-01  0.51100000000E-03 0.  1.
</event>
<event>
 8    1  0.1180500E+005  0.1043930E+01  0.7957747E-01            NaN
         13   -1    0    0    0    0  0.00000000000E+00  0.00000000000E+00  0.74505805969E-08  0.10566000000E+00  0.10566000000E+00 0.  1.
     999900   -1    0    0    0    0 -0.00000000000E+00 -0.00000000000E+00 -0.74505805969E-08  0.93827000000E+00  0.93827000000E+00 0.  1.
     999902    2    1    2    0    0 -0.16522637158E-01 -0.68081999445E-02  0.13311613707E-01  0.10216466388E+01  0.10214035963E+01 0.  0.
     999903    2    3    3    0    0  0.73273954294E-01 -0.11973734732E-01 -0.10402541525E+00  0.12931369148E+00  0.19705356736E-01 0.  0.
         14    1    1    2    0    0  0.16522637158E-01  0.68081999445E-02 -0.13311613707E-01  0.22283361161E-01  0.00000000000E+00 0. -1.
     999901    1    3    3    0    0 -0.89796591452E-01  0.51655347877E-02  0.11733702896E+00  0.89233294736E+00  0.88000000000E+00 0. -1.
        -11    1    4    4    0    0  0.58601234542E-01 -0.15614033195E-01 -0.90967561251E-01  0.10933097019E+00  0.51100000000E-03 0. -1.
         11    1    4    4    0    0  0.14672719752E-01  0.36402984630E-02 -0.13057853997E-01  0.19982721282E-01  0.51100000000E-03 0.  1.
</event>
<event>
 8    1  0.1180500E+005  0.1043930E+01  0.7957747E-01            NaN
         13   -1    0    0    0    0  0.00000000000E+00  0.00000000000E+00  0.74505805969E-08  0.10566000000E+00  0.10566000000E+00 0.  1.
     999900   -1    0    0    0    0 -0.00000000000E+00 -0.00000000000E+00 -0.74505805969E-08  0.93827000000E+00  0.93827000000E+00 0. -1.
     999902    2    1    2    0    0  0.14569326928E-01  0.16476865374E-01 -0.94235180926E-02  0.10200018769E+01  0.10197211746E+01 0.  0.
     999903    2    3    3    0    0  0.12045248041E+00 -0.42859721583E-01  0.21306435003E-01  0.13113945634E+00  0.19945853344E-01 0.  0.
         14    1    1    2    0    0 -0.14569326928E-01 -0.16476865374E-01  0.94235180926E-02  0.23928123055E-01  0.00000000000E+00 0.  1.
     999901    1    3    3    0    0 -0.10588315348E+00  0.59336586956E-01 -0.30729953096E-01  0.88886242060E+00  0.88000000000E+00 0.  1.
        -11    1    4    4    0    0  0.41958917725E-01 -0.21930126073E-01  0.80068247286E-03  0.47353811036E-01  0.51100000000E-03 0.  1.
         11    1    4    4    0    0  0.78493562687E-01 -0.20929595510E-01  0.20505752530E-01  0.83785645306E-01  0.51100000000E-03 0. -1.
</event>
<event>
 8    1  0.1180500E+005  0.1043930E+01  0.7957747E-01            NaN
         13   -1    0    0    0    0  0.00000000000E+00  0.00000000000E+00  0.74505805969E-08  0.10566000000E+00  0.10566000000E+00 0. -1.
     999900   -1    0    0    0    0 -0.00000000000E+00 -0.00000000000E+00 -0.74505805969E-08  0.93827000000E+00  0.93827000000E+00 0.  1.
     999902    2    1    2    0    0  0.17947059594E-01  0.11546488643E-01  0.10347244125E-01  0.10202132589E+01  0.10199375519E+01 0.  0.
     999903    2    3    3    0    0 -0.95085291559E-01  0.85815885618E-01 -0.66204365491E-02  0.12971892543E+00  0.19431689041E-01 0.  0.
         14    1    1    2    0    0 -0.17947059594E-01 -0.11546488643E-01 -0.10347244125E-01  0.23716741113E-01  0.00000000000E+00 0. -1.
     999901    1    3    3    0    0  0.11303235115E+00 -0.74269396975E-01  0.16967680674E-01  0.89049433346E+00  0.88000000000E+00 0. -1.
        -11    1    4    4    0    0 -0.68543158634E-01  0.58003924487E-01  0.38324881823E-02  0.89875296596E-01  0.51100000000E-03 0.  1.
         11    1    4    4    0    0 -0.26542132925E-01  0.27811961131E-01 -0.10452924731E-01  0.39843628833E-01  0.51100000000E-03 0. -1.
</event>
<event>
 8    1  0.1180500E+005  0.1043930E+01  0.7957747E-01            NaN
         13   -1    0    0    0    0  0.00000000000E+00  0.00000000000E+00  0.74505805969E-08  0.10566000000E+00  0.10566000000E+00 0. -1.
     999900   -1    0    0    0    0 -0.00000000000E+00 -0.00000000000E+00 -0.74505805969E-08  0.93827000000E+00  0.93827000000E+00 0. -1.
     999902    2    1    2    0    0 -0.14643232990E-01 -0.17768688961E-01  0.49336823072E-02  0.10203823504E+01  0.10201106064E+01 0.  0.
     999903    2    3    3    0    0  0.34428613800E-02 -0.72465279794E-01  0.10903482975E+00  0.13237566533E+00  0.19278293569E-01 0.  0.
         14    1    1    2    0    0  0.14643232990E-01  0.17768688961E-01 -0.49336823072E-02  0.23547649584E-01  0.00000000000E+00 0.  1.
     999901    1    3    3    0    0 -0.18086094370E-01  0.54696590833E-01 -0.10410114744E+00  0.88800668509E+00  0.88000000000E+00 0.  1.
        -11    1    4    4    0    0  0.19420280140E-02  0.50205903346E-03  0.33805074098E-02  0.39638980093E-02  0.51100000000E-03 0. -1.
         11    1    4    4    0    0  0.15008333660E-02 -0.72967338827E-01  0.10565432234E+00  0.12841176732E+00  0.51100000000E-03 0.  1.
</event>
<event>
 8    1  0.1180500E+005  0.1043930E+01  0.7957747E-01            NaN
         13   -1    0    0    0    0  0.00000000000E+00  0.00000000000E+00  0.74505805969E-08  0.10566000000E+00  0.10566000000E+00 0.  1.
     999900   -1    0    0    0    0 -0.00000000000E+00 -0.00000000000E+00 -0.74505805969E-08  0.93827000000E+00  0.93827000000E+00 0.  1.
     999902    2    1    2    0    0  0.31424264311E-02  0.69464555398E-02  0.22702526628E-01  0.10199814551E+01  0.10197002677E+01 0.  0.
     999903    2    3    3    0    0  0.12627732966E+00  0.22903142401E-01 -0.12204323901E-01  0.13057979753E+00  0.20775468263E-01 0.  0.
         14    1    1    2    0    0 -0.31424264311E-02 -0.69464555398E-02 -0.22702526628E-01  0.23948544919E-01  0.00000000000E+00 0. -1.
     999901    1    3    3    0    0 -0.12313490323E+00 -0.15956686861E-01  0.34906850529E-01  0.88940165756E+00  0.88000000000E+00 0.  1.
        -11    1    4    4    0    0  0.19456162869E-01  0.80719331354E-02 -0.83480006183E-02  0.22663817274E-01  0.51100000000E-03 0. -1.
         11    1    4    4    0    0  0.10682116679E+00  0.14831209265E-01 -0.38563232828E-02  0.10791598025E+00  0.51100000000E-03 0.  1.
</event>
<event>
 8    1  0.1180500E+005  0.1043930E+01  0.7957747E-01            NaN
         13   -1    0    0    0    0  0.00000000000E+00  0.00000000000E+00  0.74505805969E-08  0.10566000000E+00  0.10566000000E+00 0. -1.
     999900   -1    0    0    0    0 -0.00000000000E+00 -0.00000000000E+00 -0.74505805969E-08  0.93827000000E+00  0.93827000000E+00 0.  1.
     999902    2    1    2    0    0  0.20862522486E-01  0.10180563980E-01  0.28448750401E-02  0.10205423528E+01  0.10202743316E+01 0.  0.
     999903    2    3    3    0    0 -0.11405627508E+00 -0.40887853337E-01 -0.38260438917E-01  0.12784939774E+00  0.14175926080E-01 0.  0.
         14    1    1    2    0    0 -0.20862522486E-01 -0.10180563980E-01 -0.28448750401E-02  0.23387647197E-01  0.00000000000E+00 0.  1.
     999901    1    3    3    0    0  0.13491879757E+00  0.51068417317E-01  0.41105313957E-01  0.89269295506E+00  0.88000000000E+00 0. -1.
        -11    1    4    4    0    0 -0.63667008718E-01 -0.15869542660E-01 -0.17858427900E-01  0.68003786302E-01  0.51100000000E-03 0. -1.
         11    1    4    4    0    0 -0.50389266363E-01 -0.25018310677E-01 -0.20402011017E-01  0.59845611437E-01  0.51100000000E-03 0.  1.
</event>
<event>
 8    1  0.1180500E+005  0.1043930E+01  0.7957747E-01            NaN
         13   -1    0    0    0    0  0.00000000000E+00  0.00000000000E+00  0.74505805969E-08  0.10566000000E+00  0.10566000000E+00 0.  1.
     999900   -1    0    0    0    0 -0.00000000000E+00 -0.00000000000E+00 -0.74505805969E-08  0.93827000000E+00  0.93827000000E+00 0.  1.
     999902    2    1    2    0    0  0.12954282449E-02 -0.21448521300E-01  0.99295095671E-02  0.10202590820E+01  0.10199844518E+01 0.  0.
     999903    2    3    3    0    0 -0.60589213953E-03 -0.97930143361E-01 -0.85849634665E-01  0.13176220634E+00  0.20010976062E-01 0.  0.
         14    1    1    2    0    0 -0.12954282449E-02  0.21448521300E-01 -0.99295095671E-02  0.23670918033E-01  0.00000000000E+00 0.  1.
     999901    1    3    3    0    0  0.19013203845E-02  0.76481622061E-01  0.95779144232E-01  0.88849687563E+00  0.88000000000E+00 0.  1.
        -11    1    4    4    0    0  0.69411367885E-02 -0.26881464063E-01 -0.17119201027E-01  0.32620862265E-01  0.51100000000E-03 0.  1.
         11    1    4    4    0    0 -0.75470289281E-02 -0.71048679298E-01 -0.68730433637E-01  0.99141344073E-01  0.51100000000E-03 0. -1.
</event>
<event>
 8    1  0.1180500E+005  0.1043930E+01  0.7957747E-01            NaN
         13   -1    0    0    0    0  0.00000000000E+00  0.00000000000E+00  0.74505805969E-08  0.10566000000E+00  0.10566000000E+00 0. -1.
     999900   -1    0    0    0    0 -0.00000000000E+00 -0.00000000000E+00 -0.74505805969E-08  0.93827000000E+00  0.93827000000E+00 0. -1.
     999902    2    1    2    0    0 -0.11057309900E-01  0.11130502575E-01 -0.17526285505E-01  0.10204071840E+01  0.10201360195E+01 0.  0.
     999903    2    3    3    0    0  0.12346073437E+00 -0.10656239342E-01 -0.33425278869E-01  0.12977676437E+00  0.19200284757E-01 0.  0.
         14    1    1    2    0    0  0.11057309900E-01 -0.11130502575E-01  0.17526285505E-01  0.23522816018E-01  0.00000000000E+00 0. -1.
     999901    1    3    3    0    0 -0.13451804427E+00  0.21786741917E-01  0.15898993364E-01  0.89063041962E+00  0.88000000000E+00 0. -1.
        -11    1    4    4    0    0  0.51100438059E-01  0.69818902450E-03 -0.55654741627E-02  0.51409900422E-01  0.51100000000E-03 0. -1.
         11    1    4    4    0    0  0.72360296306E-01 -0.11354428366E-01 -0.27859804707E-01  0.78366863943E-01  0.51100000000E-03 0.  1.
</event>
<event>
 8    1  0.1180500E+005  0.1043930E+01  0.7957747E-01            NaN
         13   -1    0    0    0    0  0.00000000000E+00  0.00000000000E+00  0.74505805969E-08  0.10566000000E+00  0.10566000000E+00 0. -1.
     999900   -1    0    0    0    0 -0.00000000000E+00 -0.00000000000E+00 -0.74505805969E-08  0.93827000000E+00  0.93827000000E+00 0. -1.
     999902    2    1    2    0    0  0.46991708679E-02 -0.24718438681E-02  0.22795409911E-01  0.10205243825E+01  0.10202559445E+01 0.  0.
     999903    2    3    3    0    0  0.74228969734E-01  0.87378101799E-01  0.63064208106E-01  0.13230763990E+00  0.19579188213E-01 0.  0.
         14    1    1    2    0    0 -0.46991708679E-02  0.24718438681E-02 -0.22795409911E-01  0.23405617530E-01  0.00000000000E+00 0.  1.
     999901    1    3    3    0    0 -0.69529798866E-01 -0.89849945667E-01 -0.40268798196E-01  0.88821674257E+00  0.88000000000E+00 0. -1.
        -11    1    4    4    0    0  0.36460192333E-01  0.57386025686E-01  0.34341050247E-01  0.76171322832E-01  0.51100000000E-03 0. -1.
         11    1    4    4    0    0  0.37768777401E-01  0.29992076114E-01  0.28723157859E-01  0.56136317072E-01  0.51100000000E-03 0.  1.
</event>
<event>
 8    1  0.1180500E+005  0.1043930E+01  0.7957747E-01            NaN
         13   -1    0    0    0    0  0.00000000000E+00  0.00000000000E+00  0.74505805969E-08  0.10566000000E+00  0.10566000000E+00 0.  1.
     999900   -1    0    0    0    0 -0.00000000000E+00 -0.00000000000E+00 -0.74505805969E-08  0.93827000000E+00  0.93827000000E+00 0. -1.
     999902    2    1    2    0    0 -0.23300282414E-01 -0.83114524606E-02  0.10574239703E-01  0.10170265068E+01  0.10166706042E+01 0.  0.
     999903    2    3    3    0    0  0.10973163546E+00  0.29828834350E-01 -0.47243504093E-01  0.12433671510E+00  0.17230173056E-01 0.  0.
         14    1    1    2    0    0  0.23300282414E-01  0.83114524606E-02 -0.10574239703E-01  0.26903493228E-01  0.00000000000E+00 0. -1.
     999901    1    3    3    0    0 -0.13303191788E+00 -0.38140286810E-01  0.57817743795E-01  0.89268979167E+00  0.88000000000E+00 0.  1.
        -11    1    4    4    0    0  0.41063038857E-01  0.18687707325E-01 -0.14051575070E-01  0.47255808618E-01  0.51100000000E-03 0.  1.
         11    1    4    4    0    0  0.68668596607E-01  0.11141127025E-01 -0.33191929022E-01  0.77080906485E-01  0.51100000000E-03 0. -1.
</event>
<event>
 8    1  0.1180500E+005  0.1043930E+01  0.7957747E-01            NaN
         13   -1    0    0    0    0  0.00000000000E+00  0.00000000000E+00  0.74505805969E-08  0.10566000000E+00  0.10566000000E+00 0.  1.
     999900   -1    0    0    0    0 -0.00000000000E+00 -0.00000000000E+00 -0.74505805969E-08  0.93827000000E+00  0.93827000000E+00 0.  1.
     999902    2    1    2    0    0 -0.20414956053E-01 -0.66378362620E-02  0.10052930165E-01  0.10202257239E+01  0.10199503101E+01 0.  0.
     999903    2    3    3    0    0  0.89421757290E-02 -0.12911525766E+00  0.61587192728E-02  0.13125006347E+00  0.20926946040E-01 0.  0.
         14    1    1    2    0    0  0.20414956053E-01  0.66378362620E-02 -0.10052930165E-01  0.23704276108E-01  0.00000000000E+00 0.  1.
     999901    1    3    3    0    0 -0.29357131782E-01  0.12247742140E+00  0.38942108924E-02  0.88897566042E+00  0.88000000000E+00 0. -1.
        -11    1    4    4    0    0 -0.50259193249E-04 -0.10685594427E+00  0.19726824481E-02  0.10687538514E+00  0.51100000000E-03 0.  1.
         11    1    4    4    0    0  0.89924349223E-02 -0.22259313395E-01  0.41860368247E-02  0.24374678335E-01  0.51100000000E-03 0. -1.
</event>
<event>
 8    1  0.1180500E+005  0.1043930E+01  0.7957747E-01            NaN
         13   -1    0    0    0    0  0.00000000000E+00  0.00000000000E+00  0.74505805969E-08  0.10566000000E+00  0.10566000000E+00 0.  1.
     999900   -1    0    0    0    0 -0.00000000000E+00 -0.00000000000E+00 -0.74505805969E-08  0.93827000000E+00  0.93827000000E+00 0.  1.
     999902    2    1    2    0    0 -0.99497278625E-02 -0.18030650578E-01  0.88132903509E-02  0.10215296533E+01  0.10212840237E+01 0.  0.
     999903    2    3    3    0    0 -0.10972956493E+00 -0.40399156570E-01 -0.59980369328E-01  0.13294148461E+00  0.20077956935E-01 0.  0.
         14    1    1    2    0    0  0.99497278625E-02  0.18030650578E-01 -0.88132903509E-02  0.22400346685E-01  0.00000000000E+00 0. -1.
     999901    1    3    3    0    0  0.99779837069E-01  0.22368505992E-01  0.68793659679E-01  0.88858816870E+00  0.88000000000E+00 0. -1.
        -11    1    4    4    0    0 -0.26222837347E-01 -0.18856129830E-01 -0.18755358741E-01  0.37352582685E-01  0.51100000000E-03 0. -1.
         11    1    4    4    0    0 -0.83506727584E-01 -0.21543026741E-01 -0.41225010586E-01  0.95588901928E-01  0.51100000000E-03 0.  1.
</event>
<event>
 8    1  0.1180500E+005  0.1043930E+01  0.7957747E-01            NaN
         13   -1    0    0    0    0  0.00000000000E+00  0.00000000000E+00  0.74505805969E-08  0.10566000000E+00  0.10566000000E+00 0.  1.
     999900   -1    0    0    0    0 -0.00000000000E+00 -0.00000000000E+00 -0.74505805969E-08  0.93827000000E+00  0.93827000000E+00 0. -1.
     999902    2    1    2    0    0 -0.75751068477E-02  0.11755750624E-01 -0.18775999133E-01  0.10205180787E+01  0.10202494944E+01 0.  0.
     999903    2    3    3    0    0 -0.10201814237E+00 -0.75546963010E-01  0.21473083150E-01  0.13025899314E+00  0.19780470149E-01 0.  0.
         14    1    1    2    0    0  0.75751068477E-02 -0.11755750624E-01  0.18775999133E-01  0.23411921321E-01  0.00000000000E+00 0.  1.
     999901    1    3    3    0    0  0.94443035527E-01  0.87302713633E-01 -0.40249082284E-01  0.89025908554E+00  0.88000000000E+00 0.  1.
        -11    1    4    4    0    0 -0.59835803100E-01 -0.46570039739E-01  0.22425796991E-01  0.79071293309E-01  0.51100000000E-03 0.  1.
         11    1    4    4    0    0 -0.42182339275E-01 -0.28976923271E-01 -0.95271384041E-03  0.51187699827E-01  0.51100000000E-03 0. -1.
</event>
<event>
 8    1  0.1180500E+005  0.1043930E+01  0.7957747E-01            NaN
         13   -1    0    0    0    0  0.00000000000E+00  0.00000000000E+00  0.74505805969E-08  0.10566000000E+00  0.10566000000E+00 0. -1.
     999900   -1    0    0    0    0 -0.00000000000E+00 -0.00000000000E+00 -0.74505805969E-08  0.93827000000E+00  0.93827000000E+00 0.  1.
     999902    2    1    2    0    0  0.11998106499E-01  0.12136204116E-01 -0.83832942967E-02  0.10249162778E+01  0.10247398962E+01 0.  0.
     999903    2    3    3    0    0  0.69859780551E-01  0.11219784297E+00  0.28201491879E-01  0.13660397262E+00  0.19914223171E-01 0.  0.
         14    1    1    2    0    0 -0.11998106499E-01 -0.12136204116E-01  0.83832942967E-02  0.19013722233E-01  0.00000000000E+00 0. -1.
     999901    1    3    3    0    0 -0.57861674051E-01 -0.10006163886E+00 -0.36584786176E-01  0.88831230515E+00  0.88000000000E+00 0.  1.
        -11    1    4    4    0    0  0.50100810934E-01  0.70369258560E-01  0.10291871283E-01  0.86994870780E-01  0.51100000000E-03 0. -1.
         11    1    4    4    0    0  0.19758969617E-01  0.41828584415E-01  0.17909620596E-01  0.49609101840E-01  0.51100000000E-03 0.  1.
</event>
<event>
 8    1  0.1180500E+005  0.1043930E+01  0.7957747E-01            NaN
         13   -1    0    0    0    0  0.00000000000E+00  0.00000000000E+00  0.74505805969E-08  0.10566000000E+00  0.10566000000E+00 0.  1.
     999900   -1    0    0    0    0 -0.00000000000E+00 -0.00000000000E+00 -0.74505805969E-08  0.93827000000E+00  0.93827000000E+00 0. -1.
     999902    2    1    2    0    0  0.61743853694E-02  0.13482224428E-01 -0.18931600821E-01  0.10198821535E+01  0.10195986015E+01 0.  0.
     999903    2    3    3    0    0 -0.47713065898E-01 -0.11722682720E+00  0.14931521543E-01  0.12795422783E+00  0.11431028477E-01 0.  0.
         14    1    1    2    0    0 -0.61743853694E-02 -0.13482224428E-01  0.18931600821E-01  0.24047846470E-01  0.00000000000E+00 0.  1.
     999901    1    3    3    0    0  0.53887451268E-01  0.13070905163E+00 -0.33863122364E-01  0.89192792570E+00  0.88000000000E+00 0. -1.
        -11    1    4    4    0    0 -0.35993689268E-01 -0.75416591720E-01  0.75609861386E-02  0.83908507353E-01  0.51100000000E-03 0.  1.
         11    1    4    4    0    0 -0.11719376630E-01 -0.41810235480E-01  0.73705354045E-02  0.44045720480E-01  0.51100000000E-03 0. -1.
</event>
<event>
 8    1  0.1180500E+005  0.1043930E+01  0.7957747E-01            NaN
         13   -1    0    0    0    0  0.00000000000E+00  0.00000000000E+00  0.74505805969E-08  0.10566000000E+00  0.10566000000E+00 0.  1.
     999900   -1    0    0    0    0 -0.00000000000E+00 -0.00000000000E+00 -0.74505805969E-08  0.93827000000E+00  0.93827000000E+00 0. -1.
     999902    2    1    2    0    0  0.22978884623E-01  0.46728792403E-02 -0.12177020822E-02  0.10204492049E+01  0.10201790196E+01 0.  0.
     999903    2    3    3    0    0 -0.47555769822E-01 -0.81922162433E-01  0.84088753748E-01  0.12929768575E+00  0.25964997457E-01 0.  0.
         14    1    1    2    0    0 -0.22978884623E-01 -0.46728792403E-02  0.12177020822E-02  0.23480795074E-01  0.00000000000E+00 0.  1.
     999901    1    3    3    0    0  0.70534654446E-01  0.86595041673E-01 -0.85306455830E-01  0.89115151917E+00  0.88000000000E+00 0. -1.
        -11    1    4    4    0    0 -0.28052047730E-01 -0.34164312814E-01  0.53188342505E-01  0.69161973304E-01  0.51100000000E-03 0. -1.
         11    1    4    4    0    0 -0.19503722093E-01 -0.47757849619E-01  0.30900411243E-01  0.60135712449E-01  0.51100000000E-03 0.  1.
</event>
<event>
 8    1  0.1180500E+005  0.1043930E+01  0.7957747E-01            NaN
         13   -1    0    0    0    0  0.00000000000E+00  0.00000000000E+00  0.74505805969E-08  0.10566000000E+00  0.10566000000E+00 0. -1.
     999900   -1    0    0    0    0 -0.00000000000E+00 -0.00000000000E+00 -0.74505805969E-08  0.93827000000E+00  0.93827000000E+00 0.  1.
     999902    2    1    2    0    0 -0.95732252760E-02 -0.21549827606E-01  0.93740677447E-02  0.10185545225E+01  0.10182383810E+01 0.  0.
     999903    2    3    3    0    0 -0.12004443683E+00 -0.48990448904E-01  0.49030992689E-02  0.13121193599E+00  0.19539725365E-01 0.  0.
         14    1    1    2    0    0  0.95732252760E-02  0.21549827606E-01 -0.93740677447E-02  0.25375477496E-01  0.00000000000E+00 0.  1.
     999901    1    3    3    0    0  0.11047121155E+00  0.27440621298E-01  0.44709684758E-02  0.88734258651E+00  0.88000000000E+00 0.  1.
        -11    1    4    4    0    0 -0.11130265750E+00 -0.40434112095E-01  0.76395683852E-02  0.11866685769E+00  0.51100000000E-03 0. -1.
         11    1    4    4    0    0 -0.87417793236E-02 -0.85563368098E-02 -0.27364691162E-02  0.12545078301E-01  0.51100000000E-03 0.  1.
</event>
<event>
 8    1  0.1180500E+005  0.1043930E+01  0.7957747E-01            NaN
         13   -1    0    0    0    0  0.00000000000E+00  0.00000000000E+00  0.74505805969E-08  0.10566000000E+00  0.10566000000E+00 0. -1.
     999900   -1    0    0    0    0 -0.00000000000E+00 -0.00000000000E+00 -0.74505805969E-08  0.93827000000E+00  0.93827000000E+00 0. -1.
     999902    2    1    2    0    0 -0.29183314758E-02 -0.15938132826E-01 -0.13705150123E-01  0.10227080332E+01  0.10224878235E+01 0.  0.
     999903    2    3    3    0    0  0.34814408157E-01  0.31718055334E-01 -0.12361891117E+00  0.13378964165E+00  0.19998874071E-01 0.  0.
         14    1    1    2    0    0  0.29183314758E-02  0.15938132826E-01  0.13705150123E-01  0.21221966838E-01  0.00000000000E+00 0. -1.
     999901    1    3    3    0    0 -0.37732739633E-01 -0.47656188160E-01  0.10991376104E+00  0.88891839152E+00  0.88000000000E+00 0.  1.
        -11    1    4    4    0    0  0.11104661516E-01  0.67539204934E-02 -0.15053620386E-01  0.19894762053E-01  0.51100000000E-03 0.  1.
         11    1    4    4    0    0  0.23709746641E-01  0.24964134841E-01 -0.10856529078E+00  0.11389487959E+00  0.51100000000E-03 0. -1.
</event>
<event>
 8    1  0.1180500E+005  0.1043930E+01  0.7957747E-01            NaN
         13   -1    0    0    0    0  0.00000000000E+00  0.00000000000E+00  0.74505805969E-08  0.10566000000E+00  0.10566000000E+00 0. -1.
     999900   -1    0    0    0    0 -0.00000000000E+00 -0.00000000000E+00 -0.74505805969E-08  0.93827000000E+00  0.93827000000E+00 0.  1.
     999902    2    1    2    0    0 -0.94603406127E-02 -0.15104576661E-02 -0.21829530707E-01  0.10200907899E+01  0.10198121943E+01 0.  0.
     999903    2    3    3    0    0  0.92957287544E-01 -0.18419490112E-01 -0.89009459033E-01  0.13144663801E+00  0.19370078035E-01 0.  0.
         14    1    1    2    0    0  0.94603406127E-02  0.15104576661E-02  0.21829530707E-01  0.23839210091E-01  0.00000000000E+00 0. -1.
     999901    1    3    3    0    0 -0.10241762816E+00  0.16909032446E-01  0.67179928325E-01  0.88864415190E+00  0.88000000000E+00 0. -1.
        -11    1    4    4    0    0  0.14987647866E-02  0.75740353267E-03 -0.66716446405E-02  0.68986896731E-02  0.51100000000E-03 0. -1.
         11    1    4    4    0    0  0.91458522757E-01 -0.19176893645E-01 -0.82337814392E-01  0.12454794834E+00  0.51100000000E-03 0.  1.
</event>
<event>
 8    1  0.1180500E+005  0.1043930E+01  0.7957747E-01            NaN
         13   -1    0    0    0    0  0.00000000000E+00  0.00000000000E+00  0.74505805969E-08  0.10566000000E+00  0.10566000000E+00 0.  1.
     999900   -1    0    0    0    0 -0.00000000000E+00 -0.00000000000E+00 -0.74505805969E-08  0.93827000000E+00  0.93827000000E+00 0.  1.
     999902    2    1    2    0    0  0.75229010377E-02  0.22611108417E-01  0.30617857602E-03  0.10200982982E+01  0.10198198802E+01 0.  0.
     999903    2    3    3    0    0  0.84717465130E-01  0.43203312869E-03 -0.97751057230E-01  0.13101667453E+00  0.20805390294E-01 0.  0.
         14    1    1    2    0    0 -0.75229010377E-02 -0.22611108417E-01 -0.30617857602E-03  0.23831701768E-01  0.00000000000E+00 0. -1.
     999901    1    3    3    0    0 -0.77194564092E-01  0.22179075288E-01  0.98057235806E-01  0.88908162370E+00  0.88000000000E+00 0. -1.
        -11    1    4    4    0    0  0.27991453853E-01 -0.48536673388E-02 -0.45886593565E-01  0.53971475480E-01  0.51100000000E-03 0.  1.
         11    1    4    4    0    0  0.56726011277E-01  0.52857004675E-02 -0.51864463665E-01  0.77045199053E-01  0.51100000000E-03 0. -1.
</event>
<event>
 8    1  0.1180500E+005  0.1043930E+01  0.7957747E-01            NaN
         13   -1    0    0    0    0  0.00000000000E+00  0.00000000000E+00  0.74505805969E-08  0.10566000000E+00  0.10566000000E+00 0.  1.
     999900   -1    0    0    0    0 -0.00000000000E+00 -0.00000000000E+00 -0.74505805969E-08  0.93827000000E+00  0.93827000000E+00 0. -1.
     999902    2    1    2    0    0  0.11876650242E-01 -0.21662318263E-02  0.22541629004E-01  0.10183590708E+01  0.10180379780E+01 0.  0.
     999903    2    3    3    0    0  0.87098964293E-01  0.82533553852E-03  0.97332803692E-01  0.13198383096E+00  0.18951153048E-01 0.  0.
         14    1    1    2    0    0 -0.11876650242E-01  0.21662318263E-02 -0.22541629004E-01  0.25570929186E-01  0.00000000000E+00 0. -1.
     999901    1    3    3    0    0 -0.75222314051E-01 -0.29915673648E-02 -0.74791174688E-01  0.88637523985E+00  0.88000000000E+00 0.  1.
        -11    1    4    4    0    0  0.16174212116E-01 -0.50594251106E-02  0.27289370037E-01  0.32127461120E-01  0.51100000000E-03 0.  1.
         11    1    4    4    0    0  0.70924752177E-01  0.58847606491E-02  0.70043433656E-01  0.99856369845E-01  0.51100000000E-03 0. -1.
</event>
<event>
 8    1  0.1180500E+005  0.1043930E+01  0.7957747E-01            NaN
         13   -1    0    0    0    0  0.00000000000E+00  0.00000000000E+00  0.74505805969E-08  0.10566000000E+00  0.10566000000E+00 0.  1.
     999900   -1    0    0    0    0 -0.00000000000E+00 -0.00000000000E+00 -0.74505805969E-08  0.93827000000E+00  0.93827000000E+00 0. -1.
     999902    2    1    2    0    0 -0.86117726147E-02  0.31483694958E-02 -0.22418716863E-01  0.10197086515E+01  0.10194209436E+01 0.  0.
     999903    2    3    3    0    0 -0.11932061870E-01 -0.87310463421E-01  0.90590931497E-01  0.12787626511E+00  0.19496953220E-01 0.  0.
         14    1    1    2    0    0  0.86117726147E-02 -0.31483694958E-02  0.22418716863E-01  0.24221348514E-01  0.00000000000E+00 0.  1.
     999901    1    3    3    0    0  0.33202892557E-02  0.90458832916E-01 -0.11300964836E+00  0.89183238638E+00  0.88000000000E+00 0. -1.
        -11    1    4    4    0    0 -0.94127466239E-03 -0.68099043550E-01  0.69029140834E-01  0.96972414303E-01  0.51100000000E-03 0. -1.
         11    1    4    4    0    0 -0.10990787208E-01 -0.19211419870E-01  0.21561790662E-01  0.30903850803E-01  0.51100000000E-03 0.  1.
</event>
<event>
 8    1  0.1180500E+005  0.1043930E+01  0.7957747E-01            NaN
         13   -1    0    0    0    0  0.00000000000E+00  0.00000000000E+00  0.74505805969E-08  0.10566000000E+00  0.10566000000E+00 0. -1.
     999900   -1    0    0    0    0 -0.00000000000E+00 -0.00000000000E+00 -0.74505805969E-08  0.93827000000E+00  0.93827000000E+00 0.  1.
     999902    2    1    2    0    0 -0.21324540651E-01 -0.10957202410E-01 -0.54533560991E-02  0.10193426982E+01  0.10190461230E+01 0.  0.
     999903    2    3    3    0    0 -0.57930729774E-02 -0.60372913570E-01  0.11323783652E+00  0.12986490856E+00  0.19069306994E-01 0.  0.
         14    1    1    2    0    0  0.21324540651E-01  0.10957202410E-01  0.54533560991E-02  0.24587301832E-01  0.00000000000E+00 0.  1.
     999901    1    3    3    0    0 -0.15531467674E-01  0.49415711160E-01 -0.11869119262E+00  0.88947778961E+00  0.88000000000E+00 0.  1.
        -11    1    4    4    0    0 -0.10293227540E-01 -0.55911548730E-01  0.10555957488E+00  0.11989635851E+00  0.51100000000E-03 0.  1.
         11    1    4    4    0    0  0.45001545630E-02 -0.44613648403E-02  0.76782616372E-02  0.99685500500E-02  0.51100000000E-03 0. -1.
</event>
