<event>
 8    1  0.1132492E+005  0.1043930E+01  0.7957747E-01            NaN
         13   -1    0    0    0    0  0.00000000000E+00  0.00000000000E+00  0.74505805969E-08  0.10566000000E+00  0.10566000000E+00 0. -1.
     999900   -1    0    0    0    0 -0.00000000000E+00 -0.00000000000E+00 -0.74505805969E-08  0.93827000000E+00  0.93827000000E+00 0. -1.
     999902    2    1    2    0    0 -0.11432035164E-01  0.42575774396E-02  0.18016767011E-01  0.10221717306E+01  0.10219401277E+01 0.  0.
     999903    2    3    3    0    0  0.76048665442E-01 -0.10346394163E+00 -0.13833476578E-01  0.13072838598E+00  0.20257322026E-01 0.  0.
         14    1    1    2    0    0  0.11432035164E-01 -0.42575774396E-02 -0.18016767011E-01  0.21758269397E-01  0.00000000000E+00 0.  1.
     999901    1    3    3    0    0 -0.87480700606E-01  0.10772151906E+00  0.31850243588E-01  0.89144334462E+00  0.88000000000E+00 0.  1.
        -11    1    4    4    0    0  0.21190396273E-01 -0.45348544026E-01 -0.42895745033E-02  0.50241267001E-01  0.51100000000E-03 0.  1.
         11    1    4    4    0    0  0.54858269169E-01 -0.58115397600E-01 -0.95439020744E-02  0.80487118983E-01  0.51100000000E-03 0. -1.
</event>
<event>
 8    1  0.1132492E+005  0.1043930E+01  0.7957747E-01            NaN
         13   -1    0    0    0    0  0.00000000000E+00  0.00000000000E+00  0.74505805969E-08  0.10566000000E+00  0.10566000000E+00 0.  1.
     999900   -1    0    0    0    0 -0.00000000000E+00 -0.00000000000E+00 -0.74505805969E-08  0.93827000000E+00  0.93827000000E+00 0. -1.
     999902    2    1    2    0    0  0.13952327276E-01  0.91542020755E-02  0.17404744670E-01  0.10198179286E+01  0.10195328418E+01 0.  0.
     999903    2    3    3    0    0 -0.63160747583E-01  0.69038174767E-01  0.90116368860E-01  0.13143766269E+00  0.19983734039E-01 0.  0.
         14    1    1    2    0    0 -0.13952327276E-01 -0.91542020755E-02 -0.17404744670E-01  0.24112071439E-01  0.00000000000E+00 0. -1.
     999901    1    3    3    0    0  0.77113074859E-01 -0.59883972691E-01 -0.72711624189E-01  0.88838026587E+00  0.88000000000E+00 0. -1.
        -11    1    4    4    0    0 -0.39580539899E-01  0.55981368600E-01  0.68041399603E-01  0.96594129997E-01  0.51100000000E-03 0.  1.
         11    1    4    4    0    0 -0.23580207684E-01  0.13056806167E-01  0.22074969256E-01  0.34843532691E-01  0.51100000000E-03 0. -1.
</event>
<event>
 8    1  0.1132492E+005  0.1043930E+01  0.7957747E-01            NaN
         13   -1    0    0    0    0  0.00000000000E+00  0.00000000000E+00  0.74505805969E-08  0.10566000000E+00  0.10566000000E+00 0. -1.
     999900   -1    0    0    0    0 -0.00000000000E+00 -0.00000000000E+00 -0.74505805969E-08  0.93827000000E+00  0.93827000000E+00 0. -1.
     999902    2    1    2    0    0  0.21116010713E-01 -0.80509804585E-02  0.57096511365E-02  0.10206211109E+01  0.10203549126E+01 0.  0.
     999903    2    3    3    0    0  0.10842879340E+00  0.37178108283E-01  0.64258990274E-01  0.13321071114E+00  0.21837141753E-01 0.  0.
         14    1    1    2    0    0 -0.21116010713E-01  0.80509804585E-02 -0.57096511365E-02  0.23308889096E-01  0.00000000000E+00 0.  1.
     999901    1    3    3    0    0 -0.87312782682E-01 -0.45229088742E-01 -0.58549339138E-01  0.88741039976E+00  0.88000000000E+00 0. -1.
        -11    1    4    4    0    0  0.66886253444E-01  0.25675285273E-01  0.28154683344E-01  0.76980117491E-01  0.51100000000E-03 0. -1.
         11    1    4    4    0    0  0.41542539951E-01  0.11502823010E-01  0.36104306930E-01  0.56230593654E-01  0.51100000000E-03 0.  1.
</event>
<event>
 8    1  0.1132492E+005  0.1043930E+01  0.7957747E-01            NaN
         13   -1    0    0    0    0  0.00000000000E+00  0.00000000000E+00  0.74505805969E-08  0.10566000000E+00  0.10566000000E+00 0. -1.
     999900   -1    0    0    0    0 -0.00000000000E+00 -0.00000000000E+00 -0.74505805969E-08  0.93827000000E+00  0.93827000000E+00 0. -1.
     999902    2    1    2    0    0  0.21373133206E-01 -0.10632765746E-01 -0.60193635893E-02  0.10193109166E+01  0.10190135649E+01 0.  0.
     999903    2    3    3    0    0  0.87174443364E-01 -0.57670315252E-01 -0.79094428089E-01  0.13258530596E+00  0.19942065183E-01 0.  0.
         14    1    1    2    0    0 -0.21373133206E-01  0.10632765746E-01  0.60193635893E-02  0.24619083421E-01  0.00000000000E+00 0. -1.
     999901    1    3    3    0    0 -0.65801310158E-01  0.47037549507E-01  0.73075064500E-01  0.88672561062E+00  0.88000000000E+00 0. -1.
        -11    1    4    4    0    0  0.37447374178E-01 -0.31189968439E-01 -0.26331682621E-01  0.55396196573E-01  0.51100000000E-03 0.  1.
         11    1    4    4    0    0  0.49727069186E-01 -0.26480346813E-01 -0.52762745468E-01  0.77189109384E-01  0.51100000000E-03 0. -1.
</event>
<event>
 8    1  0.1132492E+005  0.1043930E+01  0.7957747E-01            NaN
         13   -1    0    0    0    0  0.00000000000E+00  0.00000000000E+00  0.74505805969E-08  0.10566000000E+00  0.10566000000E+00 0.  1.
     999900   -1    0    0    0    0 -0.00000000000E+00 -0.00000000000E+00 -0.74505805969E-08  0.93827000000E+00  0.93827000000E+00 0. -1.
     999902    2    1    2    0    0  0.19240188148E-01  0.70325390147E-03 -0.13571552954E-01  0.10203743965E+01  0.10201024667E+01 0.  0.
     999903    2    3    3    0    0 -0.10330549735E-01  0.12852588566E+00  0.13983421222E-02  0.13052207647E+00  0.20209738809E-01 0.  0.
         14    1    1    2    0    0 -0.19240188148E-01 -0.70325390147E-03  0.13571552954E-01  0.23555603486E-01  0.00000000000E+00 0.  1.
     999901    1    3    3    0    0  0.29570737883E-01 -0.12782263176E+00 -0.14969895076E-01  0.88985232004E+00  0.88000000000E+00 0.  1.
        -11    1    4    4    0    0  0.92249374185E-03  0.90347447072E-01 -0.34679497165E-02  0.90420130410E-01  0.51100000000E-03 0.  1.
         11    1    4    4    0    0 -0.11253043477E-01  0.38178438588E-01  0.48662918387E-02  0.40101946060E-01  0.51100000000E-03 0. -1.
</event>
<event>
 8    1  0.1132492E+005  0.1043930E+01  0.7957747E-01            NaN
         13   -1    0    0    0    0  0.00000000000E+00  0.00000000000E+00  0.74505805969E-08  0.10566000000E+00  0.10566000000E+00 0.  1.
     999900   -1    0    0    0    0 -0.00000000000E+00 -0.00000000000E+00 -0.74505805969E-08  0.93827000000E+00  0.93827000000E+00 0.  1.
     999902    2    1    2    0    0 -0.18484545552E-01  0.57787887190E-02 -0.14195158253E-01  0.10199180167E+01  0.10196353198E+01 0.  0.
     999903    2    3    3    0    0 -0.37982721870E-01  0.70141879794E-01  0.10056867938E+00  0.12992165448E+00  0.20075023518E-01 0.  0.
         14    1    1    2    0    0  0.18484545552E-01 -0.57787887190E-02  0.14195158253E-01  0.24011983283E-01  0.00000000000E+00 0.  1.
     999901    1    3    3    0    0  0.19498176318E-01 -0.64363091075E-01 -0.11476383763E+00  0.88999636224E+00  0.88000000000E+00 0.  1.
        -11    1    4    4    0    0 -0.22928285803E-01  0.29970586337E-01  0.59961609515E-01  0.70849121885E-01  0.51100000000E-03 0.  1.
         11    1    4    4    0    0 -0.15054436067E-01  0.40171293456E-01  0.40607069860E-01  0.59072532592E-01  0.51100000000E-03 0. -1.
</event>
<event>
 8    1  0.1132492E+005  0.1043930E+01  0.7957747E-01            NaN
         13   -1    0    0    0    0  0.00000000000E+00  0.00000000000E+00  0.74505805969E-08  0.10566000000E+00  0.10566000000E+00 0. -1.
     999900   -1    0    0    0    0 -0.00000000000E+00 -0.00000000000E+00 -0.74505805969E-08  0.93827000000E+00  0.93827000000E+00 0.  1.
     999902    2    1    2    0    0  0.60867879130E-02  0.21116152571E-01  0.85530255303E-02  0.10203483306E+01  0.10200757916E+01 0.  0.
     999903    2    3    3    0    0 -0.78434354855E-01  0.41287579258E-01 -0.93412829861E-01  0.13020915850E+00  0.19283566861E-01 0.  0.
         14    1    1    2    0    0 -0.60867879130E-02 -0.21116152571E-01 -0.85530255303E-02  0.23581669411E-01  0.00000000000E+00 0.  1.
     999901    1    3    3    0    0  0.84521142768E-01 -0.20171426687E-01  0.10196585539E+00  0.89013917209E+00  0.88000000000E+00 0. -1.
        -11    1    4    4    0    0 -0.66421042602E-01  0.32092123969E-01 -0.66436560846E-01  0.99276064886E-01  0.51100000000E-03 0.  1.
         11    1    4    4    0    0 -0.12013312253E-01  0.91954552890E-02 -0.26976269016E-01  0.30933093610E-01  0.51100000000E-03 0. -1.
</event>
<event>
 8    1  0.1132492E+005  0.1043930E+01  0.7957747E-01            NaN
         13   -1    0    0    0    0  0.00000000000E+00  0.00000000000E+00  0.74505805969E-08  0.10566000000E+00  0.10566000000E+00 0. -1.
     999900   -1    0    0    0    0 -0.00000000000E+00 -0.00000000000E+00 -0.74505805969E-08  0.93827000000E+00  0.93827000000E+00 0. -1.
     999902    2    1    2    0    0 -0.98652843437E-02 -0.26122280463E-02  0.21627242509E-01  0.10200158789E+01  0.10197355088E+01 0.  0.
     999903    2    3    3    0    0  0.99294206331E-01  0.80029916439E-01  0.83547954334E-02  0.12932980831E+00  0.19805801547E-01 0.  0.
         14    1    1    2    0    0  0.98652843437E-02  0.26122280463E-02 -0.21627242509E-01  0.23914121123E-01  0.00000000000E+00 0.  1.
     999901    1    3    3    0    0 -0.10915949067E+00 -0.82642144485E-01  0.13272447075E-01  0.89068607057E+00  0.88000000000E+00 0.  1.
        -11    1    4    4    0    0  0.43267483682E-01  0.30138405222E-01 -0.55713043568E-02  0.53025457723E-01  0.51100000000E-03 0. -1.
         11    1    4    4    0    0  0.56026722649E-01  0.49891511217E-01  0.13926099790E-01  0.76304350588E-01  0.51100000000E-03 0.  1.
</event>
<event>
 8    1  0.1132492E+005  0.1043930E+01  0.7957747E-01            NaN
         13   -1    0    0    0    0  0.00000000000E+00  0.00000000000E+00  0.74505805969E-08  0.10566000000E+00  0.10566000000E+00 0. -1.
     999900   -1    0    0    0    0 -0.00000000000E+00 -0.00000000000E+00 -0.74505805969E-08  0.93827000000E+00  0.93827000000E+00 0. -1.
     999902    2    1    2    0    0  0.13316084614E-01 -0.84813993855E-02 -0.15284654283E-01  0.10219556308E+01  0.10217193540E+01 0.  0.
     999903    2    3    3    0    0 -0.11110894081E+00 -0.65232337968E-01 -0.17319331414E-01  0.13139041933E+00  0.19053304358E-01 0.  0.
         14    1    1    2    0    0 -0.13316084614E-01  0.84813993855E-02  0.15284654283E-01  0.21974369196E-01  0.00000000000E+00 0. -1.
     999901    1    3    3    0    0  0.12442502542E+00  0.56750938582E-01  0.20346771305E-02  0.89056521148E+00  0.88000000000E+00 0. -1.
        -11    1    4    4    0    0 -0.68314743373E-01 -0.31085372180E-01 -0.15316543670E-01  0.76603277715E-01  0.51100000000E-03 0. -1.
         11    1    4    4    0    0 -0.42794197432E-01 -0.34146965787E-01 -0.20027877441E-02  0.54787141613E-01  0.51100000000E-03 0.  1.
</event>
<event>
 8    1  0.1132492E+005  0.1043930E+01  0.7957747E-01            NaN
         13   -1    0    0    0    0  0.00000000000E+00  0.00000000000E+00  0.74505805969E-08  0.10566000000E+00  0.10566000000E+00 0. -1.
     999900   -1    0    0    0    0 -0.00000000000E+00 -0.00000000000E+00 -0.74505805969E-08  0.93827000000E+00  0.93827000000E+00 0.  1.
     999902    2    1    2    0    0 -0.11877278465E-01  0.97372804023E-02  0.17170316418E-01  0.10208929833E+01  0.10206330287E+01 0.  0.
     999903    2    3    3    0    0 -0.69319246857E-01  0.62689653983E-01  0.94054082805E-01  0.13409275373E+00  0.19988632000E-01 0.  0.
         14    1    1    2    0    0  0.11877278465E-01 -0.97372804023E-02 -0.17170316418E-01  0.23037016718E-01  0.00000000000E+00 0.  1.
     999901    1    3    3    0    0  0.57441968392E-01 -0.52952373580E-01 -0.76883766388E-01  0.88680022955E+00  0.88000000000E+00 0.  1.
        -11    1    4    4    0    0  0.28926281751E-03  0.50392645364E-02  0.66097051608E-02  0.83322976038E-02  0.51100000000E-03 0.  1.
         11    1    4    4    0    0 -0.69608509674E-01  0.57650389446E-01  0.87444377645E-01  0.12576045613E+00  0.51100000000E-03 0. -1.
</event>
<event>
 8    1  0.1132492E+005  0.1043930E+01  0.7957747E-01            NaN
         13   -1    0    0    0    0  0.00000000000E+00  0.00000000000E+00  0.74505805969E-08  0.10566000000E+00  0.10566000000E+00 0. -1.
     999900   -1    0    0    0    0 -0.00000000000E+00 -0.00000000000E+00 -0.74505805969E-08  0.93827000000E+00  0.93827000000E+00 0. -1.
     999902    2    1    2    0    0 -0.20722973465E-01  0.69264036472E-02 -0.10159462527E-01  0.10198337062E+01  0.10195489968E+01 0.  0.
     999903    2    3    3    0    0 -0.47560888782E-01 -0.11235500546E+00 -0.42630753302E-01  0.13078774957E+00  0.20059135480E-01 0.  0.
         14    1    1    2    0    0  0.20722973465E-01 -0.69264036472E-02  0.10159462527E-01  0.24096293814E-01  0.00000000000E+00 0. -1.
     999901    1    3    3    0    0  0.26837915317E-01  0.11928140911E+00  0.32471290775E-01  0.88904595662E+00  0.88000000000E+00 0. -1.
        -11    1    4    4    0    0 -0.31474744845E-01 -0.93998208289E-01 -0.32061999901E-01  0.10418519896E+00  0.51100000000E-03 0.  1.
         11    1    4    4    0    0 -0.16086143937E-01 -0.18356797170E-01 -0.10568753401E-01  0.26602550603E-01  0.51100000000E-03 0. -1.
</event>
<event>
 8    1  0.1132492E+005  0.1043930E+01  0.7957747E-01            NaN
         13   -1    0    0    0    0  0.00000000000E+00  0.00000000000E+00  0.74505805969E-08  0.10566000000E+00  0.10566000000E+00 0. -1.
     999900   -1    0    0    0    0 -0.00000000000E+00 -0.00000000000E+00 -0.74505805969E-08  0.93827000000E+00  0.93827000000E+00 0.  1.
     999902    2    1    2    0    0 -0.19615212346E-01 -0.74736422412E-02  0.63665562316E-02  0.10219949841E+01  0.10217595620E+01 0.  0.
     999903    2    3    3    0    0 -0.41527623744E-01  0.10145861711E+00 -0.70008297355E-01  0.13172563770E+00  0.20786712334E-01 0.  0.
         14    1    1    2    0    0  0.19615212346E-01  0.74736422412E-02 -0.63665562316E-02  0.21935015887E-01  0.00000000000E+00 0.  1.
     999901    1    3    3    0    0  0.21912411398E-01 -0.10893225935E+00  0.76374853586E-01  0.89026934641E+00  0.88000000000E+00 0.  1.
        -11    1    4    4    0    0 -0.24704836401E-01  0.48724860913E-01 -0.45876476151E-01  0.71339702814E-01  0.51100000000E-03 0.  1.
         11    1    4    4    0    0 -0.16822787343E-01  0.52733756196E-01 -0.24131821204E-01  0.60385934887E-01  0.51100000000E-03 0. -1.
</event>
<event>
 8    1  0.1132492E+005  0.1043930E+01  0.7957747E-01            NaN
         13   -1    0    0    0    0  0.00000000000E+00  0.00000000000E+00  0.74505805969E-08  0.10566000000E+00  0.10566000000E+00 0.  1.
     999900   -1    0    0    0    0 -0.00000000000E+00 -0.00000000000E+00 -0.74505805969E-08  0.93827000000E+00  0.93827000000E+00 0.  1.
     999902    2    1    2    0    0  0.21698139857E-01 -0.58412494073E-02 -0.10860993333E-01  0.10189722228E+01  0.10186665304E+01 0.  0.
     999903    2    3    3    0    0 -0.32598979644E-01  0.40838644243E-01  0.11428337242E+00  0.12723890954E+00  0.19964031456E-01 0.  0.
         14    1    1    2    0    0 -0.21698139857E-01  0.58412494073E-02  0.10860993333E-01  0.24957777226E-01  0.00000000000E+00 0. -1.
     999901    1    3    3    0    0  0.54297119501E-01 -0.46679893650E-01 -0.12514436575E+00  0.89173331324E+00  0.88000000000E+00 0.  1.
        -11    1    4    4    0    0 -0.32966358650E-02  0.18879468780E-01  0.43713229437E-01  0.47732690038E-01  0.51100000000E-03 0.  1.
         11    1    4    4    0    0 -0.29302343779E-01  0.21959175463E-01  0.70570142979E-01  0.79506219499E-01  0.51100000000E-03 0. -1.
</event>
<event>
 8    1  0.1132492E+005  0.1043930E+01  0.7957747E-01            NaN
         13   -1    0    0    0    0  0.00000000000E+00  0.00000000000E+00  0.74505805969E-08  0.10566000000E+00  0.10566000000E+00 0.  1.
     999900   -1    0    0    0    0 -0.00000000000E+00 -0.00000000000E+00 -0.74505805969E-08  0.93827000000E+00  0.93827000000E+00 0. -1.
     999902    2    1    2    0    0 -0.10812450245E-01 -0.17442939816E-01  0.11084599311E-01  0.10206054727E+01  0.10203389130E+01 0.  0.
     999903    2    3    3    0    0 -0.11892007239E-01  0.99852747354E-01  0.79804125010E-01  0.13016635810E+00  0.21507938612E-01 0.  0.
         14    1    1    2    0    0  0.10812450245E-01  0.17442939816E-01 -0.11084599311E-01  0.23324527254E-01  0.00000000000E+00 0.  1.
     999901    1    3    3    0    0  0.10795569943E-02 -0.11729568717E+00 -0.68719525699E-01  0.89043911464E+00  0.88000000000E+00 0. -1.
        -11    1    4    4    0    0 -0.17115512710E-01  0.61754090955E-01  0.45085226483E-01  0.78354625218E-01  0.51100000000E-03 0.  1.
         11    1    4    4    0    0  0.52235054710E-02  0.38098656399E-01  0.34718898526E-01  0.51811732887E-01  0.51100000000E-03 0. -1.
</event>
<event>
 8    1  0.1132492E+005  0.1043930E+01  0.7957747E-01            NaN
         13   -1    0    0    0    0  0.00000000000E+00  0.00000000000E+00  0.74505805969E-08  0.10566000000E+00  0.10566000000E+00 0. -1.
     999900   -1    0    0    0    0 -0.00000000000E+00 -0.00000000000E+00 -0.74505805969E-08  0.93827000000E+00  0.93827000000E+00 0. -1.
     999902    2    1    2    0    0 -0.18492661623E-01  0.63462560254E-02  0.12918723792E-01  0.10204961159E+01  0.10202270216E+01 0.  0.
     999903    2    3    3    0    0 -0.35170472162E-01 -0.62239005348E-01 -0.10632468784E+00  0.12965321244E+00  0.19858508292E-01 0.  0.
         14    1    1    2    0    0  0.18492661623E-01 -0.63462560254E-02 -0.12918723792E-01  0.23433884096E-01  0.00000000000E+00 0.  1.
     999901    1    3    3    0    0  0.16677810539E-01  0.68585261374E-01  0.11924341163E+00  0.89084290347E+00  0.88000000000E+00 0.  1.
        -11    1    4    4    0    0 -0.35485512903E-01 -0.54554771984E-01 -0.85529574779E-01  0.10747564401E+00  0.51100000000E-03 0.  1.
         11    1    4    4    0    0  0.31504074163E-03 -0.76842333644E-02 -0.20795113062E-01  0.22177568427E-01  0.51100000000E-03 0. -1.
</event>
<event>
 8    1  0.1132492E+005  0.1043930E+01  0.7957747E-01            NaN
         13   -1    0    0    0    0  0.00000000000E+00  0.00000000000E+00  0.74505805969E-08  0.10566000000E+00  0.10566000000E+00 0.  1.
     999900   -1    0    0    0    0 -0.00000000000E+00 -0.00000000000E+00 -0.74505805969E-08  0.93827000000E+00  0.93827000000E+00 0.  1.
     999902    2    1    2    0    0 -0.99533529057E-03  0.40750134493E-02  0.22756387845E-01  0.10207902158E+01  0.10205279099E+01 0.  0.
     999903    2    3    3    0    0  0.15233817075E-02  0.11981611112E-01 -0.12633228272E+00  0.12821176547E+00  0.18235444921E-01 0.  0.
         14    1    1    2    0    0  0.99533529057E-03 -0.40750134493E-02 -0.22756387845E-01  0.23139784241E-01  0.00000000000E+00 0. -1.
     999901    1    3    3    0    0 -0.25187169981E-02 -0.79065976623E-02  0.14908867057E+00  0.89257845029E+00  0.88000000000E+00 0. -1.
        -11    1    4    4    0    0  0.89041646961E-02  0.17724108904E-02 -0.60997320016E-01  0.61671385256E-01  0.51100000000E-03 0. -1.
         11    1    4    4    0    0 -0.73807829887E-02  0.10209200221E-01 -0.65334962706E-01  0.66540380217E-01  0.51100000000E-03 0.  1.
</event>
<event>
 8    1  0.1132492E+005  0.1043930E+01  0.7957747E-01            NaN
         13   -1    0    0    0    0  0.00000000000E+00  0.00000000000E+00  0.74505805969E-08  0.10566000000E+00  0.10566000000E+00 0. -1.
     999900   -1    0    0    0    0 -0.00000000000E+00 -0.00000000000E+00 -0.74505805969E-08  0.93827000000E+00  0.93827000000E+00 0. -1.
     999902    2    1    2    0    0  0.17883644088E-02 -0.21965395341E-01 -0.99303113824E-02  0.10197579516E+01  0.10194714277E+01 0.  0.
     999903    2    3    3    0    0 -0.26705741063E-01 -0.16311203617E-01  0.12376099214E+00  0.12918664700E+00  0.19828127005E-01 0.  0.
         14    1    1    2    0    0 -0.17883644088E-02  0.21965395341E-01  0.99303113824E-02  0.24172048401E-01  0.00000000000E+00 0. -1.
     999901    1    3    3    0    0  0.28494105472E-01 -0.56541917240E-02 -0.13369130352E+00  0.89057130459E+00  0.88000000000E+00 0. -1.
        -11    1    4    4    0    0 -0.12860309563E-02  0.38680374509E-02  0.21793951369E-01  0.22177759729E-01  0.51100000000E-03 0.  1.
         11    1    4    4    0    0 -0.25419710107E-01 -0.20179241068E-01  0.10196704077E+00  0.10700888728E+00  0.51100000000E-03 0. -1.
</event>
<event>
 8    1  0.1132492E+005  0.1043930E+01  0.7957747E-01            NaN
         13   -1    0    0    0    0  0.00000000000E+00  0.00000000000E+00  0.74505805969E-08  0.10566000000E+00  0.10566000000E+00 0. -1.
     999900   -1    0    0    0    0 -0.00000000000E+00 -0.00000000000E+00 -0.74505805969E-08  0.93827000000E+00  0.93827000000E+00 0.  1.
     999902    2    1    2    0    0  0.17429923266E-01  0.18660061417E-01 -0.10738261106E-01  0.10162296323E+01  0.10158520341E+01 0.  0.
     999903    2    3    3    0    0 -0.11786658713E+00  0.38284942304E-01  0.68303738889E-02  0.12550019047E+00  0.18584257598E-01 0.  0.
         14    1    1    2    0    0 -0.17429923266E-01 -0.18660061417E-01  0.10738261106E-01  0.27700367664E-01  0.00000000000E+00 0. -1.
     999901    1    3    3    0    0  0.13529651040E+00 -0.19624880887E-01 -0.17568634995E-01  0.89072944187E+00  0.88000000000E+00 0.  1.
        -11    1    4    4    0    0 -0.69601831557E-01  0.13964319672E-01 -0.24073119790E-03  0.70991099812E-01  0.51100000000E-03 0. -1.
         11    1    4    4    0    0 -0.48264755575E-01  0.24320622632E-01  0.70711050868E-02  0.54509090656E-01  0.51100000000E-03 0.  1.
</event>
<event>
 8    1  0.1132492E+005  0.1043930E+01  0.7957747E-01            NaN
         13   -1    0    0    0    0  0.00000000000E+00  0.00000000000E+00  0.74505805969E-08  0.10566000000E+00  0.10566000000E+00 0.  1.
     999900   -1    0    0    0    0 -0.00000000000E+00 -0.00000000000E+00 -0.74505805969E-08  0.93827000000E+00  0.93827000000E+00 0. -1.
     999902    2    1    2    0    0  0.11925861109E-01  0.16905475257E-01 -0.11002494339E-01  0.10204976263E+01  0.10202285671E+01 0.  0.
     999903    2    3    3    0    0 -0.21797253466E-01  0.60676231920E-01  0.11168781825E+00  0.13026954291E+00  0.18419003401E-01 0.  0.
         14    1    1    2    0    0 -0.11925861109E-01 -0.16905475257E-01  0.11002494339E-01  0.23432373728E-01  0.00000000000E+00 0.  1.
     999901    1    3    3    0    0  0.33723114575E-01 -0.43770756663E-01 -0.12269031259E+00  0.89022808336E+00  0.88000000000E+00 0. -1.
        -11    1    4    4    0    0 -0.97854149224E-02  0.88752256383E-02  0.15604803547E-01  0.20452261246E-01  0.51100000000E-03 0. -1.
         11    1    4    4    0    0 -0.12011838544E-01  0.51801006282E-01  0.96083014705E-01  0.10981728167E+00  0.51100000000E-03 0.  1.
</event>
<event>
 8    1  0.1132492E+005  0.1043930E+01  0.7957747E-01            NaN
         13   -1    0    0    0    0  0.00000000000E+00  0.00000000000E+00  0.74505805969E-08  0.10566000000E+00  0.10566000000E+00 0. -1.
     999900   -1    0    0    0    0 -0.00000000000E+00 -0.00000000000E+00 -0.74505805969E-08  0.93827000000E+00  0.93827000000E+00 0.  1.
     999902    2    1    2    0    0 -0.10437719764E-01 -0.39703333942E-02  0.20891747997E-01  0.10202408743E+01  0.10199658166E+01 0.  0.
     999903    2    3    3    0    0  0.34977128207E-01  0.18024855994E-01 -0.11958881398E+00  0.12767094145E+00  0.21215322978E-01 0.  0.
         14    1    1    2    0    0  0.10437719764E-01  0.39703333942E-02 -0.20891747997E-01  0.23689125680E-01  0.00000000000E+00 0.  1.
     999901    1    3    3    0    0 -0.45414847971E-01 -0.21995189388E-01  0.14048056198E+00  0.89256993287E+00  0.88000000000E+00 0. -1.
        -11    1    4    4    0    0  0.22195732267E-01  0.21347529605E-01 -0.72699933622E-01  0.78955107630E-01  0.51100000000E-03 0.  1.
         11    1    4    4    0    0  0.12781395940E-01 -0.33226736114E-02 -0.46888880361E-01  0.48715833818E-01  0.51100000000E-03 0. -1.
</event>
<event>
 8    1  0.1132492E+005  0.1043930E+01  0.7957747E-01            NaN
         13   -1    0    0    0    0  0.00000000000E+00  0.00000000000E+00  0.74505805969E-08  0.10566000000E+00  0.10566000000E+00 0.  1.
     999900   -1    0    0    0    0 -0.00000000000E+00 -0.00000000000E+00 -0.74505805969E-08  0.93827000000E+00  0.93827000000E+00 0.  1.
     999902    2    1    2    0    0 -0.47843964146E-02  0.10626054723E-01 -0.20555338501E-01  0.10203010891E+01  0.10200274443E+01 0.  0.
     999903    2    3    3    0    0  0.75069846125E-01  0.43533898427E-01  0.93182244276E-01  0.12878784528E+00  0.19305344682E-01 0.  0.
         14    1    1    2    0    0  0.47843964146E-02 -0.10626054723E-01  0.20555338501E-01  0.23628910870E-01  0.00000000000E+00 0.  1.
     999901    1    3    3    0    0 -0.79854242540E-01 -0.32907843704E-01 -0.11373758278E+00  0.89151324385E+00  0.88000000000E+00 0. -1.
        -11    1    4    4    0    0  0.34102979390E-01  0.23513159674E-01  0.31310904748E-01  0.51927986272E-01  0.51100000000E-03 0. -1.
         11    1    4    4    0    0  0.40966866735E-01  0.20020738753E-01  0.61871339528E-01  0.76859859005E-01  0.51100000000E-03 0.  1.
</event>
<event>
 8    1  0.1132492E+005  0.1043930E+01  0.7957747E-01            NaN
         13   -1    0    0    0    0  0.00000000000E+00  0.00000000000E+00  0.74505805969E-08  0.10566000000E+00  0.10566000000E+00 0.  1.
     999900   -1    0    0    0    0 -0.00000000000E+00 -0.00000000000E+00 -0.74505805969E-08  0.93827000000E+00  0.93827000000E+00 0.  1.
     999902    2    1    2    0    0  0.22647646633E-01 -0.37901591475E-03  0.17013825459E-02  0.10212153736E+01  0.10209627246E+01 0.  0.
     999903    2    3    3    0    0  0.12527592610E-01  0.12921628396E+00 -0.81436503706E-02  0.13161193276E+00  0.20039790046E-01 0.  0.
         14    1    1    2    0    0 -0.22647646633E-01  0.37901591475E-03 -0.17013825459E-02  0.22714626426E-01  0.00000000000E+00 0. -1.
     999901    1    3    3    0    0  0.10120054024E-01 -0.12959529988E+00  0.98450329165E-02  0.88960344082E+00  0.88000000000E+00 0.  1.
        -11    1    4    4    0    0  0.74923724825E-02  0.89673779690E-01 -0.14794939862E-01  0.91195799113E-01  0.51100000000E-03 0.  1.
         11    1    4    4    0    0  0.50352201272E-02  0.39542504271E-01  0.66512894914E-02  0.40416133643E-01  0.51100000000E-03 0. -1.
</event>
<event>
 8    1  0.1132492E+005  0.1043930E+01  0.7957747E-01            NaN
         13   -1    0    0    0    0  0.00000000000E+00  0.00000000000E+00  0.74505805969E-08  0.10566000000E+00  0.10566000000E+00 0. -1.
     999900   -1    0    0    0    0 -0.00000000000E+00 -0.00000000000E+00 -0.74505805969E-08  0.93827000000E+00  0.93827000000E+00 0.  1.
     999902    2    1    2    0    0  0.12874312147E-01 -0.47595025131E-02  0.19634118875E-01  0.10199738024E+01  0.10196924332E+01 0.  0.
     999903    2    3    3    0    0  0.95207376583E-01 -0.88904495685E-01  0.84180189126E-02  0.13206338226E+00  0.20035468097E-01 0.  0.
         14    1    1    2    0    0 -0.12874312147E-01  0.47595025131E-02 -0.19634118875E-01  0.23956197558E-01  0.00000000000E+00 0.  1.
     999901    1    3    3    0    0 -0.82333064436E-01  0.84144993172E-01  0.11216099962E-01  0.88791042019E+00  0.88000000000E+00 0. -1.
        -11    1    4    4    0    0  0.26317560656E-01 -0.23958077322E-01 -0.66028131367E-02  0.36200300139E-01  0.51100000000E-03 0.  1.
         11    1    4    4    0    0  0.68889815927E-01 -0.64946418363E-01  0.15020832049E-01  0.95863082118E-01  0.51100000000E-03 0. -1.
</event>
<event>
 8    1  0.1132492E+005  0.1043930E+01  0.7957747E-01            NaN
         13   -1    0    0    0    0  0.00000000000E+00  0.00000000000E+00  0.74505805969E-08  0.10566000000E+00  0.10566000000E+00 0.  1.
     999900   -1    0    0    0    0 -0.00000000000E+00 -0.00000000000E+00 -0.74505805969E-08  0.93827000000E+00  0.93827000000E+00 0. -1.
     999902    2    1    2    0    0  0.87051611567E-02 -0.46134561188E-02 -0.21744520674E-01  0.10200576732E+01  0.10197782939E+01 0.  0.
     999903    2    3    3    0    0 -0.85962837498E-01  0.79660656745E-02  0.91799360090E-01  0.12763821621E+00  0.20281126459E-01 0.  0.
         14    1    1    2    0    0 -0.87051611567E-02  0.46134561188E-02  0.21744520674E-01  0.23872326813E-01  0.00000000000E+00 0.  1.
     999901    1    3    3    0    0  0.94667998654E-01 -0.12579521793E-01 -0.11354388076E+00  0.89241945698E+00  0.88000000000E+00 0. -1.
        -11    1    4    4    0    0 -0.19758386875E-01 -0.48605714076E-02  0.14131777131E-01  0.24778766156E-01  0.51100000000E-03 0. -1.
         11    1    4    4    0    0 -0.66204450622E-01  0.12826637082E-01  0.77667582959E-01  0.10285945005E+00  0.51100000000E-03 0.  1.
</event>
<event>
 8    1  0.1132492E+005  0.1043930E+01  0.7957747E-01            NaN
         13   -1    0    0    0    0  0.00000000000E+00  0.00000000000E+00  0.74505805969E-08  0.10566000000E+00  0.10566000000E+00 0.  1.
     999900   -1    0    0    0    0 -0.00000000000E+00 -0.00000000000E+00 -0.74505805969E-08  0.93827000000E+00  0.93827000000E+00 0.  1.
     999902    2    1    2    0    0  0.79641376856E-02  0.59602258562E-02 -0.21659089635E-01  0.10200958240E+01  0.10198173475E+01 0.  0.
     999903    2    3    3    0    0  0.52142249469E-01 -0.55679164491E-01  0.10123831839E+00  0.12832517362E+00  0.19979227567E-01 0.  0.
         14    1    1    2    0    0 -0.79641376856E-02 -0.59602258562E-02  0.21659089635E-01  0.23834175991E-01  0.00000000000E+00 0.  1.
     999901    1    3    3    0    0 -0.44178111783E-01  0.61639390347E-01 -0.12289740803E+00  0.89177065039E+00  0.88000000000E+00 0.  1.
        -11    1    4    4    0    0  0.10976013550E-01 -0.68907617253E-02  0.29914896946E-01  0.32605484982E-01  0.51100000000E-03 0. -1.
         11    1    4    4    0    0  0.41166235919E-01 -0.48788402765E-01  0.71323421448E-01  0.95719688634E-01  0.51100000000E-03 0.  1.
</event>
<event>
 8    1  0.1132492E+005  0.1043930E+01  0.7957747E-01            NaN
         13   -1    0    0    0    0  0.00000000000E+00  0.00000000000E+00  0.74505805969E-08  0.10566000000E+00  0.10566000000E+00 0.  1.
     999900   -1    0    0    0    0 -0.00000000000E+00 -0.00000000000E+00 -0.74505805969E-08  0.93827000000E+00  0.93827000000E+00 0. -1.
     999902    2    1    2    0    0 -0.24246346587E-01 -0.10350524058E-02  0.15349340451E-01  0.10152148662E+01  0.10148086843E+01 0.  0.
     999903    2    3    3    0    0 -0.66361828723E-01  0.90673579250E-01 -0.55211245731E-01  0.12664129960E+00  0.19082631465E-01 0.  0.
         14    1    1    2    0    0  0.24246346587E-01  0.10350524058E-02 -0.15349340451E-01  0.28715133790E-01  0.00000000000E+00 0. -1.
     999901    1    3    3    0    0  0.42115482137E-01 -0.91708631656E-01  0.70560586183E-01  0.88857356661E+00  0.88000000000E+00 0.  1.
        -11    1    4    4    0    0 -0.22777450409E-01  0.17435680865E-01 -0.15644240270E-01  0.32677493616E-01  0.51100000000E-03 0.  1.
         11    1    4    4    0    0 -0.43584378314E-01  0.73237898385E-01 -0.39567005462E-01  0.93963805984E-01  0.51100000000E-03 0. -1.
</event>
<event>
 8    1  0.1132492E+005  0.1043930E+01  0.7957747E-01            NaN
         13   -1    0    0    0    0  0.00000000000E+00  0.00000000000E+00  0.74505805969E-08  0.10566000000E+00  0.10566000000E+00 0. -1.
     999900   -1    0    0    0    0 -0.00000000000E+00 -0.00000000000E+00 -0.74505805969E-08  0.93827000000E+00  0.93827000000E+00 0.  1.
     999902    2    1    2    0    0 -0.18452185016E-01 -0.13282573206E-01  0.10162684875E-02  0.10211716458E+01  0.10209180122E+01 0.  0.
     999903    2    3    3    0    0  0.12481533437E+00  0.16006826984E-01  0.19866121214E-01  0.12890555994E+00  0.19669631632E-01 0.  0.
         14    1    1    2    0    0  0.18452185016E-01  0.13282573206E-01 -0.10162684875E-02  0.22758354169E-01  0.00000000000E+00 0.  1.
     999901    1    3    3    0    0 -0.14326751939E+00 -0.29289400190E-01 -0.18849852726E-01  0.89226608589E+00  0.88000000000E+00 0. -1.
        -11    1    4    4    0    0  0.44754248740E-01 -0.12841323031E-02  0.13421325470E-01  0.46743821778E-01  0.51100000000E-03 0.  1.
         11    1    4    4    0    0  0.80061085630E-01  0.17290959287E-01  0.64447957436E-02  0.82161738167E-01  0.51100000000E-03 0. -1.
</event>
<event>
 8    1  0.1132492E+005  0.1043930E+01  0.7957747E-01            NaN
         13   -1    0    0    0    0  0.00000000000E+00  0.00000000000E+00  0.74505805969E-08  0.10566000000E+00  0.10566000000E+00 0.  1.
     999900   -1    0    0    0    0 -0.00000000000E+00 -0.00000000000E+00 -0.74505805969E-08  0.93827000000E+00  0.93827000000E+00 0. -1.
     999902    2    1    2    0    0  0.13631389871E-01 -0.29279695856E-02 -0.19433213038E-01  0.10200126932E+01  0.10197322476E+01 0.  0.
     999903    2    3    3    0    0  0.67985112497E-01 -0.63566970000E-01  0.88418834636E-01  0.12969618783E+00  0.18451981576E-01 0.  0.
         14    1    1    2    0    0 -0.13631389871E-01  0.29279695856E-02  0.19433213038E-01  0.23917306803E-01  0.00000000000E+00 0.  1.
     999901    1    3    3    0    0 -0.54353722626E-01  0.60639000415E-01 -0.10785204767E+00  0.89031650536E+00  0.88000000000E+00 0.  1.
        -11    1    4    4    0    0  0.12572208519E-01 -0.20714176040E-01  0.29359947416E-01  0.38071053956E-01  0.51100000000E-03 0.  1.
         11    1    4    4    0    0  0.55412903978E-01 -0.42852793960E-01  0.59058887221E-01  0.91625133878E-01  0.51100000000E-03 0. -1.
</event>
<event>
 8    1  0.1132492E+005  0.1043930E+01  0.7957747E-01            NaN
         13   -1    0    0    0    0  0.00000000000E+00  0.00000000000E+00  0.74505805969E-08  0.10566000000E+00  0.10566000000E+00 0.  1.
     999900   -1    0    0    0    0 -0.00000000000E+00 -0.00000000000E+00 -0.74505805969E-08  0.93827000000E+00  0.93827000000E+00 0.  1.
     999902    2    1    2    0    0 -0.45410154972E-03  0.10513629794E-01 -0.20967986648E-01  0.10204694142E+01  0.10201996992E+01 0.  0.
     999903    2    3    3    0    0  0.23643690954E-01 -0.11492954802E+00 -0.53690905641E-01  0.13064500242E+00  0.20434729683E-01 0.  0.
         14    1    1    2    0    0  0.45410154972E-03 -0.10513629794E-01  0.20967986648E-01  0.23460585750E-01  0.00000000000E+00 0.  1.
     999901    1    3    3    0    0 -0.24097792504E-01  0.12544317782E+00  0.32722918993E-01  0.88982441183E+00  0.88000000000E+00 0. -1.
        -11    1    4    4    0    0  0.17969219977E-01 -0.10805799216E+00 -0.45804460624E-01  0.11873387162E+00  0.51100000000E-03 0.  1.
         11    1    4    4    0    0  0.56744709769E-02 -0.68715558677E-02 -0.78864450170E-02  0.11911130799E-01  0.51100000000E-03 0. -1.
</event>
<event>
 8    1  0.1132492E+005  0.1043930E+01  0.7957747E-01            NaN
         13   -1    0    0    0    0  0.00000000000E+00  0.00000000000E+00  0.74505805969E-08  0.10566000000E+00  0.10566000000E+00 0. -1.
     999900   -1    0    0    0    0 -0.00000000000E+00 -0.00000000000E+00 -0.74505805969E-08  0.93827000000E+00  0.93827000000E+00 0. -1.
     999902    2    1    2    0    0  0.14645376472E-01 -0.83095970938E-02 -0.15644835070E-01  0.10209452807E+01  0.10206865184E+01 0.  0.
     999903    2    3    3    0    0  0.11883859087E+00  0.38554441341E-02  0.53831362557E-01  0.13199581299E+00  0.19687659143E-01 0.  0.
         14    1    1    2    0    0 -0.14645376472E-01  0.83095970938E-02  0.15644835070E-01  0.22984719276E-01  0.00000000000E+00 0. -1.
     999901    1    3    3    0    0 -0.10419321440E+00 -0.12165041228E-01 -0.69476197626E-01  0.88894946774E+00  0.88000000000E+00 0. -1.
        -11    1    4    4    0    0  0.23045200933E-01 -0.35193450874E-02  0.36493360490E-02  0.23601818797E-01  0.51100000000E-03 0.  1.
         11    1    4    4    0    0  0.95793389933E-01  0.73747892215E-02  0.50182026508E-01  0.10839399419E+00  0.51100000000E-03 0. -1.
</event>
<event>
 8    1  0.1132492E+005  0.1043930E+01  0.7957747E-01            NaN
         13   -1    0    0    0    0  0.00000000000E+00  0.00000000000E+00  0.74505805969E-08  0.10566000000E+00  0.10566000000E+00 0. -1.
     999900   -1    0    0    0    0 -0.00000000000E+00 -0.00000000000E+00 -0.74505805969E-08  0.93827000000E+00  0.93827000000E+00 0.  1.
     999902    2    1    2    0    0  0.21537480283E-01  0.78667580174E-02  0.42193255930E-02  0.10206158059E+01  0.10203494850E+01 0.  0.
     999903    2    3    3    0    0 -0.97330449281E-01  0.72004920642E-01  0.41574039401E-01  0.12952733484E+00  0.19773840440E-01 0.  0.
         14    1    1    2    0    0 -0.21537480283E-01 -0.78667580174E-02 -0.42193255930E-02  0.23314194112E-01  0.00000000000E+00 0.  1.
     999901    1    3    3    0    0  0.11886792956E+00 -0.64138162625E-01 -0.37354713808E-01  0.89108847104E+00  0.88000000000E+00 0.  1.
        -11    1    4    4    0    0 -0.31701516708E-01  0.32333687454E-01  0.22175040299E-01  0.50422683776E-01  0.51100000000E-03 0. -1.
         11    1    4    4    0    0 -0.65628932573E-01  0.39671233189E-01  0.19398999102E-01  0.79104651067E-01  0.51100000000E-03 0.  1.
</event>
<event>
 8    1  0.1132492E+005  0.1043930E+01  0.7957747E-01            NaN
         13   -1    0    0    0    0  0.00000000000E+00  0.00000000000E+00  0.74505805969E-08  0.10566000000E+00  0.10566000000E+00 0. -1.
     999900   -1    0    0    0    0 -0.00000000000E+00 -0.00000000000E+00 -0.74505805969E-08  0.93827000000E+00  0.93827000000E+00 0. -1.
     999902    2    1    2    0    0  0.14649720821E-01 -0.47277360130E-02  0.18443718796E-01  0.10199063331E+01  0.10196233578E+01 0.  0.
     999903    2    3    3    0    0  0.60041192149E-01 -0.53039996208E-01 -0.99889148867E-01  0.12951477445E+00  0.19443476737E-01 0.  0.
         14    1    1    2    0    0 -0.14649720821E-01  0.47277360130E-02 -0.18443718796E-01  0.24023666893E-01  0.00000000000E+00 0.  1.
     999901    1    3    3    0    0 -0.45391471328E-01  0.48312260195E-01  0.11833286766E+00  0.89039155865E+00  0.88000000000E+00 0.  1.
        -11    1    4    4    0    0  0.29729338897E-01 -0.38965825770E-01 -0.59098607225E-01  0.76779396104E-01  0.51100000000E-03 0. -1.
         11    1    4    4    0    0  0.30311853252E-01 -0.14074170439E-01 -0.40790541642E-01  0.52735378348E-01  0.51100000000E-03 0.  1.
</event>
<event>
 8    1  0.1132492E+005  0.1043930E+01  0.7957747E-01            NaN
         13   -1    0    0    0    0  0.00000000000E+00  0.00000000000E+00  0.74505805969E-08  0.10566000000E+00  0.10566000000E+00 0. -1.
     999900   -1    0    0    0    0 -0.00000000000E+00 -0.00000000000E+00 -0.74505805969E-08  0.93827000000E+00  0.93827000000E+00 0.  1.
     999902    2    1    2    0    0  0.34870670015E-02 -0.17106538698E-01  0.15914351267E-01  0.10203067090E+01  0.10200331958E+01 0.  0.
     999903    2    3    3    0    0 -0.48513814547E-01 -0.12090864305E+00  0.17053824628E-01  0.13268051122E+00  0.18460632628E-01 0.  0.
         14    1    1    2    0    0 -0.34870670015E-02  0.17106538698E-01 -0.15914351267E-01  0.23623291022E-01  0.00000000000E+00 0.  1.
     999901    1    3    3    0    0  0.52000881548E-01  0.10380210435E+00 -0.11394733613E-02  0.88762619776E+00  0.88000000000E+00 0. -1.
        -11    1    4    4    0    0 -0.45619077176E-01 -0.99070240151E-01  0.18368653602E-01  0.11060597290E+00  0.51100000000E-03 0.  1.
         11    1    4    4    0    0 -0.28947373712E-02 -0.21838402897E-01 -0.13148289736E-02  0.22074538314E-01  0.51100000000E-03 0. -1.
</event>
<event>
 8    1  0.1132492E+005  0.1043930E+01  0.7957747E-01            NaN
         13   -1    0    0    0    0  0.00000000000E+00  0.00000000000E+00  0.74505805969E-08  0.10566000000E+00  0.10566000000E+00 0.  1.
     999900   -1    0    0    0    0 -0.00000000000E+00 -0.00000000000E+00 -0.74505805969E-08  0.93827000000E+00  0.93827000000E+00 0.  1.
     999902    2    1    2    0    0 -0.57329851119E-02  0.14310423289E-01  0.15166634400E-01  0.10223040403E+01  0.10220752755E+01 0.  0.
     999903    2    3    3    0    0  0.10915764464E+00 -0.14801332881E-02  0.72929696809E-01  0.13281780105E+00  0.20105855359E-01 0.  0.
         14    1    1    2    0    0  0.57329851119E-02 -0.14310423289E-01 -0.15166634400E-01  0.21625959679E-01  0.00000000000E+00 0. -1.
     999901    1    3    3    0    0 -0.11489062975E+00  0.15790556577E-01 -0.57763062409E-01  0.88948623928E+00  0.88000000000E+00 0.  1.
        -11    1    4    4    0    0  0.95551449528E-01  0.14265941633E-03  0.70838117913E-01  0.11894704674E+00  0.51100000000E-03 0. -1.
         11    1    4    4    0    0  0.13606195113E-01 -0.16227927044E-02  0.20915788964E-02  0.13870754302E-01  0.51100000000E-03 0.  1.
</event>
<event>
 8    1  0.1132492E+005  0.1043930E+01  0.7957747E-01            NaN
         13   -1    0    0    0    0  0.00000000000E+00  0.00000000000E+00  0.74505805969E-08  0.10566000000E+00  0.10566000000E+00 0. -1.
     999900   -1    0    0    0    0 -0.00000000000E+00 -0.00000000000E+00 -0.74505805969E-08  0.93827000000E+00  0.93827000000E+00 0. -1.
     999902    2    1    2    0    0 -0.18411108202E-01  0.17429978402E-02  0.14282545537E-01  0.10205633988E+01  0.10202958653E+01 0.  0.
     999903    2    3    3    0    0  0.17932231804E-01 -0.96727447441E-01 -0.80258949943E-01  0.12929724248E+00  0.24464542525E-01 0.  0.
         14    1    1    2    0    0  0.18411108202E-01 -0.17429978402E-02 -0.14282545537E-01  0.23366601244E-01  0.00000000000E+00 0. -1.
     999901    1    3    3    0    0 -0.36343340006E-01  0.98470445281E-01  0.94541495480E-01  0.89126615628E+00  0.88000000000E+00 0.  1.
        -11    1    4    4    0    0  0.13411601816E-01 -0.53476521228E-01 -0.29764423490E-01  0.62656136273E-01  0.51100000000E-03 0. -1.
         11    1    4    4    0    0  0.45206299874E-02 -0.43250926212E-01 -0.50494526452E-01  0.66641106206E-01  0.51100000000E-03 0.  1.
</event>
<event>
 8    1  0.1132492E+005  0.1043930E+01  0.7957747E-01            NaN
         13   -1    0    0    0    0  0.00000000000E+00  0.00000000000E+00  0.74505805969E-08  0.10566000000E+00  0.10566000000E+00 0. -1.
     999900   -1    0    0    0    0 -0.00000000000E+00 -0.00000000000E+00 -0.74505805969E-08  0.93827000000E+00  0.93827000000E+00 0.  1.
     999902    2    1    2    0    0  0.17206804184E-01 -0.20473624562E-02 -0.16426677612E-01  0.10200532008E+01  0.10197737155E+01 0.  0.
     999903    2    3    3    0    0 -0.39774239094E-02  0.84308803610E-01  0.95020226876E-01  0.12857882008E+00  0.19490387135E-01 0.  0.
         14    1    1    2    0    0 -0.17206804184E-01  0.20473624562E-02  0.16426677612E-01  0.23876799212E-01  0.00000000000E+00 0.  1.
     999901    1    3    3    0    0  0.21184228093E-01 -0.86356166066E-01 -0.11144690449E+00  0.89147438071E+00  0.88000000000E+00 0. -1.
        -11    1    4    4    0    0 -0.11827911217E-01  0.55759626777E-01  0.63351136791E-01  0.85221259763E-01  0.51100000000E-03 0.  1.
         11    1    4    4    0    0  0.78504873073E-02  0.28549176833E-01  0.31669090085E-01  0.43357560317E-01  0.51100000000E-03 0. -1.
</event>
<event>
 7    1  0.1132492E+005  0.1043930E+01  0.7957747E-01            NaN
         13   -1    0    0    0    0  0.00000000000E+00  0.00000000000E+00  0.74505805969E-08  0.10566000000E+00  0.10566000000E+00 0. -1.
     999900   -1    0    0    0    0 -0.00000000000E+00 -0.00000000000E+00 -0.74505805969E-08  0.93827000000E+00  0.93827000000E+00 0.  1.
     999902    2    1    2    0    0  0.16599683931E-01 -0.10693799307E-01 -0.13212103870E-01  0.10201714954E+01  0.10198948051E+01 0.  0.
         14    1    1    2    0    0 -0.16599683931E-01  0.10693799307E-01  0.13212103870E-01  0.23758504559E-01  0.00000000000E+00 0. -1.
     999901    1    3    3    0    0 -0.61733909231E-01 -0.10378392768E+00  0.14116868142E-01  0.88835886057E+00  0.88000000000E+00 0.  1.
        -11    1    3    3    0    0  0.42598603966E-01  0.21572256778E-01 -0.14351480076E-02  0.47773675734E-01  0.51100000000E-03 0.  1.
         11    1    3    3    0    0  0.35734989196E-01  0.71517871591E-01 -0.25893824004E-01  0.84038959133E-01  0.51100000000E-03 0. -1.
</event>
<event>
 8    1  0.1132492E+005  0.1043930E+01  0.7957747E-01            NaN
         13   -1    0    0    0    0  0.00000000000E+00  0.00000000000E+00  0.74505805969E-08  0.10566000000E+00  0.10566000000E+00 0. -1.
     999900   -1    0    0    0    0 -0.00000000000E+00 -0.00000000000E+00 -0.74505805969E-08  0.93827000000E+00  0.93827000000E+00 0.  1.
     999902    2    1    2    0    0  0.14961216673E-01 -0.19130509257E-01  0.57608026775E-02  0.10189700073E+01  0.10186642600E+01 0.  0.
     999903    2    3    3    0    0  0.43641068026E-02  0.10244260025E-01  0.12799981366E+00  0.12997194676E+00  0.19615411239E-01 0.  0.
         14    1    1    2    0    0 -0.14961216673E-01  0.19130509257E-01 -0.57608026775E-02  0.24959992713E-01  0.00000000000E+00 0.  1.
     999901    1    3    3    0    0  0.10597109871E-01 -0.29374769282E-01 -0.12223901098E+00  0.88899806052E+00  0.88000000000E+00 0.  1.
        -11    1    4    4    0    0  0.28150000401E-02  0.15599375798E-01  0.73862911946E-01  0.75546380673E-01  0.51100000000E-03 0. -1.
         11    1    4    4    0    0  0.15491067624E-02 -0.53551157726E-02  0.54136901709E-01  0.54425566092E-01  0.51100000000E-03 0.  1.
</event>
<event>
 8    1  0.1132492E+005  0.1043930E+01  0.7957747E-01            NaN
         13   -1    0    0    0    0  0.00000000000E+00  0.00000000000E+00  0.74505805969E-08  0.10566000000E+00  0.10566000000E+00 0. -1.
     999900   -1    0    0    0    0 -0.00000000000E+00 -0.00000000000E+00 -0.74505805969E-08  0.93827000000E+00  0.93827000000E+00 0.  1.
     999902    2    1    2    0    0 -0.23179656745E-01 -0.10270903682E-01  0.41922021653E-02  0.10182324805E+01  0.10179081598E+01 0.  0.
     999903    2    3    3    0    0  0.67489146022E-01 -0.36298173273E-01  0.10034729548E+00  0.12798304774E+00  0.20922203194E-01 0.  0.
         14    1    1    2    0    0  0.23179656745E-01  0.10270903682E-01 -0.41922021653E-02  0.25697519496E-01  0.00000000000E+00 0. -1.
     999901    1    3    3    0    0 -0.90668802767E-01  0.26027269591E-01 -0.96155093313E-01  0.89024943276E+00  0.88000000000E+00 0.  1.
        -11    1    4    4    0    0  0.18282865400E-01 -0.69796139827E-02  0.41366222963E-01  0.45764655596E-01  0.51100000000E-03 0.  1.
         11    1    4    4    0    0  0.49206280621E-01 -0.29318559291E-01  0.58981072516E-01  0.82218392149E-01  0.51100000000E-03 0. -1.
</event>
<event>
 8    1  0.1132492E+005  0.1043930E+01  0.7957747E-01            NaN
         13   -1    0    0    0    0  0.00000000000E+00  0.00000000000E+00  0.74505805969E-08  0.10566000000E+00  0.10566000000E+00 0.  1.
     999900   -1    0    0    0    0 -0.00000000000E+00 -0.00000000000E+00 -0.74505805969E-08  0.93827000000E+00  0.93827000000E+00 0. -1.
     999902    2    1    2    0    0  0.25691898475E-01 -0.49008960559E-02  0.59299457686E-02  0.10171110387E+01  0.10167573990E+01 0.  0.
     999903    2    3    3    0    0  0.89309939947E-01 -0.51793021472E-01 -0.76159263302E-01  0.12976400123E+00  0.19485383805E-01 0.  0.
         14    1    1    2    0    0 -0.25691898475E-01  0.49008960559E-02 -0.59299457686E-02  0.26818961319E-01  0.00000000000E+00 0. -1.
     999901    1    3    3    0    0 -0.63618041472E-01  0.46892125416E-01  0.82089209071E-01  0.88734703745E+00  0.88000000000E+00 0.  1.
        -11    1    4    4    0    0  0.23935161699E-01 -0.16196320394E-01 -0.11309220889E-01  0.31038240253E-01  0.51100000000E-03 0. -1.
         11    1    4    4    0    0  0.65374778248E-01 -0.35596701078E-01 -0.64850042413E-01  0.98725760978E-01  0.51100000000E-03 0.  1.
</event>
<event>
 8    1  0.1132492E+005  0.1043930E+01  0.7957747E-01            NaN
         13   -1    0    0    0    0  0.00000000000E+00  0.00000000000E+00  0.74505805969E-08  0.10566000000E+00  0.10566000000E+00 0.  1.
     999900   -1    0    0    0    0 -0.00000000000E+00 -0.00000000000E+00 -0.74505805969E-08  0.93827000000E+00  0.93827000000E+00 0.  1.
     999902    2    1    2    0    0  0.16275390525E-01 -0.16183852656E-01  0.62985870039E-02  0.10201292096E+01  0.10198515219E+01 0.  0.
     999903    2    3    3    0    0  0.93784703888E-01  0.57171378048E-01 -0.67804954741E-01  0.13058999273E+00  0.19801443418E-01 0.  0.
         14    1    1    2    0    0 -0.16275390525E-01  0.16183852656E-01 -0.62985870039E-02  0.23800790360E-01  0.00000000000E+00 0.  1.
     999901    1    3    3    0    0 -0.77509313363E-01 -0.73355230704E-01  0.74103541744E-01  0.88953921691E+00  0.88000000000E+00 0.  1.
        -11    1    4    4    0    0  0.54821891209E-01  0.23471776324E-01 -0.42219396304E-01  0.73069163022E-01  0.51100000000E-03 0.  1.
         11    1    4    4    0    0  0.38962812679E-01  0.33699601724E-01 -0.25585558437E-01  0.57520829703E-01  0.51100000000E-03 0. -1.
</event>
<event>
 7    1  0.1132492E+005  0.1043930E+01  0.7957747E-01            NaN
         13   -1    0    0    0    0  0.00000000000E+00  0.00000000000E+00  0.74505805969E-08  0.10566000000E+00  0.10566000000E+00 0. -1.
     999900   -1    0    0    0    0 -0.00000000000E+00 -0.00000000000E+00 -0.74505805969E-08  0.93827000000E+00  0.93827000000E+00 0. -1.
     999903    2    1    2    0    0 -0.52952453234E-01  0.65498706963E-01 -0.68870785829E-01  0.11060783675E+00  0.19921483195E-01 0.  0.
         14    1    1    2    0    0  0.28929839782E-01  0.27448729225E-01 -0.18186550935E-01  0.43830571532E-01  0.00000000000E+00 0. -1.
     999901    1    1    2    0    0  0.24022613452E-01 -0.92947436188E-01  0.87057336764E-01  0.88949159172E+00  0.88000000000E+00 0.  1.
        -11    1    3    3    0    0 -0.23711940398E-01  0.36249772520E-01 -0.46626458734E-01  0.63644244833E-01  0.51100000000E-03 0.  1.
         11    1    3    3    0    0 -0.29240512837E-01  0.29248934443E-01 -0.22244327094E-01  0.46963591918E-01  0.51100000000E-03 0. -1.
</event>
<event>
 8    1  0.1132492E+005  0.1043930E+01  0.7957747E-01            NaN
         13   -1    0    0    0    0  0.00000000000E+00  0.00000000000E+00  0.74505805969E-08  0.10566000000E+00  0.10566000000E+00 0.  1.
     999900   -1    0    0    0    0 -0.00000000000E+00 -0.00000000000E+00 -0.74505805969E-08  0.93827000000E+00  0.93827000000E+00 0. -1.
     999902    2    1    2    0    0  0.14744401400E-03  0.38845812260E-02  0.23332656543E-01  0.10202757282E+01  0.10200014888E+01 0.  0.
     999903    2    3    3    0    0 -0.11762547349E+00  0.42863271663E-01 -0.28983888091E-01  0.13003597444E+00  0.19906702631E-01 0.  0.
         14    1    1    2    0    0 -0.14744401400E-03 -0.38845812260E-02 -0.23332656543E-01  0.23654271758E-01  0.00000000000E+00 0. -1.
     999901    1    3    3    0    0  0.11777291750E+00 -0.38978690437E-01  0.52316544634E-01  0.89023975380E+00  0.88000000000E+00 0.  1.
        -11    1    4    4    0    0 -0.46007379782E-01  0.11872280133E-01 -0.23381063301E-02  0.47574761084E-01  0.51100000000E-03 0.  1.
         11    1    4    4    0    0 -0.71618093704E-01  0.30990991530E-01 -0.26645781761E-01  0.82461213358E-01  0.51100000000E-03 0. -1.
</event>
<event>
 8    1  0.1132492E+005  0.1043930E+01  0.7957747E-01            NaN
         13   -1    0    0    0    0  0.00000000000E+00  0.00000000000E+00  0.74505805969E-08  0.10566000000E+00  0.10566000000E+00 0.  1.
     999900   -1    0    0    0    0 -0.00000000000E+00 -0.00000000000E+00 -0.74505805969E-08  0.93827000000E+00  0.93827000000E+00 0. -1.
     999902    2    1    2    0    0 -0.14805828237E-01  0.93685927093E-02  0.16280112968E-01  0.10200129526E+01  0.10197325131E+01 0.  0.
     999903    2    3    3    0    0 -0.56536526020E-03 -0.47375253087E-01 -0.11716017129E+00  0.12803259165E+00  0.20520831939E-01 0.  0.
         14    1    1    2    0    0  0.14805828237E-01 -0.93685927093E-02 -0.16280112968E-01  0.23917047422E-01  0.00000000000E+00 0. -1.
     999901    1    3    3    0    0 -0.14240462977E-01  0.56743845796E-01  0.13344028426E+00  0.89198036093E+00  0.88000000000E+00 0.  1.
        -11    1    4    4    0    0  0.13501336044E-02 -0.27605900711E-01 -0.91469336891E-01  0.95555268443E-01  0.51100000000E-03 0. -1.
         11    1    4    4    0    0 -0.19154988646E-02 -0.19769352376E-01 -0.25690834402E-01  0.32477323205E-01  0.51100000000E-03 0.  1.
</event>
<event>
 8    1  0.1132492E+005  0.1043930E+01  0.7957747E-01            NaN
         13   -1    0    0    0    0  0.00000000000E+00  0.00000000000E+00  0.74505805969E-08  0.10566000000E+00  0.10566000000E+00 0.  1.
     999900   -1    0    0    0    0 -0.00000000000E+00 -0.00000000000E+00 -0.74505805969E-08  0.93827000000E+00  0.93827000000E+00 0. -1.
     999902    2    1    2    0    0 -0.15747814737E-01 -0.94555331304E-02 -0.14842757620E-01  0.10203141530E+01  0.10200408142E+01 0.  0.
     999903    2    3    3    0    0 -0.11113605894E+00 -0.42370415690E-02  0.67077031418E-01  0.13136139744E+00  0.19680255988E-01 0.  0.
         14    1    1    2    0    0  0.15747814737E-01  0.94555331304E-02  0.14842757620E-01  0.23615847000E-01  0.00000000000E+00 0.  1.
     999901    1    3    3    0    0  0.95388244200E-01 -0.52184915613E-02 -0.81919789038E-01  0.88895275556E+00  0.88000000000E+00 0. -1.
        -11    1    4    4    0    0 -0.78807485109E-01 -0.58700429990E-02  0.57057447994E-01  0.97472512057E-01  0.51100000000E-03 0. -1.
         11    1    4    4    0    0 -0.32328573827E-01  0.16330014299E-02  0.10019583423E-01  0.33888885381E-01  0.51100000000E-03 0.  1.
</event>
<event>
 8    1  0.1132492E+005  0.1043930E+01  0.7957747E-01            NaN
         13   -1    0    0    0    0  0.00000000000E+00  0.00000000000E+00  0.74505805969E-08  0.10566000000E+00  0.10566000000E+00 0.  1.
     999900   -1    0    0    0    0 -0.00000000000E+00 -0.00000000000E+00 -0.74505805969E-08  0.93827000000E+00  0.93827000000E+00 0. -1.
     999902    2    1    2    0    0  0.13485531975E-01  0.13789986981E-01 -0.14941766645E-01  0.10195316455E+01  0.10192396658E+01 0.  0.
     999903    2    3    3    0    0 -0.25174425897E-01  0.48379670144E-01 -0.11851151520E+00  0.13194067472E+00  0.19723544519E-01 0.  0.
         14    1    1    2    0    0 -0.13485531975E-01 -0.13789986981E-01  0.14941766645E-01  0.24398354537E-01  0.00000000000E+00 0.  1.
     999901    1    3    3    0    0  0.38659957872E-01 -0.34589683163E-01  0.10356974856E+00  0.88759097074E+00  0.88000000000E+00 0.  1.
        -11    1    4    4    0    0 -0.13309376034E-01  0.11565832608E-01 -0.23719054014E-01  0.29559475953E-01  0.51100000000E-03 0.  1.
         11    1    4    4    0    0 -0.11865049863E-01  0.36813837536E-01 -0.94792461189E-01  0.10238119877E+00  0.51100000000E-03 0. -1.
</event>
<event>
 8    1  0.1132492E+005  0.1043930E+01  0.7957747E-01            NaN
         13   -1    0    0    0    0  0.00000000000E+00  0.00000000000E+00  0.74505805969E-08  0.10566000000E+00  0.10566000000E+00 0.  1.
     999900   -1    0    0    0    0 -0.00000000000E+00 -0.00000000000E+00 -0.74505805969E-08  0.93827000000E+00  0.93827000000E+00 0.  1.
     999902    2    1    2    0    0  0.41594701671E-03 -0.23280289745E-01 -0.50496078142E-03  0.10206405198E+01  0.10203747698E+01 0.  0.
     999903    2    3    3    0    0  0.13085409609E-01 -0.12616922268E+00  0.37394647138E-01  0.13374535797E+00  0.19989008177E-01 0.  0.
         14    1    1    2    0    0 -0.41594701671E-03  0.23280289745E-01  0.50496078142E-03  0.23289480199E-01  0.00000000000E+00 0.  1.
     999901    1    3    3    0    0 -0.12669462592E-01  0.10288893293E+00 -0.37899607919E-01  0.88689516183E+00  0.88000000000E+00 0. -1.
        -11    1    4    4    0    0  0.16426375359E-02 -0.61630741634E-01  0.89833488159E-02  0.62305764175E-01  0.51100000000E-03 0.  1.
         11    1    4    4    0    0  0.11442772073E-01 -0.64538481043E-01  0.28411298322E-01  0.71439593794E-01  0.51100000000E-03 0. -1.
</event>
<event>
 8    1  0.1132492E+005  0.1043930E+01  0.7957747E-01            NaN
         13   -1    0    0    0    0  0.00000000000E+00  0.00000000000E+00  0.74505805969E-08  0.10566000000E+00  0.10566000000E+00 0. -1.
     999900   -1    0    0    0    0 -0.00000000000E+00 -0.00000000000E+00 -0.74505805969E-08  0.93827000000E+00  0.93827000000E+00 0. -1.
     999902    2    1    2    0    0 -0.48595624731E-02  0.19310884470E-01 -0.13297073707E-01  0.10199855272E+01  0.10197044366E+01 0.  0.
     999903    2    3    3    0    0  0.42215717274E-01 -0.35421877772E-01 -0.11797982383E+00  0.13084536090E+00  0.12821600107E-01 0.  0.
         14    1    1    2    0    0  0.48595624731E-02 -0.19310884470E-01  0.13297073707E-01  0.23944472757E-01  0.00000000000E+00 0.  1.
     999901    1    3    3    0    0 -0.47075279747E-01  0.54732762242E-01  0.10468275012E+00  0.88914016634E+00  0.88000000000E+00 0.  1.
        -11    1    4    4    0    0  0.28233542142E-01 -0.25469919791E-01 -0.66845182337E-01  0.76905066405E-01  0.51100000000E-03 0. -1.
         11    1    4    4    0    0  0.13982175133E-01 -0.99519579813E-02 -0.51134641492E-01  0.53940294499E-01  0.51100000000E-03 0.  1.
</event>
<event>
 8    1  0.1132492E+005  0.1043930E+01  0.7957747E-01            NaN
         13   -1    0    0    0    0  0.00000000000E+00  0.00000000000E+00  0.74505805969E-08  0.10566000000E+00  0.10566000000E+00 0.  1.
     999900   -1    0    0    0    0 -0.00000000000E+00 -0.00000000000E+00 -0.74505805969E-08  0.93827000000E+00  0.93827000000E+00 0.  1.
     999902    2    1    2    0    0 -0.19342025797E-01 -0.12297139834E-01  0.51392215376E-02  0.10204407427E+01  0.10201703604E+01 0.  0.
     999903    2    3    3    0    0  0.39768473806E-02 -0.84449841119E-01  0.99424145658E-01  0.13216182871E+00  0.20832600576E-01 0.  0.
         14    1    1    2    0    0  0.19342025797E-01  0.12297139834E-01 -0.51392215376E-02  0.23489257290E-01  0.00000000000E+00 0. -1.
     999901    1    3    3    0    0 -0.23318873178E-01  0.72152701285E-01 -0.94284924120E-01  0.88827891400E+00  0.88000000000E+00 0.  1.
        -11    1    4    4    0    0 -0.43188384434E-02 -0.49292866989E-01  0.69126055454E-01  0.85012421240E-01  0.51100000000E-03 0. -1.
         11    1    4    4    0    0  0.82956858240E-02 -0.35156974131E-01  0.30298090203E-01  0.47149407465E-01  0.51100000000E-03 0.  1.
</event>
<event>
 8    1  0.1132492E+005  0.1043930E+01  0.7957747E-01            NaN
         13   -1    0    0    0    0  0.00000000000E+00  0.00000000000E+00  0.74505805969E-08  0.10566000000E+00  0.10566000000E+00 0. -1.
     999900   -1    0    0    0    0 -0.00000000000E+00 -0.00000000000E+00 -0.74505805969E-08  0.93827000000E+00  0.93827000000E+00 0. -1.
     999902    2    1    2    0    0 -0.29809149883E-02 -0.91380678503E-02  0.21363828392E-01  0.10205034488E+01  0.10202345248E+01 0.  0.
     999903    2    3    3    0    0 -0.12575517641E+00 -0.30719249081E-01  0.14024949669E-01  0.13168787411E+00  0.19671306884E-01 0.  0.
         14    1    1    2    0    0  0.29809149883E-02  0.91380678503E-02 -0.21363828392E-01  0.23426551214E-01  0.00000000000E+00 0.  1.
     999901    1    3    3    0    0  0.12277426143E+00  0.21581181231E-01  0.73388787231E-02  0.88881557468E+00  0.88000000000E+00 0. -1.
        -11    1    4    4    0    0 -0.89800804385E-01 -0.26603805046E-01  0.17669047699E-01  0.95312136052E-01  0.51100000000E-03 0.  1.
         11    1    4    4    0    0 -0.35954372029E-01 -0.41154440356E-02 -0.36440980303E-02  0.36375738055E-01  0.51100000000E-03 0. -1.
</event>
<event>
 8    1  0.1132492E+005  0.1043930E+01  0.7957747E-01            NaN
         13   -1    0    0    0    0  0.00000000000E+00  0.00000000000E+00  0.74505805969E-08  0.10566000000E+00  0.10566000000E+00 0.  1.
     999900   -1    0    0    0    0 -0.00000000000E+00 -0.00000000000E+00 -0.74505805969E-08  0.93827000000E+00  0.93827000000E+00 0. -1.
     999902    2    1    2    0    0 -0.32075167741E-02 -0.20518727658E-01 -0.93276657716E-02  0.10211635401E+01  0.10209097237E+01 0.  0.
     999903    2    3    3    0    0 -0.12396674964E+00 -0.93928170896E-02  0.38296818669E-01  0.13157112232E+00  0.19706188857E-01 0.  0.
         14    1    1    2    0    0  0.32075167741E-02  0.20518727658E-01  0.93276657716E-02  0.22766459920E-01  0.00000000000E+00 0.  1.
     999901    1    3    3    0    0  0.12075923287E+00 -0.11125910569E-01 -0.47624484441E-01  0.88959241776E+00  0.88000000000E+00 0. -1.
        -11    1    4    4    0    0 -0.86919674811E-01 -0.22299823479E-02  0.34862719349E-01  0.93678562179E-01  0.51100000000E-03 0. -1.
         11    1    4    4    0    0 -0.37047074833E-01 -0.71628347417E-02  0.34340993205E-02  0.37892560146E-01  0.51100000000E-03 0.  1.
</event>
<event>
 8    1  0.1132492E+005  0.1043930E+01  0.7957747E-01            NaN
         13   -1    0    0    0    0  0.00000000000E+00  0.00000000000E+00  0.74505805969E-08  0.10566000000E+00  0.10566000000E+00 0. -1.
     999900   -1    0    0    0    0 -0.00000000000E+00 -0.00000000000E+00 -0.74505805969E-08  0.93827000000E+00  0.93827000000E+00 0.  1.
     999902    2    1    2    0    0  0.34220227271E-02  0.16854202673E-01 -0.41038000474E-02  0.10262490622E+01  0.10260967411E+01 0.  0.
     999903    2    3    3    0    0  0.53387357085E-01 -0.48138866242E-01 -0.11401142785E+00  0.13563111924E+00  0.15153695422E-01 0.  0.
         14    1    1    2    0    0 -0.34220227271E-02 -0.16854202673E-01  0.41038000474E-02  0.17680937818E-01  0.00000000000E+00 0. -1.
     999901    1    3    3    0    0 -0.49965334358E-01  0.64993068915E-01  0.10990762781E+00  0.89061794294E+00  0.88000000000E+00 0. -1.
        -11    1    4    4    0    0  0.39422973989E-01 -0.31730513317E-01 -0.67466392990E-01  0.84338435233E-01  0.51100000000E-03 0. -1.
         11    1    4    4    0    0  0.13964383096E-01 -0.16408352925E-01 -0.46545034863E-01  0.51292684004E-01  0.51100000000E-03 0.  1.
</event>
<event>
 8    1  0.1132492E+005  0.1043930E+01  0.7957747E-01            NaN
         13   -1    0    0    0    0  0.00000000000E+00  0.00000000000E+00  0.74505805969E-08  0.10566000000E+00  0.10566000000E+00 0.  1.
     999900   -1    0    0    0    0 -0.00000000000E+00 -0.00000000000E+00 -0.74505805969E-08  0.93827000000E+00  0.93827000000E+00 0.  1.
     999902    2    1    2    0    0 -0.16076117940E-01  0.84923779304E-02 -0.11180584820E-01  0.10225859721E+01  0.10223631951E+01 0.  0.
     999903    2    3    3    0    0 -0.27223446357E-01 -0.81230861446E-01  0.97492927356E-01  0.13130349449E+00  0.19903966875E-01 0.  0.
         14    1    1    2    0    0  0.16076117940E-01 -0.84923779304E-02  0.11180584820E-01  0.21344027920E-01  0.00000000000E+00 0. -1.
     999901    1    3    3    0    0  0.11147328418E-01  0.89723239376E-01 -0.10867351218E+00  0.89128247759E+00  0.88000000000E+00 0. -1.
        -11    1    4    4    0    0 -0.26018231662E-01 -0.52801020272E-01  0.72823585225E-01  0.93639904991E-01  0.51100000000E-03 0. -1.
         11    1    4    4    0    0 -0.12052146958E-02 -0.28429841174E-01  0.24669342130E-01  0.37663589497E-01  0.51100000000E-03 0.  1.
</event>
<event>
 8    1  0.1132492E+005  0.1043930E+01  0.7957747E-01            NaN
         13   -1    0    0    0    0  0.00000000000E+00  0.00000000000E+00  0.74505805969E-08  0.10566000000E+00  0.10566000000E+00 0.  1.
     999900   -1    0    0    0    0 -0.00000000000E+00 -0.00000000000E+00 -0.74505805969E-08  0.93827000000E+00  0.93827000000E+00 0. -1.
     999902    2    1    2    0    0  0.53679279644E-02  0.18150175636E-01 -0.15599865504E-01  0.10194024781E+01  0.10191073609E+01 0.  0.
     999903    2    3    3    0    0  0.79489207346E-01 -0.93400716595E-01 -0.34963439043E-01  0.12905843585E+00  0.19784080686E-01 0.  0.
         14    1    1    2    0    0 -0.53679279644E-02 -0.18150175636E-01  0.15599865504E-01  0.24527521889E-01  0.00000000000E+00 0.  1.
     999901    1    3    3    0    0 -0.74121279382E-01  0.11155089223E+00  0.19363573539E-01  0.89034404226E+00  0.88000000000E+00 0.  1.
        -11    1    4    4    0    0  0.53801723352E-01 -0.52076134599E-01 -0.14496454590E-01  0.76268981552E-01  0.51100000000E-03 0. -1.
         11    1    4    4    0    0  0.25687483995E-01 -0.41324581996E-01 -0.20466984453E-01  0.52789454295E-01  0.51100000000E-03 0.  1.
</event>
<event>
 8    1  0.1132492E+005  0.1043930E+01  0.7957747E-01            NaN
         13   -1    0    0    0    0  0.00000000000E+00  0.00000000000E+00  0.74505805969E-08  0.10566000000E+00  0.10566000000E+00 0. -1.
     999900   -1    0    0    0    0 -0.00000000000E+00 -0.00000000000E+00 -0.74505805969E-08  0.93827000000E+00  0.93827000000E+00 0. -1.
     999902    2    1    2    0    0 -0.22483963428E-01  0.46531681930E-02 -0.20238356564E-02  0.10208805641E+01  0.10206203259E+01 0.  0.
     999903    2    3    3    0    0 -0.88960872358E-01  0.57563241117E-01 -0.78532928810E-01  0.13348420586E+00  0.20568149366E-01 0.  0.
         14    1    1    2    0    0  0.22483963428E-01 -0.46531681930E-02  0.20238356564E-02  0.23049435924E-01  0.00000000000E+00 0.  1.
     999901    1    3    3    0    0  0.66476908930E-01 -0.52910072924E-01  0.76509093153E-01  0.88739635821E+00  0.88000000000E+00 0.  1.
        -11    1    4    4    0    0 -0.41825114874E-01  0.25527279628E-01 -0.23844896989E-01  0.54496077592E-01  0.51100000000E-03 0. -1.
         11    1    4    4    0    0 -0.47135757484E-01  0.32035961488E-01 -0.54688031821E-01  0.78988128270E-01  0.51100000000E-03 0.  1.
</event>
<event>
 8    1  0.1132492E+005  0.1043930E+01  0.7957747E-01            NaN
         13   -1    0    0    0    0  0.00000000000E+00  0.00000000000E+00  0.74505805969E-08  0.10566000000E+00  0.10566000000E+00 0. -1.
     999900   -1    0    0    0    0 -0.00000000000E+00 -0.00000000000E+00 -0.74505805969E-08  0.93827000000E+00  0.93827000000E+00 0. -1.
     999902    2    1    2    0    0 -0.23444302632E-01 -0.57290900094E-02  0.19972237259E-02  0.10197133384E+01  0.10194257431E+01 0.  0.
     999903    2    3    3    0    0  0.62701541989E-01 -0.10615430481E+00  0.33170779668E-01  0.12927629909E+00  0.20293868156E-01 0.  0.
         14    1    1    2    0    0  0.23444302632E-01  0.57290900094E-02 -0.19972237259E-02  0.24216661637E-01  0.00000000000E+00 0.  1.
     999901    1    3    3    0    0 -0.86145844621E-01  0.10042521481E+00 -0.31173555943E-01  0.89043703927E+00  0.88000000000E+00 0. -1.
        -11    1    4    4    0    0  0.27440047141E-01 -0.65001351352E-01  0.22328609736E-01  0.74006484841E-01  0.51100000000E-03 0.  1.
         11    1    4    4    0    0  0.35261494848E-01 -0.41152953462E-01  0.10842169932E-01  0.55269814251E-01  0.51100000000E-03 0. -1.
</event>
<event>
 8    1  0.1132492E+005  0.1043930E+01  0.7957747E-01            NaN
         13   -1    0    0    0    0  0.00000000000E+00  0.00000000000E+00  0.74505805969E-08  0.10566000000E+00  0.10566000000E+00 0.  1.
     999900   -1    0    0    0    0 -0.00000000000E+00 -0.00000000000E+00 -0.74505805969E-08  0.93827000000E+00  0.93827000000E+00 0. -1.
     999902    2    1    2    0    0  0.13463193832E-01 -0.98632772782E-02  0.16230718069E-01  0.10206495783E+01  0.10203840373E+01 0.  0.
     999903    2    3    3    0    0 -0.80294259075E-01 -0.31280489445E-01  0.97517150144E-01  0.13168577643E+00  0.20147259869E-01 0.  0.
         14    1    1    2    0    0 -0.13463193832E-01  0.98632772782E-02 -0.16230718069E-01  0.23280421729E-01  0.00000000000E+00 0. -1.
     999901    1    3    3    0    0  0.93757452908E-01  0.21417212166E-01 -0.81286432075E-01  0.88896380185E+00  0.88000000000E+00 0. -1.
        -11    1    4    4    0    0 -0.17197715727E-01 -0.62939517066E-02  0.97896195723E-02  0.20771928815E-01  0.51100000000E-03 0.  1.
         11    1    4    4    0    0 -0.63096543348E-01 -0.24986537738E-01  0.87727530572E-01  0.11091384761E+00  0.51100000000E-03 0. -1.
</event>
<event>
 8    1  0.1132492E+005  0.1043930E+01  0.7957747E-01            NaN
         13   -1    0    0    0    0  0.00000000000E+00  0.00000000000E+00  0.74505805969E-08  0.10566000000E+00  0.10566000000E+00 0. -1.
     999900   -1    0    0    0    0 -0.00000000000E+00 -0.00000000000E+00 -0.74505805969E-08  0.93827000000E+00  0.93827000000E+00 0. -1.
     999902    2    1    2    0    0  0.77621011422E-02  0.20284068178E-01 -0.15000290363E-01  0.10175348802E+01  0.10171924745E+01 0.  0.
     999903    2    3    3    0    0 -0.10032068733E+00 -0.25097842151E-01 -0.72682709918E-01  0.12788963158E+00  0.19463801214E-01 0.  0.
         14    1    1    2    0    0 -0.77621011422E-02 -0.20284068178E-01  0.15000290363E-01  0.26395119757E-01  0.00000000000E+00 0.  1.
     999901    1    3    3    0    0  0.10808278847E+00  0.45381910330E-01  0.57682419555E-01  0.88964524867E+00  0.88000000000E+00 0.  1.
        -11    1    4    4    0    0 -0.46947826758E-01 -0.29022313383E-02 -0.27223638402E-01  0.54349875740E-01  0.51100000000E-03 0. -1.
         11    1    4    4    0    0 -0.53372860567E-01 -0.22195610813E-01 -0.45459071516E-01  0.73539755837E-01  0.51100000000E-03 0.  1.
</event>
<event>
 7    1  0.1132492E+005  0.1043930E+01  0.7957747E-01            NaN
         13   -1    0    0    0    0  0.00000000000E+00  0.00000000000E+00  0.74505805969E-08  0.10566000000E+00  0.10566000000E+00 0.  1.
     999900   -1    0    0    0    0 -0.00000000000E+00 -0.00000000000E+00 -0.74505805969E-08  0.93827000000E+00  0.93827000000E+00 0. -1.
     999903    2    1    2    0    0 -0.74313082474E-01  0.97775049420E-01 -0.76952100333E-01  0.14587659396E+00  0.16612055999E-01 0.  0.
         14    1    1    2    0    0 -0.16976390012E-02 -0.60580806877E-02 -0.17964723008E-02  0.65429070393E-02  0.00000000000E+00 0. -1.
     999901    1    1    2    0    0  0.76010721475E-01 -0.91716968733E-01  0.78748572634E-01  0.89151049900E+00  0.88000000000E+00 0. -1.
        -11    1    3    3    0    0 -0.16716514650E-01  0.33328540914E-01 -0.27089745180E-01  0.46090659753E-01  0.51100000000E-03 0.  1.
         11    1    3    3    0    0 -0.57596567824E-01  0.64446508506E-01 -0.49862355152E-01  0.99785934209E-01  0.51100000000E-03 0. -1.
</event>
<event>
 8    1  0.1132492E+005  0.1043930E+01  0.7957747E-01            NaN
         13   -1    0    0    0    0  0.00000000000E+00  0.00000000000E+00  0.74505805969E-08  0.10566000000E+00  0.10566000000E+00 0. -1.
     999900   -1    0    0    0    0 -0.00000000000E+00 -0.00000000000E+00 -0.74505805969E-08  0.93827000000E+00  0.93827000000E+00 0.  1.
     999902    2    1    2    0    0 -0.22185701884E-01 -0.12584533900E-02 -0.84045302983E-02  0.10201723654E+01  0.10198956956E+01 0.  0.
     999903    2    3    3    0    0 -0.27090096861E-01 -0.11824560537E+00  0.43476413628E-01  0.13090205824E+00  0.23005516155E-01 0.  0.
         14    1    1    2    0    0  0.22185701884E-01  0.12584533900E-02  0.84045302983E-02  0.23757634616E-01  0.00000000000E+00 0.  1.
     999901    1    3    3    0    0  0.49043949774E-02  0.11698715198E+00 -0.51880943927E-01  0.88927030714E+00  0.88000000000E+00 0.  1.
        -11    1    4    4    0    0 -0.32859129133E-02 -0.56392765035E-01  0.26978826431E-01  0.62602391077E-01  0.51100000000E-03 0. -1.
         11    1    4    4    0    0 -0.23804183948E-01 -0.61852840334E-01  0.16497587197E-01  0.68299667167E-01  0.51100000000E-03 0.  1.
</event>
<event>
 8    1  0.1132492E+005  0.1043930E+01  0.7957747E-01            NaN
         13   -1    0    0    0    0  0.00000000000E+00  0.00000000000E+00  0.74505805969E-08  0.10566000000E+00  0.10566000000E+00 0. -1.
     999900   -1    0    0    0    0 -0.00000000000E+00 -0.00000000000E+00 -0.74505805969E-08  0.93827000000E+00  0.93827000000E+00 0. -1.
     999902    2    1    2    0    0 -0.21444680744E-01  0.52164405349E-02  0.59054603289E-02  0.10210835551E+01  0.10208279318E+01 0.  0.
     999903    2    3    3    0    0  0.52949360681E-01 -0.51619846161E-02  0.11758957691E+00  0.13085014354E+00  0.21544618491E-01 0.  0.
         14    1    1    2    0    0  0.21444680744E-01 -0.52164405349E-02 -0.59054603289E-02  0.22846444926E-01  0.00000000000E+00 0. -1.
     999901    1    3    3    0    0 -0.74394041425E-01  0.10378425151E-01 -0.11168411658E+00  0.89023341153E+00  0.88000000000E+00 0. -1.
        -11    1    4    4    0    0  0.30391316464E-01  0.75782881450E-02  0.59479691743E-01  0.67224678642E-01  0.51100000000E-03 0. -1.
         11    1    4    4    0    0  0.22558044217E-01 -0.12740272761E-01  0.58109885166E-01  0.63625464902E-01  0.51100000000E-03 0.  1.
</event>
<event>
 8    1  0.1132492E+005  0.1043930E+01  0.7957747E-01            NaN
         13   -1    0    0    0    0  0.00000000000E+00  0.00000000000E+00  0.74505805969E-08  0.10566000000E+00  0.10566000000E+00 0. -1.
     999900   -1    0    0    0    0 -0.00000000000E+00 -0.00000000000E+00 -0.74505805969E-08  0.93827000000E+00  0.93827000000E+00 0. -1.
     999902    2    1    2    0    0  0.20506627780E-01 -0.16522120445E-01  0.33056511870E-02  0.10173889078E+01  0.10170426540E+01 0.  0.
     999903    2    3    3    0    0  0.47904210608E-01  0.36747321827E-01  0.11188047046E+00  0.12869506150E+00  0.20000003214E-01 0.  0.
         14    1    1    2    0    0 -0.20506627780E-01  0.16522120445E-01 -0.33056511870E-02  0.26541092228E-01  0.00000000000E+00 0.  1.
     999901    1    3    3    0    0 -0.27397582828E-01 -0.53269442272E-01 -0.10857481927E+00  0.88869384627E+00  0.88000000000E+00 0. -1.
        -11    1    4    4    0    0  0.12792987493E-01  0.42327508543E-02  0.41088863616E-01  0.43245029114E-01  0.51100000000E-03 0.  1.
         11    1    4    4    0    0  0.35111223115E-01  0.32514570972E-01  0.70791606843E-01  0.85450032384E-01  0.51100000000E-03 0. -1.
</event>
<event>
 8    1  0.1132492E+005  0.1043930E+01  0.7957747E-01            NaN
         13   -1    0    0    0    0  0.00000000000E+00  0.00000000000E+00  0.74505805969E-08  0.10566000000E+00  0.10566000000E+00 0.  1.
     999900   -1    0    0    0    0 -0.00000000000E+00 -0.00000000000E+00 -0.74505805969E-08  0.93827000000E+00  0.93827000000E+00 0.  1.
     999902    2    1    2    0    0  0.15994084152E-01 -0.10434116951E-01  0.11596752669E-01  0.10215879724E+01  0.10213436342E+01 0.  0.
     999903    2    3    3    0    0  0.12168300148E+00 -0.62575979921E-02  0.52811241347E-01  0.13429646189E+00  0.20015046425E-01 0.  0.
         14    1    1    2    0    0 -0.15994084152E-01  0.10434116951E-01 -0.11596752669E-01  0.22342027591E-01  0.00000000000E+00 0.  1.
     999901    1    3    3    0    0 -0.10568891732E+00 -0.41765189586E-02 -0.41214488678E-01  0.88729151052E+00  0.88000000000E+00 0.  1.
        -11    1    4    4    0    0  0.53007825760E-01 -0.40763071188E-02  0.12441097057E-01  0.54603002560E-01  0.51100000000E-03 0.  1.
         11    1    4    4    0    0  0.68675175717E-01 -0.21812908733E-02  0.40370144289E-01  0.79693459334E-01  0.51100000000E-03 0. -1.
</event>
<event>
 8    1  0.1132492E+005  0.1043930E+01  0.7957747E-01            NaN
         13   -1    0    0    0    0  0.00000000000E+00  0.00000000000E+00  0.74505805969E-08  0.10566000000E+00  0.10566000000E+00 0.  1.
     999900   -1    0    0    0    0 -0.00000000000E+00 -0.00000000000E+00 -0.74505805969E-08  0.93827000000E+00  0.93827000000E+00 0. -1.
     999902    2    1    2    0    0  0.21342735571E-01 -0.61817109939E-02  0.55351044276E-02  0.10210310198E+01  0.10207742062E+01 0.  0.
     999903    2    3    3    0    0  0.90866982130E-01 -0.87070242633E-01 -0.39040451348E-01  0.13347056802E+00  0.21264996915E-01 0.  0.
         14    1    1    2    0    0 -0.21342735571E-01  0.61817109939E-02 -0.55351044276E-02  0.22898980185E-01  0.00000000000E+00 0. -1.
     999901    1    3    3    0    0 -0.69524246558E-01  0.80888531639E-01  0.44575555776E-01  0.88756045179E+00  0.88000000000E+00 0.  1.
        -11    1    4    4    0    0  0.33506753937E-01 -0.40198123089E-01 -0.71493847144E-02  0.52820133302E-01  0.51100000000E-03 0.  1.
         11    1    4    4    0    0  0.57360228192E-01 -0.46872119545E-01 -0.31891066634E-01  0.80650434722E-01  0.51100000000E-03 0. -1.
</event>
<event>
 8    1  0.1132492E+005  0.1043930E+01  0.7957747E-01            NaN
         13   -1    0    0    0    0  0.00000000000E+00  0.00000000000E+00  0.74505805969E-08  0.10566000000E+00  0.10566000000E+00 0. -1.
     999900   -1    0    0    0    0 -0.00000000000E+00 -0.00000000000E+00 -0.74505805969E-08  0.93827000000E+00  0.93827000000E+00 0.  1.
     999902    2    1    2    0    0 -0.17605213214E-01  0.10657350727E-01 -0.13077560086E-01  0.10195467017E+01  0.10192550867E+01 0.  0.
     999903    2    3    3    0    0 -0.33632553937E-01  0.25899907442E-01  0.12066313879E+00  0.12916712777E+00  0.17961067413E-01 0.  0.
         14    1    1    2    0    0  0.17605213214E-01 -0.10657350727E-01  0.13077560086E-01  0.24383298273E-01  0.00000000000E+00 0.  1.
     999901    1    3    3    0    0  0.16027340723E-01 -0.15242556715E-01 -0.13374069888E+00  0.89037957396E+00  0.88000000000E+00 0.  1.
        -11    1    4    4    0    0 -0.10497993846E-02  0.90055581663E-02  0.30361940732E-01  0.31690861816E-01  0.51100000000E-03 0. -1.
         11    1    4    4    0    0 -0.32582754552E-01  0.16894349275E-01  0.90301198062E-01  0.97476265953E-01  0.51100000000E-03 0.  1.
</event>
<event>
 8    1  0.1132492E+005  0.1043930E+01  0.7957747E-01            NaN
         13   -1    0    0    0    0  0.00000000000E+00  0.00000000000E+00  0.74505805969E-08  0.10566000000E+00  0.10566000000E+00 0. -1.
     999900   -1    0    0    0    0 -0.00000000000E+00 -0.00000000000E+00 -0.74505805969E-08  0.93827000000E+00  0.93827000000E+00 0.  1.
     999902    2    1    2    0    0 -0.28822541061E-03 -0.66376723576E-02  0.22842530288E-01  0.10201408647E+01  0.10198634521E+01 0.  0.
     999903    2    3    3    0    0 -0.27264332493E-01 -0.10346737678E+00 -0.70560483060E-01  0.12950748058E+00  0.18562431759E-01 0.  0.
         14    1    1    2    0    0  0.28822541061E-03  0.66376723576E-02 -0.22842530288E-01  0.23789135296E-01  0.00000000000E+00 0.  1.
     999901    1    3    3    0    0  0.26976107082E-01  0.96829704422E-01  0.93403013347E-01  0.89063338412E+00  0.88000000000E+00 0. -1.
        -11    1    4    4    0    0 -0.13209553773E-01 -0.44959182357E-01 -0.41872243132E-01  0.62843983443E-01  0.51100000000E-03 0. -1.
         11    1    4    4    0    0 -0.14054778720E-01 -0.58508194422E-01 -0.28688239928E-01  0.66663497137E-01  0.51100000000E-03 0.  1.
</event>
<event>
 8    1  0.1132492E+005  0.1043930E+01  0.7957747E-01            NaN
         13   -1    0    0    0    0  0.00000000000E+00  0.00000000000E+00  0.74505805969E-08  0.10566000000E+00  0.10566000000E+00 0.  1.
     999900   -1    0    0    0    0 -0.00000000000E+00 -0.00000000000E+00 -0.74505805969E-08  0.93827000000E+00  0.93827000000E+00 0.  1.
     999902    2    1    2    0    0 -0.18712857032E-01  0.14548000968E-01 -0.64215298525E-04  0.10202272686E+01  0.10199518911E+01 0.  0.
     999903    2    3    3    0    0 -0.77501375662E-01  0.16361028975E-01 -0.10370574135E+00  0.13219520676E+00  0.21131620933E-01 0.  0.
         14    1    1    2    0    0  0.18712857032E-01 -0.14548000968E-01  0.64215298525E-04  0.23702731363E-01  0.00000000000E+00 0. -1.
     999901    1    3    3    0    0  0.58788518630E-01 -0.18130280070E-02  0.10364152605E+00  0.88803206187E+00  0.88000000000E+00 0. -1.
        -11    1    4    4    0    0 -0.42740656638E-01  0.60463184545E-02 -0.72379217380E-01  0.84275345898E-01  0.51100000000E-03 0.  1.
         11    1    4    4    0    0 -0.34760719024E-01  0.10314710521E-01 -0.31326523972E-01  0.47919860865E-01  0.51100000000E-03 0. -1.
</event>
<event>
 8    1  0.1132492E+005  0.1043930E+01  0.7957747E-01            NaN
         13   -1    0    0    0    0  0.00000000000E+00  0.00000000000E+00  0.74505805969E-08  0.10566000000E+00  0.10566000000E+00 0.  1.
     999900   -1    0    0    0    0 -0.00000000000E+00 -0.00000000000E+00 -0.74505805969E-08  0.93827000000E+00  0.93827000000E+00 0.  1.
     999902    2    1    2    0    0 -0.80270999071E-02 -0.11925353584E-01 -0.18292764320E-01  0.10206647122E+01  0.10203995203E+01 0.  0.
     999903    2    3    3    0    0  0.40940849132E-01 -0.11643303684E+00 -0.44760909756E-01  0.13273437785E+00  0.19546632069E-01 0.  0.
         14    1    1    2    0    0  0.80270999071E-02  0.11925353584E-01  0.18292764320E-01  0.23265287822E-01  0.00000000000E+00 0. -1.
     999901    1    3    3    0    0 -0.48967949039E-01  0.10450768326E+00  0.26468145437E-01  0.88793033433E+00  0.88000000000E+00 0.  1.
        -11    1    4    4    0    0  0.28869906206E-01 -0.63620073407E-01 -0.33128639628E-01  0.77322397204E-01  0.51100000000E-03 0.  1.
         11    1    4    4    0    0  0.12070942926E-01 -0.52812963436E-01 -0.11632270128E-01  0.55411980648E-01  0.51100000000E-03 0. -1.
</event>
<event>
 8    1  0.1132492E+005  0.1043930E+01  0.7957747E-01            NaN
         13   -1    0    0    0    0  0.00000000000E+00  0.00000000000E+00  0.74505805969E-08  0.10566000000E+00  0.10566000000E+00 0.  1.
     999900   -1    0    0    0    0 -0.00000000000E+00 -0.00000000000E+00 -0.74505805969E-08  0.93827000000E+00  0.93827000000E+00 0. -1.
     999902    2    1    2    0    0  0.66535187133E-02  0.64218515364E-02 -0.22860272743E-01  0.10192702847E+01  0.10189719386E+01 0.  0.
     999903    2    3    3    0    0 -0.61534260045E-01  0.79818320952E-01 -0.82176124335E-01  0.13160199917E+00  0.20217350386E-01 0.  0.
         14    1    1    2    0    0 -0.66535187133E-02 -0.64218515364E-02  0.22860272743E-01  0.24659715293E-01  0.00000000000E+00 0.  1.
     999901    1    3    3    0    0  0.68187778758E-01 -0.73396469416E-01  0.59315851592E-01  0.88766828554E+00  0.88000000000E+00 0.  1.
        -11    1    4    4    0    0 -0.73138603875E-02  0.23093637665E-01 -0.17078081466E-01  0.29643391202E-01  0.51100000000E-03 0.  1.
         11    1    4    4    0    0 -0.54220399657E-01  0.56724683287E-01 -0.65098042869E-01  0.10195860797E+00  0.51100000000E-03 0. -1.
</event>
<event>
 8    1  0.1132492E+005  0.1043930E+01  0.7957747E-01            NaN
         13   -1    0    0    0    0  0.00000000000E+00  0.00000000000E+00  0.74505805969E-08  0.10566000000E+00  0.10566000000E+00 0. -1.
     999900   -1    0    0    0    0 -0.00000000000E+00 -0.00000000000E+00 -0.74505805969E-08  0.93827000000E+00  0.93827000000E+00 0.  1.
     999902    2    1    2    0    0  0.20730747863E-02 -0.14334120175E-01  0.17138754508E-01  0.10214911599E+01  0.10212446759E+01 0.  0.
     999903    2    3    3    0    0 -0.73963490006E-01 -0.30189037066E-02  0.10905326523E+00  0.13337074541E+00  0.20382086254E-01 0.  0.
         14    1    1    2    0    0 -0.20730747863E-02  0.14334120175E-01 -0.17138754508E-01  0.22438840129E-01  0.00000000000E+00 0. -1.
     999901    1    3    3    0    0  0.76036564792E-01 -0.11315216468E-01 -0.91914510719E-01  0.88812041447E+00  0.88000000000E+00 0.  1.
        -11    1    4    4    0    0 -0.61879700466E-01 -0.17388117696E-02  0.75225602098E-01  0.97423165254E-01  0.51100000000E-03 0.  1.
         11    1    4    4    0    0 -0.12083789539E-01 -0.12800919370E-02  0.33827663128E-01  0.35947580151E-01  0.51100000000E-03 0. -1.
</event>
<event>
 8    1  0.1132492E+005  0.1043930E+01  0.7957747E-01            NaN
         13   -1    0    0    0    0  0.00000000000E+00  0.00000000000E+00  0.74505805969E-08  0.10566000000E+00  0.10566000000E+00 0. -1.
     999900   -1    0    0    0    0 -0.00000000000E+00 -0.00000000000E+00 -0.74505805969E-08  0.93827000000E+00  0.93827000000E+00 0. -1.
     999902    2    1    2    0    0  0.87144876519E-02  0.40093390349E-02 -0.22174699603E-01  0.10197694040E+01  0.10194831549E+01 0.  0.
     999903    2    3    3    0    0 -0.14192583107E-01 -0.80640009021E-01  0.95729359212E-01  0.12758578331E+00  0.20243058506E-01 0.  0.
         14    1    1    2    0    0 -0.87144876519E-02 -0.40093390349E-02  0.22174699603E-01  0.24160595957E-01  0.00000000000E+00 0. -1.
     999901    1    3    3    0    0  0.22907070759E-01  0.84649348056E-01 -0.11790405882E+00  0.89218362073E+00  0.88000000000E+00 0. -1.
        -11    1    4    4    0    0 -0.16927205567E-01 -0.50582153360E-01  0.69392901121E-01  0.87525541265E-01  0.51100000000E-03 0.  1.
         11    1    4    4    0    0  0.27346224595E-02 -0.30057855661E-01  0.26336458091E-01  0.40060242045E-01  0.51100000000E-03 0. -1.
</event>
<event>
 8    1  0.1132492E+005  0.1043930E+01  0.7957747E-01            NaN
         13   -1    0    0    0    0  0.00000000000E+00  0.00000000000E+00  0.74505805969E-08  0.10566000000E+00  0.10566000000E+00 0.  1.
     999900   -1    0    0    0    0 -0.00000000000E+00 -0.00000000000E+00 -0.74505805969E-08  0.93827000000E+00  0.93827000000E+00 0. -1.
     999902    2    1    2    0    0 -0.13466849349E-01  0.63297599117E-02 -0.17045145011E-01  0.10213034921E+01  0.10210528214E+01 0.  0.
     999903    2    3    3    0    0 -0.59010689410E-01 -0.82817225827E-01  0.77791013872E-01  0.13056485283E+00  0.25588759189E-01 0.  0.
         14    1    1    2    0    0  0.13466849349E-01 -0.63297599117E-02  0.17045145011E-01  0.22626507914E-01  0.00000000000E+00 0.  1.
     999901    1    3    3    0    0  0.45543840060E-01  0.89146985739E-01 -0.94836158883E-01  0.89073863926E+00  0.88000000000E+00 0. -1.
        -11    1    4    4    0    0 -0.28984548543E-01 -0.21172467627E-01  0.21459427889E-01  0.41822788118E-01  0.51100000000E-03 0.  1.
         11    1    4    4    0    0 -0.30026140867E-01 -0.61644758199E-01  0.56331585983E-01  0.88742064711E-01  0.51100000000E-03 0. -1.
</event>
<event>
 8    1  0.1132492E+005  0.1043930E+01  0.7957747E-01            NaN
         13   -1    0    0    0    0  0.00000000000E+00  0.00000000000E+00  0.74505805969E-08  0.10566000000E+00  0.10566000000E+00 0.  1.
     999900   -1    0    0    0    0 -0.00000000000E+00 -0.00000000000E+00 -0.74505805969E-08  0.93827000000E+00  0.93827000000E+00 0.  1.
     999902    2    1    2    0    0  0.48295545124E-02 -0.73031449375E-02  0.21895018868E-01  0.10203492372E+01  0.10200767194E+01 0.  0.
     999903    2    3    3    0    0  0.53655177018E-01  0.10900391712E+00 -0.39132706316E-01  0.12926245280E+00  0.20412766393E-01 0.  0.
         14    1    1    2    0    0 -0.48295545124E-02  0.73031449375E-02 -0.21895018868E-01  0.23580762795E-01  0.00000000000E+00 0. -1.
     999901    1    3    3    0    0 -0.48825622505E-01 -0.11630706206E+00  0.61027725184E-01  0.89108678440E+00  0.88000000000E+00 0.  1.
        -11    1    4    4    0    0  0.40499294659E-01  0.94886696331E-01 -0.37931041556E-01  0.10992134935E+00  0.51100000000E-03 0. -1.
         11    1    4    4    0    0  0.13155882359E-01  0.14117220791E-01 -0.12016647601E-02  0.19341103450E-01  0.51100000000E-03 0.  1.
</event>
<event>
 8    1  0.1132492E+005  0.1043930E+01  0.7957747E-01            NaN
         13   -1    0    0    0    0  0.00000000000E+00  0.00000000000E+00  0.74505805969E-08  0.10566000000E+00  0.10566000000E+00 0.  1.
     999900   -1    0    0    0    0 -0.00000000000E+00 -0.00000000000E+00 -0.74505805969E-08  0.93827000000E+00  0.93827000000E+00 0.  1.
     999902    2    1    2    0    0  0.23207104170E-01 -0.97438924596E-02  0.21453283309E-01  0.10108580105E+01  0.10103168616E+01 0.  0.
     999903    2    3    3    0    0 -0.52908431840E-01  0.10513306936E+00 -0.66488634954E-02  0.11969022505E+00  0.20719028812E-01 0.  0.
         14    1    1    2    0    0 -0.23207104170E-01  0.97438924596E-02 -0.21453283309E-01  0.33071989492E-01  0.00000000000E+00 0. -1.
     999901    1    3    3    0    0  0.76115536010E-01 -0.11487696182E+00  0.28102146805E-01  0.89116778546E+00  0.88000000000E+00 0. -1.
        -11    1    4    4    0    0 -0.40706334259E-02  0.24549598276E-01  0.25149386913E-02  0.25016771766E-01  0.51100000000E-03 0.  1.
         11    1    4    4    0    0 -0.48837798415E-01  0.80583471082E-01 -0.91638021867E-02  0.94673453286E-01  0.51100000000E-03 0. -1.
</event>
<event>
 8    1  0.1132492E+005  0.1043930E+01  0.7957747E-01            NaN
         13   -1    0    0    0    0  0.00000000000E+00  0.00000000000E+00  0.74505805969E-08  0.10566000000E+00  0.10566000000E+00 0.  1.
     999900   -1    0    0    0    0 -0.00000000000E+00 -0.00000000000E+00 -0.74505805969E-08  0.93827000000E+00  0.93827000000E+00 0.  1.
     999902    2    1    2    0    0  0.30440782914E-02 -0.16725951535E-02  0.23715570013E-01  0.10199614321E+01  0.10196797687E+01 0.  0.
     999903    2    3    3    0    0  0.19810015104E-01 -0.59536752660E-01  0.11587512865E+00  0.13310025827E+00  0.18750245212E-01 0.  0.
         14    1    1    2    0    0 -0.30440782914E-02  0.16725951535E-02 -0.23715570013E-01  0.23968567922E-01  0.00000000000E+00 0. -1.
     999901    1    3    3    0    0 -0.16765936812E-01  0.57864157506E-01 -0.92159558639E-01  0.88686117381E+00  0.88000000000E+00 0.  1.
        -11    1    4    4    0    0  0.78674000129E-02 -0.22057329554E-01  0.62868224018E-01  0.67090211523E-01  0.51100000000E-03 0.  1.
         11    1    4    4    0    0  0.11942615091E-01 -0.37479423106E-01  0.53006904634E-01  0.66010046747E-01  0.51100000000E-03 0. -1.
</event>
<event>
 8    1  0.1132492E+005  0.1043930E+01  0.7957747E-01            NaN
         13   -1    0    0    0    0  0.00000000000E+00  0.00000000000E+00  0.74505805969E-08  0.10566000000E+00  0.10566000000E+00 0.  1.
     999900   -1    0    0    0    0 -0.00000000000E+00 -0.00000000000E+00 -0.74505805969E-08  0.93827000000E+00  0.93827000000E+00 0. -1.
     999902    2    1    2    0    0 -0.17803643475E-01 -0.11375981210E-01  0.46883015180E-02  0.10222883078E+01  0.10220592064E+01 0.  0.
     999903    2    3    3    0    0 -0.12702916029E+00  0.11463186639E-01 -0.37338206040E-01  0.13424660359E+00  0.18978849639E-01 0.  0.
         14    1    1    2    0    0  0.17803643475E-01  0.11375981210E-01 -0.46883015180E-02  0.21641692185E-01  0.00000000000E+00 0. -1.
     999901    1    3    3    0    0  0.10922551681E+00 -0.22839167848E-01  0.42026507558E-01  0.88804170423E+00  0.88000000000E+00 0.  1.
        -11    1    4    4    0    0 -0.14987096258E-01  0.76437775812E-02 -0.54327673643E-02  0.17686618450E-01  0.51100000000E-03 0. -1.
         11    1    4    4    0    0 -0.11204206403E+00  0.38194090574E-02 -0.31905438676E-01  0.11655998514E+00  0.51100000000E-03 0.  1.
</event>
<event>
 8    1  0.1132492E+005  0.1043930E+01  0.7957747E-01            NaN
         13   -1    0    0    0    0  0.00000000000E+00  0.00000000000E+00  0.74505805969E-08  0.10566000000E+00  0.10566000000E+00 0. -1.
     999900   -1    0    0    0    0 -0.00000000000E+00 -0.00000000000E+00 -0.74505805969E-08  0.93827000000E+00  0.93827000000E+00 0.  1.
     999902    2    1    2    0    0  0.80659322566E-02 -0.33724542719E-02 -0.20378759879E-01  0.10217550915E+01  0.10215144348E+01 0.  0.
     999903    2    3    3    0    0 -0.95512285850E-01 -0.87111876845E-01  0.92085564743E-02  0.13124055070E+00  0.20693206613E-01 0.  0.
         14    1    1    2    0    0 -0.80659322566E-02  0.33724542719E-02  0.20378759879E-01  0.22174908460E-01  0.00000000000E+00 0. -1.
     999901    1    3    3    0    0  0.10357821811E+00  0.83739422573E-01 -0.29587316353E-01  0.89051454084E+00  0.88000000000E+00 0. -1.
        -11    1    4    4    0    0 -0.35657438188E-01 -0.26603187536E-01  0.12004387867E-01  0.46081980581E-01  0.51100000000E-03 0. -1.
         11    1    4    4    0    0 -0.59854847661E-01 -0.60508689310E-01 -0.27958313923E-02  0.85158570119E-01  0.51100000000E-03 0.  1.
</event>
<event>
 8    1  0.1132492E+005  0.1043930E+01  0.7957747E-01            NaN
         13   -1    0    0    0    0  0.00000000000E+00  0.00000000000E+00  0.74505805969E-08  0.10566000000E+00  0.10566000000E+00 0.  1.
     999900   -1    0    0    0    0 -0.00000000000E+00 -0.00000000000E+00 -0.74505805969E-08  0.93827000000E+00  0.93827000000E+00 0.  1.
     999902    2    1    2    0    0 -0.17405395193E-01  0.16255785974E-01  0.72855773249E-03  0.10201029323E+01  0.10198246238E+01 0.  0.
     999903    2    3    3    0    0  0.59847972849E-01 -0.82307465189E-01 -0.75181463355E-01  0.12800140855E+00  0.19385806105E-01 0.  0.
         14    1    1    2    0    0  0.17405395193E-01 -0.16255785974E-01 -0.72855773249E-03  0.23827067714E-01  0.00000000000E+00 0. -1.
     999901    1    3    3    0    0 -0.77253368042E-01  0.98563251162E-01  0.75910021088E-01  0.89210152374E+00  0.88000000000E+00 0. -1.
        -11    1    4    4    0    0  0.19624647384E-01 -0.16155787646E-01 -0.12214049810E-01  0.28206034694E-01  0.51100000000E-03 0. -1.
         11    1    4    4    0    0  0.40223325464E-01 -0.66151677543E-01 -0.62967413545E-01  0.99795373854E-01  0.51100000000E-03 0.  1.
</event>
<event>
 8    1  0.1132492E+005  0.1043930E+01  0.7957747E-01            NaN
         13   -1    0    0    0    0  0.00000000000E+00  0.00000000000E+00  0.74505805969E-08  0.10566000000E+00  0.10566000000E+00 0. -1.
     999900   -1    0    0    0    0 -0.00000000000E+00 -0.00000000000E+00 -0.74505805969E-08  0.93827000000E+00  0.93827000000E+00 0. -1.
     999902    2    1    2    0    0 -0.92567596234E-02 -0.95193163152E-02 -0.19528069954E-01  0.10203153753E+01  0.10200420651E+01 0.  0.
     999903    2    3    3    0    0  0.26147960346E-01  0.12330071984E+00  0.17915749808E-01  0.12885775108E+00  0.19913879093E-01 0.  0.
         14    1    1    2    0    0  0.92567596234E-02  0.95193163152E-02  0.19528069954E-01  0.23614624663E-01  0.00000000000E+00 0.  1.
     999901    1    3    3    0    0 -0.35404719969E-01 -0.13282003615E+00 -0.37443819762E-01  0.89145762425E+00  0.88000000000E+00 0.  1.
        -11    1    4    4    0    0  0.10421991775E-01  0.15657488283E-01  0.29693708525E-02  0.19048704317E-01  0.51100000000E-03 0.  1.
         11    1    4    4    0    0  0.15725968570E-01  0.10764323156E+00  0.14946378956E-01  0.10980904677E+00  0.51100000000E-03 0. -1.
</event>
<event>
 8    1  0.1132492E+005  0.1043930E+01  0.7957747E-01            NaN
         13   -1    0    0    0    0  0.00000000000E+00  0.00000000000E+00  0.74505805969E-08  0.10566000000E+00  0.10566000000E+00 0. -1.
     999900   -1    0    0    0    0 -0.00000000000E+00 -0.00000000000E+00 -0.74505805969E-08  0.93827000000E+00  0.93827000000E+00 0. -1.
     999902    2    1    2    0    0  0.23054537306E-01 -0.77762936549E-03 -0.71130208864E-02  0.10197905828E+01  0.10195048412E+01 0.  0.
     999903    2    3    3    0    0 -0.26083899458E-01  0.86741705850E-01  0.89267322176E-01  0.12885658380E+00  0.20757433245E-01 0.  0.
         14    1    1    2    0    0 -0.23054537306E-01  0.77762936549E-03  0.71130208864E-02  0.24139417225E-01  0.00000000000E+00 0.  1.
     999901    1    3    3    0    0  0.49138436765E-01 -0.87519335215E-01 -0.96380343062E-01  0.89093399898E+00  0.88000000000E+00 0. -1.
        -11    1    4    4    0    0 -0.47087321247E-02  0.49450698860E-01  0.42999171450E-01  0.65701854178E-01  0.51100000000E-03 0.  1.
         11    1    4    4    0    0 -0.21375167333E-01  0.37291006990E-01  0.46268150726E-01  0.63154729620E-01  0.51100000000E-03 0. -1.
</event>
<event>
 8    1  0.1132492E+005  0.1043930E+01  0.7957747E-01            NaN
         13   -1    0    0    0    0  0.00000000000E+00  0.00000000000E+00  0.74505805969E-08  0.10566000000E+00  0.10566000000E+00 0. -1.
     999900   -1    0    0    0    0 -0.00000000000E+00 -0.00000000000E+00 -0.74505805969E-08  0.93827000000E+00  0.93827000000E+00 0. -1.
     999902    2    1    2    0    0  0.16216907829E-01 -0.14830364719E-01  0.10381979803E-01  0.10196254053E+01  0.10193356924E+01 0.  0.
     999903    2    3    3    0    0  0.98813487757E-01  0.61472813135E-01  0.57362116647E-01  0.13122712572E+00  0.19675720593E-01 0.  0.
         14    1    1    2    0    0 -0.16216907829E-01  0.14830364719E-01 -0.10381979803E-01  0.24304594665E-01  0.00000000000E+00 0.  1.
     999901    1    3    3    0    0 -0.82596579928E-01 -0.76303177854E-01 -0.46980136844E-01  0.88839827962E+00  0.88000000000E+00 0.  1.
        -11    1    4    4    0    0  0.89873424973E-02  0.40407663375E-02  0.11528948356E-01  0.15174909850E-01  0.51100000000E-03 0. -1.
         11    1    4    4    0    0  0.89826145259E-01  0.57432046798E-01  0.45833168291E-01  0.11605221587E+00  0.51100000000E-03 0.  1.
</event>
<event>
 8    1  0.1132492E+005  0.1043930E+01  0.7957747E-01            NaN
         13   -1    0    0    0    0  0.00000000000E+00  0.00000000000E+00  0.74505805969E-08  0.10566000000E+00  0.10566000000E+00 0. -1.
     999900   -1    0    0    0    0 -0.00000000000E+00 -0.00000000000E+00 -0.74505805969E-08  0.93827000000E+00  0.93827000000E+00 0. -1.
     999902    2    1    2    0    0  0.21550569217E-01  0.71743231569E-02 -0.55386576971E-02  0.10205510634E+01  0.10202832442E+01 0.  0.
     999903    2    3    3    0    0  0.48916331635E-01 -0.14917480665E-01  0.11910535403E+00  0.13107196732E+00  0.19453445172E-01 0.  0.
         14    1    1    2    0    0 -0.21550569217E-01 -0.71743231569E-02  0.55386576971E-02  0.23378936576E-01  0.00000000000E+00 0. -1.
     999901    1    3    3    0    0 -0.27365762418E-01  0.22091803821E-01 -0.12464401172E+00  0.88947909610E+00  0.88000000000E+00 0. -1.
        -11    1    4    4    0    0  0.47556384597E-01 -0.18264730297E-01  0.10872986824E+00  0.12007354187E+00  0.51100000000E-03 0.  1.
         11    1    4    4    0    0  0.13599470379E-02  0.33472496321E-02  0.10375485785E-01  0.10998425447E-01  0.51100000000E-03 0. -1.
</event>
<event>
 8    1  0.1132492E+005  0.1043930E+01  0.7957747E-01            NaN
         13   -1    0    0    0    0  0.00000000000E+00  0.00000000000E+00  0.74505805969E-08  0.10566000000E+00  0.10566000000E+00 0.  1.
     999900   -1    0    0    0    0 -0.00000000000E+00 -0.00000000000E+00 -0.74505805969E-08  0.93827000000E+00  0.93827000000E+00 0.  1.
     999902    2    1    2    0    0 -0.11810017650E-01 -0.53832209330E-02  0.19811216575E-01  0.10202458305E+01  0.10199708891E+01 0.  0.
     999903    2    3    3    0    0  0.42093317574E-01  0.68772682641E-01  0.10077060966E+00  0.13178700142E+00  0.26675245256E-01 0.  0.
         14    1    1    2    0    0  0.11810017650E-01  0.53832209330E-02 -0.19811216575E-01  0.23684169538E-01  0.00000000000E+00 0. -1.
     999901    1    3    3    0    0 -0.53903335224E-01 -0.74155903574E-01 -0.80959393082E-01  0.88845882905E+00  0.88000000000E+00 0.  1.
        -11    1    4    4    0    0  0.26298300860E-01  0.61838187156E-01  0.74236064780E-01  0.10013399250E+00  0.51100000000E-03 0.  1.
         11    1    4    4    0    0  0.15795016714E-01  0.69344954852E-02  0.26534544877E-01  0.31653008916E-01  0.51100000000E-03 0. -1.
</event>
<event>
 8    1  0.1132492E+005  0.1043930E+01  0.7957747E-01            NaN
         13   -1    0    0    0    0  0.00000000000E+00  0.00000000000E+00  0.74505805969E-08  0.10566000000E+00  0.10566000000E+00 0.  1.
     999900   -1    0    0    0    0 -0.00000000000E+00 -0.00000000000E+00 -0.74505805969E-08  0.93827000000E+00  0.93827000000E+00 0.  1.
     999902    2    1    2    0    0  0.16413895248E-01  0.88112416169E-02 -0.13202551074E-01  0.10210966627E+01  0.10208413360E+01 0.  0.
     999903    2    3    3    0    0  0.67321047193E-01  0.25298397616E-03 -0.11404882955E+00  0.13383415717E+00  0.19294007043E-01 0.  0.
         14    1    1    2    0    0 -0.16413895248E-01 -0.88112416169E-02  0.13202551074E-01  0.22833337271E-01  0.00000000000E+00 0.  1.
     999901    1    3    3    0    0 -0.50907151945E-01  0.85582576408E-02  0.10084627847E+00  0.88726250556E+00  0.88000000000E+00 0. -1.
        -11    1    4    4    0    0  0.57311094297E-01 -0.60277166435E-02 -0.87544878574E-01  0.10481059957E+00  0.51100000000E-03 0.  1.
         11    1    4    4    0    0  0.10009952896E-01  0.62807006197E-02 -0.26503950973E-01  0.29023557594E-01  0.51100000000E-03 0. -1.
</event>
<event>
 8    1  0.1132492E+005  0.1043930E+01  0.7957747E-01            NaN
         13   -1    0    0    0    0  0.00000000000E+00  0.00000000000E+00  0.74505805969E-08  0.10566000000E+00  0.10566000000E+00 0. -1.
     999900   -1    0    0    0    0 -0.00000000000E+00 -0.00000000000E+00 -0.74505805969E-08  0.93827000000E+00  0.93827000000E+00 0.  1.
     999902    2    1    2    0    0 -0.36149494561E-02  0.65211885658E-02 -0.21169608242E-01  0.10214857118E+01  0.10212391068E+01 0.  0.
     999903    2    3    3    0    0  0.10190968271E+00 -0.28301580612E-01  0.72116054766E-01  0.12960551347E+00  0.20255884844E-01 0.  0.
         14    1    1    2    0    0  0.36149494561E-02 -0.65211885658E-02  0.21169608242E-01  0.22444288204E-01  0.00000000000E+00 0. -1.
     999901    1    3    3    0    0 -0.10552463217E+00  0.34822769178E-01 -0.93285663008E-01  0.89188019833E+00  0.88000000000E+00 0.  1.
        -11    1    4    4    0    0  0.18186492633E-01 -0.10802632206E-01  0.76540675357E-02  0.22500916597E-01  0.51100000000E-03 0. -1.
         11    1    4    4    0    0  0.83723190078E-01 -0.17498948406E-01  0.64461987230E-01  0.10710459687E+00  0.51100000000E-03 0.  1.
</event>
<event>
 8    1  0.1132492E+005  0.1043930E+01  0.7957747E-01            NaN
         13   -1    0    0    0    0  0.00000000000E+00  0.00000000000E+00  0.74505805969E-08  0.10566000000E+00  0.10566000000E+00 0.  1.
     999900   -1    0    0    0    0 -0.00000000000E+00 -0.00000000000E+00 -0.74505805969E-08  0.93827000000E+00  0.93827000000E+00 0.  1.
     999902    2    1    2    0    0  0.70411507418E-02  0.54380264687E-02  0.20683775995E-01  0.10214140384E+01  0.10211658383E+01 0.  0.
     999903    2    3    3    0    0  0.36780032550E-01  0.11901553416E+00  0.43103097187E-01  0.13333359315E+00  0.20062450191E-01 0.  0.
         14    1    1    2    0    0 -0.70411507418E-02 -0.54380264687E-02 -0.20683775995E-01  0.22515961562E-01  0.00000000000E+00 0. -1.
     999901    1    3    3    0    0 -0.29738881808E-01 -0.11357750770E+00 -0.22419321192E-01  0.88808044529E+00  0.88000000000E+00 0. -1.
        -11    1    4    4    0    0  0.76896552406E-02  0.41704573606E-01  0.23295817129E-01  0.48387585950E-01  0.51100000000E-03 0. -1.
         11    1    4    4    0    0  0.29090377309E-01  0.77310960559E-01  0.19807280058E-01  0.84946007197E-01  0.51100000000E-03 0.  1.
</event>
<event>
 8    1  0.1132492E+005  0.1043930E+01  0.7957747E-01            NaN
         13   -1    0    0    0    0  0.00000000000E+00  0.00000000000E+00  0.74505805969E-08  0.10566000000E+00  0.10566000000E+00 0.  1.
     999900   -1    0    0    0    0 -0.00000000000E+00 -0.00000000000E+00 -0.74505805969E-08  0.93827000000E+00  0.93827000000E+00 0.  1.
     999902    2    1    2    0    0 -0.78554606127E-02  0.24242133537E-02  0.22406731122E-01  0.10200627280E+01  0.10197834684E+01 0.  0.
     999903    2    3    3    0    0 -0.92852960684E-01  0.84491430901E-01 -0.29923801519E-01  0.13062577812E+00  0.20178845578E-01 0.  0.
         14    1    1    2    0    0  0.78554606127E-02 -0.24242133537E-02 -0.22406731122E-01  0.23867271972E-01  0.00000000000E+00 0. -1.
     999901    1    3    3    0    0  0.84997500071E-01 -0.82067217547E-01  0.52330532641E-01  0.88943694991E+00  0.88000000000E+00 0. -1.
        -11    1    4    4    0    0 -0.29954860690E-01  0.25109302899E-01 -0.18914168547E-01  0.43425541607E-01  0.51100000000E-03 0. -1.
         11    1    4    4    0    0 -0.62898099994E-01  0.59382128001E-01 -0.11009632972E-01  0.87200236513E-01  0.51100000000E-03 0.  1.
</event>
<event>
 8    1  0.1132492E+005  0.1043930E+01  0.7957747E-01            NaN
         13   -1    0    0    0    0  0.00000000000E+00  0.00000000000E+00  0.74505805969E-08  0.10566000000E+00  0.10566000000E+00 0.  1.
     999900   -1    0    0    0    0 -0.00000000000E+00 -0.00000000000E+00 -0.74505805969E-08  0.93827000000E+00  0.93827000000E+00 0. -1.
     999902    2    1    2    0    0  0.62109034659E-02  0.23329024371E-02  0.22075583564E-01  0.10208789882E+01  0.10206187140E+01 0.  0.
     999903    2    3    3    0    0 -0.50438824689E-01  0.90745295347E-01  0.80056695683E-01  0.13274175089E+00  0.20796976754E-01 0.  0.
         14    1    1    2    0    0 -0.62109034659E-02 -0.23329024371E-02 -0.22075583564E-01  0.23051011807E-01  0.00000000000E+00 0. -1.
     999901    1    3    3    0    0  0.56649728155E-01 -0.88412392910E-01 -0.57981112119E-01  0.88813723730E+00  0.88000000000E+00 0. -1.
        -11    1    4    4    0    0 -0.28419352449E-01  0.66781023019E-01  0.47721288124E-01  0.86861654891E-01  0.51100000000E-03 0.  1.
         11    1    4    4    0    0 -0.22019472240E-01  0.23964272328E-01  0.32335407559E-01  0.45880096000E-01  0.51100000000E-03 0. -1.
</event>
<event>
 8    1  0.1132492E+005  0.1043930E+01  0.7957747E-01            NaN
         13   -1    0    0    0    0  0.00000000000E+00  0.00000000000E+00  0.74505805969E-08  0.10566000000E+00  0.10566000000E+00 0.  1.
     999900   -1    0    0    0    0 -0.00000000000E+00 -0.00000000000E+00 -0.74505805969E-08  0.93827000000E+00  0.93827000000E+00 0. -1.
     999902    2    1    2    0    0  0.13321335181E-01  0.44545753955E-02 -0.19434937707E-01  0.10199504667E+01  0.10196685425E+01 0.  0.
     999903    2    3    3    0    0 -0.11300967881E+00 -0.44655778272E-01  0.34488535258E-01  0.12794200662E+00  0.20356128219E-01 0.  0.
         14    1    1    2    0    0 -0.13321335181E-01 -0.44545753955E-02  0.19434937707E-01  0.23979533287E-01  0.00000000000E+00 0.  1.
     999901    1    3    3    0    0  0.12633101400E+00  0.49110353667E-01 -0.53923472965E-01  0.89200846009E+00  0.88000000000E+00 0.  1.
        -11    1    4    4    0    0 -0.10224181822E+00 -0.43061535094E-01  0.36638710014E-01  0.11683467546E+00  0.51100000000E-03 0. -1.
         11    1    4    4    0    0 -0.10767860595E-01 -0.15942431781E-02 -0.21501747565E-02  0.11107331164E-01  0.51100000000E-03 0.  1.
</event>
<event>
 8    1  0.1132492E+005  0.1043930E+01  0.7957747E-01            NaN
         13   -1    0    0    0    0  0.00000000000E+00  0.00000000000E+00  0.74505805969E-08  0.10566000000E+00  0.10566000000E+00 0. -1.
     999900   -1    0    0    0    0 -0.00000000000E+00 -0.00000000000E+00 -0.74505805969E-08  0.93827000000E+00  0.93827000000E+00 0. -1.
     999902    2    1    2    0    0  0.36320688706E-02  0.91287916222E-02  0.22253227751E-01  0.10196044392E+01  0.10193142203E+01 0.  0.
     999903    2    3    3    0    0  0.38280308969E-01  0.57700108612E-01  0.11184412381E+00  0.13304581059E+00  0.19934771066E-01 0.  0.
         14    1    1    2    0    0 -0.36320688706E-02 -0.91287916222E-02 -0.22253227751E-01  0.24325560756E-01  0.00000000000E+00 0.  1.
     999901    1    3    3    0    0 -0.34648240099E-01 -0.48571316990E-01 -0.89590896059E-01  0.88655862865E+00  0.88000000000E+00 0. -1.
        -11    1    4    4    0    0  0.23393479007E-01  0.27084494289E-01  0.40865680907E-01  0.54323932920E-01  0.51100000000E-03 0.  1.
         11    1    4    4    0    0  0.14886829962E-01  0.30615614323E-01  0.70978442903E-01  0.78721877675E-01  0.51100000000E-03 0. -1.
</event>
<event>
 8    1  0.1132492E+005  0.1043930E+01  0.7957747E-01            NaN
         13   -1    0    0    0    0  0.00000000000E+00  0.00000000000E+00  0.74505805969E-08  0.10566000000E+00  0.10566000000E+00 0. -1.
     999900   -1    0    0    0    0 -0.00000000000E+00 -0.00000000000E+00 -0.74505805969E-08  0.93827000000E+00  0.93827000000E+00 0. -1.
     999902    2    1    2    0    0  0.93800101692E-02  0.17668712028E-01 -0.49844739925E-02  0.10233141576E+01  0.10231064716E+01 0.  0.
     999903    2    3    3    0    0 -0.10925485908E+00  0.27601179656E-01  0.66745408557E-01  0.13240559770E+00  0.19438194023E-01 0.  0.
         14    1    1    2    0    0 -0.93800101692E-02 -0.17668712028E-01  0.49844739925E-02  0.20615842366E-01  0.00000000000E+00 0. -1.
     999901    1    3    3    0    0  0.11863486925E+00 -0.99324676282E-02 -0.71729882550E-01  0.89090855994E+00  0.88000000000E+00 0. -1.
        -11    1    4    4    0    0 -0.21471863930E-01  0.12896862691E-01  0.18672068250E-01  0.31245435853E-01  0.51100000000E-03 0. -1.
         11    1    4    4    0    0 -0.87782995152E-01  0.14704316965E-01  0.48073340307E-01  0.10116016185E+00  0.51100000000E-03 0.  1.
</event>
<event>
 8    1  0.1203009E+005  0.1043930E+01  0.7957747E-01            NaN
         13   -1    0    0    0    0  0.00000000000E+00  0.00000000000E+00  0.74505805969E-08  0.10566000000E+00  0.10566000000E+00 0. -1.
     999900   -1    0    0    0    0 -0.00000000000E+00 -0.00000000000E+00 -0.74505805969E-08  0.93827000000E+00  0.93827000000E+00 0.  1.
     999902    2    1    2    0    0 -0.17591739273E-01  0.15505284634E-02  0.16426654264E-01  0.10198113682E+01  0.10195261244E+01 0.  0.
     999903    2    3    3    0    0 -0.71706639563E-01 -0.62589432935E-01  0.90287279021E-01  0.13273879566E+00  0.20211774965E-01 0.  0.
         14    1    1    2    0    0  0.17591739273E-01 -0.15505284634E-02 -0.16426654264E-01  0.24118631791E-01  0.00000000000E+00 0. -1.
     999901    1    3    3    0    0  0.54114900290E-01  0.64139961399E-01 -0.73860624757E-01  0.88707257255E+00  0.88000000000E+00 0.  1.
        -11    1    4    4    0    0 -0.42983983171E-01 -0.29491696476E-01  0.59902992111E-01  0.79410405836E-01  0.51100000000E-03 0. -1.
         11    1    4    4    0    0 -0.28722656392E-01 -0.33097736460E-01  0.30384286910E-01  0.53328389822E-01  0.51100000000E-03 0.  1.
</event>
<event>
 8    1  0.1132492E+005  0.1043930E+01  0.7957747E-01            NaN
         13   -1    0    0    0    0  0.00000000000E+00  0.00000000000E+00  0.74505805969E-08  0.10566000000E+00  0.10566000000E+00 0.  1.
     999900   -1    0    0    0    0 -0.00000000000E+00 -0.00000000000E+00 -0.74505805969E-08  0.93827000000E+00  0.93827000000E+00 0. -1.
     999902    2    1    2    0    0  0.20516825982E-01 -0.10038177725E-01  0.40002962940E-02  0.10207414785E+01  0.10204780538E+01 0.  0.
     999903    2    3    3    0    0 -0.33121449879E-01  0.10328411090E+00 -0.67036644219E-01  0.12902108919E+00  0.19694968430E-01 0.  0.
         14    1    1    2    0    0 -0.20516825982E-01  0.10038177725E-01 -0.40002962940E-02  0.23188521532E-01  0.00000000000E+00 0. -1.
     999901    1    3    3    0    0  0.53638275861E-01 -0.11332228862E+00  0.71036940513E-01  0.89172038928E+00  0.88000000000E+00 0.  1.
        -11    1    4    4    0    0 -0.67505217353E-02  0.50347256236E-01 -0.26291224282E-01  0.57200571233E-01  0.51100000000E-03 0. -1.
         11    1    4    4    0    0 -0.26370928143E-01  0.52936854663E-01 -0.40745419937E-01  0.71820517957E-01  0.51100000000E-03 0.  1.
</event>
<event>
 8    1  0.1132492E+005  0.1043930E+01  0.7957747E-01            NaN
         13   -1    0    0    0    0  0.00000000000E+00  0.00000000000E+00  0.74505805969E-08  0.10566000000E+00  0.10566000000E+00 0. -1.
     999900   -1    0    0    0    0 -0.00000000000E+00 -0.00000000000E+00 -0.74505805969E-08  0.93827000000E+00  0.93827000000E+00 0. -1.
     999902    2    1    2    0    0  0.51711753176E-02 -0.14517095790E-01 -0.17684472972E-01  0.10204730669E+01  0.10202034369E+01 0.  0.
     999903    2    3    3    0    0  0.14453362848E-01  0.97985797712E-02  0.12565563067E+00  0.12849560288E+00  0.20417408650E-01 0.  0.
         14    1    1    2    0    0 -0.51711753176E-02  0.14517095790E-01  0.17684472972E-01  0.23456933061E-01  0.00000000000E+00 0. -1.
     999901    1    3    3    0    0 -0.92821875308E-02 -0.24315675561E-01 -0.14334010364E+00  0.89197746406E+00  0.88000000000E+00 0. -1.
        -11    1    4    4    0    0  0.14207078127E-01  0.46543525946E-04  0.43567387216E-01  0.45828174576E-01  0.51100000000E-03 0. -1.
         11    1    4    4    0    0  0.24628472147E-03  0.97520362453E-02  0.82088243456E-01  0.82667428300E-01  0.51100000000E-03 0.  1.
</event>
<event>
 8    1  0.1132492E+005  0.1043930E+01  0.7957747E-01            NaN
         13   -1    0    0    0    0  0.00000000000E+00  0.00000000000E+00  0.74505805969E-08  0.10566000000E+00  0.10566000000E+00 0. -1.
     999900   -1    0    0    0    0 -0.00000000000E+00 -0.00000000000E+00 -0.74505805969E-08  0.93827000000E+00  0.93827000000E+00 0. -1.
     999902    2    1    2    0    0 -0.13194922935E-01 -0.15340488855E-01  0.11387318124E-01  0.10207113092E+01  0.10204471907E+01 0.  0.
     999903    2    3    3    0    0  0.11026119951E+00  0.20216008228E-01 -0.59264007279E-01  0.12858055170E+00  0.21319395186E-01 0.  0.
         14    1    1    2    0    0  0.13194922935E-01  0.15340488855E-01 -0.11387318124E-01  0.23218690825E-01  0.00000000000E+00 0.  1.
     999901    1    3    3    0    0 -0.12345612244E+00 -0.35556497083E-01  0.70651325402E-01  0.89213075748E+00  0.88000000000E+00 0.  1.
        -11    1    4    4    0    0  0.59015830535E-01  0.13274464734E-01 -0.20224394599E-01  0.63783751267E-01  0.51100000000E-03 0. -1.
         11    1    4    4    0    0  0.51245368972E-01  0.69415434938E-02 -0.39039612679E-01  0.64796800432E-01  0.51100000000E-03 0.  1.
</event>
<event>
 8    1  0.1132492E+005  0.1043930E+01  0.7957747E-01            NaN
         13   -1    0    0    0    0  0.00000000000E+00  0.00000000000E+00  0.74505805969E-08  0.10566000000E+00  0.10566000000E+00 0.  1.
     999900   -1    0    0    0    0 -0.00000000000E+00 -0.00000000000E+00 -0.74505805969E-08  0.93827000000E+00  0.93827000000E+00 0.  1.
     999902    2    1    2    0    0  0.18752685034E-01 -0.15313372373E-01  0.38815771124E-03  0.10197160942E+01  0.10194285652E+01 0.  0.
     999903    2    3    3    0    0 -0.71134310309E-01  0.55219847814E-01 -0.88520207596E-01  0.12788690396E+00  0.20246267691E-01 0.  0.
         14    1    1    2    0    0 -0.18752685034E-01  0.15313372373E-01 -0.38815771124E-03  0.24213905836E-01  0.00000000000E+00 0.  1.
     999901    1    3    3    0    0  0.89886995343E-01 -0.70533220187E-01  0.88908365308E-01  0.89182919021E+00  0.88000000000E+00 0. -1.
        -11    1    4    4    0    0 -0.23593827505E-01  0.27582576353E-01 -0.26171657599E-01  0.44751357489E-01  0.51100000000E-03 0. -1.
         11    1    4    4    0    0 -0.47540482804E-01  0.27637271462E-01 -0.62348549997E-01  0.83135546470E-01  0.51100000000E-03 0.  1.
</event>
<event>
 8    1  0.1132492E+005  0.1043930E+01  0.7957747E-01            NaN
         13   -1    0    0    0    0  0.00000000000E+00  0.00000000000E+00  0.74505805969E-08  0.10566000000E+00  0.10566000000E+00 0. -1.
     999900   -1    0    0    0    0 -0.00000000000E+00 -0.00000000000E+00 -0.74505805969E-08  0.93827000000E+00  0.93827000000E+00 0.  1.
     999902    2    1    2    0    0  0.14148771609E-01  0.96911314133E-02 -0.16469478691E-01  0.10201529208E+01  0.10198757926E+01 0.  0.
     999903    2    3    3    0    0  0.36085568903E-01  0.97688101953E-01  0.76549424187E-01  0.13061528463E+00  0.18852179972E-01 0.  0.
         14    1    1    2    0    0 -0.14148771609E-01 -0.96911314133E-02  0.16469478691E-01  0.23777079183E-01  0.00000000000E+00 0.  1.
     999901    1    3    3    0    0 -0.21936797293E-01 -0.87996970540E-01 -0.93018902878E-01  0.88953763619E+00  0.88000000000E+00 0.  1.
        -11    1    4    4    0    0  0.16209282521E-01  0.29003193368E-01  0.33325440568E-01  0.47061366060E-01  0.51100000000E-03 0. -1.
         11    1    4    4    0    0  0.19876286381E-01  0.68684908585E-01  0.43223983619E-01  0.83553918571E-01  0.51100000000E-03 0.  1.
</event>
<event>
 8    1  0.1132492E+005  0.1043930E+01  0.7957747E-01            NaN
         13   -1    0    0    0    0  0.00000000000E+00  0.00000000000E+00  0.74505805969E-08  0.10566000000E+00  0.10566000000E+00 0. -1.
     999900   -1    0    0    0    0 -0.00000000000E+00 -0.00000000000E+00 -0.74505805969E-08  0.93827000000E+00  0.93827000000E+00 0. -1.
     999902    2    1    2    0    0  0.73988052466E-02 -0.24039876327E-01 -0.98095290591E-02  0.10169321328E+01  0.10165736953E+01 0.  0.
     999903    2    3    3    0    0 -0.96813455681E-01 -0.80928897733E-01  0.14597203605E-01  0.12862349011E+00  0.20213662839E-01 0.  0.
         14    1    1    2    0    0 -0.73988052466E-02  0.24039876327E-01  0.98095290591E-02  0.26997867199E-01  0.00000000000E+00 0. -1.
     999901    1    3    3    0    0  0.10421226093E+00  0.56889021406E-01 -0.24406732664E-01  0.88830864269E+00  0.88000000000E+00 0. -1.
        -11    1    4    4    0    0 -0.31517822994E-01 -0.39084562034E-01  0.70019035671E-02  0.50697770466E-01  0.51100000000E-03 0.  1.
         11    1    4    4    0    0 -0.65295632687E-01 -0.41844335699E-01  0.75953000374E-02  0.77925719642E-01  0.51100000000E-03 0. -1.
</event>
<event>
 8    1  0.1132492E+005  0.1043930E+01  0.7957747E-01            NaN
         13   -1    0    0    0    0  0.00000000000E+00  0.00000000000E+00  0.74505805969E-08  0.10566000000E+00  0.10566000000E+00 0. -1.
     999900   -1    0    0    0    0 -0.00000000000E+00 -0.00000000000E+00 -0.74505805969E-08  0.93827000000E+00  0.93827000000E+00 0. -1.
     999902    2    1    2    0    0  0.77779083654E-04 -0.52590715228E-02  0.23299996535E-01  0.10200437336E+01  0.10197640241E+01 0.  0.
     999903    2    3    3    0    0 -0.12041636688E+00 -0.19871741256E-02  0.49494445498E-01  0.13144050739E+00  0.17968210083E-01 0.  0.
         14    1    1    2    0    0 -0.77779083654E-04  0.52590715228E-02 -0.23299996535E-01  0.23886266376E-01  0.00000000000E+00 0.  1.
     999901    1    3    3    0    0  0.12049414596E+00 -0.32718973972E-02 -0.26194448963E-01  0.88860322624E+00  0.88000000000E+00 0. -1.
        -11    1    4    4    0    0 -0.32336941428E-01 -0.84408106367E-02  0.12418142034E-01  0.35656646473E-01  0.51100000000E-03 0. -1.
         11    1    4    4    0    0 -0.88079425451E-01  0.64536365111E-02  0.37076303464E-01  0.95783860913E-01  0.51100000000E-03 0.  1.
</event>
<event>
 8    1  0.1132492E+005  0.1043930E+01  0.7957747E-01            NaN
         13   -1    0    0    0    0  0.00000000000E+00  0.00000000000E+00  0.74505805969E-08  0.10566000000E+00  0.10566000000E+00 0. -1.
     999900   -1    0    0    0    0 -0.00000000000E+00 -0.00000000000E+00 -0.74505805969E-08  0.93827000000E+00  0.93827000000E+00 0. -1.
     999902    2    1    2    0    0  0.69847886054E-02  0.23221526647E-01 -0.12799806935E-02  0.10196469828E+01  0.10193577903E+01 0.  0.
     999903    2    3    3    0    0 -0.90337238008E-02  0.46384280296E-01  0.12047572786E+00  0.13081766376E+00  0.19124605210E-01 0.  0.
         14    1    1    2    0    0 -0.69847886054E-02 -0.23221526647E-01  0.12799806935E-02  0.24283017158E-01  0.00000000000E+00 0. -1.
     999901    1    3    3    0    0  0.16018512406E-01 -0.23162753649E-01 -0.12175570855E+00  0.88882931908E+00  0.88000000000E+00 0. -1.
        -11    1    4    4    0    0 -0.43451081625E-02  0.12793214981E-01  0.59746990547E-01  0.61257736776E-01  0.51100000000E-03 0. -1.
         11    1    4    4    0    0 -0.46886156383E-02  0.33591065316E-01  0.60728737310E-01  0.69559926983E-01  0.51100000000E-03 0.  1.
</event>
<event>
 8    1  0.1132492E+005  0.1043930E+01  0.7957747E-01            NaN
         13   -1    0    0    0    0  0.00000000000E+00  0.00000000000E+00  0.74505805969E-08  0.10566000000E+00  0.10566000000E+00 0.  1.
     999900   -1    0    0    0    0 -0.00000000000E+00 -0.00000000000E+00 -0.74505805969E-08  0.93827000000E+00  0.93827000000E+00 0. -1.
     999902    2    1    2    0    0 -0.15608444393E-01  0.81389658067E-03 -0.17497795273E-01  0.10204681415E+01  0.10201983969E+01 0.  0.
     999903    2    3    3    0    0 -0.10499218252E-01  0.12842282768E+00 -0.14295610921E-01  0.13124353689E+00  0.20441262918E-01 0.  0.
         14    1    1    2    0    0  0.15608444393E-01 -0.81389658067E-03  0.17497795273E-01  0.23461858482E-01  0.00000000000E+00 0.  1.
     999901    1    3    3    0    0 -0.51092261408E-02 -0.12760893110E+00 -0.32021843519E-02  0.88922460463E+00  0.88000000000E+00 0. -1.
        -11    1    4    4    0    0 -0.10487486422E-01  0.28965960948E-01 -0.64355449846E-02  0.31475254175E-01  0.51100000000E-03 0. -1.
         11    1    4    4    0    0 -0.11731829486E-04  0.99456866737E-01 -0.78600659366E-02  0.99768282717E-01  0.51100000000E-03 0.  1.
</event>
<event>
 8    1  0.1132492E+005  0.1043930E+01  0.7957747E-01            NaN
         13   -1    0    0    0    0  0.00000000000E+00  0.00000000000E+00  0.74505805969E-08  0.10566000000E+00  0.10566000000E+00 0.  1.
     999900   -1    0    0    0    0 -0.00000000000E+00 -0.00000000000E+00 -0.74505805969E-08  0.93827000000E+00  0.93827000000E+00 0. -1.
     999902    2    1    2    0    0  0.75459036538E-02 -0.23031700898E-01  0.19126333113E-03  0.10196929109E+01  0.10194048244E+01 0.  0.
     999903    2    3    3    0    0 -0.11523702189E+00  0.61062335238E-02  0.54350479384E-01  0.12904265026E+00  0.19523669621E-01 0.  0.
         14    1    1    2    0    0 -0.75459036538E-02  0.23031700898E-01 -0.19126333113E-03  0.24237089138E-01  0.00000000000E+00 0. -1.
     999901    1    3    3    0    0  0.12278292554E+00 -0.29137934422E-01 -0.54159216052E-01  0.89065026060E+00  0.88000000000E+00 0.  1.
        -11    1    4    4    0    0 -0.88706115561E-01  0.53797562516E-02  0.50507140850E-01  0.10222010132E+00  0.51100000000E-03 0.  1.
         11    1    4    4    0    0 -0.26530906327E-01  0.72647727213E-03  0.38433385334E-02  0.26822548944E-01  0.51100000000E-03 0. -1.
</event>
<event>
 8    1  0.1132492E+005  0.1043930E+01  0.7957747E-01            NaN
         13   -1    0    0    0    0  0.00000000000E+00  0.00000000000E+00  0.74505805969E-08  0.10566000000E+00  0.10566000000E+00 0. -1.
     999900   -1    0    0    0    0 -0.00000000000E+00 -0.00000000000E+00 -0.74505805969E-08  0.93827000000E+00  0.93827000000E+00 0.  1.
     999902    2    1    2    0    0 -0.39534817735E-02  0.21586859550E-01 -0.40311954438E-03  0.10219803980E+01  0.10217446593E+01 0.  0.
     999903    2    3    3    0    0 -0.88842581998E-02  0.12546154136E+00 -0.44260664169E-01  0.13477256083E+00  0.19624177855E-01 0.  0.
         14    1    1    2    0    0  0.39534817735E-02 -0.21586859550E-01  0.40311954438E-03  0.21949602017E-01  0.00000000000E+00 0. -1.
     999901    1    3    3    0    0  0.49307764263E-02 -0.10387468181E+00  0.43857544624E-01  0.88720783715E+00  0.88000000000E+00 0.  1.
        -11    1    4    4    0    0 -0.14552780703E-02  0.59869500177E-01 -0.11141181911E-01  0.60916844477E-01  0.51100000000E-03 0. -1.
         11    1    4    4    0    0 -0.74289801295E-02  0.65592041185E-01 -0.33119482258E-01  0.73855716357E-01  0.51100000000E-03 0.  1.
</event>
<event>
 8    1  0.1132492E+005  0.1043930E+01  0.7957747E-01            NaN
         13   -1    0    0    0    0  0.00000000000E+00  0.00000000000E+00  0.74505805969E-08  0.10566000000E+00  0.10566000000E+00 0.  1.
     999900   -1    0    0    0    0 -0.00000000000E+00 -0.00000000000E+00 -0.74505805969E-08  0.93827000000E+00  0.93827000000E+00 0. -1.
     999902    2    1    2    0    0  0.16036331470E-01  0.16452655734E-01  0.13557679673E-02  0.10209149633E+01  0.10206555101E+01 0.  0.
     999903    2    3    3    0    0 -0.60961613801E-02 -0.12469853038E+00  0.25256854630E-01  0.12907149804E+00  0.20848410916E-01 0.  0.
         14    1    1    2    0    0 -0.16036331470E-01 -0.16452655734E-01 -0.13557679673E-02  0.23015036704E-01  0.00000000000E+00 0. -1.
     999901    1    3    3    0    0  0.22132492850E-01  0.14115118611E+00 -0.23901086662E-01  0.89184346526E+00  0.88000000000E+00 0. -1.
        -11    1    4    4    0    0 -0.81803733712E-02 -0.48477048591E-01  0.18464021183E-01  0.52517844090E-01  0.51100000000E-03 0. -1.
         11    1    4    4    0    0  0.20842119911E-02 -0.76221481787E-01  0.67928334465E-02  0.76553653948E-01  0.51100000000E-03 0.  1.
</event>
<event>
 7    1  0.1132492E+005  0.1043930E+01  0.7957747E-01            NaN
         13   -1    0    0    0    0  0.00000000000E+00  0.00000000000E+00  0.74505805969E-08  0.10566000000E+00  0.10566000000E+00 0.  1.
     999900   -1    0    0    0    0 -0.00000000000E+00 -0.00000000000E+00 -0.74505805969E-08  0.93827000000E+00  0.93827000000E+00 0.  1.
     999903    2    1    2    0    0  0.42729873792E-01 -0.74004939439E-01  0.79103746174E-01  0.11822917755E+00  0.20449024200E-01 0.  0.
         14    1    1    2    0    0 -0.51243790317E-02  0.34433808424E-01  0.17082172239E-01  0.38778177258E-01  0.00000000000E+00 0.  1.
     999901    1    1    2    0    0 -0.37605494760E-01  0.39571131016E-01 -0.96185918413E-01  0.88692264519E+00  0.88000000000E+00 0.  1.
        -11    1    3    3    0    0  0.19828470958E-01 -0.33199354776E-01  0.49655259610E-01  0.62938631587E-01  0.51100000000E-03 0.  1.
         11    1    3    3    0    0  0.22901402834E-01 -0.40805584663E-01  0.29448486564E-01  0.55290545968E-01  0.51100000000E-03 0. -1.
</event>
<event>
 8    1  0.1132492E+005  0.1043930E+01  0.7957747E-01            NaN
         13   -1    0    0    0    0  0.00000000000E+00  0.00000000000E+00  0.74505805969E-08  0.10566000000E+00  0.10566000000E+00 0.  1.
     999900   -1    0    0    0    0 -0.00000000000E+00 -0.00000000000E+00 -0.74505805969E-08  0.93827000000E+00  0.93827000000E+00 0.  1.
     999902    2    1    2    0    0  0.32538799570E-02 -0.21764244300E-01  0.86901156970E-02  0.10202701569E+01  0.10199957867E+01 0.  0.
     999903    2    3    3    0    0  0.73181278622E-02  0.70471457560E-01 -0.10492996986E+00  0.12817516944E+00  0.19969831245E-01 0.  0.
         14    1    1    2    0    0 -0.32538799570E-02  0.21764244300E-01 -0.86901156970E-02  0.23659843101E-01  0.00000000000E+00 0. -1.
     999901    1    3    3    0    0 -0.40642479053E-02 -0.92235701860E-01  0.11362008556E+00  0.89209498746E+00  0.88000000000E+00 0. -1.
        -11    1    4    4    0    0  0.73947200659E-02  0.28435542400E-01 -0.28442470525E-01  0.40896175946E-01  0.51100000000E-03 0.  1.
         11    1    4    4    0    0 -0.76592203634E-04  0.42035915159E-01 -0.76487499335E-01  0.87278993493E-01  0.51100000000E-03 0. -1.
</event>
<event>
 8    1  0.1132492E+005  0.1043930E+01  0.7957747E-01            NaN
         13   -1    0    0    0    0  0.00000000000E+00  0.00000000000E+00  0.74505805969E-08  0.10566000000E+00  0.10566000000E+00 0. -1.
     999900   -1    0    0    0    0 -0.00000000000E+00 -0.00000000000E+00 -0.74505805969E-08  0.93827000000E+00  0.93827000000E+00 0.  1.
     999902    2    1    2    0    0  0.81778516906E-02  0.24147489740E-01  0.99267785682E-02  0.10165709165E+01  0.10162026908E+01 0.  0.
     999903    2    3    3    0    0 -0.12539041067E-01 -0.99796623184E-01  0.71649598953E-01  0.12550355687E+00  0.22380442539E-01 0.  0.
         14    1    1    2    0    0 -0.81778516906E-02 -0.24147489740E-01 -0.99267785682E-02  0.27359083533E-01  0.00000000000E+00 0.  1.
     999901    1    3    3    0    0  0.20716892757E-01  0.12394411292E+00 -0.61722820385E-01  0.89106735959E+00  0.88000000000E+00 0. -1.
        -11    1    4    4    0    0  0.64639241946E-02 -0.21559497720E-01  0.16523784312E-01  0.27926525507E-01  0.51100000000E-03 0. -1.
         11    1    4    4    0    0 -0.19002965261E-01 -0.78237125464E-01  0.55125814641E-01  0.97577031368E-01  0.51100000000E-03 0.  1.
</event>
<event>
 8    1  0.1132492E+005  0.1043930E+01  0.7957747E-01            NaN
         13   -1    0    0    0    0  0.00000000000E+00  0.00000000000E+00  0.74505805969E-08  0.10566000000E+00  0.10566000000E+00 0. -1.
     999900   -1    0    0    0    0 -0.00000000000E+00 -0.00000000000E+00 -0.74505805969E-08  0.93827000000E+00  0.93827000000E+00 0. -1.
     999902    2    1    2    0    0  0.51932855697E-02 -0.74695827173E-02  0.20624836480E-01  0.10213878448E+01  0.10211390604E+01 0.  0.
     999903    2    3    3    0    0  0.82863913041E-01 -0.39969011366E-01 -0.90292116476E-01  0.13043806525E+00  0.19936715248E-01 0.  0.
         14    1    1    2    0    0 -0.51932855697E-02  0.74695827173E-02 -0.20624836480E-01  0.22542155194E-01  0.00000000000E+00 0.  1.
     999901    1    3    3    0    0 -0.77670627471E-01  0.32499428649E-01  0.11091695296E+00  0.89094977955E+00  0.88000000000E+00 0.  1.
        -11    1    4    4    0    0  0.16649124020E-01  0.21974922618E-03 -0.16976351731E-01  0.23784433133E-01  0.51100000000E-03 0. -1.
         11    1    4    4    0    0  0.66214789021E-01 -0.40188760593E-01 -0.73315764745E-01  0.10665363212E+00  0.51100000000E-03 0.  1.
</event>
<event>
 8    1  0.1132492E+005  0.1043930E+01  0.7957747E-01            NaN
         13   -1    0    0    0    0  0.00000000000E+00  0.00000000000E+00  0.74505805969E-08  0.10566000000E+00  0.10566000000E+00 0. -1.
     999900   -1    0    0    0    0 -0.00000000000E+00 -0.00000000000E+00 -0.74505805969E-08  0.93827000000E+00  0.93827000000E+00 0.  1.
     999902    2    1    2    0    0  0.16046955287E-01 -0.10011224765E-02 -0.18607468478E-01  0.10193384384E+01  0.10190417592E+01 0.  0.
     999903    2    3    3    0    0 -0.66636162392E-01 -0.23590673326E-01 -0.10807397055E+00  0.13065905820E+00  0.19872301597E-01 0.  0.
         14    1    1    2    0    0 -0.16046955287E-01  0.10011224765E-02  0.18607468478E-01  0.24591561629E-01  0.00000000000E+00 0. -1.
     999901    1    3    3    0    0  0.82683117679E-01  0.22589550850E-01  0.89466502076E-01  0.88867938018E+00  0.88000000000E+00 0. -1.
        -11    1    4    4    0    0 -0.97537144544E-02 -0.10840441151E-01 -0.28473939452E-01  0.31994944271E-01  0.51100000000E-03 0. -1.
         11    1    4    4    0    0 -0.56882447938E-01 -0.12750232175E-01 -0.79600031102E-01  0.98664113924E-01  0.51100000000E-03 0.  1.
</event>
<event>
 8    1  0.1132492E+005  0.1043930E+01  0.7957747E-01            NaN
         13   -1    0    0    0    0  0.00000000000E+00  0.00000000000E+00  0.74505805969E-08  0.10566000000E+00  0.10566000000E+00 0. -1.
     999900   -1    0    0    0    0 -0.00000000000E+00 -0.00000000000E+00 -0.74505805969E-08  0.93827000000E+00  0.93827000000E+00 0.  1.
     999902    2    1    2    0    0 -0.11866768118E-01 -0.10866373443E-01  0.16478619679E-01  0.10208986482E+01  0.10206388229E+01 0.  0.
     999903    2    3    3    0    0  0.10618223033E+00  0.65108476391E-01 -0.25757137039E-01  0.12877107721E+00  0.20119157070E-01 0.  0.
         14    1    1    2    0    0  0.11866768118E-01  0.10866373443E-01 -0.16478619679E-01  0.23031351760E-01  0.00000000000E+00 0.  1.
     999901    1    3    3    0    0 -0.11804899845E+00 -0.75974849834E-01  0.42235756718E-01  0.89212757103E+00  0.88000000000E+00 0. -1.
        -11    1    4    4    0    0  0.29342402952E-01  0.15786463537E-01 -0.15929319991E-01  0.36934988809E-01  0.51100000000E-03 0. -1.
         11    1    4    4    0    0  0.76839827383E-01  0.49322012854E-01 -0.98278170480E-02  0.91836088403E-01  0.51100000000E-03 0.  1.
</event>
<event>
 8    1  0.1132492E+005  0.1043930E+01  0.7957747E-01            NaN
         13   -1    0    0    0    0  0.00000000000E+00  0.00000000000E+00  0.74505805969E-08  0.10566000000E+00  0.10566000000E+00 0. -1.
     999900   -1    0    0    0    0 -0.00000000000E+00 -0.00000000000E+00 -0.74505805969E-08  0.93827000000E+00  0.93827000000E+00 0. -1.
     999902    2    1    2    0    0 -0.14016547849E-01 -0.12173162360E-01 -0.15880200496E-01  0.10194998902E+01  0.10192071408E+01 0.  0.
     999903    2    3    3    0    0 -0.71580127226E-01 -0.79094092854E-01  0.72737183009E-01  0.13065512467E+00  0.20011838308E-01 0.  0.
         14    1    1    2    0    0  0.14016547849E-01  0.12173162360E-01  0.15880200496E-01  0.24430109767E-01  0.00000000000E+00 0. -1.
     999901    1    3    3    0    0  0.57563579377E-01  0.66920930494E-01 -0.88617383505E-01  0.88884476556E+00  0.88000000000E+00 0.  1.
        -11    1    4    4    0    0 -0.50310772928E-01 -0.64013637621E-01  0.46981239743E-01  0.94002221691E-01  0.51100000000E-03 0.  1.
         11    1    4    4    0    0 -0.21269354298E-01 -0.15080455233E-01  0.25755943266E-01  0.36652902979E-01  0.51100000000E-03 0. -1.
</event>
<event>
 8    1  0.1132492E+005  0.1043930E+01  0.7957747E-01            NaN
         13   -1    0    0    0    0  0.00000000000E+00  0.00000000000E+00  0.74505805969E-08  0.10566000000E+00  0.10566000000E+00 0.  1.
     999900   -1    0    0    0    0 -0.00000000000E+00 -0.00000000000E+00 -0.74505805969E-08  0.93827000000E+00  0.93827000000E+00 0. -1.
     999902    2    1    2    0    0  0.22735922643E-01  0.36599340166E-02 -0.33920701819E-02  0.10206528989E+01  0.10203874346E+01 0.  0.
     999903    2    3    3    0    0 -0.12555366922E+00 -0.13525596024E-01 -0.24346949012E-02  0.12808017802E+00  0.21258848947E-01 0.  0.
         14    1    1    2    0    0 -0.22735922643E-01 -0.36599340166E-02  0.33920701819E-02  0.23277101099E-01  0.00000000000E+00 0.  1.
     999901    1    3    3    0    0  0.14828959187E+00  0.17185530040E-01 -0.95737528076E-03  0.89257272088E+00  0.88000000000E+00 0.  1.
        -11    1    4    4    0    0 -0.56318644553E-01 -0.87646075474E-02  0.91218580264E-02  0.57724149925E-01  0.51100000000E-03 0.  1.
         11    1    4    4    0    0 -0.69235024670E-01 -0.47609884764E-02 -0.11556552928E-01  0.70356028092E-01  0.51100000000E-03 0. -1.
</event>
<event>
 8    1  0.1132492E+005  0.1043930E+01  0.7957747E-01            NaN
         13   -1    0    0    0    0  0.00000000000E+00  0.00000000000E+00  0.74505805969E-08  0.10566000000E+00  0.10566000000E+00 0.  1.
     999900   -1    0    0    0    0 -0.00000000000E+00 -0.00000000000E+00 -0.74505805969E-08  0.93827000000E+00  0.93827000000E+00 0. -1.
     999902    2    1    2    0    0  0.19533487312E-01  0.13469172461E-01  0.44564022051E-03  0.10201987057E+01  0.10199226563E+01 0.  0.
     999903    2    3    3    0    0 -0.26675555823E-01  0.31110982906E-01 -0.12182919077E+00  0.13036858516E+00  0.21774704068E-01 0.  0.
         14    1    1    2    0    0 -0.19533487312E-01 -0.13469172461E-01 -0.44564022051E-03  0.23731294287E-01  0.00000000000E+00 0.  1.
     999901    1    3    3    0    0  0.46209043135E-01 -0.17641810445E-01  0.12227483099E+00  0.88983012055E+00  0.88000000000E+00 0.  1.
        -11    1    4    4    0    0 -0.22129100910E-01  0.10606509446E-01 -0.53063872819E-01  0.58465638364E-01  0.51100000000E-03 0. -1.
         11    1    4    4    0    0 -0.45464549125E-02  0.20504473460E-01 -0.68765317954E-01  0.71902946799E-01  0.51100000000E-03 0.  1.
</event>
<event>
 8    1  0.1132492E+005  0.1043930E+01  0.7957747E-01            NaN
         13   -1    0    0    0    0  0.00000000000E+00  0.00000000000E+00  0.74505805969E-08  0.10566000000E+00  0.10566000000E+00 0. -1.
     999900   -1    0    0    0    0 -0.00000000000E+00 -0.00000000000E+00 -0.74505805969E-08  0.93827000000E+00  0.93827000000E+00 0.  1.
     999902    2    1    2    0    0 -0.70517927969E-02 -0.21710412836E-01 -0.66935299033E-02  0.10201419116E+01  0.10198645237E+01 0.  0.
     999903    2    3    3    0    0  0.37849959132E-01  0.49343456684E-01 -0.11216945023E+00  0.12986667917E+00  0.20395408062E-01 0.  0.
         14    1    1    2    0    0  0.70517927969E-02  0.21710412836E-01  0.66935299033E-02  0.23788088400E-01  0.00000000000E+00 0.  1.
     999901    1    3    3    0    0 -0.44901751929E-01 -0.71053869520E-01  0.10547592033E+00  0.89027523243E+00  0.88000000000E+00 0. -1.
        -11    1    4    4    0    0  0.30081929327E-01  0.31696741735E-01 -0.59865424820E-01  0.74119741759E-01  0.51100000000E-03 0.  1.
         11    1    4    4    0    0  0.77680298053E-02  0.17646714949E-01 -0.52304025415E-01  0.55746937415E-01  0.51100000000E-03 0. -1.
</event>
<event>
 8    1  0.1132492E+005  0.1043930E+01  0.7957747E-01            NaN
         13   -1    0    0    0    0  0.00000000000E+00  0.00000000000E+00  0.74505805969E-08  0.10566000000E+00  0.10566000000E+00 0. -1.
     999900   -1    0    0    0    0 -0.00000000000E+00 -0.00000000000E+00 -0.74505805969E-08  0.93827000000E+00  0.93827000000E+00 0.  1.
     999902    2    1    2    0    0 -0.74845819655E-02 -0.13564101084E-01 -0.18076400386E-01  0.10201232771E+01  0.10198454493E+01 0.  0.
     999903    2    3    3    0    0  0.88161051871E-01 -0.70869791195E-01 -0.64735103210E-01  0.13186145535E+00  0.20047729249E-01 0.  0.
         14    1    1    2    0    0  0.74845819655E-02  0.13564101084E-01  0.18076400386E-01  0.23806722923E-01  0.00000000000E+00 0. -1.
     999901    1    3    3    0    0 -0.95645633836E-01  0.57305690111E-01  0.46658702824E-01  0.88826182173E+00  0.88000000000E+00 0. -1.
        -11    1    4    4    0    0  0.54400335859E-01 -0.34984455076E-01 -0.44944279473E-01  0.78762668929E-01  0.51100000000E-03 0. -1.
         11    1    4    4    0    0  0.33760716012E-01 -0.35885336119E-01 -0.19790823737E-01  0.53098786419E-01  0.51100000000E-03 0.  1.
</event>
<event>
 8    1  0.1132492E+005  0.1043930E+01  0.7957747E-01            NaN
         13   -1    0    0    0    0  0.00000000000E+00  0.00000000000E+00  0.74505805969E-08  0.10566000000E+00  0.10566000000E+00 0.  1.
     999900   -1    0    0    0    0 -0.00000000000E+00 -0.00000000000E+00 -0.74505805969E-08  0.93827000000E+00  0.93827000000E+00 0.  1.
     999902    2    1    2    0    0  0.57347969357E-02 -0.10859575883E-01 -0.19933238459E-01  0.10205173479E+01  0.10202487466E+01 0.  0.
     999903    2    3    3    0    0  0.48748609423E-02 -0.32666548429E-01 -0.12836256665E+00  0.13359389979E+00  0.16718668890E-01 0.  0.
         14    1    1    2    0    0 -0.57347969357E-02  0.10859575883E-01  0.19933238459E-01  0.23412652129E-01  0.00000000000E+00 0.  1.
     999901    1    3    3    0    0  0.85993599336E-03  0.21806972546E-01  0.10842932819E+00  0.88692344808E+00  0.88000000000E+00 0. -1.
        -11    1    4    4    0    0  0.68671355394E-02 -0.14783535734E-01 -0.36405143712E-01  0.39891178085E-01  0.51100000000E-03 0. -1.
         11    1    4    4    0    0 -0.19922745971E-02 -0.17883012695E-01 -0.91957422936E-01  0.93702721706E-01  0.51100000000E-03 0.  1.
</event>
<event>
 8    1  0.1132492E+005  0.1043930E+01  0.7957747E-01            NaN
         13   -1    0    0    0    0  0.00000000000E+00  0.00000000000E+00  0.74505805969E-08  0.10566000000E+00  0.10566000000E+00 0. -1.
     999900   -1    0    0    0    0 -0.00000000000E+00 -0.00000000000E+00 -0.74505805969E-08  0.93827000000E+00  0.93827000000E+00 0. -1.
     999902    2    1    2    0    0  0.24276650203E-01 -0.12475077486E-01  0.37902781977E-02  0.10163737029E+01  0.10160000760E+01 0.  0.
     999903    2    3    3    0    0 -0.25692914900E-01  0.10907106103E+00  0.52359226281E-01  0.12529044977E+00  0.19989647222E-01 0.  0.
         14    1    1    2    0    0 -0.24276650203E-01  0.12475077486E-01 -0.37902781977E-02  0.27556297142E-01  0.00000000000E+00 0. -1.
     999901    1    3    3    0    0  0.49969565104E-01 -0.12154613851E+00 -0.48568948083E-01  0.89108325309E+00  0.88000000000E+00 0. -1.
        -11    1    4    4    0    0 -0.79905114630E-02  0.11401269722E-01  0.23029959597E-02  0.14120982122E-01  0.51100000000E-03 0. -1.
         11    1    4    4    0    0 -0.17702403437E-01  0.97669791305E-01  0.50056230321E-01  0.11116946764E+00  0.51100000000E-03 0.  1.
</event>
<event>
 8    1  0.1132492E+005  0.1043930E+01  0.7957747E-01            NaN
         13   -1    0    0    0    0  0.00000000000E+00  0.00000000000E+00  0.74505805969E-08  0.10566000000E+00  0.10566000000E+00 0.  1.
     999900   -1    0    0    0    0 -0.00000000000E+00 -0.00000000000E+00 -0.74505805969E-08  0.93827000000E+00  0.93827000000E+00 0. -1.
     999902    2    1    2    0    0 -0.42929836510E-02 -0.32194708105E-02 -0.21069993760E-01  0.10221874303E+01  0.10219561651E+01 0.  0.
     999903    2    3    3    0    0 -0.13210519780E-01 -0.13031572486E+00 -0.11137264656E-01  0.13295650451E+00  0.19917014050E-01 0.  0.
         14    1    1    2    0    0  0.42929836510E-02  0.32194708105E-02  0.21069993760E-01  0.21742569719E-01  0.00000000000E+00 0.  1.
     999901    1    3    3    0    0  0.89175361287E-02  0.12709625405E+00 -0.99327291041E-02  0.88923092577E+00  0.88000000000E+00 0. -1.
        -11    1    4    4    0    0 -0.40724846701E-02 -0.10346856266E+00 -0.36211061547E-02  0.10361323333E+00  0.51100000000E-03 0. -1.
         11    1    4    4    0    0 -0.91380351096E-02 -0.26847162195E-01 -0.75161585015E-02  0.29343271174E-01  0.51100000000E-03 0.  1.
</event>
<event>
 7    1  0.1132492E+005  0.1043930E+01  0.7957747E-01            NaN
         13   -1    0    0    0    0  0.00000000000E+00  0.00000000000E+00  0.74505805969E-08  0.10566000000E+00  0.10566000000E+00 0.  1.
     999900   -1    0    0    0    0 -0.00000000000E+00 -0.00000000000E+00 -0.74505805969E-08  0.93827000000E+00  0.93827000000E+00 0. -1.
     999903    2    1    2    0    0  0.23422830288E-01  0.64079452614E-03 -0.67773379749E-01  0.74431171500E-01  0.19943136462E-01 0.  0.
         14    1    1    2    0    0 -0.32122605729E-01  0.11525035708E-01  0.82466442283E-01  0.89249102795E-01  0.00000000000E+00 0.  1.
     999901    1    1    2    0    0  0.86997754412E-02 -0.12165830234E-01 -0.14693062534E-01  0.88024972571E+00  0.88000000000E+00 0. -1.
        -11    1    3    3    0    0  0.17980032547E-01 -0.37252913151E-02 -0.24637084485E-01  0.30731196181E-01  0.51100000000E-03 0.  1.
         11    1    3    3    0    0  0.54427977411E-02  0.43660858413E-02 -0.43136295264E-01  0.43699975319E-01  0.51100000000E-03 0. -1.
</event>
<event>
 8    1  0.1132492E+005  0.1043930E+01  0.7957747E-01            NaN
         13   -1    0    0    0    0  0.00000000000E+00  0.00000000000E+00  0.74505805969E-08  0.10566000000E+00  0.10566000000E+00 0. -1.
     999900   -1    0    0    0    0 -0.00000000000E+00 -0.00000000000E+00 -0.74505805969E-08  0.93827000000E+00  0.93827000000E+00 0.  1.
     999902    2    1    2    0    0  0.18673306659E-02  0.24156716803E-01 -0.12220553105E-02  0.10196704182E+01  0.10193817903E+01 0.  0.
     999903    2    3    3    0    0  0.10142172100E-01  0.74265505458E-01 -0.10663709761E+00  0.13192513105E+00  0.20360271570E-01 0.  0.
         14    1    1    2    0    0 -0.18673306659E-02 -0.24156716803E-01  0.12220553105E-02  0.24259581812E-01  0.00000000000E+00 0. -1.
     999901    1    3    3    0    0 -0.82748414345E-02 -0.50108788655E-01  0.10541504230E+00  0.88774528714E+00  0.88000000000E+00 0. -1.
        -11    1    4    4    0    0  0.15970735427E-01  0.49165369749E-01 -0.75539398688E-01  0.91535566026E-01  0.51100000000E-03 0.  1.
         11    1    4    4    0    0 -0.58285633268E-02  0.25100135708E-01 -0.31097698924E-01  0.40389565019E-01  0.51100000000E-03 0. -1.
</event>
<event>
 8    1  0.1132492E+005  0.1043930E+01  0.7957747E-01            NaN
         13   -1    0    0    0    0  0.00000000000E+00  0.00000000000E+00  0.74505805969E-08  0.10566000000E+00  0.10566000000E+00 0. -1.
     999900   -1    0    0    0    0 -0.00000000000E+00 -0.00000000000E+00 -0.74505805969E-08  0.93827000000E+00  0.93827000000E+00 0. -1.
     999902    2    1    2    0    0 -0.20450980239E-01 -0.16014042629E-01 -0.11321070992E-02  0.10179305035E+01  0.10175984159E+01 0.  0.
     999903    2    3    3    0    0 -0.18811692310E-01  0.11205861676E+00  0.52919866199E-01  0.12701697838E+00  0.20537458458E-01 0.  0.
         14    1    1    2    0    0  0.20450980239E-01  0.16014042629E-01  0.11321070992E-02  0.25999496544E-01  0.00000000000E+00 0.  1.
     999901    1    3    3    0    0 -0.16392879286E-02 -0.12807265939E+00 -0.54051973299E-01  0.89091352508E+00  0.88000000000E+00 0. -1.
        -11    1    4    4    0    0 -0.10920114684E-01  0.19018669321E-01  0.75221308766E-02  0.23190564059E-01  0.51100000000E-03 0.  1.
         11    1    4    4    0    0 -0.78915776265E-02  0.93039947440E-01  0.45397735323E-01  0.10382641432E+00  0.51100000000E-03 0. -1.
</event>
<event>
 8    1  0.1132492E+005  0.1043930E+01  0.7957747E-01            NaN
         13   -1    0    0    0    0  0.00000000000E+00  0.00000000000E+00  0.74505805969E-08  0.10566000000E+00  0.10566000000E+00 0. -1.
     999900   -1    0    0    0    0 -0.00000000000E+00 -0.00000000000E+00 -0.74505805969E-08  0.93827000000E+00  0.93827000000E+00 0. -1.
     999902    2    1    2    0    0 -0.20612608474E-01  0.55064744235E-02  0.12323444434E-01  0.10192912466E+01  0.10189934137E+01 0.  0.
     999903    2    3    3    0    0  0.32475177562E-01  0.37306087350E-01 -0.11619214135E+00  0.12780609009E+00  0.19682521195E-01 0.  0.
         14    1    1    2    0    0  0.20612608474E-01 -0.55064744235E-02 -0.12323444434E-01  0.24638753446E-01  0.00000000000E+00 0.  1.
     999901    1    3    3    0    0 -0.53087786036E-01 -0.31799612927E-01  0.12851558579E+00  0.89148515647E+00  0.88000000000E+00 0.  1.
        -11    1    4    4    0    0  0.30500199319E-01  0.21882243565E-01 -0.77904414643E-01  0.86478053192E-01  0.51100000000E-03 0.  1.
         11    1    4    4    0    0  0.19749782424E-02  0.15423843785E-01 -0.38287726709E-01  0.41328036896E-01  0.51100000000E-03 0. -1.
</event>
<event>
 8    1  0.1132492E+005  0.1043930E+01  0.7957747E-01            NaN
         13   -1    0    0    0    0  0.00000000000E+00  0.00000000000E+00  0.74505805969E-08  0.10566000000E+00  0.10566000000E+00 0.  1.
     999900   -1    0    0    0    0 -0.00000000000E+00 -0.00000000000E+00 -0.74505805969E-08  0.93827000000E+00  0.93827000000E+00 0. -1.
     999902    2    1    2    0    0  0.82990750052E-02  0.11951522721E-01 -0.19177676005E-01  0.10198572603E+01  0.10195731139E+01 0.  0.
     999903    2    3    3    0    0  0.69760658741E-02 -0.10254120487E+00  0.73167772421E-01  0.12764763419E+00  0.19417296448E-01 0.  0.
         14    1    1    2    0    0 -0.82990750052E-02 -0.11951522721E-01  0.19177676005E-01  0.24072739732E-01  0.00000000000E+00 0.  1.
     999901    1    3    3    0    0  0.13230091311E-02  0.11449272759E+00 -0.92345448426E-01  0.89220962608E+00  0.88000000000E+00 0. -1.
        -11    1    4    4    0    0  0.51726304949E-02 -0.82144590764E-01  0.67357630389E-01  0.10635695271E+00  0.51100000000E-03 0.  1.
         11    1    4    4    0    0  0.18034353792E-02 -0.20396614107E-01  0.58101420316E-02  0.21290681474E-01  0.51100000000E-03 0. -1.
</event>
<event>
 7    1  0.1132492E+005  0.1043930E+01  0.7957747E-01            NaN
         13   -1    0    0    0    0  0.00000000000E+00  0.00000000000E+00  0.74505805969E-08  0.10566000000E+00  0.10566000000E+00 0. -1.
     999900   -1    0    0    0    0 -0.00000000000E+00 -0.00000000000E+00 -0.74505805969E-08  0.93827000000E+00  0.93827000000E+00 0.  1.
     999902    2    1    2    0    0  0.20544897309E-01 -0.15577468981E-02 -0.14504637975E-01  0.10187327005E+01  0.10184210382E+01 0.  0.
         14    1    1    2    0    0 -0.20544897309E-01  0.15577468981E-02  0.14504637975E-01  0.25197299530E-01  0.00000000000E+00 0. -1.
     999901    1    3    3    0    0  0.97625252563E-01 -0.37994878386E-01  0.75848460678E-01  0.88945336567E+00  0.88000000000E+00 0.  1.
        -11    1    3    3    0    0 -0.29170688671E-01  0.77892062596E-02 -0.10750892524E-01  0.32053761445E-01  0.51100000000E-03 0.  1.
         11    1    3    3    0    0 -0.47909666583E-01  0.28647925228E-01 -0.79602206128E-01  0.97225573351E-01  0.51100000000E-03 0. -1.
</event>
<event>
 8    1  0.1132492E+005  0.1043930E+01  0.7957747E-01            NaN
         13   -1    0    0    0    0  0.00000000000E+00  0.00000000000E+00  0.74505805969E-08  0.10566000000E+00  0.10566000000E+00 0.  1.
     999900   -1    0    0    0    0 -0.00000000000E+00 -0.00000000000E+00 -0.74505805969E-08  0.93827000000E+00  0.93827000000E+00 0.  1.
     999902    2    1    2    0    0  0.52397577883E-02  0.20020844696E-01 -0.11624410992E-01  0.10201936099E+01  0.10199174405E+01 0.  0.
     999903    2    3    3    0    0  0.27320387973E-01  0.11202656760E+00  0.61118564933E-01  0.13213722215E+00  0.20698092962E-01 0.  0.
         14    1    1    2    0    0 -0.52397577883E-02 -0.20020844696E-01  0.11624410992E-01  0.23736390099E-01  0.00000000000E+00 0.  1.
     999901    1    3    3    0    0 -0.22080630185E-01 -0.92005722901E-01 -0.72742975925E-01  0.88805638775E+00  0.88000000000E+00 0.  1.
        -11    1    4    4    0    0  0.24342383199E-01  0.73078052981E-01  0.48760499217E-01  0.91163593897E-01  0.51100000000E-03 0. -1.
         11    1    4    4    0    0  0.29780047742E-02  0.38948514615E-01  0.12358065716E-01  0.40973628255E-01  0.51100000000E-03 0.  1.
</event>
<event>
 8    1  0.1132492E+005  0.1043930E+01  0.7957747E-01            NaN
         13   -1    0    0    0    0  0.00000000000E+00  0.00000000000E+00  0.74505805969E-08  0.10566000000E+00  0.10566000000E+00 0. -1.
     999900   -1    0    0    0    0 -0.00000000000E+00 -0.00000000000E+00 -0.74505805969E-08  0.93827000000E+00  0.93827000000E+00 0.  1.
     999902    2    1    2    0    0  0.13896557956E-01 -0.15971837514E-01  0.22974217342E-02  0.10226346469E+01  0.10224128956E+01 0.  0.
     999903    2    3    3    0    0 -0.97335716988E-01 -0.65082065034E-01  0.58990920811E-01  0.13246691762E+00  0.18911333490E-01 0.  0.
         14    1    1    2    0    0 -0.13896557956E-01  0.15971837514E-01 -0.22974217342E-02  0.21295353090E-01  0.00000000000E+00 0. -1.
     999901    1    3    3    0    0  0.11123227494E+00  0.49110227520E-01 -0.56693499077E-01  0.89016772929E+00  0.88000000000E+00 0.  1.
        -11    1    4    4    0    0 -0.30519830409E-01 -0.29378400189E-01  0.26953705368E-01  0.50212685647E-01  0.51100000000E-03 0. -1.
         11    1    4    4    0    0 -0.66815886579E-01 -0.35703664846E-01  0.32037215443E-01  0.82254231971E-01  0.51100000000E-03 0.  1.
</event>
<event>
 8    1  0.1132492E+005  0.1043930E+01  0.7957747E-01            NaN
         13   -1    0    0    0    0  0.00000000000E+00  0.00000000000E+00  0.74505805969E-08  0.10566000000E+00  0.10566000000E+00 0.  1.
     999900   -1    0    0    0    0 -0.00000000000E+00 -0.00000000000E+00 -0.74505805969E-08  0.93827000000E+00  0.93827000000E+00 0. -1.
     999902    2    1    2    0    0 -0.15630882307E-02 -0.22964488227E-01 -0.43046873227E-02  0.10205133116E+01  0.10202446166E+01 0.  0.
     999903    2    3    3    0    0  0.12153550746E+00 -0.46078380014E-01 -0.52472977744E-02  0.13164413966E+00  0.20212587535E-01 0.  0.
         14    1    1    2    0    0  0.15630882307E-02  0.22964488227E-01  0.43046873227E-02  0.23416688436E-01  0.00000000000E+00 0. -1.
     999901    1    3    3    0    0 -0.12309859569E+00  0.23113891786E-01  0.94261045178E-03  0.88886917191E+00  0.88000000000E+00 0. -1.
        -11    1    4    4    0    0  0.32766359261E-01 -0.37963319041E-02  0.20102607547E-02  0.33050699001E-01  0.51100000000E-03 0.  1.
         11    1    4    4    0    0  0.88769148194E-01 -0.42282048110E-01 -0.72575585292E-02  0.98593440655E-01  0.51100000000E-03 0. -1.
</event>
<event>
 8    1  0.1132492E+005  0.1043930E+01  0.7957747E-01            NaN
         13   -1    0    0    0    0  0.00000000000E+00  0.00000000000E+00  0.74505805969E-08  0.10566000000E+00  0.10566000000E+00 0.  1.
     999900   -1    0    0    0    0 -0.00000000000E+00 -0.00000000000E+00 -0.74505805969E-08  0.93827000000E+00  0.93827000000E+00 0.  1.
     999902    2    1    2    0    0 -0.12159930951E-01  0.18615068693E-01  0.12367086515E-01  0.10184873285E+01  0.10181694892E+01 0.  0.
     999903    2    3    3    0    0  0.35021389321E-01  0.34477717320E-01 -0.11678236356E+00  0.12766900750E+00  0.15685800439E-01 0.  0.
         14    1    1    2    0    0  0.12159930951E-01 -0.18615068693E-01 -0.12367086515E-01  0.25442671480E-01  0.00000000000E+00 0. -1.
     999901    1    3    3    0    0 -0.47181320272E-01 -0.15862648627E-01  0.12914945008E+00  0.89081832102E+00  0.88000000000E+00 0. -1.
        -11    1    4    4    0    0  0.24084387773E-01  0.23767631557E-01 -0.60301689713E-01  0.69148484780E-01  0.51100000000E-03 0.  1.
         11    1    4    4    0    0  0.10937001548E-01  0.10710085763E-01 -0.56480673852E-01  0.58520522722E-01  0.51100000000E-03 0. -1.
</event>
<event>
 8    1  0.1132492E+005  0.1043930E+01  0.7957747E-01            NaN
         13   -1    0    0    0    0  0.00000000000E+00  0.00000000000E+00  0.74505805969E-08  0.10566000000E+00  0.10566000000E+00 0. -1.
     999900   -1    0    0    0    0 -0.00000000000E+00 -0.00000000000E+00 -0.74505805969E-08  0.93827000000E+00  0.93827000000E+00 0.  1.
     999902    2    1    2    0    0 -0.21023486478E-01 -0.34566661063E-02  0.91694566310E-02  0.10207348613E+01  0.10204712846E+01 0.  0.
     999903    2    3    3    0    0 -0.79799871085E-01  0.84080489544E-01  0.61817185197E-01  0.13287834118E+00  0.19943445572E-01 0.  0.
         14    1    1    2    0    0  0.21023486478E-01  0.34566661063E-02 -0.91694566310E-02  0.23195138697E-01  0.00000000000E+00 0.  1.
     999901    1    3    3    0    0  0.58776384607E-01 -0.87537155651E-01 -0.52647728566E-01  0.88785652013E+00  0.88000000000E+00 0. -1.
        -11    1    4    4    0    0 -0.96027930150E-02  0.58953759436E-02  0.12399540816E-01  0.16762422995E-01  0.51100000000E-03 0. -1.
         11    1    4    4    0    0 -0.70197078070E-01  0.78185113601E-01  0.49417644381E-01  0.11611591818E+00  0.51100000000E-03 0.  1.
</event>
<event>
 7    1  0.1823749E+005  0.1043930E+01  0.7957747E-01            NaN
         13   -1    0    0    0    0  0.00000000000E+00  0.00000000000E+00  0.74505805969E-08  0.10566000000E+00  0.10566000000E+00 0.  1.
     999900   -1    0    0    0    0 -0.00000000000E+00 -0.00000000000E+00 -0.74505805969E-08  0.93827000000E+00  0.93827000000E+00 0. -1.
     999903    2    1    2    0    0 -0.36196276721E-02  0.37835228360E-01 -0.89548936818E-01  0.99353644642E-01  0.20187332886E-01 0.  0.
         14    1    1    2    0    0  0.30479789365E-02 -0.46957249409E-01 -0.30943540349E-01  0.56318523923E-01  0.00000000000E+00 0. -1.
     999901    1    1    2    0    0  0.57164873555E-03  0.91220210490E-02  0.12049247717E+00  0.88825783143E+00  0.88000000000E+00 0.  1.
        -11    1    3    3    0    0 -0.64092456664E-02  0.94866485586E-02 -0.45292246407E-01  0.46719627957E-01  0.51100000000E-03 0. -1.
         11    1    3    3    0    0  0.27896179943E-02  0.28348579801E-01 -0.44256690411E-01  0.52634016685E-01  0.51100000000E-03 0.  1.
</event>
<event>
 8    1  0.1132492E+005  0.1043930E+01  0.7957747E-01            NaN
         13   -1    0    0    0    0  0.00000000000E+00  0.00000000000E+00  0.74505805969E-08  0.10566000000E+00  0.10566000000E+00 0. -1.
     999900   -1    0    0    0    0 -0.00000000000E+00 -0.00000000000E+00 -0.74505805969E-08  0.93827000000E+00  0.93827000000E+00 0.  1.
     999902    2    1    2    0    0 -0.69696472793E-02  0.12814349599E-01  0.18842843148E-01  0.10201006845E+01  0.10198223229E+01 0.  0.
     999903    2    3    3    0    0  0.49904925317E-01  0.82091936387E-01  0.89406822771E-01  0.13273752534E+00  0.19901836186E-01 0.  0.
         14    1    1    2    0    0  0.69696472793E-02 -0.12814349599E-01 -0.18842843148E-01  0.23829315490E-01  0.00000000000E+00 0.  1.
     999901    1    3    3    0    0 -0.56874572596E-01 -0.69277586787E-01 -0.70563979623E-01  0.88736315917E+00  0.88000000000E+00 0.  1.
        -11    1    4    4    0    0  0.29069619123E-01  0.59499525212E-01  0.70128747629E-01  0.96454852762E-01  0.51100000000E-03 0.  1.
         11    1    4    4    0    0  0.20835306193E-01  0.22592411175E-01  0.19278075142E-01  0.36282672573E-01  0.51100000000E-03 0. -1.
</event>
<event>
 8    1  0.1132492E+005  0.1043930E+01  0.7957747E-01            NaN
         13   -1    0    0    0    0  0.00000000000E+00  0.00000000000E+00  0.74505805969E-08  0.10566000000E+00  0.10566000000E+00 0.  1.
     999900   -1    0    0    0    0 -0.00000000000E+00 -0.00000000000E+00 -0.74505805969E-08  0.93827000000E+00  0.93827000000E+00 0. -1.
     999902    2    1    2    0    0 -0.19581275948E-01  0.28695851922E-02 -0.12909477120E-01  0.10203012995E+01  0.10200276596E+01 0.  0.
     999903    2    3    3    0    0 -0.27288520510E-01  0.43556282393E-01 -0.12077479402E+00  0.13274863317E+00  0.19845292924E-01 0.  0.
         14    1    1    2    0    0  0.19581275948E-01 -0.28695851922E-02  0.12909477120E-01  0.23628700481E-01  0.00000000000E+00 0. -1.
     999901    1    3    3    0    0  0.77072445623E-02 -0.40686697201E-01  0.10786531690E+00  0.88755266635E+00  0.88000000000E+00 0.  1.
        -11    1    4    4    0    0 -0.13462043869E-01  0.14493088394E-01 -0.69021926631E-01  0.71802254234E-01  0.51100000000E-03 0.  1.
         11    1    4    4    0    0 -0.13826476641E-01  0.29063193999E-01 -0.51752867389E-01  0.60946378938E-01  0.51100000000E-03 0. -1.
</event>
<event>
 8    1  0.1132492E+005  0.1043930E+01  0.7957747E-01            NaN
         13   -1    0    0    0    0  0.00000000000E+00  0.00000000000E+00  0.74505805969E-08  0.10566000000E+00  0.10566000000E+00 0.  1.
     999900   -1    0    0    0    0 -0.00000000000E+00 -0.00000000000E+00 -0.74505805969E-08  0.93827000000E+00  0.93827000000E+00 0. -1.
     999902    2    1    2    0    0  0.14981396621E-01  0.13533888548E-01  0.14830474771E-01  0.10188790247E+01  0.10185710164E+01 0.  0.
     999903    2    3    3    0    0 -0.66096885879E-01  0.87002785362E-01  0.68436772563E-01  0.13048440408E+00  0.20107334151E-01 0.  0.
         14    1    1    2    0    0 -0.14981396621E-01 -0.13533888548E-01 -0.14830474771E-01  0.25050975348E-01  0.00000000000E+00 0. -1.
     999901    1    3    3    0    0  0.81078282500E-01 -0.73468896815E-01 -0.53606297792E-01  0.88839462057E+00  0.88000000000E+00 0. -1.
        -11    1    4    4    0    0 -0.45991327846E-01  0.68569664969E-01  0.42592921415E-01  0.92905431847E-01  0.51100000000E-03 0. -1.
         11    1    4    4    0    0 -0.20105558033E-01  0.18433120394E-01  0.25843851148E-01  0.37578972237E-01  0.51100000000E-03 0.  1.
</event>
<event>
 8    1  0.1132492E+005  0.1043930E+01  0.7957747E-01            NaN
         13   -1    0    0    0    0  0.00000000000E+00  0.00000000000E+00  0.74505805969E-08  0.10566000000E+00  0.10566000000E+00 0.  1.
     999900   -1    0    0    0    0 -0.00000000000E+00 -0.00000000000E+00 -0.74505805969E-08  0.93827000000E+00  0.93827000000E+00 0.  1.
     999902    2    1    2    0    0 -0.41717758481E-02  0.13007753398E-01  0.19870875420E-01  0.10198165794E+01  0.10195314603E+01 0.  0.
     999903    2    3    3    0    0 -0.10063097260E+00 -0.78992683739E-01 -0.17275919378E-04  0.12955594588E+00  0.20452532437E-01 0.  0.
         14    1    1    2    0    0  0.41717758481E-02 -0.13007753398E-01 -0.19870875420E-01  0.24113420582E-01  0.00000000000E+00 0. -1.
     999901    1    3    3    0    0  0.96459196750E-01  0.92000437137E-01  0.19888151339E-01  0.89026063354E+00  0.88000000000E+00 0. -1.
        -11    1    4    4    0    0 -0.22666723152E-01 -0.21503947187E-01  0.82954841644E-02  0.32330732463E-01  0.51100000000E-03 0. -1.
         11    1    4    4    0    0 -0.77964249446E-01 -0.57488736551E-01 -0.83127600838E-02  0.97225213413E-01  0.51100000000E-03 0.  1.
</event>
<event>
 8    1  0.1132492E+005  0.1043930E+01  0.7957747E-01            NaN
         13   -1    0    0    0    0  0.00000000000E+00  0.00000000000E+00  0.74505805969E-08  0.10566000000E+00  0.10566000000E+00 0.  1.
     999900   -1    0    0    0    0 -0.00000000000E+00 -0.00000000000E+00 -0.74505805969E-08  0.93827000000E+00  0.93827000000E+00 0. -1.
     999902    2    1    2    0    0  0.54381482039E-02 -0.23398429582E-01 -0.93357585097E-03  0.10198897935E+01  0.10196064238E+01 0.  0.
     999903    2    3    3    0    0 -0.69976754836E-02  0.47635319223E-01  0.11795576585E+00  0.12897166108E+00  0.20050824516E-01 0.  0.
         14    1    1    2    0    0 -0.54381482039E-02  0.23398429582E-01  0.93357585097E-03  0.24040206460E-01  0.00000000000E+00 0. -1.
     999901    1    3    3    0    0  0.12435823687E-01 -0.71033748805E-01 -0.11888934170E+00  0.89091813246E+00  0.88000000000E+00 0. -1.
        -11    1    4    4    0    0 -0.13758796232E-01  0.36657029876E-01  0.91957835603E-01  0.99947721149E-01  0.51100000000E-03 0.  1.
         11    1    4    4    0    0  0.67611207482E-02  0.10978289347E-01  0.25997930248E-01  0.29023939928E-01  0.51100000000E-03 0. -1.
</event>
<event>
 8    1  0.1132492E+005  0.1043930E+01  0.7957747E-01            NaN
         13   -1    0    0    0    0  0.00000000000E+00  0.00000000000E+00  0.74505805969E-08  0.10566000000E+00  0.10566000000E+00 0.  1.
     999900   -1    0    0    0    0 -0.00000000000E+00 -0.00000000000E+00 -0.74505805969E-08  0.93827000000E+00  0.93827000000E+00 0. -1.
     999902    2    1    2    0    0 -0.16002295069E-01 -0.11459839805E-01 -0.13293455966E-01  0.10201788453E+01  0.10199023282E+01 0.  0.
     999903    2    3    3    0    0  0.66861318433E-01 -0.99376683449E-01  0.46053777816E-01  0.12994413248E+00  0.20453997127E-01 0.  0.
         14    1    1    2    0    0  0.16002295069E-01  0.11459839805E-01  0.13293455966E-01  0.23751154653E-01  0.00000000000E+00 0.  1.
     999901    1    3    3    0    0 -0.82863613502E-01  0.87916843644E-01 -0.59347233782E-01  0.89023471287E+00  0.88000000000E+00 0. -1.
        -11    1    4    4    0    0  0.54290541109E-01 -0.84559937290E-01  0.30400182035E-01  0.10498703747E+00  0.51100000000E-03 0. -1.
         11    1    4    4    0    0  0.12570777323E-01 -0.14816746160E-01  0.15653595781E-01  0.24957095006E-01  0.51100000000E-03 0.  1.
</event>
<event>
 8    1  0.1132492E+005  0.1043930E+01  0.7957747E-01            NaN
         13   -1    0    0    0    0  0.00000000000E+00  0.00000000000E+00  0.74505805969E-08  0.10566000000E+00  0.10566000000E+00 0. -1.
     999900   -1    0    0    0    0 -0.00000000000E+00 -0.00000000000E+00 -0.74505805969E-08  0.93827000000E+00  0.93827000000E+00 0.  1.
     999902    2    1    2    0    0 -0.75366544127E-02  0.22049868362E-01 -0.63496145591E-02  0.10197780754E+01  0.10194920342E+01 0.  0.
     999903    2    3    3    0    0 -0.10970182757E+00 -0.53872667418E-01  0.38086885073E-01  0.12951038731E+00  0.19636046911E-01 0.  0.
         14    1    1    2    0    0  0.75366544127E-02 -0.22049868362E-01  0.63496145591E-02  0.24151924552E-01  0.00000000000E+00 0. -1.
     999901    1    3    3    0    0  0.10216517316E+00  0.75922535781E-01 -0.44436499632E-01  0.89026768814E+00  0.88000000000E+00 0.  1.
        -11    1    4    4    0    0 -0.71621680769E-01 -0.42828002937E-01  0.32079984493E-01  0.89405198495E-01  0.51100000000E-03 0. -1.
         11    1    4    4    0    0 -0.38080146805E-01 -0.11044664481E-01  0.60069005794E-02  0.40105188813E-01  0.51100000000E-03 0.  1.
</event>
<event>
 8    1  0.1132492E+005  0.1043930E+01  0.7957747E-01            NaN
         13   -1    0    0    0    0  0.00000000000E+00  0.00000000000E+00  0.74505805969E-08  0.10566000000E+00  0.10566000000E+00 0.  1.
     999900   -1    0    0    0    0 -0.00000000000E+00 -0.00000000000E+00 -0.74505805969E-08  0.93827000000E+00  0.93827000000E+00 0. -1.
     999902    2    1    2    0    0 -0.31009942456E-02 -0.19403403859E-01 -0.11466420698E-01  0.10211794604E+01  0.10209260029E+01 0.  0.
     999903    2    3    3    0    0  0.59635449305E-01  0.83092115103E-01  0.77447291445E-01  0.12857269318E+00  0.84951793841E-02 0.  0.
         14    1    1    2    0    0  0.31009942456E-02  0.19403403859E-01  0.11466420698E-01  0.22750539559E-01  0.00000000000E+00 0.  1.
     999901    1    3    3    0    0 -0.62736443550E-01 -0.10249551896E+00 -0.88913712143E-01  0.89260676726E+00  0.88000000000E+00 0. -1.
        -11    1    4    4    0    0  0.42940106024E-01  0.56312034955E-01  0.49357814440E-01  0.86321219601E-01  0.51100000000E-03 0. -1.
         11    1    4    4    0    0  0.16695343281E-01  0.26780080147E-01  0.28089477005E-01  0.42251473577E-01  0.51100000000E-03 0.  1.
</event>
<event>
 8    1  0.1132492E+005  0.1043930E+01  0.7957747E-01            NaN
         13   -1    0    0    0    0  0.00000000000E+00  0.00000000000E+00  0.74505805969E-08  0.10566000000E+00  0.10566000000E+00 0.  1.
     999900   -1    0    0    0    0 -0.00000000000E+00 -0.00000000000E+00 -0.74505805969E-08  0.93827000000E+00  0.93827000000E+00 0.  1.
     999902    2    1    2    0    0 -0.43525266235E-02 -0.23317290630E-01 -0.15277633261E-02  0.10201608058E+01  0.10198838636E+01 0.  0.
     999903    2    3    3    0    0 -0.20511445311E-03 -0.19624977871E-01 -0.12804358275E+00  0.13109551759E+00  0.20141842520E-01 0.  0.
         14    1    1    2    0    0  0.43525266235E-02  0.23317290630E-01  0.15277633261E-02  0.23769194162E-01  0.00000000000E+00 0.  1.
     999901    1    3    3    0    0 -0.41474121703E-02 -0.36923127586E-02  0.12651581943E+00  0.88906528825E+00  0.88000000000E+00 0. -1.
        -11    1    4    4    0    0  0.56014346976E-02 -0.21303618190E-01 -0.98162124060E-01  0.10060459204E+00  0.51100000000E-03 0.  1.
         11    1    4    4    0    0 -0.58065491507E-02  0.16786403191E-02 -0.29881458692E-01  0.30490925550E-01  0.51100000000E-03 0. -1.
</event>
<event>
 8    1  0.1132492E+005  0.1043930E+01  0.7957747E-01            NaN
         13   -1    0    0    0    0  0.00000000000E+00  0.00000000000E+00  0.74505805969E-08  0.10566000000E+00  0.10566000000E+00 0. -1.
     999900   -1    0    0    0    0 -0.00000000000E+00 -0.00000000000E+00 -0.74505805969E-08  0.93827000000E+00  0.93827000000E+00 0. -1.
     999902    2    1    2    0    0 -0.10429993708E-01 -0.14992099242E-02 -0.20409707762E-01  0.10209607038E+01  0.10207022926E+01 0.  0.
     999903    2    3    3    0    0 -0.46870711674E-01 -0.11744952224E+00 -0.33864243257E-01  0.13250506312E+00  0.20482941504E-01 0.  0.
         14    1    1    2    0    0  0.10429993708E-01  0.14992099242E-02  0.20409707762E-01  0.22969296247E-01  0.00000000000E+00 0. -1.
     999901    1    3    3    0    0  0.36440717966E-01  0.11595031232E+00  0.13454535495E-01  0.88845564064E+00  0.88000000000E+00 0.  1.
        -11    1    4    4    0    0 -0.22407971198E-01 -0.33766863019E-01 -0.59761463003E-02  0.40966982522E-01  0.51100000000E-03 0. -1.
         11    1    4    4    0    0 -0.24462740477E-01 -0.83682659223E-01 -0.27888096957E-01  0.91538080595E-01  0.51100000000E-03 0.  1.
</event>
<event>
 8    1  0.1132492E+005  0.1043930E+01  0.7957747E-01            NaN
         13   -1    0    0    0    0  0.00000000000E+00  0.00000000000E+00  0.74505805969E-08  0.10566000000E+00  0.10566000000E+00 0. -1.
     999900   -1    0    0    0    0 -0.00000000000E+00 -0.00000000000E+00 -0.74505805969E-08  0.93827000000E+00  0.93827000000E+00 0. -1.
     999902    2    1    2    0    0  0.30623498181E-02 -0.21264537055E-01 -0.11437071815E-01  0.10195914476E+01  0.10193009148E+01 0.  0.
     999903    2    3    3    0    0  0.59717508073E-01 -0.69816136373E-01 -0.93582392030E-01  0.13262193379E+00  0.19759543383E-01 0.  0.
         14    1    1    2    0    0 -0.30623498181E-02  0.21264537055E-01  0.11437071815E-01  0.24338552427E-01  0.00000000000E+00 0.  1.
     999901    1    3    3    0    0 -0.56655158255E-01  0.48551599318E-01  0.82145320215E-01  0.88696951379E+00  0.88000000000E+00 0.  1.
        -11    1    4    4    0    0  0.40905757106E-01 -0.58171238206E-01 -0.63967639320E-01  0.95651941538E-01  0.51100000000E-03 0.  1.
         11    1    4    4    0    0  0.18811750967E-01 -0.11644898167E-01 -0.29614752710E-01  0.36969992248E-01  0.51100000000E-03 0. -1.
</event>
<event>
 8    1  0.1132492E+005  0.1043930E+01  0.7957747E-01            NaN
         13   -1    0    0    0    0  0.00000000000E+00  0.00000000000E+00  0.74505805969E-08  0.10566000000E+00  0.10566000000E+00 0. -1.
     999900   -1    0    0    0    0 -0.00000000000E+00 -0.00000000000E+00 -0.74505805969E-08  0.93827000000E+00  0.93827000000E+00 0.  1.
     999902    2    1    2    0    0  0.45825374693E-02 -0.23039489827E-01  0.26437310240E-02  0.10202908999E+01  0.10200170162E+01 0.  0.
     999903    2    3    3    0    0  0.10302695239E+00  0.21838377560E-01  0.74844061735E-01  0.13073021416E+00  0.19932076287E-01 0.  0.
         14    1    1    2    0    0 -0.45825374693E-02  0.23039489827E-01 -0.26437310240E-02  0.23639100128E-01  0.00000000000E+00 0. -1.
     999901    1    3    3    0    0 -0.98444414916E-01 -0.44877867387E-01 -0.72200330711E-01  0.88956068571E+00  0.88000000000E+00 0.  1.
        -11    1    4    4    0    0  0.77942984097E-01  0.20986929414E-01  0.47715808650E-01  0.93768968706E-01  0.51100000000E-03 0. -1.
         11    1    4    4    0    0  0.25083968288E-01  0.85144814654E-03  0.27128253086E-01  0.36961245454E-01  0.51100000000E-03 0.  1.
</event>
<event>
 8    1  0.1132492E+005  0.1043930E+01  0.7957747E-01            NaN
         13   -1    0    0    0    0  0.00000000000E+00  0.00000000000E+00  0.74505805969E-08  0.10566000000E+00  0.10566000000E+00 0.  1.
     999900   -1    0    0    0    0 -0.00000000000E+00 -0.00000000000E+00 -0.74505805969E-08  0.93827000000E+00  0.93827000000E+00 0. -1.
     999902    2    1    2    0    0 -0.47401163296E-02  0.17304966528E-01 -0.95138681575E-02  0.10236212763E+01  0.10234197932E+01 0.  0.
     999903    2    3    3    0    0 -0.83653913105E-01  0.31274600173E-01  0.97294780527E-01  0.13354789430E+00  0.19816355872E-01 0.  0.
         14    1    1    2    0    0  0.47401163296E-02 -0.17304966528E-01  0.95138681575E-02  0.20308723660E-01  0.00000000000E+00 0.  1.
     999901    1    3    3    0    0  0.78913796776E-01 -0.13969633645E-01 -0.10680864868E+00  0.89007338204E+00  0.88000000000E+00 0. -1.
        -11    1    4    4    0    0 -0.13467356112E-01  0.15366979196E-02  0.25242157775E-01  0.28655868008E-01  0.51100000000E-03 0.  1.
         11    1    4    4    0    0 -0.70186556993E-01  0.29737902254E-01  0.72052622752E-01  0.10489202629E+00  0.51100000000E-03 0. -1.
</event>
<event>
 8    1  0.1132492E+005  0.1043930E+01  0.7957747E-01            NaN
         13   -1    0    0    0    0  0.00000000000E+00  0.00000000000E+00  0.74505805969E-08  0.10566000000E+00  0.10566000000E+00 0. -1.
     999900   -1    0    0    0    0 -0.00000000000E+00 -0.00000000000E+00 -0.74505805969E-08  0.93827000000E+00  0.93827000000E+00 0.  1.
     999902    2    1    2    0    0 -0.20807130097E-01  0.67787058905E-02 -0.10718659106E-01  0.10195624566E+01  0.10192712229E+01 0.  0.
     999903    2    3    3    0    0 -0.79077275949E-01  0.83009165584E-01 -0.63879655975E-01  0.13275211363E+00  0.19969378629E-01 0.  0.
         14    1    1    2    0    0  0.20807130097E-01 -0.67787058905E-02  0.10718659106E-01  0.24367543361E-01  0.00000000000E+00 0.  1.
     999901    1    3    3    0    0  0.58270145852E-01 -0.76230459694E-01  0.53160996869E-01  0.88681034301E+00  0.88000000000E+00 0. -1.
        -11    1    4    4    0    0 -0.30519614573E-01  0.26238747674E-01 -0.12742120394E-01  0.42220155214E-01  0.51100000000E-03 0.  1.
         11    1    4    4    0    0 -0.48557661376E-01  0.56770417911E-01 -0.51137535581E-01  0.90531958414E-01  0.51100000000E-03 0. -1.
</event>
<event>
 8    1  0.1132492E+005  0.1043930E+01  0.7957747E-01            NaN
         13   -1    0    0    0    0  0.00000000000E+00  0.00000000000E+00  0.74505805969E-08  0.10566000000E+00  0.10566000000E+00 0.  1.
     999900   -1    0    0    0    0 -0.00000000000E+00 -0.00000000000E+00 -0.74505805969E-08  0.93827000000E+00  0.93827000000E+00 0. -1.
     999902    2    1    2    0    0 -0.48099041423E-02  0.23757648406E-01  0.21003731979E-02  0.10195995129E+01  0.10193091749E+01 0.  0.
     999903    2    3    3    0    0 -0.75705257285E-01  0.10401944300E+00  0.27300884442E-01  0.13274937192E+00  0.18047907107E-01 0.  0.
         14    1    1    2    0    0  0.48099041423E-02 -0.23757648406E-01 -0.21003731979E-02  0.24330487114E-01  0.00000000000E+00 0. -1.
     999901    1    3    3    0    0  0.70895353143E-01 -0.80261794592E-01 -0.25200511244E-01  0.88685014097E+00  0.88000000000E+00 0. -1.
        -11    1    4    4    0    0 -0.38907611508E-01  0.64872348287E-01  0.10010103976E-01  0.76306533850E-01  0.51100000000E-03 0.  1.
         11    1    4    4    0    0 -0.36797645776E-01  0.39147094712E-01  0.17290780466E-01  0.56442838068E-01  0.51100000000E-03 0. -1.
</event>
<event>
 8    1  0.1132492E+005  0.1043930E+01  0.7957747E-01            NaN
         13   -1    0    0    0    0  0.00000000000E+00  0.00000000000E+00  0.74505805969E-08  0.10566000000E+00  0.10566000000E+00 0. -1.
     999900   -1    0    0    0    0 -0.00000000000E+00 -0.00000000000E+00 -0.74505805969E-08  0.93827000000E+00  0.93827000000E+00 0.  1.
     999902    2    1    2    0    0 -0.54681634747E-02 -0.25610738802E-01  0.93357293926E-03  0.10177253761E+01  0.10173879589E+01 0.  0.
     999903    2    3    3    0    0  0.85285187407E-01 -0.89309807985E-01  0.34475573716E-01  0.13013379892E+00  0.22280831355E-01 0.  0.
         14    1    1    2    0    0  0.54681634747E-02  0.25610738802E-01 -0.93357293926E-03  0.26204623871E-01  0.00000000000E+00 0.  1.
     999901    1    3    3    0    0 -0.90753350882E-01  0.63699069183E-01 -0.33542000777E-01  0.88759157721E+00  0.88000000000E+00 0. -1.
        -11    1    4    4    0    0  0.53137999115E-02 -0.66412938405E-02 -0.31969287086E-02  0.91008091697E-02  0.51100000000E-03 0. -1.
         11    1    4    4    0    0  0.79971387495E-01 -0.82668514144E-01  0.37672502425E-01  0.12103298975E+00  0.51100000000E-03 0.  1.
</event>
<event>
 8    1  0.1132492E+005  0.1043930E+01  0.7957747E-01            NaN
         13   -1    0    0    0    0  0.00000000000E+00  0.00000000000E+00  0.74505805969E-08  0.10566000000E+00  0.10566000000E+00 0.  1.
     999900   -1    0    0    0    0 -0.00000000000E+00 -0.00000000000E+00 -0.74505805969E-08  0.93827000000E+00  0.93827000000E+00 0. -1.
     999902    2    1    2    0    0 -0.14120985341E-01 -0.10932379626E-01  0.32298686469E-01  0.10070230318E+01  0.10063464922E+01 0.  0.
     999903    2    3    3    0    0  0.17677949087E-01 -0.55451799244E-01  0.10671236694E+00  0.12218940522E+00  0.12462325930E-01 0.  0.
         14    1    1    2    0    0  0.14120985341E-01  0.10932379626E-01 -0.32298686469E-01  0.36906968162E-01  0.00000000000E+00 0. -1.
     999901    1    3    3    0    0 -0.31798934428E-01  0.44519419618E-01 -0.74413680467E-01  0.88483362662E+00  0.88000000000E+00 0. -1.
        -11    1    4    4    0    0 -0.18648410540E-03 -0.13832549931E-01  0.19466722130E-01  0.23886996575E-01  0.51100000000E-03 0. -1.
         11    1    4    4    0    0  0.17864433193E-01 -0.41619249314E-01  0.87245644806E-01  0.98302408644E-01  0.51100000000E-03 0.  1.
</event>
<event>
 8    1  0.1132492E+005  0.1043930E+01  0.7957747E-01            NaN
         13   -1    0    0    0    0  0.00000000000E+00  0.00000000000E+00  0.74505805969E-08  0.10566000000E+00  0.10566000000E+00 0. -1.
     999900   -1    0    0    0    0 -0.00000000000E+00 -0.00000000000E+00 -0.74505805969E-08  0.93827000000E+00  0.93827000000E+00 0.  1.
     999902    2    1    2    0    0  0.70065562886E-02 -0.62307351573E-04  0.21458105670E-01  0.10213568741E+01  0.10211073980E+01 0.  0.
     999903    2    3    3    0    0  0.90340982806E-02  0.16411410050E-01  0.13146969813E+00  0.13435177562E+00  0.20375690749E-01 0.  0.
         14    1    1    2    0    0 -0.70065562886E-02  0.62307351573E-04 -0.21458105670E-01  0.22573125884E-01  0.00000000000E+00 0.  1.
     999901    1    3    3    0    0 -0.20275419919E-02 -0.16473717402E-01 -0.11001159246E+00  0.88700509850E+00  0.88000000000E+00 0.  1.
        -11    1    4    4    0    0  0.15340679377E-01  0.90459098905E-02  0.91610847963E-01  0.93327238870E-01  0.51100000000E-03 0. -1.
         11    1    4    4    0    0 -0.63065810962E-02  0.73655001597E-02  0.39858850165E-01  0.41024536745E-01  0.51100000000E-03 0.  1.
</event>
<event>
 8    1  0.1132492E+005  0.1043930E+01  0.7957747E-01            NaN
         13   -1    0    0    0    0  0.00000000000E+00  0.00000000000E+00  0.74505805969E-08  0.10566000000E+00  0.10566000000E+00 0.  1.
     999900   -1    0    0    0    0 -0.00000000000E+00 -0.00000000000E+00 -0.74505805969E-08  0.93827000000E+00  0.93827000000E+00 0.  1.
     999902    2    1    2    0    0  0.21208430694E-01 -0.32447073310E-03 -0.11796696141E-01  0.10196593417E+01  0.10193704470E+01 0.  0.
     999903    2    3    3    0    0  0.29286746220E-01 -0.88946630128E-01  0.87795979037E-01  0.12958190280E+00  0.17723404939E-01 0.  0.
         14    1    1    2    0    0 -0.21208430694E-01  0.32447073310E-03  0.11796696141E-01  0.24270658285E-01  0.00000000000E+00 0.  1.
     999901    1    3    3    0    0 -0.80783155256E-02  0.88622159395E-01 -0.99592675177E-01  0.89007743892E+00  0.88000000000E+00 0.  1.
        -11    1    4    4    0    0  0.38795939550E-02 -0.15083558392E-02  0.48315138067E-02  0.63977365730E-02  0.51100000000E-03 0. -1.
         11    1    4    4    0    0  0.25407152265E-01 -0.87438274289E-01  0.82964465230E-01  0.12318416623E+00  0.51100000000E-03 0.  1.
</event>
<event>
 8    1  0.1132492E+005  0.1043930E+01  0.7957747E-01            NaN
         13   -1    0    0    0    0  0.00000000000E+00  0.00000000000E+00  0.74505805969E-08  0.10566000000E+00  0.10566000000E+00 0.  1.
     999900   -1    0    0    0    0 -0.00000000000E+00 -0.00000000000E+00 -0.74505805969E-08  0.93827000000E+00  0.93827000000E+00 0. -1.
     999902    2    1    2    0    0 -0.70882847584E-02  0.25046605070E-02  0.21224969088E-01  0.10214129749E+01  0.10211647511E+01 0.  0.
     999903    2    3    3    0    0 -0.40347202263E-01 -0.64427185688E-02 -0.12109362290E+00  0.12931388133E+00  0.19723312216E-01 0.  0.
         14    1    1    2    0    0  0.70882847584E-02 -0.25046605070E-02 -0.21224969088E-01  0.22517025067E-01  0.00000000000E+00 0. -1.
     999901    1    3    3    0    0  0.33258917505E-01  0.89473790758E-02  0.14231859199E+00  0.89209909360E+00  0.88000000000E+00 0.  1.
        -11    1    4    4    0    0 -0.28033964536E-01 -0.61694886762E-02 -0.10603743081E+00  0.10985519383E+00  0.51100000000E-03 0. -1.
         11    1    4    4    0    0 -0.12313237727E-01 -0.27322989262E-03 -0.15056192088E-01  0.19458687497E-01  0.51100000000E-03 0.  1.
</event>
<event>
 8    1  0.1132492E+005  0.1043930E+01  0.7957747E-01            NaN
         13   -1    0    0    0    0  0.00000000000E+00  0.00000000000E+00  0.74505805969E-08  0.10566000000E+00  0.10566000000E+00 0.  1.
     999900   -1    0    0    0    0 -0.00000000000E+00 -0.00000000000E+00 -0.74505805969E-08  0.93827000000E+00  0.93827000000E+00 0.  1.
     999902    2    1    2    0    0  0.15038222167E-01  0.92639059313E-02  0.13713761473E-01  0.10215685302E+01  0.10213237618E+01 0.  0.
     999903    2    3    3    0    0  0.13415429006E-01  0.12525200142E+00 -0.36080893461E-01  0.13256044280E+00  0.20059973274E-01 0.  0.
         14    1    1    2    0    0 -0.15038222167E-01 -0.92639059313E-02 -0.13713761473E-01  0.22361469826E-01  0.00000000000E+00 0. -1.
     999901    1    3    3    0    0  0.16227931610E-02 -0.11598809549E+00  0.49794654935E-01  0.88900808737E+00  0.88000000000E+00 0. -1.
        -11    1    4    4    0    0  0.84559121784E-02  0.10279325728E+00 -0.36890973123E-01  0.10954068290E+00  0.51100000000E-03 0.  1.
         11    1    4    4    0    0  0.49595168276E-02  0.22458744143E-01  0.81007966152E-03  0.23019759897E-01  0.51100000000E-03 0. -1.
</event>
<event>
 8    1  0.1132492E+005  0.1043930E+01  0.7957747E-01            NaN
         13   -1    0    0    0    0  0.00000000000E+00  0.00000000000E+00  0.74505805969E-08  0.10566000000E+00  0.10566000000E+00 0.  1.
     999900   -1    0    0    0    0 -0.00000000000E+00 -0.00000000000E+00 -0.74505805969E-08  0.93827000000E+00  0.93827000000E+00 0.  1.
     999902    2    1    2    0    0 -0.93663606267E-02 -0.33602846712E-02  0.24719962396E-01  0.10172823591E+01  0.10169332827E+01 0.  0.
     999903    2    3    3    0    0 -0.21114354956E-01 -0.73095505043E-01 -0.98345329639E-01  0.12590921477E+00  0.19813067916E-01 0.  0.
         14    1    1    2    0    0  0.93663606267E-02  0.33602846712E-02 -0.24719962396E-01  0.26647640896E-01  0.00000000000E+00 0. -1.
     999901    1    3    3    0    0  0.11747994329E-01  0.69735220372E-01  0.12306529204E+00  0.89137314433E+00  0.88000000000E+00 0. -1.
        -11    1    4    4    0    0 -0.18809515333E-01 -0.55946216656E-01 -0.87275072244E-01  0.10536117113E+00  0.51100000000E-03 0.  1.
         11    1    4    4    0    0 -0.23048396222E-02 -0.17149288387E-01 -0.11070257396E-01  0.20548043646E-01  0.51100000000E-03 0. -1.
</event>
<event>
 8    1  0.1132492E+005  0.1043930E+01  0.7957747E-01            NaN
         13   -1    0    0    0    0  0.00000000000E+00  0.00000000000E+00  0.74505805969E-08  0.10566000000E+00  0.10566000000E+00 0.  1.
     999900   -1    0    0    0    0 -0.00000000000E+00 -0.00000000000E+00 -0.74505805969E-08  0.93827000000E+00  0.93827000000E+00 0.  1.
     999902    2    1    2    0    0  0.12846705776E-01  0.68248990937E-02 -0.18600010553E-01  0.10203169212E+01  0.10200436472E+01 0.  0.
     999903    2    3    3    0    0  0.85583765874E-01  0.77901761945E-01 -0.63687616901E-01  0.13331326137E+00  0.17973525380E-01 0.  0.
         14    1    1    2    0    0 -0.12846705776E-01 -0.68248990937E-02  0.18600010553E-01  0.23613078781E-01  0.00000000000E+00 0.  1.
     999901    1    3    3    0    0 -0.72737060098E-01 -0.71076862852E-01  0.45087606347E-01  0.88700365985E+00  0.88000000000E+00 0. -1.
        -11    1    4    4    0    0  0.26794065450E-01  0.35716788373E-01 -0.27035382344E-01  0.52199462971E-01  0.51100000000E-03 0. -1.
         11    1    4    4    0    0  0.58789700424E-01  0.42184973573E-01 -0.36652234557E-01  0.81113798396E-01  0.51100000000E-03 0.  1.
</event>
<event>
 8    1  0.1132492E+005  0.1043930E+01  0.7957747E-01            NaN
         13   -1    0    0    0    0  0.00000000000E+00  0.00000000000E+00  0.74505805969E-08  0.10566000000E+00  0.10566000000E+00 0. -1.
     999900   -1    0    0    0    0 -0.00000000000E+00 -0.00000000000E+00 -0.74505805969E-08  0.93827000000E+00  0.93827000000E+00 0.  1.
     999902    2    1    2    0    0  0.18963156128E-01 -0.72857985595E-02 -0.11604146215E-01  0.10205346936E+01  0.10202664949E+01 0.  0.
     999903    2    3    3    0    0 -0.11769580478E+00  0.43298727210E-01 -0.20688202760E-01  0.12850499349E+00  0.18932759341E-01 0.  0.
         14    1    1    2    0    0 -0.18963156128E-01  0.72857985595E-02  0.11604146215E-01  0.23395306375E-01  0.00000000000E+00 0. -1.
     999901    1    3    3    0    0  0.13665896091E+00 -0.50584525770E-01  0.90840565444E-02  0.89202970014E+00  0.88000000000E+00 0. -1.
        -11    1    4    4    0    0 -0.34801465961E-01  0.42518841619E-02 -0.31025898802E-02  0.35200962160E-01  0.51100000000E-03 0. -1.
         11    1    4    4    0    0 -0.82894338822E-01  0.39046843048E-01 -0.17585612879E-01  0.93304031328E-01  0.51100000000E-03 0.  1.
</event>
<event>
 8    1  0.1132492E+005  0.1043930E+01  0.7957747E-01            NaN
         13   -1    0    0    0    0  0.00000000000E+00  0.00000000000E+00  0.74505805969E-08  0.10566000000E+00  0.10566000000E+00 0.  1.
     999900   -1    0    0    0    0 -0.00000000000E+00 -0.00000000000E+00 -0.74505805969E-08  0.93827000000E+00  0.93827000000E+00 0.  1.
     999902    2    1    2    0    0  0.93528128379E-02 -0.14440050079E-01  0.16312098704E-01  0.10202218850E+01  0.10199463809E+01 0.  0.
     999903    2    3    3    0    0 -0.64433698729E-01  0.66703743503E-01 -0.85441884394E-01  0.12759506619E+00  0.19470346112E-01 0.  0.
         14    1    1    2    0    0 -0.93528128379E-02  0.14440050079E-01 -0.16312098704E-01  0.23708115033E-01  0.00000000000E+00 0. -1.
     999901    1    3    3    0    0  0.73786511567E-01 -0.81143793583E-01  0.10175398310E+00  0.89262681878E+00  0.88000000000E+00 0. -1.
        -11    1    4    4    0    0 -0.41300513724E-01  0.54973881643E-01 -0.64043131715E-01  0.93966185075E-01  0.51100000000E-03 0. -1.
         11    1    4    4    0    0 -0.23133185005E-01  0.11729861861E-01 -0.21398752678E-01  0.33628881113E-01  0.51100000000E-03 0.  1.
</event>
<event>
 8    1  0.1132492E+005  0.1043930E+01  0.7957747E-01            NaN
         13   -1    0    0    0    0  0.00000000000E+00  0.00000000000E+00  0.74505805969E-08  0.10566000000E+00  0.10566000000E+00 0.  1.
     999900   -1    0    0    0    0 -0.00000000000E+00 -0.00000000000E+00 -0.74505805969E-08  0.93827000000E+00  0.93827000000E+00 0. -1.
     999902    2    1    2    0    0  0.18959787382E-01  0.59548774046E-02  0.12635763031E-01  0.10203801251E+01  0.10201083291E+01 0.  0.
     999903    2    3    3    0    0 -0.99790867913E-01 -0.56462299995E-01  0.56069614726E-01  0.12915393511E+00  0.19766856604E-01 0.  0.
         14    1    1    2    0    0 -0.18959787382E-01 -0.59548774046E-02 -0.12635763031E-01  0.23549874944E-01  0.00000000000E+00 0.  1.
     999901    1    3    3    0    0  0.11875065530E+00  0.62417177400E-01 -0.43433851696E-01  0.89122618994E+00  0.88000000000E+00 0. -1.
        -11    1    4    4    0    0 -0.63243048709E-01 -0.39748585119E-01  0.26511948747E-01  0.79263975274E-01  0.51100000000E-03 0.  1.
         11    1    4    4    0    0 -0.36547819204E-01 -0.16713714876E-01  0.29557665979E-01  0.49889959839E-01  0.51100000000E-03 0. -1.
</event>
<event>
 8    1  0.1132492E+005  0.1043930E+01  0.7957747E-01            NaN
         13   -1    0    0    0    0  0.00000000000E+00  0.00000000000E+00  0.74505805969E-08  0.10566000000E+00  0.10566000000E+00 0.  1.
     999900   -1    0    0    0    0 -0.00000000000E+00 -0.00000000000E+00 -0.74505805969E-08  0.93827000000E+00  0.93827000000E+00 0. -1.
     999902    2    1    2    0    0 -0.16626503437E-01 -0.10978917204E-01  0.17308540009E-01  0.10175375239E+01  0.10171951876E+01 0.  0.
     999903    2    3    3    0    0  0.32254844991E-01 -0.63772541256E-01 -0.10237351631E+00  0.12652666670E+00  0.20526775260E-01 0.  0.
         14    1    1    2    0    0  0.16626503437E-01  0.10978917204E-01 -0.17308540009E-01  0.26392476140E-01  0.00000000000E+00 0. -1.
     999901    1    3    3    0    0 -0.48881348428E-01  0.52793624052E-01  0.11968205632E+00  0.89101085716E+00  0.88000000000E+00 0.  1.
        -11    1    4    4    0    0 -0.27358184163E-02 -0.55132859638E-02 -0.11468550944E-01  0.13025736305E-01  0.51100000000E-03 0. -1.
         11    1    4    4    0    0  0.34990663407E-01 -0.58259255292E-01 -0.90904965364E-01  0.11350093040E+00  0.51100000000E-03 0.  1.
</event>
<event>
 8    1  0.1132492E+005  0.1043930E+01  0.7957747E-01            NaN
         13   -1    0    0    0    0  0.00000000000E+00  0.00000000000E+00  0.74505805969E-08  0.10566000000E+00  0.10566000000E+00 0.  1.
     999900   -1    0    0    0    0 -0.00000000000E+00 -0.00000000000E+00 -0.74505805969E-08  0.93827000000E+00  0.93827000000E+00 0.  1.
     999902    2    1    2    0    0  0.14394050600E-01  0.94981462809E-02 -0.16930811937E-01  0.10197627522E+01  0.10194763434E+01 0.  0.
     999903    2    3    3    0    0  0.10358603964E+00 -0.65038395641E-01 -0.44553988448E-01  0.13168958689E+00  0.19925583850E-01 0.  0.
         14    1    1    2    0    0 -0.14394050600E-01 -0.94981462809E-02  0.16930811937E-01  0.24167247842E-01  0.00000000000E+00 0.  1.
     999901    1    3    3    0    0 -0.89191989043E-01  0.74536541922E-01  0.27623176511E-01  0.88807316527E+00  0.88000000000E+00 0.  1.
        -11    1    4    4    0    0  0.33972892085E-01 -0.17976695000E-01 -0.23530258034E-01  0.45069425600E-01  0.51100000000E-03 0. -1.
         11    1    4    4    0    0  0.69613147558E-01 -0.47061700641E-01 -0.21023730414E-01  0.86620161288E-01  0.51100000000E-03 0.  1.
</event>
<event>
 8    1  0.1132492E+005  0.1043930E+01  0.7957747E-01            NaN
         13   -1    0    0    0    0  0.00000000000E+00  0.00000000000E+00  0.74505805969E-08  0.10566000000E+00  0.10566000000E+00 0.  1.
     999900   -1    0    0    0    0 -0.00000000000E+00 -0.00000000000E+00 -0.74505805969E-08  0.93827000000E+00  0.93827000000E+00 0. -1.
     999902    2    1    2    0    0 -0.92807298225E-02 -0.14466377124E-01 -0.13793689041E-01  0.10218919903E+01  0.10216543280E+01 0.  0.
     999903    2    3    3    0    0  0.28852408529E-01 -0.29375662659E-01  0.12221651907E+00  0.13050251330E+00  0.19965906153E-01 0.  0.
         14    1    1    2    0    0  0.92807298225E-02  0.14466377124E-01  0.13793689041E-01  0.22038009676E-01  0.00000000000E+00 0.  1.
     999901    1    3    3    0    0 -0.38133138352E-01  0.14909285535E-01 -0.13601020812E+00  0.89138947702E+00  0.88000000000E+00 0. -1.
        -11    1    4    4    0    0  0.20740149497E-01 -0.20476148271E-01  0.55330433654E-01  0.62539143410E-01  0.51100000000E-03 0. -1.
         11    1    4    4    0    0  0.81122590324E-02 -0.88995143879E-02  0.66886085421E-01  0.67963369890E-01  0.51100000000E-03 0.  1.
</event>
<event>
 8    1  0.1132492E+005  0.1043930E+01  0.7957747E-01            NaN
         13   -1    0    0    0    0  0.00000000000E+00  0.00000000000E+00  0.74505805969E-08  0.10566000000E+00  0.10566000000E+00 0.  1.
     999900   -1    0    0    0    0 -0.00000000000E+00 -0.00000000000E+00 -0.74505805969E-08  0.93827000000E+00  0.93827000000E+00 0.  1.
     999902    2    1    2    0    0  0.20263163788E-01 -0.87415336769E-02  0.84585733263E-02  0.10202961751E+01  0.10200224150E+01 0.  0.
     999903    2    3    3    0    0  0.51331952936E-01  0.31671345902E-01 -0.11373434764E+00  0.13039192156E+00  0.20700430718E-01 0.  0.
         14    1    1    2    0    0 -0.20263163788E-01  0.87415336769E-02 -0.84585733263E-02  0.23633824922E-01  0.00000000000E+00 0. -1.
     999901    1    3    3    0    0 -0.31068789148E-01 -0.40412879579E-01  0.12219292097E+00  0.88990425352E+00  0.88000000000E+00 0. -1.
        -11    1    4    4    0    0  0.98092098166E-02 -0.69360207723E-03 -0.29072035106E-01  0.30694397327E-01  0.51100000000E-03 0.  1.
         11    1    4    4    0    0  0.41522743119E-01  0.32364947979E-01 -0.84662312533E-01  0.99697524233E-01  0.51100000000E-03 0. -1.
</event>
<event>
 8    1  0.1132492E+005  0.1043930E+01  0.7957747E-01            NaN
         13   -1    0    0    0    0  0.00000000000E+00  0.00000000000E+00  0.74505805969E-08  0.10566000000E+00  0.10566000000E+00 0. -1.
     999900   -1    0    0    0    0 -0.00000000000E+00 -0.00000000000E+00 -0.74505805969E-08  0.93827000000E+00  0.93827000000E+00 0. -1.
     999902    2    1    2    0    0 -0.22960044625E-02 -0.21624775376E-01  0.99669051400E-02  0.10200084251E+01  0.10197278782E+01 0.  0.
     999903    2    3    3    0    0 -0.11904048835E+00  0.41559788364E-01  0.24770235328E-01  0.12992938245E+00  0.19241257521E-01 0.  0.
         14    1    1    2    0    0  0.22960044625E-02  0.21624775376E-01 -0.99669051400E-02  0.23921574878E-01  0.00000000000E+00 0. -1.
     999901    1    3    3    0    0  0.11674448389E+00 -0.63184563740E-01 -0.14803330188E-01  0.89007904267E+00  0.88000000000E+00 0.  1.
        -11    1    4    4    0    0 -0.50447698537E-01  0.22094205632E-01  0.19520713469E-01  0.58433240417E-01  0.51100000000E-03 0.  1.
         11    1    4    4    0    0 -0.68592789813E-01  0.19465582732E-01  0.52495218585E-02  0.71496142037E-01  0.51100000000E-03 0. -1.
</event>
<event>
 7    1  0.1132492E+005  0.1043930E+01  0.7957747E-01            NaN
         13   -1    0    0    0    0  0.00000000000E+00  0.00000000000E+00  0.74505805969E-08  0.10566000000E+00  0.10566000000E+00 0.  1.
     999900   -1    0    0    0    0 -0.00000000000E+00 -0.00000000000E+00 -0.74505805969E-08  0.93827000000E+00  0.93827000000E+00 0.  1.
     999902    2    1    2    0    0 -0.80864504996E-02 -0.27269243746E-03 -0.21886967661E-01  0.10205953820E+01  0.10203285889E+01 0.  0.
         14    1    1    2    0    0  0.80864504996E-02  0.27269243746E-03  0.21886967661E-01  0.23334617979E-01  0.00000000000E+00 0.  1.
     999901    1    3    3    0    0  0.95689855032E-01 -0.47765822961E-01  0.28050164922E-01  0.88691878656E+00  0.88000000000E+00 0. -1.
        -11    1    3    3    0    0 -0.20680337890E-01  0.33756133141E-01 -0.19380171647E-01  0.44079531235E-01  0.51100000000E-03 0.  1.
         11    1    3    3    0    0 -0.83095967642E-01  0.13736997382E-01 -0.30556960936E-01  0.89597064227E-01  0.51100000000E-03 0. -1.
</event>
<event>
 8    1  0.1132492E+005  0.1043930E+01  0.7957747E-01            NaN
         13   -1    0    0    0    0  0.00000000000E+00  0.00000000000E+00  0.74505805969E-08  0.10566000000E+00  0.10566000000E+00 0. -1.
     999900   -1    0    0    0    0 -0.00000000000E+00 -0.00000000000E+00 -0.74505805969E-08  0.93827000000E+00  0.93827000000E+00 0. -1.
     999902    2    1    2    0    0  0.12473432374E-01 -0.11313151896E-01 -0.16340395600E-01  0.10204655066E+01  0.10201957007E+01 0.  0.
     999903    2    3    3    0    0  0.10091863370E+00 -0.84035570667E-01  0.11781229235E-02  0.13287438323E+00  0.20190740007E-01 0.  0.
         14    1    1    2    0    0 -0.12473432374E-01  0.11313151896E-01  0.16340395600E-01  0.23464493376E-01  0.00000000000E+00 0. -1.
     999901    1    3    3    0    0 -0.88445201321E-01  0.72722418771E-01 -0.17518518524E-01  0.88759112339E+00  0.88000000000E+00 0.  1.
        -11    1    4    4    0    0  0.36759341662E-01 -0.25225689122E-01  0.90103551975E-02  0.45486615756E-01  0.51100000000E-03 0. -1.
         11    1    4    4    0    0  0.64159292033E-01 -0.58809881545E-01 -0.78322322739E-02  0.87387767479E-01  0.51100000000E-03 0.  1.
</event>
<event>
 8    1  0.1132492E+005  0.1043930E+01  0.7957747E-01            NaN
         13   -1    0    0    0    0  0.00000000000E+00  0.00000000000E+00  0.74505805969E-08  0.10566000000E+00  0.10566000000E+00 0.  1.
     999900   -1    0    0    0    0 -0.00000000000E+00 -0.00000000000E+00 -0.74505805969E-08  0.93827000000E+00  0.93827000000E+00 0. -1.
     999902    2    1    2    0    0 -0.19132376131E-01  0.27953999218E-02  0.13801823899E-01  0.10201738972E+01  0.10198972635E+01 0.  0.
     999903    2    3    3    0    0  0.71052489034E-01 -0.10065808579E+00 -0.30407311847E-01  0.12843941806E+00  0.19788205215E-01 0.  0.
         14    1    1    2    0    0  0.19132376131E-01 -0.27953999218E-02 -0.13801823899E-01  0.23756102796E-01  0.00000000000E+00 0. -1.
     999901    1    3    3    0    0 -0.90184865165E-01  0.10345348571E+00  0.44209135746E-01  0.89173447914E+00  0.88000000000E+00 0. -1.
        -11    1    4    4    0    0  0.27638198492E-01 -0.24062922540E-01 -0.11221020927E-01  0.38328405768E-01  0.51100000000E-03 0.  1.
         11    1    4    4    0    0  0.43414290543E-01 -0.76595163247E-01 -0.19186290920E-01  0.90111012293E-01  0.51100000000E-03 0. -1.
</event>
<event>
 8    1  0.1132492E+005  0.1043930E+01  0.7957747E-01            NaN
         13   -1    0    0    0    0  0.00000000000E+00  0.00000000000E+00  0.74505805969E-08  0.10566000000E+00  0.10566000000E+00 0. -1.
     999900   -1    0    0    0    0 -0.00000000000E+00 -0.00000000000E+00 -0.74505805969E-08  0.93827000000E+00  0.93827000000E+00 0.  1.
     999902    2    1    2    0    0 -0.85696973855E-02  0.84000211902E-02 -0.22298850463E-01  0.10186073066E+01  0.10182924954E+01 0.  0.
     999903    2    3    3    0    0 -0.64290709616E-01  0.87825106866E-01  0.66304184891E-01  0.12885246771E+00  0.18978112740E-01 0.  0.
         14    1    1    2    0    0  0.85696973855E-02 -0.84000211902E-02  0.22298850463E-01  0.25322693405E-01  0.00000000000E+00 0. -1.
     999901    1    3    3    0    0  0.55721012230E-01 -0.79425085675E-01 -0.88603035354E-01  0.88975483888E+00  0.88000000000E+00 0.  1.
        -11    1    4    4    0    0 -0.39424184023E-01  0.41012201999E-01  0.40919289932E-01  0.70077930964E-01  0.51100000000E-03 0.  1.
         11    1    4    4    0    0 -0.24866525593E-01  0.46812904867E-01  0.25384894959E-01  0.58774536750E-01  0.51100000000E-03 0. -1.
</event>
<event>
 8    1  0.1132492E+005  0.1043930E+01  0.7957747E-01            NaN
         13   -1    0    0    0    0  0.00000000000E+00  0.00000000000E+00  0.74505805969E-08  0.10566000000E+00  0.10566000000E+00 0. -1.
     999900   -1    0    0    0    0 -0.00000000000E+00 -0.00000000000E+00 -0.74505805969E-08  0.93827000000E+00  0.93827000000E+00 0.  1.
     999902    2    1    2    0    0  0.21657746970E-01 -0.58266674174E-02  0.74509095913E-02  0.10202968853E+01  0.10200231419E+01 0.  0.
     999903    2    3    3    0    0  0.54714494254E-01  0.73874949385E-01 -0.90633650677E-01  0.13065331778E+00  0.20115834131E-01 0.  0.
         14    1    1    2    0    0 -0.21657746970E-01  0.58266674174E-02 -0.74509095913E-02  0.23633114706E-01  0.00000000000E+00 0.  1.
     999901    1    3    3    0    0 -0.33056747285E-01 -0.79701616802E-01  0.98084560268E-01  0.88964356752E+00  0.88000000000E+00 0. -1.
        -11    1    4    4    0    0  0.14580514931E-01  0.29762089532E-01 -0.22276328804E-01  0.39935815191E-01  0.51100000000E-03 0. -1.
         11    1    4    4    0    0  0.40133979323E-01  0.44112859853E-01 -0.68357321873E-01  0.90717502585E-01  0.51100000000E-03 0.  1.
</event>
<event>
 8    1  0.1132492E+005  0.1043930E+01  0.7957747E-01            NaN
         13   -1    0    0    0    0  0.00000000000E+00  0.00000000000E+00  0.74505805969E-08  0.10566000000E+00  0.10566000000E+00 0.  1.
     999900   -1    0    0    0    0 -0.00000000000E+00 -0.00000000000E+00 -0.74505805969E-08  0.93827000000E+00  0.93827000000E+00 0.  1.
     999902    2    1    2    0    0  0.96363137179E-02 -0.77221014906E-02 -0.22455469518E-01  0.10183031097E+01  0.10179805920E+01 0.  0.
     999903    2    3    3    0    0 -0.86210894655E-01  0.87432209589E-02  0.89264000804E-01  0.12592480753E+00  0.19499565159E-01 0.  0.
         14    1    1    2    0    0 -0.96363137179E-02  0.77221014906E-02  0.22455469518E-01  0.25626890267E-01  0.00000000000E+00 0.  1.
     999901    1    3    3    0    0  0.95847208373E-01 -0.16465322450E-01 -0.11171947032E+00  0.89237830220E+00  0.88000000000E+00 0.  1.
        -11    1    4    4    0    0 -0.20954142600E-01  0.90387587867E-02  0.16387558324E-01  0.28099616391E-01  0.51100000000E-03 0. -1.
         11    1    4    4    0    0 -0.65256752055E-01 -0.29553782776E-03  0.72876442480E-01  0.97825191137E-01  0.51100000000E-03 0.  1.
</event>
<event>
 8    1  0.1132492E+005  0.1043930E+01  0.7957747E-01            NaN
         13   -1    0    0    0    0  0.00000000000E+00  0.00000000000E+00  0.74505805969E-08  0.10566000000E+00  0.10566000000E+00 0. -1.
     999900   -1    0    0    0    0 -0.00000000000E+00 -0.00000000000E+00 -0.74505805969E-08  0.93827000000E+00  0.93827000000E+00 0. -1.
     999902    2    1    2    0    0 -0.27754298404E-01 -0.91869132380E-04  0.48438051349E-02  0.10157560410E+01  0.10153652361E+01 0.  0.
     999903    2    3    3    0    0 -0.24530178981E-01  0.71711820989E-01 -0.99451138715E-01  0.12668708965E+00  0.20366019320E-01 0.  0.
         14    1    1    2    0    0  0.27754298404E-01  0.91869132380E-04 -0.48438051349E-02  0.28173959041E-01  0.00000000000E+00 0.  1.
     999901    1    3    3    0    0 -0.32241194235E-02 -0.71803690122E-01  0.10429494385E+00  0.88906895130E+00  0.88000000000E+00 0.  1.
        -11    1    4    4    0    0 -0.12112058787E-01  0.49537032175E-01 -0.51873762042E-01  0.72744538174E-01  0.51100000000E-03 0.  1.
         11    1    4    4    0    0 -0.12418120194E-01  0.22174788814E-01 -0.47577376674E-01  0.53942551481E-01  0.51100000000E-03 0. -1.
</event>
<event>
 8    1  0.1132492E+005  0.1043930E+01  0.7957747E-01            NaN
         13   -1    0    0    0    0  0.00000000000E+00  0.00000000000E+00  0.74505805969E-08  0.10566000000E+00  0.10566000000E+00 0. -1.
     999900   -1    0    0    0    0 -0.00000000000E+00 -0.00000000000E+00 -0.74505805969E-08  0.93827000000E+00  0.93827000000E+00 0.  1.
     999902    2    1    2    0    0  0.78234524024E-02 -0.21275073929E-01 -0.69544531989E-02  0.10202192514E+01  0.10199436854E+01 0.  0.
     999903    2    3    3    0    0  0.89018798734E-01  0.44042424677E-02  0.93119551868E-01  0.13046258917E+00  0.20136840693E-01 0.  0.
         14    1    1    2    0    0 -0.78234524024E-02  0.21275073929E-01  0.69544531989E-02  0.23710748564E-01  0.00000000000E+00 0. -1.
     999901    1    3    3    0    0 -0.81195346331E-01 -0.25679316397E-01 -0.10007400507E+00  0.88975666227E+00  0.88000000000E+00 0.  1.
        -11    1    4    4    0    0  0.58481381124E-01  0.11934075474E-01  0.65300333054E-01  0.88469705061E-01  0.51100000000E-03 0.  1.
         11    1    4    4    0    0  0.30537417610E-01 -0.75298330059E-02  0.27819218814E-01  0.41992884109E-01  0.51100000000E-03 0. -1.
</event>
<event>
 8    1  0.1132492E+005  0.1043930E+01  0.7957747E-01            NaN
         13   -1    0    0    0    0  0.00000000000E+00  0.00000000000E+00  0.74505805969E-08  0.10566000000E+00  0.10566000000E+00 0. -1.
     999900   -1    0    0    0    0 -0.00000000000E+00 -0.00000000000E+00 -0.74505805969E-08  0.93827000000E+00  0.93827000000E+00 0. -1.
     999902    2    1    2    0    0  0.20562127752E-01 -0.57338272759E-02  0.89850353496E-02  0.10207695006E+01  0.10205067195E+01 0.  0.
     999903    2    3    3    0    0  0.69259846183E-01  0.10968610799E+00  0.13814274059E-01  0.13188449633E+00  0.19357624475E-01 0.  0.
         14    1    1    2    0    0 -0.20562127752E-01  0.57338272759E-02 -0.89850353496E-02  0.23160499415E-01  0.00000000000E+00 0.  1.
     999901    1    3    3    0    0 -0.48697718431E-01 -0.11541993527E+00 -0.48292387098E-02  0.88888500425E+00  0.88000000000E+00 0. -1.
        -11    1    4    4    0    0  0.84210930789E-02  0.19370121034E-01  0.87552216264E-02  0.22869880285E-01  0.51100000000E-03 0.  1.
         11    1    4    4    0    0  0.60838753104E-01  0.90315986959E-01  0.50590524331E-02  0.10901461605E+00  0.51100000000E-03 0. -1.
</event>
<event>
 8    1  0.1132492E+005  0.1043930E+01  0.7957747E-01            NaN
         13   -1    0    0    0    0  0.00000000000E+00  0.00000000000E+00  0.74505805969E-08  0.10566000000E+00  0.10566000000E+00 0.  1.
     999900   -1    0    0    0    0 -0.00000000000E+00 -0.00000000000E+00 -0.74505805969E-08  0.93827000000E+00  0.93827000000E+00 0.  1.
     999902    2    1    2    0    0  0.37268115649E-02  0.18010371132E-01  0.14813661628E-01  0.10203141756E+01  0.10200408373E+01 0.  0.
     999903    2    3    3    0    0 -0.12337042555E+00 -0.26989577401E-01 -0.19806748079E-01  0.12937238408E+00  0.19904956772E-01 0.  0.
         14    1    1    2    0    0 -0.37268115649E-02 -0.18010371132E-01 -0.14813661628E-01  0.23615824432E-01  0.00000000000E+00 0.  1.
     999901    1    3    3    0    0  0.12709723712E+00  0.44999948533E-01  0.34620409707E-01  0.89094179149E+00  0.88000000000E+00 0. -1.
        -11    1    4    4    0    0 -0.75858563709E-01 -0.66222719969E-02 -0.11398584214E-01  0.76997175386E-01  0.51100000000E-03 0. -1.
         11    1    4    4    0    0 -0.47511861843E-01 -0.20367305404E-01 -0.84081638652E-02  0.52375208695E-01  0.51100000000E-03 0.  1.
</event>
<event>
 8    1  0.1132492E+005  0.1043930E+01  0.7957747E-01            NaN
         13   -1    0    0    0    0  0.00000000000E+00  0.00000000000E+00  0.74505805969E-08  0.10566000000E+00  0.10566000000E+00 0. -1.
     999900   -1    0    0    0    0 -0.00000000000E+00 -0.00000000000E+00 -0.74505805969E-08  0.93827000000E+00  0.93827000000E+00 0. -1.
     999902    2    1    2    0    0  0.25774619893E-02 -0.22533162959E-01  0.74482600629E-02  0.10200581898E+01  0.10197788227E+01 0.  0.
     999903    2    3    3    0    0 -0.49259939090E-01 -0.84504350706E-01 -0.85619908358E-01  0.13146985531E+00  0.19647576443E-01 0.  0.
         14    1    1    2    0    0 -0.25774619893E-02  0.22533162959E-01 -0.74482600629E-02  0.23871810178E-01  0.00000000000E+00 0.  1.
     999901    1    3    3    0    0  0.51837401079E-01  0.61971187748E-01  0.93068168420E-01  0.88858833451E+00  0.88000000000E+00 0.  1.
        -11    1    4    4    0    0 -0.48926249726E-02 -0.70832112321E-02 -0.16423508160E-01  0.18549997352E-01  0.51100000000E-03 0.  1.
         11    1    4    4    0    0 -0.44367314117E-01 -0.77421139474E-01 -0.69196400198E-01  0.11291985796E+00  0.51100000000E-03 0. -1.
</event>
<event>
 8    1  0.1132492E+005  0.1043930E+01  0.7957747E-01            NaN
         13   -1    0    0    0    0  0.00000000000E+00  0.00000000000E+00  0.74505805969E-08  0.10566000000E+00  0.10566000000E+00 0.  1.
     999900   -1    0    0    0    0 -0.00000000000E+00 -0.00000000000E+00 -0.74505805969E-08  0.93827000000E+00  0.93827000000E+00 0.  1.
     999902    2    1    2    0    0  0.24401510741E-01  0.23822793771E-05  0.26609546878E-04  0.10195284746E+01  0.10192364182E+01 0.  0.
     999903    2    3    3    0    0 -0.54700496231E-02 -0.95015666097E-01 -0.85559427978E-01  0.12978373065E+00  0.21575513376E-01 0.  0.
         14    1    1    2    0    0 -0.24401510741E-01 -0.23822793771E-05 -0.26609546878E-04  0.24401525366E-01  0.00000000000E+00 0.  1.
     999901    1    3    3    0    0  0.29871560365E-01  0.95018048377E-01  0.85586037525E-01  0.88974474399E+00  0.88000000000E+00 0. -1.
        -11    1    4    4    0    0 -0.16903771754E-02 -0.84670156357E-01 -0.66151854913E-01  0.10746265296E+00  0.51100000000E-03 0. -1.
         11    1    4    4    0    0 -0.37796724477E-02 -0.10345509741E-01 -0.19407573065E-01  0.22321077682E-01  0.51100000000E-03 0.  1.
</event>
<event>
 8    1  0.1132492E+005  0.1043930E+01  0.7957747E-01            NaN
         13   -1    0    0    0    0  0.00000000000E+00  0.00000000000E+00  0.74505805969E-08  0.10566000000E+00  0.10566000000E+00 0. -1.
     999900   -1    0    0    0    0 -0.00000000000E+00 -0.00000000000E+00 -0.74505805969E-08  0.93827000000E+00  0.93827000000E+00 0. -1.
     999902    2    1    2    0    0 -0.23037387141E-01 -0.37621894898E-02 -0.63884002529E-03  0.10205786961E+01  0.10203115169E+01 0.  0.
     999903    2    3    3    0    0 -0.26955069005E-01 -0.12757043098E+00  0.21326076336E-03  0.13190296507E+00  0.19938809141E-01 0.  0.
         14    1    1    2    0    0  0.23037387141E-01  0.37621894898E-02  0.63884002529E-03  0.23351303874E-01  0.00000000000E+00 0. -1.
     999901    1    3    3    0    0  0.39176818641E-02  0.12380824149E+00 -0.85210078864E-03  0.88867573106E+00  0.88000000000E+00 0.  1.
        -11    1    4    4    0    0 -0.96979420997E-02 -0.89670719144E-01  0.20092251115E-02  0.90217437667E-01  0.51100000000E-03 0. -1.
         11    1    4    4    0    0 -0.17257126905E-01 -0.37899711832E-01 -0.17959643482E-02  0.41685527403E-01  0.51100000000E-03 0.  1.
</event>
<event>
 8    1  0.1132492E+005  0.1043930E+01  0.7957747E-01            NaN
         13   -1    0    0    0    0  0.00000000000E+00  0.00000000000E+00  0.74505805969E-08  0.10566000000E+00  0.10566000000E+00 0. -1.
     999900   -1    0    0    0    0 -0.00000000000E+00 -0.00000000000E+00 -0.74505805969E-08  0.93827000000E+00  0.93827000000E+00 0. -1.
     999902    2    1    2    0    0 -0.25712962162E-02  0.17995912935E-01 -0.15499701536E-01  0.10200405631E+01  0.10197607784E+01 0.  0.
     999903    2    3    3    0    0 -0.20007788356E-01 -0.50026648381E-01  0.11448836399E+00  0.12772447715E+00  0.17406304332E-01 0.  0.
         14    1    1    2    0    0  0.25712962162E-02 -0.17995912935E-01  0.15499701536E-01  0.23889436877E-01  0.00000000000E+00 0. -1.
     999901    1    3    3    0    0  0.17436492140E-01  0.68022561316E-01 -0.12998806553E+00  0.89231608597E+00  0.88000000000E+00 0. -1.
        -11    1    4    4    0    0 -0.63108043735E-02 -0.12122449544E-01  0.14571906332E-01  0.19984534269E-01  0.51100000000E-03 0. -1.
         11    1    4    4    0    0 -0.13696983983E-01 -0.37904198837E-01  0.99916457661E-01  0.10773994288E+00  0.51100000000E-03 0.  1.
</event>
<event>
 8    1  0.1132492E+005  0.1043930E+01  0.7957747E-01            NaN
         13   -1    0    0    0    0  0.00000000000E+00  0.00000000000E+00  0.74505805969E-08  0.10566000000E+00  0.10566000000E+00 0. -1.
     999900   -1    0    0    0    0 -0.00000000000E+00 -0.00000000000E+00 -0.74505805969E-08  0.93827000000E+00  0.93827000000E+00 0.  1.
     999902    2    1    2    0    0  0.15090645813E-01  0.10081507814E-01  0.15622490899E-01  0.10199836722E+01  0.10197025375E+01 0.  0.
     999903    2    3    3    0    0  0.47398563604E-01 -0.93492233938E-01  0.76209237840E-01  0.13125307447E+00  0.20787014841E-01 0.  0.
         14    1    1    2    0    0 -0.15090645813E-01 -0.10081507814E-01 -0.15622490899E-01  0.23946327750E-01  0.00000000000E+00 0.  1.
     999901    1    3    3    0    0 -0.32307917791E-01  0.10357374175E+00 -0.60586746942E-01  0.88873059778E+00  0.88000000000E+00 0. -1.
        -11    1    4    4    0    0  0.77360713389E-02 -0.29698961193E-01  0.30758787042E-01  0.43453874361E-01  0.51100000000E-03 0.  1.
         11    1    4    4    0    0  0.39662492265E-01 -0.63793272745E-01  0.45450450799E-01  0.87799200105E-01  0.51100000000E-03 0. -1.
</event>
<event>
 8    1  0.1132492E+005  0.1043930E+01  0.7957747E-01            NaN
         13   -1    0    0    0    0  0.00000000000E+00  0.00000000000E+00  0.74505805969E-08  0.10566000000E+00  0.10566000000E+00 0.  1.
     999900   -1    0    0    0    0 -0.00000000000E+00 -0.00000000000E+00 -0.74505805969E-08  0.93827000000E+00  0.93827000000E+00 0.  1.
     999902    2    1    2    0    0  0.13442254090E-01  0.99697269831E-02  0.16509537903E-01  0.10204213953E+01  0.10201505622E+01 0.  0.
     999903    2    3    3    0    0  0.12400726119E+00  0.40914393186E-01  0.15978256061E-01  0.13296295946E+00  0.19288740830E-01 0.  0.
         14    1    1    2    0    0 -0.13442254090E-01 -0.99697269831E-02 -0.16509537903E-01  0.23508604657E-01  0.00000000000E+00 0. -1.
     999901    1    3    3    0    0 -0.11056500710E+00 -0.30944666203E-01  0.53128184279E-03  0.88745843588E+00  0.88000000000E+00 0.  1.
        -11    1    4    4    0    0  0.37287262984E-02 -0.78272962510E-03  0.32357388211E-02  0.50246584156E-02  0.51100000000E-03 0. -1.
         11    1    4    4    0    0  0.12027853489E+00  0.41697122811E-01  0.12742517239E-01  0.12793830104E+00  0.51100000000E-03 0.  1.
</event>
<event>
 8    1  0.1132492E+005  0.1043930E+01  0.7957747E-01            NaN
         13   -1    0    0    0    0  0.00000000000E+00  0.00000000000E+00  0.74505805969E-08  0.10566000000E+00  0.10566000000E+00 0.  1.
     999900   -1    0    0    0    0 -0.00000000000E+00 -0.00000000000E+00 -0.74505805969E-08  0.93827000000E+00  0.93827000000E+00 0.  1.
     999902    2    1    2    0    0 -0.16790159761E-01 -0.12696399933E-01  0.12596614464E-01  0.10193987397E+01  0.10191035314E+01 0.  0.
     999903    2    3    3    0    0  0.86516416553E-01 -0.93733670006E-01  0.11910799340E-01  0.12965734008E+00  0.19951628253E-01 0.  0.
         14    1    1    2    0    0  0.16790159761E-01  0.12696399933E-01 -0.12596614464E-01  0.24531260302E-01  0.00000000000E+00 0. -1.
     999901    1    3    3    0    0 -0.10330657631E+00  0.81037270073E-01  0.68581512329E-03  0.88974139962E+00  0.88000000000E+00 0. -1.
        -11    1    4    4    0    0  0.30199716603E-01 -0.42056918693E-01 -0.26538954407E-02  0.51847001600E-01  0.51100000000E-03 0.  1.
         11    1    4    4    0    0  0.56316699950E-01 -0.51676751313E-01  0.14564694781E-01  0.77810338481E-01  0.51100000000E-03 0. -1.
</event>
<event>
 8    1  0.1132492E+005  0.1043930E+01  0.7957747E-01            NaN
         13   -1    0    0    0    0  0.00000000000E+00  0.00000000000E+00  0.74505805969E-08  0.10566000000E+00  0.10566000000E+00 0. -1.
     999900   -1    0    0    0    0 -0.00000000000E+00 -0.00000000000E+00 -0.74505805969E-08  0.93827000000E+00  0.93827000000E+00 0. -1.
     999902    2    1    2    0    0  0.34401832463E-02 -0.18032510977E-01 -0.74518996549E-02  0.10241174504E+01  0.10239257859E+01 0.  0.
     999903    2    3    3    0    0 -0.11584858092E+00  0.59280805128E-01  0.14107124352E-01  0.13244937897E+00  0.20216811706E-01 0.  0.
         14    1    1    2    0    0 -0.34401832463E-02  0.18032510977E-01  0.74518996549E-02  0.19812549593E-01  0.00000000000E+00 0. -1.
     999901    1    3    3    0    0  0.11928876416E+00 -0.77313316105E-01 -0.21559024006E-01  0.89166807144E+00  0.88000000000E+00 0. -1.
        -11    1    4    4    0    0 -0.99197101799E-01  0.49734487307E-01  0.46978754370E-02  0.11106716611E+00  0.51100000000E-03 0.  1.
         11    1    4    4    0    0 -0.16651479117E-01  0.95463178207E-02  0.94092489146E-02  0.21382212861E-01  0.51100000000E-03 0. -1.
</event>
<event>
 8    1  0.1132492E+005  0.1043930E+01  0.7957747E-01            NaN
         13   -1    0    0    0    0  0.00000000000E+00  0.00000000000E+00  0.74505805969E-08  0.10566000000E+00  0.10566000000E+00 0.  1.
     999900   -1    0    0    0    0 -0.00000000000E+00 -0.00000000000E+00 -0.74505805969E-08  0.93827000000E+00  0.93827000000E+00 0.  1.
     999902    2    1    2    0    0 -0.22910986013E-01  0.13528501284E-03 -0.64923443915E-02  0.10201165140E+01  0.10198385264E+01 0.  0.
     999903    2    3    3    0    0 -0.99016627652E-01 -0.63516126683E-01 -0.59015152947E-01  0.13298506015E+00  0.19069531879E-01 0.  0.
         14    1    1    2    0    0  0.22910986013E-01 -0.13528501284E-03  0.64923443915E-02  0.23813486049E-01  0.00000000000E+00 0.  1.
     999901    1    3    3    0    0  0.76105641639E-01  0.63651411696E-01  0.52522808555E-01  0.88713145380E+00  0.88000000000E+00 0.  1.
        -11    1    4    4    0    0 -0.29851001217E-01 -0.10648553703E-01 -0.20772134740E-01  0.37897449417E-01  0.51100000000E-03 0. -1.
         11    1    4    4    0    0 -0.69165626435E-01 -0.52867572980E-01 -0.38243018206E-01  0.95087610736E-01  0.51100000000E-03 0.  1.
</event>
<event>
 8    1  0.1132492E+005  0.1043930E+01  0.7957747E-01            NaN
         13   -1    0    0    0    0  0.00000000000E+00  0.00000000000E+00  0.74505805969E-08  0.10566000000E+00  0.10566000000E+00 0. -1.
     999900   -1    0    0    0    0 -0.00000000000E+00 -0.00000000000E+00 -0.74505805969E-08  0.93827000000E+00  0.93827000000E+00 0. -1.
     999902    2    1    2    0    0 -0.13955879029E-01  0.48161784262E-02  0.17496428921E-01  0.10210370500E+01  0.10207803732E+01 0.  0.
     999903    2    3    3    0    0  0.98641882359E-01  0.82667597581E-01  0.13232517161E-02  0.13030663569E+00  0.20344917435E-01 0.  0.
         14    1    1    2    0    0  0.13955879029E-01 -0.48161784262E-02 -0.17496428921E-01  0.22892949987E-01  0.00000000000E+00 0.  1.
     999901    1    3    3    0    0 -0.11259776139E+00 -0.77851419155E-01  0.16173177205E-01  0.89073041432E+00  0.88000000000E+00 0.  1.
        -11    1    4    4    0    0  0.55063054526E-01  0.42269350580E-01  0.10396288663E-01  0.70192463350E-01  0.51100000000E-03 0.  1.
         11    1    4    4    0    0  0.43578827833E-01  0.40398247002E-01 -0.90730369471E-02  0.60114172343E-01  0.51100000000E-03 0. -1.
</event>
<event>
 8    1  0.1132492E+005  0.1043930E+01  0.7957747E-01            NaN
         13   -1    0    0    0    0  0.00000000000E+00  0.00000000000E+00  0.74505805969E-08  0.10566000000E+00  0.10566000000E+00 0. -1.
     999900   -1    0    0    0    0 -0.00000000000E+00 -0.00000000000E+00 -0.74505805969E-08  0.93827000000E+00  0.93827000000E+00 0. -1.
     999902    2    1    2    0    0 -0.24060268757E-01 -0.23858107640E-02 -0.27621958897E-03  0.10197501546E+01  0.10194634436E+01 0.  0.
     999903    2    3    3    0    0  0.99086543821E-01  0.32185687577E-01 -0.71046709120E-01  0.12769141880E+00  0.20084867640E-01 0.  0.
         14    1    1    2    0    0  0.24060268757E-01  0.23858107640E-02  0.27621958897E-03  0.24179845387E-01  0.00000000000E+00 0. -1.
     999901    1    3    3    0    0 -0.12314681258E+00 -0.34571498341E-01  0.70770489531E-01  0.89205873581E+00  0.88000000000E+00 0.  1.
        -11    1    4    4    0    0  0.10982380116E-01  0.93612041990E-02 -0.14916741711E-01  0.20760903674E-01  0.51100000000E-03 0.  1.
         11    1    4    4    0    0  0.88104163705E-01  0.22824483377E-01 -0.56129967408E-01  0.10693051513E+00  0.51100000000E-03 0. -1.
</event>
<event>
 8    1  0.1132492E+005  0.1043930E+01  0.7957747E-01            NaN
         13   -1    0    0    0    0  0.00000000000E+00  0.00000000000E+00  0.74505805969E-08  0.10566000000E+00  0.10566000000E+00 0.  1.
     999900   -1    0    0    0    0 -0.00000000000E+00 -0.00000000000E+00 -0.74505805969E-08  0.93827000000E+00  0.93827000000E+00 0. -1.
     999902    2    1    2    0    0  0.14912560611E-01 -0.18184158268E-01  0.50353414940E-02  0.10198799950E+01  0.10195963915E+01 0.  0.
     999903    2    3    3    0    0  0.24182100190E-01 -0.28124722246E-01  0.12474193860E+00  0.13167145612E+00  0.20026161410E-01 0.  0.
         14    1    1    2    0    0 -0.14912560611E-01  0.18184158268E-01 -0.50353414940E-02  0.24050004987E-01  0.00000000000E+00 0.  1.
     999901    1    3    3    0    0 -0.92695395783E-02  0.99405639784E-02 -0.11970659710E+00  0.88820853889E+00  0.88000000000E+00 0. -1.
        -11    1    4    4    0    0  0.52978530997E-04  0.26160543570E-02  0.44260169166E-02  0.51669424101E-02  0.51100000000E-03 0.  1.
         11    1    4    4    0    0  0.24129121659E-01 -0.30740776603E-01  0.12031592168E+00  0.12650451371E+00  0.51100000000E-03 0. -1.
</event>
<event>
 8    1  0.1132492E+005  0.1043930E+01  0.7957747E-01            NaN
         13   -1    0    0    0    0  0.00000000000E+00  0.00000000000E+00  0.74505805969E-08  0.10566000000E+00  0.10566000000E+00 0. -1.
     999900   -1    0    0    0    0 -0.00000000000E+00 -0.00000000000E+00 -0.74505805969E-08  0.93827000000E+00  0.93827000000E+00 0.  1.
     999902    2    1    2    0    0  0.18258156660E-01  0.83636671160E-02 -0.12038572856E-01  0.10205155077E+01  0.10202468638E+01 0.  0.
     999903    2    3    3    0    0  0.24993215282E-01  0.12646081169E+00 -0.25152757448E-01  0.13250408977E+00  0.17540664087E-01 0.  0.
         14    1    1    2    0    0 -0.18258156660E-01 -0.83636671160E-02  0.12038572856E-01  0.23414492279E-01  0.00000000000E+00 0. -1.
     999901    1    3    3    0    0 -0.67350586218E-02 -0.11809714457E+00  0.13114184592E-01  0.88801141795E+00  0.88000000000E+00 0.  1.
        -11    1    4    4    0    0  0.21517812191E-01  0.63878561827E-01 -0.13708809064E-01  0.68787204257E-01  0.51100000000E-03 0. -1.
         11    1    4    4    0    0  0.34754030908E-02  0.62582249860E-01 -0.11443948384E-01  0.63716885515E-01  0.51100000000E-03 0.  1.
</event>
<event>
 8    1  0.1132492E+005  0.1043930E+01  0.7957747E-01            NaN
         13   -1    0    0    0    0  0.00000000000E+00  0.00000000000E+00  0.74505805969E-08  0.10566000000E+00  0.10566000000E+00 0. -1.
     999900   -1    0    0    0    0 -0.00000000000E+00 -0.00000000000E+00 -0.74505805969E-08  0.93827000000E+00  0.93827000000E+00 0.  1.
     999902    2    1    2    0    0  0.52894607501E-02 -0.85691609885E-02 -0.19526404940E-01  0.10219598064E+01  0.10217236204E+01 0.  0.
     999903    2    3    3    0    0 -0.95613377881E-01  0.15302958480E-01  0.84182910537E-01  0.12982367162E+00  0.19781929112E-01 0.  0.
         14    1    1    2    0    0 -0.52894607501E-02  0.85691609885E-02  0.19526404940E-01  0.21970193558E-01  0.00000000000E+00 0. -1.
     999901    1    3    3    0    0  0.10090283863E+00 -0.23872119468E-01 -0.10370931548E+00  0.89213613482E+00  0.88000000000E+00 0.  1.
        -11    1    4    4    0    0 -0.58253914076E-01  0.16612835864E-01  0.43548833673E-01  0.74607418237E-01  0.51100000000E-03 0. -1.
         11    1    4    4    0    0 -0.37359463804E-01 -0.13098773843E-02  0.40634076864E-01  0.55216253387E-01  0.51100000000E-03 0.  1.
</event>
<event>
 8    1  0.1132492E+005  0.1043930E+01  0.7957747E-01            NaN
         13   -1    0    0    0    0  0.00000000000E+00  0.00000000000E+00  0.74505805969E-08  0.10566000000E+00  0.10566000000E+00 0. -1.
     999900   -1    0    0    0    0 -0.00000000000E+00 -0.00000000000E+00 -0.74505805969E-08  0.93827000000E+00  0.93827000000E+00 0. -1.
     999902    2    1    2    0    0  0.19013777824E-01 -0.19857404416E-02 -0.14787346844E-01  0.10197611660E+01  0.10194747192E+01 0.  0.
     999903    2    3    3    0    0 -0.45010287442E-01 -0.96299839313E-01  0.69243145251E-01  0.12843891571E+00  0.20058835413E-01 0.  0.
         14    1    1    2    0    0 -0.19013777824E-01  0.19857404416E-02  0.14787346844E-01  0.24168834041E-01  0.00000000000E+00 0. -1.
     999901    1    3    3    0    0  0.64024065267E-01  0.94314098871E-01 -0.84030492095E-01  0.89132225024E+00  0.88000000000E+00 0.  1.
        -11    1    4    4    0    0 -0.10501923705E-01 -0.33401056878E-01  0.32753770064E-01  0.47947800538E-01  0.51100000000E-03 0.  1.
         11    1    4    4    0    0 -0.34508363738E-01 -0.62898782435E-01  0.36489375188E-01  0.80491115176E-01  0.51100000000E-03 0. -1.
</event>
<event>
 8    1  0.1132492E+005  0.1043930E+01  0.7957747E-01            NaN
         13   -1    0    0    0    0  0.00000000000E+00  0.00000000000E+00  0.74505805969E-08  0.10566000000E+00  0.10566000000E+00 0.  1.
     999900   -1    0    0    0    0 -0.00000000000E+00 -0.00000000000E+00 -0.74505805969E-08  0.93827000000E+00  0.93827000000E+00 0.  1.
     999902    2    1    2    0    0 -0.14473467093E-01 -0.78154735545E-02  0.15396688688E-01  0.10213995562E+01  0.10211510331E+01 0.  0.
     999903    2    3    3    0    0 -0.15482861014E-01 -0.66444359783E-01 -0.10964180442E+00  0.13062854747E+00  0.19695690029E-01 0.  0.
         14    1    1    2    0    0  0.14473467093E-01  0.78154735545E-02 -0.15396688688E-01  0.22530443829E-01  0.00000000000E+00 0.  1.
     999901    1    3    3    0    0  0.10093939216E-02  0.58628886228E-01  0.12503849311E+00  0.89077100870E+00  0.88000000000E+00 0. -1.
        -11    1    4    4    0    0  0.35770432371E-02 -0.22265368106E-01 -0.41101870692E-01  0.46884611021E-01  0.51100000000E-03 0.  1.
         11    1    4    4    0    0 -0.19059904251E-01 -0.44178991677E-01 -0.68539933731E-01  0.83743936452E-01  0.51100000000E-03 0. -1.
</event>
<event>
 8    1  0.1132492E+005  0.1043930E+01  0.7957747E-01            NaN
         13   -1    0    0    0    0  0.00000000000E+00  0.00000000000E+00  0.74505805969E-08  0.10566000000E+00  0.10566000000E+00 0. -1.
     999900   -1    0    0    0    0 -0.00000000000E+00 -0.00000000000E+00 -0.74505805969E-08  0.93827000000E+00  0.93827000000E+00 0. -1.
     999902    2    1    2    0    0 -0.16506028473E-01  0.17624355000E-01 -0.54687261017E-02  0.10191716917E+01  0.10188709257E+01 0.  0.
     999903    2    3    3    0    0  0.55574643837E-01  0.81952767951E-01 -0.82648236037E-01  0.13052640543E+00  0.20040318940E-01 0.  0.
         14    1    1    2    0    0  0.16506028473E-01 -0.17624355000E-01  0.54687261017E-02  0.24758308308E-01  0.00000000000E+00 0. -1.
     999901    1    3    3    0    0 -0.72080672309E-01 -0.64328412951E-01  0.77179509935E-01  0.88864528626E+00  0.88000000000E+00 0.  1.
        -11    1    4    4    0    0  0.34021955557E-01  0.55763033041E-01 -0.65537894537E-01  0.92533702267E-01  0.51100000000E-03 0.  1.
         11    1    4    4    0    0  0.21552688280E-01  0.26189734910E-01 -0.17110341500E-01  0.37992703168E-01  0.51100000000E-03 0. -1.
</event>
<event>
 8    1  0.1132492E+005  0.1043930E+01  0.7957747E-01            NaN
         13   -1    0    0    0    0  0.00000000000E+00  0.00000000000E+00  0.74505805969E-08  0.10566000000E+00  0.10566000000E+00 0. -1.
     999900   -1    0    0    0    0 -0.00000000000E+00 -0.00000000000E+00 -0.74505805969E-08  0.93827000000E+00  0.93827000000E+00 0. -1.
     999902    2    1    2    0    0 -0.84118400923E-02 -0.71868938071E-02  0.20705136609E-01  0.10204542002E+01  0.10201841311E+01 0.  0.
     999903    2    3    3    0    0 -0.11344624532E+00  0.52278386477E-01 -0.32724414889E-01  0.13060979645E+00  0.19620176561E-01 0.  0.
         14    1    1    2    0    0  0.84118400923E-02  0.71868938071E-02 -0.20705136609E-01  0.23475799844E-01  0.00000000000E+00 0.  1.
     999901    1    3    3    0    0  0.10503440523E+00 -0.59465280284E-01  0.53429551498E-01  0.88984440371E+00  0.88000000000E+00 0.  1.
        -11    1    4    4    0    0 -0.38945350323E-01  0.10667245784E-01 -0.40501165510E-02  0.40585650290E-01  0.51100000000E-03 0.  1.
         11    1    4    4    0    0 -0.74500894996E-01  0.41611140693E-01 -0.28674298338E-01  0.90024146156E-01  0.51100000000E-03 0. -1.
</event>
<event>
 8    1  0.1132492E+005  0.1043930E+01  0.7957747E-01            NaN
         13   -1    0    0    0    0  0.00000000000E+00  0.00000000000E+00  0.74505805969E-08  0.10566000000E+00  0.10566000000E+00 0.  1.
     999900   -1    0    0    0    0 -0.00000000000E+00 -0.00000000000E+00 -0.74505805969E-08  0.93827000000E+00  0.93827000000E+00 0.  1.
     999902    2    1    2    0    0  0.89730177387E-02 -0.91060274593E-02  0.21130843758E-01  0.10192328880E+01  0.10189336252E+01 0.  0.
     999903    2    3    3    0    0 -0.52019639449E-02 -0.24976658278E-01  0.12932987162E+00  0.13235080076E+00  0.11816297299E-01 0.  0.
         14    1    1    2    0    0 -0.89730177387E-02  0.91060274593E-02 -0.21130843758E-01  0.24697112004E-01  0.00000000000E+00 0. -1.
     999901    1    3    3    0    0  0.14174981684E-01  0.15870630819E-01 -0.10819902786E+00  0.88688208723E+00  0.88000000000E+00 0.  1.
        -11    1    4    4    0    0 -0.55711656757E-02 -0.38494917379E-02  0.25311512392E-01  0.26206683388E-01  0.51100000000E-03 0.  1.
         11    1    4    4    0    0  0.36920173087E-03 -0.21127166540E-01  0.10401835923E+00  0.10614411737E+00  0.51100000000E-03 0. -1.
</event>
<event>
 8    1  0.1132492E+005  0.1043930E+01  0.7957747E-01            NaN
         13   -1    0    0    0    0  0.00000000000E+00  0.00000000000E+00  0.74505805969E-08  0.10566000000E+00  0.10566000000E+00 0.  1.
     999900   -1    0    0    0    0 -0.00000000000E+00 -0.00000000000E+00 -0.74505805969E-08  0.93827000000E+00  0.93827000000E+00 0.  1.
     999902    2    1    2    0    0 -0.40026514942E-02  0.24258120510E-01 -0.10727049822E-02  0.10193204830E+01  0.10190233652E+01 0.  0.
     999903    2    3    3    0    0 -0.68059304416E-01 -0.34064736445E-01  0.10244804134E+00  0.12902763494E+00  0.18975094684E-01 0.  0.
         14    1    1    2    0    0  0.40026514942E-02 -0.24258120510E-01  0.10727049822E-02  0.24609516973E-01  0.00000000000E+00 0. -1.
     999901    1    3    3    0    0  0.64056652922E-01  0.58322856956E-01 -0.10352074632E+00  0.89029284808E+00  0.88000000000E+00 0.  1.
        -11    1    4    4    0    0 -0.28636848166E-01 -0.45920876922E-02  0.42577251089E-01  0.51519314568E-01  0.51100000000E-03 0. -1.
         11    1    4    4    0    0 -0.39422456250E-01 -0.29472648753E-01  0.59870790251E-01  0.77508320377E-01  0.51100000000E-03 0.  1.
</event>
<event>
 8    1  0.1132492E+005  0.1043930E+01  0.7957747E-01            NaN
         13   -1    0    0    0    0  0.00000000000E+00  0.00000000000E+00  0.74505805969E-08  0.10566000000E+00  0.10566000000E+00 0.  1.
     999900   -1    0    0    0    0 -0.00000000000E+00 -0.00000000000E+00 -0.74505805969E-08  0.93827000000E+00  0.93827000000E+00 0. -1.
     999902    2    1    2    0    0  0.20456087209E-01 -0.11136773203E-01  0.33682313153E-02  0.10203965301E+01  0.10201251171E+01 0.  0.
     999903    2    3    3    0    0  0.72421804357E-01  0.53606774120E-01 -0.93149305483E-01  0.13123524129E+00  0.20671029672E-01 0.  0.
         14    1    1    2    0    0 -0.20456087209E-01  0.11136773203E-01 -0.33682313153E-02  0.23533469857E-01  0.00000000000E+00 0. -1.
     999901    1    3    3    0    0 -0.51965717147E-01 -0.64743547323E-01  0.96517536798E-01  0.88916128885E+00  0.88000000000E+00 0.  1.
        -11    1    4    4    0    0  0.43828203852E-01  0.37672910521E-01 -0.71712097739E-01  0.92103451201E-01  0.51100000000E-03 0.  1.
         11    1    4    4    0    0  0.28593600505E-01  0.15933863599E-01 -0.21437207744E-01  0.39131790093E-01  0.51100000000E-03 0. -1.
</event>
<event>
 8    1  0.1132492E+005  0.1043930E+01  0.7957747E-01            NaN
         13   -1    0    0    0    0  0.00000000000E+00  0.00000000000E+00  0.74505805969E-08  0.10566000000E+00  0.10566000000E+00 0.  1.
     999900   -1    0    0    0    0 -0.00000000000E+00 -0.00000000000E+00 -0.74505805969E-08  0.93827000000E+00  0.93827000000E+00 0.  1.
     999902    2    1    2    0    0  0.10382027291E-01 -0.13531139287E-01  0.16719907721E-01  0.10200462496E+01  0.10197665996E+01 0.  0.
     999903    2    3    3    0    0 -0.78344748038E-01  0.57130952288E-01 -0.80286458017E-01  0.12747927345E+00  0.20079954266E-01 0.  0.
         14    1    1    2    0    0 -0.10382027291E-01  0.13531139287E-01 -0.16719907721E-01  0.23883750444E-01  0.00000000000E+00 0. -1.
     999901    1    3    3    0    0  0.88726775329E-01 -0.70662091574E-01  0.97006365738E-01  0.89256697611E+00  0.88000000000E+00 0.  1.
        -11    1    4    4    0    0 -0.38260622855E-01  0.36625409984E-01 -0.52448708887E-01  0.74541425413E-01  0.51100000000E-03 0.  1.
         11    1    4    4    0    0 -0.40084125183E-01  0.20505542304E-01 -0.27837749130E-01  0.52937848034E-01  0.51100000000E-03 0. -1.
</event>
<event>
 8    1  0.1132492E+005  0.1043930E+01  0.7957747E-01            NaN
         13   -1    0    0    0    0  0.00000000000E+00  0.00000000000E+00  0.74505805969E-08  0.10566000000E+00  0.10566000000E+00 0.  1.
     999900   -1    0    0    0    0 -0.00000000000E+00 -0.00000000000E+00 -0.74505805969E-08  0.93827000000E+00  0.93827000000E+00 0. -1.
     999902    2    1    2    0    0 -0.15973933926E-01  0.13059195477E-01 -0.10245697224E-01  0.10208934320E+01  0.10206334877E+01 0.  0.
     999903    2    3    3    0    0  0.84155202590E-01 -0.91087861375E-01 -0.28908522628E-01  0.12891767313E+00  0.20123795691E-01 0.  0.
         14    1    1    2    0    0  0.15973933926E-01 -0.13059195477E-01  0.10245697224E-01  0.23036567956E-01  0.00000000000E+00 0.  1.
     999901    1    3    3    0    0 -0.10012913652E+00  0.10414705685E+00  0.18662825404E-01  0.89197575891E+00  0.88000000000E+00 0.  1.
        -11    1    4    4    0    0  0.49854001971E-01 -0.39338671378E-01 -0.16242397351E-01  0.65551728970E-01  0.51100000000E-03 0.  1.
         11    1    4    4    0    0  0.34301200619E-01 -0.51749189997E-01 -0.12666125277E-01  0.63365944164E-01  0.51100000000E-03 0. -1.
</event>
<event>
 8    1  0.1132492E+005  0.1043930E+01  0.7957747E-01            NaN
         13   -1    0    0    0    0  0.00000000000E+00  0.00000000000E+00  0.74505805969E-08  0.10566000000E+00  0.10566000000E+00 0. -1.
     999900   -1    0    0    0    0 -0.00000000000E+00 -0.00000000000E+00 -0.74505805969E-08  0.93827000000E+00  0.93827000000E+00 0. -1.
     999902    2    1    2    0    0  0.93886637356E-02 -0.13315618935E-01 -0.17845137546E-01  0.10197659430E+01  0.10194796109E+01 0.  0.
     999903    2    3    3    0    0  0.66798959950E-01  0.69773209734E-02  0.10803089310E+00  0.12872580893E+00  0.19719938172E-01 0.  0.
         14    1    1    2    0    0 -0.93886637356E-02  0.13315618935E-01  0.17845137546E-01  0.24164056952E-01  0.00000000000E+00 0.  1.
     999901    1    3    3    0    0 -0.57410296214E-01 -0.20292939908E-01 -0.12587603065E+00  0.89104013412E+00  0.88000000000E+00 0. -1.
        -11    1    4    4    0    0  0.19924474589E-01  0.11380897808E-02  0.50388944940E-01  0.54199509492E-01  0.51100000000E-03 0.  1.
         11    1    4    4    0    0  0.46874485361E-01  0.58392311926E-02  0.57641948161E-01  0.74526299436E-01  0.51100000000E-03 0. -1.
</event>
<event>
 8    1  0.1132492E+005  0.1043930E+01  0.7957747E-01            NaN
         13   -1    0    0    0    0  0.00000000000E+00  0.00000000000E+00  0.74505805969E-08  0.10566000000E+00  0.10566000000E+00 0. -1.
     999900   -1    0    0    0    0 -0.00000000000E+00 -0.00000000000E+00 -0.74505805969E-08  0.93827000000E+00  0.93827000000E+00 0. -1.
     999902    2    1    2    0    0  0.11159567475E-01 -0.14696118505E-01  0.10313889553E-01  0.10227902705E+01  0.10225717820E+01 0.  0.
     999903    2    3    3    0    0 -0.11942256333E-01 -0.11804653184E+00  0.61054165498E-01  0.13498985498E+00  0.20421769190E-01 0.  0.
         14    1    1    2    0    0 -0.11159567475E-01  0.14696118505E-01 -0.10313889553E-01  0.21139729494E-01  0.00000000000E+00 0.  1.
     999901    1    3    3    0    0  0.23101823809E-01  0.10335041334E+00 -0.50740275944E-01  0.88780041552E+00  0.88000000000E+00 0. -1.
        -11    1    4    4    0    0 -0.10030096210E-02 -0.93206237514E-01  0.48605705792E-01  0.10512461413E+00  0.51100000000E-03 0. -1.
         11    1    4    4    0    0 -0.10939246712E-01 -0.24840294331E-01  0.12448459706E-01  0.29865240852E-01  0.51100000000E-03 0.  1.
</event>
<event>
 8    1  0.1132492E+005  0.1043930E+01  0.7957747E-01            NaN
         13   -1    0    0    0    0  0.00000000000E+00  0.00000000000E+00  0.74505805969E-08  0.10566000000E+00  0.10566000000E+00 0.  1.
     999900   -1    0    0    0    0 -0.00000000000E+00 -0.00000000000E+00 -0.74505805969E-08  0.93827000000E+00  0.93827000000E+00 0.  1.
     999902    2    1    2    0    0 -0.18261188986E-01  0.13520454790E-01  0.16850579132E-02  0.10211459455E+01  0.10208917322E+01 0.  0.
     999903    2    3    3    0    0  0.30324411352E-01  0.12660560027E+00  0.14903217302E-01  0.13248204363E+00  0.19515072506E-01 0.  0.
         14    1    1    2    0    0  0.18261188986E-01 -0.13520454790E-01 -0.16850579132E-02  0.22784054535E-01  0.00000000000E+00 0. -1.
     999901    1    3    3    0    0 -0.48585600337E-01 -0.11308514548E+00 -0.13218159389E-01  0.88866390184E+00  0.88000000000E+00 0. -1.
        -11    1    4    4    0    0  0.17490081337E-01  0.42407870901E-01 -0.75915642082E-03  0.45882108702E-01  0.51100000000E-03 0.  1.
         11    1    4    4    0    0  0.12834330015E-01  0.84197729368E-01  0.15662373723E-01  0.86599934927E-01  0.51100000000E-03 0. -1.
</event>
<event>
 8    1  0.1132492E+005  0.1043930E+01  0.7957747E-01            NaN
         13   -1    0    0    0    0  0.00000000000E+00  0.00000000000E+00  0.74505805969E-08  0.10566000000E+00  0.10566000000E+00 0.  1.
     999900   -1    0    0    0    0 -0.00000000000E+00 -0.00000000000E+00 -0.74505805969E-08  0.93827000000E+00  0.93827000000E+00 0. -1.
     999902    2    1    2    0    0 -0.30614058318E-02 -0.11628789952E-01 -0.18374819916E-01  0.10219701510E+01  0.10217341898E+01 0.  0.
     999903    2    3    3    0    0  0.95545357599E-01 -0.80131024122E-01  0.38159946490E-01  0.13201957389E+00  0.20569151361E-01 0.  0.
         14    1    1    2    0    0  0.30614058318E-02  0.11628789952E-01  0.18374819916E-01  0.21959849006E-01  0.00000000000E+00 0.  1.
     999901    1    3    3    0    0 -0.98606763431E-01  0.68502234169E-01 -0.56534766406E-01  0.88995057711E+00  0.88000000000E+00 0. -1.
        -11    1    4    4    0    0  0.20581657793E-02  0.12243833575E-02  0.58130317634E-03  0.25167827407E-02  0.51100000000E-03 0. -1.
         11    1    4    4    0    0  0.93487191820E-01 -0.81355407479E-01  0.37578643314E-01  0.12950279115E+00  0.51100000000E-03 0.  1.
</event>
<event>
 8    1  0.1132492E+005  0.1043930E+01  0.7957747E-01            NaN
         13   -1    0    0    0    0  0.00000000000E+00  0.00000000000E+00  0.74505805969E-08  0.10566000000E+00  0.10566000000E+00 0. -1.
     999900   -1    0    0    0    0 -0.00000000000E+00 -0.00000000000E+00 -0.74505805969E-08  0.93827000000E+00  0.93827000000E+00 0.  1.
     999902    2    1    2    0    0  0.18114943346E-01 -0.86845227131E-02  0.14420002304E-01  0.10192013006E+01  0.10189012624E+01 0.  0.
     999903    2    3    3    0    0  0.91003156530E-01 -0.20170179568E-01  0.92447173778E-01  0.13267276107E+00  0.19161705222E-01 0.  0.
         14    1    1    2    0    0 -0.18114943346E-01  0.86845227131E-02 -0.14420002304E-01  0.24728699392E-01  0.00000000000E+00 0.  1.
     999901    1    3    3    0    0 -0.72888213183E-01  0.11485656855E-01 -0.78027171475E-01  0.88652853954E+00  0.88000000000E+00 0.  1.
        -11    1    4    4    0    0  0.94079046085E-02 -0.22359208894E-02  0.19462233181E-01  0.21738161209E-01  0.51100000000E-03 0. -1.
         11    1    4    4    0    0  0.81595251921E-01 -0.17934258679E-01  0.72984940597E-01  0.11093459986E+00  0.51100000000E-03 0.  1.
</event>
<event>
 8    1  0.1132492E+005  0.1043930E+01  0.7957747E-01            NaN
         13   -1    0    0    0    0  0.00000000000E+00  0.00000000000E+00  0.74505805969E-08  0.10566000000E+00  0.10566000000E+00 0. -1.
     999900   -1    0    0    0    0 -0.00000000000E+00 -0.00000000000E+00 -0.74505805969E-08  0.93827000000E+00  0.93827000000E+00 0.  1.
     999902    2    1    2    0    0  0.17756737620E-01 -0.98524354631E-02  0.31679599654E-02  0.10233774287E+01  0.10231710284E+01 0.  0.
     999903    2    3    3    0    0  0.14891772197E-01  0.64668440572E-01  0.11386205421E+00  0.13331296393E+00  0.20099922351E-01 0.  0.
         14    1    1    2    0    0 -0.17756737620E-01  0.98524354631E-02 -0.31679599654E-02  0.20552571269E-01  0.00000000000E+00 0.  1.
     999901    1    3    3    0    0  0.28649654221E-02 -0.74520876035E-01 -0.11069409425E+00  0.89006446480E+00  0.88000000000E+00 0.  1.
        -11    1    4    4    0    0  0.69256947716E-02  0.51227118120E-02  0.90608750764E-02  0.12512713636E-01  0.51100000000E-03 0. -1.
         11    1    4    4    0    0  0.79660774258E-02  0.59545728760E-01  0.10480117914E+00  0.12080025030E+00  0.51100000000E-03 0.  1.
</event>
<event>
 8    1  0.1132492E+005  0.1043930E+01  0.7957747E-01            NaN
         13   -1    0    0    0    0  0.00000000000E+00  0.00000000000E+00  0.74505805969E-08  0.10566000000E+00  0.10566000000E+00 0. -1.
     999900   -1    0    0    0    0 -0.00000000000E+00 -0.00000000000E+00 -0.74505805969E-08  0.93827000000E+00  0.93827000000E+00 0.  1.
     999902    2    1    2    0    0  0.19530353831E-01 -0.71416793139E-02 -0.11089688975E-01  0.10203626602E+01  0.10200904562E+01 0.  0.
     999903    2    3    3    0    0 -0.26539024094E-01  0.14228180381E-01 -0.12620212964E+00  0.13141388074E+00  0.20877490493E-01 0.  0.
         14    1    1    2    0    0 -0.19530353831E-01  0.71416793139E-02  0.11089688975E-01  0.23567339810E-01  0.00000000000E+00 0. -1.
     999901    1    3    3    0    0  0.46069377925E-01 -0.21369859695E-01  0.11511244066E+00  0.88894877945E+00  0.88000000000E+00 0. -1.
        -11    1    4    4    0    0 -0.17320702939E-01  0.12880906364E-01 -0.11414061119E+00  0.11616481715E+00  0.51100000000E-03 0. -1.
         11    1    4    4    0    0 -0.92183211555E-02  0.13472740170E-02 -0.12061518449E-01  0.15249063594E-01  0.51100000000E-03 0.  1.
</event>
<event>
 8    1  0.1132492E+005  0.1043930E+01  0.7957747E-01            NaN
         13   -1    0    0    0    0  0.00000000000E+00  0.00000000000E+00  0.74505805969E-08  0.10566000000E+00  0.10566000000E+00 0.  1.
     999900   -1    0    0    0    0 -0.00000000000E+00 -0.00000000000E+00 -0.74505805969E-08  0.93827000000E+00  0.93827000000E+00 0. -1.
     999902    2    1    2    0    0 -0.68362818170E-02 -0.17927943333E-01  0.10168555184E-01  0.10222149035E+01  0.10219842286E+01 0.  0.
     999903    2    3    3    0    0  0.18436992023E-01  0.51923243933E-01 -0.11620786014E+00  0.13008883333E+00  0.19567622823E-01 0.  0.
         14    1    1    2    0    0  0.68362818170E-02  0.17927943333E-01 -0.10168555184E-01  0.21715096494E-01  0.00000000000E+00 0. -1.
     999901    1    3    3    0    0 -0.25273273840E-01 -0.69851187266E-01  0.12637641533E+00  0.89212607017E+00  0.88000000000E+00 0.  1.
        -11    1    4    4    0    0  0.71140832409E-02  0.14399282979E-01 -0.55880945719E-01  0.58145427560E-01  0.51100000000E-03 0.  1.
         11    1    4    4    0    0  0.11322908782E-01  0.37523960955E-01 -0.60326914425E-01  0.71943405772E-01  0.51100000000E-03 0. -1.
</event>
<event>
 7    1  0.1132492E+005  0.1043930E+01  0.7957747E-01            NaN
         13   -1    0    0    0    0  0.00000000000E+00  0.00000000000E+00  0.74505805969E-08  0.10566000000E+00  0.10566000000E+00 0.  1.
     999900   -1    0    0    0    0 -0.00000000000E+00 -0.00000000000E+00 -0.74505805969E-08  0.93827000000E+00  0.93827000000E+00 0. -1.
     999902    2    1    2    0    0  0.19288504804E-01  0.11423551800E-01 -0.70110374223E-02  0.10204417349E+01  0.10201713756E+01 0.  0.
         14    1    1    2    0    0 -0.19288504804E-01 -0.11423551800E-01  0.70110374223E-02  0.23488265135E-01  0.00000000000E+00 0. -1.
     999901    1    3    3    0    0 -0.83383539265E-01  0.61712954080E-01 -0.47186771938E-01  0.88734880107E+00  0.88000000000E+00 0. -1.
        -11    1    3    3    0    0  0.41305323557E-01  0.79810231792E-02  0.16752622356E-01  0.45285074384E-01  0.51100000000E-03 0. -1.
         11    1    3    3    0    0  0.61366720511E-01 -0.58270425459E-01  0.23423112160E-01  0.87807859407E-01  0.51100000000E-03 0.  1.
</event>
<event>
 8    1  0.1132492E+005  0.1043930E+01  0.7957747E-01            NaN
         13   -1    0    0    0    0  0.00000000000E+00  0.00000000000E+00  0.74505805969E-08  0.10566000000E+00  0.10566000000E+00 0. -1.
     999900   -1    0    0    0    0 -0.00000000000E+00 -0.00000000000E+00 -0.74505805969E-08  0.93827000000E+00  0.93827000000E+00 0.  1.
     999902    2    1    2    0    0  0.12697447898E-01  0.83533733359E-02  0.21157348288E-01  0.10178793298E+01  0.10175459168E+01 0.  0.
     999903    2    3    3    0    0 -0.67199089776E-02 -0.12503953273E+00  0.15599298836E-01  0.12759758059E+00  0.18914611440E-01 0.  0.
         14    1    1    2    0    0 -0.12697447898E-01 -0.83533733359E-02 -0.21157348288E-01  0.26050670160E-01  0.00000000000E+00 0.  1.
     999901    1    3    3    0    0  0.19417356876E-01  0.13339290607E+00  0.55580494524E-02  0.89028174925E+00  0.88000000000E+00 0. -1.
        -11    1    4    4    0    0  0.15240813694E-02 -0.37101451448E-01  0.12620680979E-01  0.39222228811E-01  0.51100000000E-03 0.  1.
         11    1    4    4    0    0 -0.82439903470E-02 -0.87938081282E-01  0.29786178568E-02  0.88375351777E-01  0.51100000000E-03 0. -1.
</event>
<event>
 8    1  0.1132492E+005  0.1043930E+01  0.7957747E-01            NaN
         13   -1    0    0    0    0  0.00000000000E+00  0.00000000000E+00  0.74505805969E-08  0.10566000000E+00  0.10566000000E+00 0.  1.
     999900   -1    0    0    0    0 -0.00000000000E+00 -0.00000000000E+00 -0.74505805969E-08  0.93827000000E+00  0.93827000000E+00 0. -1.
     999902    2    1    2    0    0  0.39618342679E-03  0.87166373866E-02  0.22668577225E-01  0.10196400613E+01  0.10193507019E+01 0.  0.
     999903    2    3    3    0    0  0.70829643414E-01 -0.32680115030E-01 -0.99012335553E-01  0.12751854047E+00  0.19305627858E-01 0.  0.
         14    1    1    2    0    0 -0.39618342679E-03 -0.87166373866E-02 -0.22668577225E-01  0.24289938700E-01  0.00000000000E+00 0. -1.
     999901    1    3    3    0    0 -0.70433459987E-01  0.41396752416E-01  0.12168091278E+00  0.89212152083E+00  0.88000000000E+00 0.  1.
        -11    1    4    4    0    0  0.19758425040E-01 -0.89232436617E-02 -0.42580848953E-01  0.47785033808E-01  0.51100000000E-03 0. -1.
         11    1    4    4    0    0  0.51071218374E-01 -0.23756871368E-01 -0.56431486600E-01  0.79733506660E-01  0.51100000000E-03 0.  1.
</event>
<event>
 8    1  0.1132492E+005  0.1043930E+01  0.7957747E-01            NaN
         13   -1    0    0    0    0  0.00000000000E+00  0.00000000000E+00  0.74505805969E-08  0.10566000000E+00  0.10566000000E+00 0. -1.
     999900   -1    0    0    0    0 -0.00000000000E+00 -0.00000000000E+00 -0.74505805969E-08  0.93827000000E+00  0.93827000000E+00 0.  1.
     999902    2    1    2    0    0 -0.69383433836E-03 -0.12972262711E-01  0.27169167221E-01  0.10138148103E+01  0.10133674283E+01 0.  0.
     999903    2    3    3    0    0 -0.32607962812E-01 -0.55173128893E-01  0.10948100056E+00  0.12839137335E+00  0.19771238630E-01 0.  0.
         14    1    1    2    0    0  0.69383433836E-03  0.12972262711E-01 -0.27169167221E-01  0.30115189746E-01  0.00000000000E+00 0.  1.
     999901    1    3    3    0    0  0.31914128473E-01  0.42200866182E-01 -0.82311833342E-01  0.88542343690E+00  0.88000000000E+00 0.  1.
        -11    1    4    4    0    0 -0.27495427559E-02 -0.18058591225E-01  0.41868885575E-01  0.45683010001E-01  0.51100000000E-03 0. -1.
         11    1    4    4    0    0 -0.29858420056E-01 -0.37114537668E-01  0.67612114988E-01  0.82708363354E-01  0.51100000000E-03 0.  1.
</event>
<event>
 8    1  0.1132492E+005  0.1043930E+01  0.7957747E-01            NaN
         13   -1    0    0    0    0  0.00000000000E+00  0.00000000000E+00  0.74505805969E-08  0.10566000000E+00  0.10566000000E+00 0.  1.
     999900   -1    0    0    0    0 -0.00000000000E+00 -0.00000000000E+00 -0.74505805969E-08  0.93827000000E+00  0.93827000000E+00 0.  1.
     999902    2    1    2    0    0 -0.19367251702E-01  0.12039311437E-02  0.14696475616E-01  0.10195881372E+01  0.10192975244E+01 0.  0.
     999903    2    3    3    0    0  0.73366848547E-02 -0.10742946653E+00 -0.67926406507E-01  0.12866678492E+00  0.18607192595E-01 0.  0.
         14    1    1    2    0    0  0.19367251702E-01 -0.12039311437E-02 -0.14696475616E-01  0.24341862792E-01  0.00000000000E+00 0.  1.
     999901    1    3    3    0    0 -0.26703936556E-01  0.10863339767E+00  0.82622882122E-01  0.89092135229E+00  0.88000000000E+00 0. -1.
        -11    1    4    4    0    0  0.23538170134E-02 -0.94972447051E-01 -0.64437806478E-01  0.11479459124E+00  0.51100000000E-03 0. -1.
         11    1    4    4    0    0  0.49828678413E-02 -0.12457019479E-01 -0.34886000287E-02  0.13872193676E-01  0.51100000000E-03 0.  1.
</event>
<event>
 8    1  0.1132492E+005  0.1043930E+01  0.7957747E-01            NaN
         13   -1    0    0    0    0  0.00000000000E+00  0.00000000000E+00  0.74505805969E-08  0.10566000000E+00  0.10566000000E+00 0.  1.
     999900   -1    0    0    0    0 -0.00000000000E+00 -0.00000000000E+00 -0.74505805969E-08  0.93827000000E+00  0.93827000000E+00 0.  1.
     999902    2    1    2    0    0  0.15214901844E-01 -0.26293410105E-02 -0.16413158881E-01  0.10213956161E+01  0.10211470052E+01 0.  0.
     999903    2    3    3    0    0  0.50341541705E-01 -0.90588606155E-01  0.78199920440E-01  0.13127071032E+00  0.19396016201E-01 0.  0.
         14    1    1    2    0    0 -0.15214901844E-01  0.26293410105E-02  0.16413158881E-01  0.22534383878E-01  0.00000000000E+00 0.  1.
     999901    1    3    3    0    0 -0.35126639861E-01  0.87959265144E-01 -0.94613079322E-01  0.89012490580E+00  0.88000000000E+00 0.  1.
        -11    1    4    4    0    0  0.25681897116E-01 -0.49602765292E-01  0.53872909280E-01  0.77605061944E-01  0.51100000000E-03 0.  1.
         11    1    4    4    0    0  0.24659644589E-01 -0.40985840862E-01  0.24327011161E-01  0.53665648375E-01  0.51100000000E-03 0. -1.
</event>
<event>
 8    1  0.1132492E+005  0.1043930E+01  0.7957747E-01            NaN
         13   -1    0    0    0    0  0.00000000000E+00  0.00000000000E+00  0.74505805969E-08  0.10566000000E+00  0.10566000000E+00 0. -1.
     999900   -1    0    0    0    0 -0.00000000000E+00 -0.00000000000E+00 -0.74505805969E-08  0.93827000000E+00  0.93827000000E+00 0.  1.
     999902    2    1    2    0    0 -0.46963890692E-02  0.15081662607E-01 -0.17535880367E-01  0.10203287348E+01  0.10200557374E+01 0.  0.
     999903    2    3    3    0    0  0.11761745626E+00 -0.42817696574E-01 -0.29369082854E-01  0.12990578071E+00  0.18594291484E-01 0.  0.
         14    1    1    2    0    0  0.46963890692E-02 -0.15081662607E-01  0.17535880367E-01  0.23601265168E-01  0.00000000000E+00 0. -1.
     999901    1    3    3    0    0 -0.12231384533E+00  0.57899359180E-01  0.11833202486E-01  0.89042295413E+00  0.88000000000E+00 0.  1.
        -11    1    4    4    0    0  0.41408183333E-01 -0.11231166221E-01 -0.18385343305E-01  0.46680388934E-01  0.51100000000E-03 0.  1.
         11    1    4    4    0    0  0.76209272929E-01 -0.31586530353E-01 -0.10983739549E-01  0.83225391772E-01  0.51100000000E-03 0. -1.
</event>
<event>
 8    1  0.1132492E+005  0.1043930E+01  0.7957747E-01            NaN
         13   -1    0    0    0    0  0.00000000000E+00  0.00000000000E+00  0.74505805969E-08  0.10566000000E+00  0.10566000000E+00 0.  1.
     999900   -1    0    0    0    0 -0.00000000000E+00 -0.00000000000E+00 -0.74505805969E-08  0.93827000000E+00  0.93827000000E+00 0.  1.
     999902    2    1    2    0    0 -0.18000872616E-01  0.85984030751E-02  0.12859992178E-01  0.10201951448E+01  0.10199190116E+01 0.  0.
     999903    2    3    3    0    0  0.11568637713E+00 -0.22523958249E-01 -0.45794467203E-01  0.12762513206E+00  0.17331317281E-01 0.  0.
         14    1    1    2    0    0  0.18000872616E-01 -0.85984030751E-02 -0.12859992178E-01  0.23734855155E-01  0.00000000000E+00 0. -1.
     999901    1    3    3    0    0 -0.13368724974E+00  0.31122361324E-01  0.58654459381E-01  0.89257001279E+00  0.88000000000E+00 0. -1.
        -11    1    4    4    0    0  0.37118124160E-01 -0.65909743175E-02 -0.23451306491E-01  0.44400686715E-01  0.51100000000E-03 0. -1.
         11    1    4    4    0    0  0.78568252968E-01 -0.15932983932E-01 -0.22343160712E-01  0.83224445345E-01  0.51100000000E-03 0.  1.
</event>
<event>
 8    1  0.1132492E+005  0.1043930E+01  0.7957747E-01            NaN
         13   -1    0    0    0    0  0.00000000000E+00  0.00000000000E+00  0.74505805969E-08  0.10566000000E+00  0.10566000000E+00 0. -1.
     999900   -1    0    0    0    0 -0.00000000000E+00 -0.00000000000E+00 -0.74505805969E-08  0.93827000000E+00  0.93827000000E+00 0.  1.
     999902    2    1    2    0    0 -0.19841086924E-01  0.67393574331E-02  0.53432194486E-02  0.10223050685E+01  0.10220763256E+01 0.  0.
     999903    2    3    3    0    0  0.71223836460E-01  0.80999190155E-01 -0.71849706577E-01  0.13114509920E+00  0.20073689824E-01 0.  0.
         14    1    1    2    0    0  0.19841086924E-01 -0.67393574331E-02 -0.53432194486E-02  0.21624931515E-01  0.00000000000E+00 0. -1.
     999901    1    3    3    0    0 -0.91064923385E-01 -0.74259832722E-01  0.77192926026E-01  0.89115996928E+00  0.88000000000E+00 0. -1.
        -11    1    4    4    0    0  0.12826306035E-01  0.27237746313E-01 -0.23559003526E-01  0.38232142483E-01  0.51100000000E-03 0. -1.
         11    1    4    4    0    0  0.58397530426E-01  0.53761443842E-01 -0.48290703052E-01  0.92912956717E-01  0.51100000000E-03 0.  1.
</event>
<event>
 8    1  0.1132492E+005  0.1043930E+01  0.7957747E-01            NaN
         13   -1    0    0    0    0  0.00000000000E+00  0.00000000000E+00  0.74505805969E-08  0.10566000000E+00  0.10566000000E+00 0.  1.
     999900   -1    0    0    0    0 -0.00000000000E+00 -0.00000000000E+00 -0.74505805969E-08  0.93827000000E+00  0.93827000000E+00 0. -1.
     999902    2    1    2    0    0 -0.24020683507E-01  0.38765096115E-02 -0.13215541163E-01  0.10162411739E+01  0.10158638946E+01 0.  0.
     999903    2    3    3    0    0 -0.26967830292E-02  0.48670791906E-01 -0.11737162455E+00  0.12871104699E+00  0.20354771995E-01 0.  0.
         14    1    1    2    0    0  0.24020683507E-01 -0.38765096115E-02  0.13215541163E-01  0.27688826107E-01  0.00000000000E+00 0.  1.
     999901    1    3    3    0    0 -0.21323900478E-01 -0.44794282294E-01  0.10415608339E+00  0.88753012691E+00  0.88000000000E+00 0.  1.
        -11    1    4    4    0    0 -0.83164405286E-02  0.45072991175E-01 -0.97364249593E-01  0.10761410659E+00  0.51100000000E-03 0.  1.
         11    1    4    4    0    0  0.56196574994E-02  0.35978007307E-02 -0.20007374961E-01  0.21096940402E-01  0.51100000000E-03 0. -1.
</event>
<event>
 8    1  0.1132492E+005  0.1043930E+01  0.7957747E-01            NaN
         13   -1    0    0    0    0  0.00000000000E+00  0.00000000000E+00  0.74505805969E-08  0.10566000000E+00  0.10566000000E+00 0. -1.
     999900   -1    0    0    0    0 -0.00000000000E+00 -0.00000000000E+00 -0.74505805969E-08  0.93827000000E+00  0.93827000000E+00 0.  1.
     999902    2    1    2    0    0  0.14362071445E-01  0.15451784725E-01 -0.10644820659E-01  0.10203008029E+01  0.10200271514E+01 0.  0.
     999903    2    3    3    0    0 -0.10051351220E+00 -0.44032637030E-01  0.62263844427E-01  0.12786006563E+00  0.20726089835E-01 0.  0.
         14    1    1    2    0    0 -0.14362071445E-01 -0.15451784725E-01  0.10644820659E-01  0.23629197072E-01  0.00000000000E+00 0. -1.
     999901    1    3    3    0    0  0.11487558365E+00  0.59484421756E-01 -0.72908665086E-01  0.89244073730E+00  0.88000000000E+00 0.  1.
        -11    1    4    4    0    0 -0.92139199097E-01 -0.33594973593E-01  0.57248281472E-01  0.11356003308E+00  0.51100000000E-03 0.  1.
         11    1    4    4    0    0 -0.83743131070E-02 -0.10437663437E-01  0.50155629546E-02  0.14300032545E-01  0.51100000000E-03 0. -1.
</event>
<event>
 8    1  0.1132492E+005  0.1043930E+01  0.7957747E-01            NaN
         13   -1    0    0    0    0  0.00000000000E+00  0.00000000000E+00  0.74505805969E-08  0.10566000000E+00  0.10566000000E+00 0.  1.
     999900   -1    0    0    0    0 -0.00000000000E+00 -0.00000000000E+00 -0.74505805969E-08  0.93827000000E+00  0.93827000000E+00 0.  1.
     999902    2    1    2    0    0  0.19795902196E-01  0.10615497324E-01  0.11613118175E-01  0.10186430263E+01  0.10183291137E+01 0.  0.
     999903    2    3    3    0    0 -0.24257378928E-01 -0.11638394435E+00 -0.39865118789E-01  0.12694825862E+00  0.19823968717E-01 0.  0.
         14    1    1    2    0    0 -0.19795902196E-01 -0.10615497324E-01 -0.11613118175E-01  0.25286973740E-01  0.00000000000E+00 0. -1.
     999901    1    3    3    0    0  0.44053281124E-01  0.12699944167E+00  0.51478236963E-01  0.89169476764E+00  0.88000000000E+00 0. -1.
        -11    1    4    4    0    0 -0.14324065339E-02 -0.35846325107E-01 -0.48335964320E-02  0.36202701385E-01  0.51100000000E-03 0.  1.
         11    1    4    4    0    0 -0.22824972394E-01 -0.80537619239E-01 -0.35031522357E-01  0.90745557231E-01  0.51100000000E-03 0. -1.
</event>
<event>
 8    1  0.1132492E+005  0.1043930E+01  0.7957747E-01            NaN
         13   -1    0    0    0    0  0.00000000000E+00  0.00000000000E+00  0.74505805969E-08  0.10566000000E+00  0.10566000000E+00 0. -1.
     999900   -1    0    0    0    0 -0.00000000000E+00 -0.00000000000E+00 -0.74505805969E-08  0.93827000000E+00  0.93827000000E+00 0.  1.
     999902    2    1    2    0    0 -0.54669694948E-03  0.22886555811E-01 -0.59802124488E-02  0.10202687182E+01  0.10199943143E+01 0.  0.
     999903    2    3    3    0    0 -0.12448216217E+00 -0.21370642295E-01  0.23305916306E-01  0.13000113122E+00  0.20115052403E-01 0.  0.
         14    1    1    2    0    0  0.54669694948E-03 -0.22886555811E-01  0.59802124488E-02  0.23661281778E-01  0.00000000000E+00 0.  1.
     999901    1    3    3    0    0  0.12393546522E+00  0.44257198106E-01 -0.29286128754E-01  0.89026758700E+00  0.88000000000E+00 0. -1.
        -11    1    4    4    0    0 -0.77196305989E-01 -0.51937043634E-02  0.82915398942E-02  0.77815518877E-01  0.51100000000E-03 0.  1.
         11    1    4    4    0    0 -0.47285856184E-01 -0.16176937931E-01  0.15014376411E-01  0.52185612345E-01  0.51100000000E-03 0. -1.
</event>
<event>
 8    1  0.1132492E+005  0.1043930E+01  0.7957747E-01            NaN
         13   -1    0    0    0    0  0.00000000000E+00  0.00000000000E+00  0.74505805969E-08  0.10566000000E+00  0.10566000000E+00 0.  1.
     999900   -1    0    0    0    0 -0.00000000000E+00 -0.00000000000E+00 -0.74505805969E-08  0.93827000000E+00  0.93827000000E+00 0. -1.
     999902    2    1    2    0    0 -0.36516239794E-02  0.30371149504E-02 -0.23615339256E-01  0.10198417731E+01  0.10195572566E+01 0.  0.
     999903    2    3    3    0    0  0.12429704137E-01  0.18744749148E-02 -0.13114239018E+00  0.13315015396E+00  0.19303517734E-01 0.  0.
         14    1    1    2    0    0  0.36516239794E-02 -0.30371149504E-02  0.23615339256E-01  0.24088226857E-01  0.00000000000E+00 0.  1.
     999901    1    3    3    0    0 -0.16081328117E-01  0.11626400355E-02  0.10752705092E+00  0.88669161918E+00  0.88000000000E+00 0.  1.
        -11    1    4    4    0    0  0.10365402617E-01  0.67972228467E-03 -0.13007076600E+00  0.13048589534E+00  0.51100000000E-03 0. -1.
         11    1    4    4    0    0  0.20643015207E-02  0.11947526302E-02 -0.10716241773E-02  0.26642586198E-02  0.51100000000E-03 0.  1.
</event>
<event>
 8    1  0.1132492E+005  0.1043930E+01  0.7957747E-01            NaN
         13   -1    0    0    0    0  0.00000000000E+00  0.00000000000E+00  0.74505805969E-08  0.10566000000E+00  0.10566000000E+00 0.  1.
     999900   -1    0    0    0    0 -0.00000000000E+00 -0.00000000000E+00 -0.74505805969E-08  0.93827000000E+00  0.93827000000E+00 0. -1.
     999902    2    1    2    0    0  0.34987443987E-02 -0.21647836263E-01 -0.12221420564E-01  0.10188255552E+01  0.10185162143E+01 0.  0.
     999903    2    3    3    0    0 -0.29215702537E-01 -0.84590574178E-01  0.91894898077E-01  0.12985298472E+00  0.20199080001E-01 0.  0.
         14    1    1    2    0    0 -0.34987443987E-02  0.21647836263E-01  0.12221420564E-01  0.25104444783E-01  0.00000000000E+00 0.  1.
     999901    1    3    3    0    0  0.32714446935E-01  0.62942737915E-01 -0.10411631864E+00  0.88897257050E+00  0.88000000000E+00 0. -1.
        -11    1    4    4    0    0 -0.29859011135E-01 -0.64837729980E-01  0.77710508513E-01  0.10552097436E+00  0.51100000000E-03 0.  1.
         11    1    4    4    0    0  0.64330859782E-03 -0.19752844198E-01  0.14184389564E-01  0.24332010360E-01  0.51100000000E-03 0. -1.
</event>
<event>
 8    1  0.1132492E+005  0.1043930E+01  0.7957747E-01            NaN
         13   -1    0    0    0    0  0.00000000000E+00  0.00000000000E+00  0.74505805969E-08  0.10566000000E+00  0.10566000000E+00 0.  1.
     999900   -1    0    0    0    0 -0.00000000000E+00 -0.00000000000E+00 -0.74505805969E-08  0.93827000000E+00  0.93827000000E+00 0.  1.
     999902    2    1    2    0    0 -0.15272183409E-01  0.14462220691E-01 -0.32987231847E-02  0.10226396973E+01  0.10224180522E+01 0.  0.
     999903    2    3    3    0    0 -0.77711911098E-01 -0.16743383569E-01 -0.10612331514E+00  0.13390722574E+00  0.18695054728E-01 0.  0.
         14    1    1    2    0    0  0.15272183409E-01 -0.14462220691E-01  0.32987231847E-02  0.21290302676E-01  0.00000000000E+00 0.  1.
     999901    1    3    3    0    0  0.62439727689E-01  0.31205604260E-01  0.10282459195E+00  0.88873247158E+00  0.88000000000E+00 0. -1.
        -11    1    4    4    0    0 -0.23417504413E-01  0.20988603725E-02 -0.38985601776E-01  0.45529364092E-01  0.51100000000E-03 0. -1.
         11    1    4    4    0    0 -0.54294406685E-01 -0.18842243941E-01 -0.67137713359E-01  0.88377861652E-01  0.51100000000E-03 0.  1.
</event>
<event>
 8    1  0.1132492E+005  0.1043930E+01  0.7957747E-01            NaN
         13   -1    0    0    0    0  0.00000000000E+00  0.00000000000E+00  0.74505805969E-08  0.10566000000E+00  0.10566000000E+00 0.  1.
     999900   -1    0    0    0    0 -0.00000000000E+00 -0.00000000000E+00 -0.74505805969E-08  0.93827000000E+00  0.93827000000E+00 0. -1.
     999902    2    1    2    0    0 -0.18278310562E-01  0.14932323504E-01  0.26263417464E-02  0.10201819771E+01  0.10199055337E+01 0.  0.
     999903    2    3    3    0    0 -0.94226588757E-01  0.45187603680E-01  0.76847429052E-01  0.13328159216E+00  0.30624922905E-01 0.  0.
         14    1    1    2    0    0  0.18278310562E-01 -0.14932323504E-01 -0.26263417464E-02  0.23748022933E-01  0.00000000000E+00 0. -1.
     999901    1    3    3    0    0  0.75948278195E-01 -0.30255280175E-01 -0.74221087305E-01  0.88690038490E+00  0.88000000000E+00 0. -1.
        -11    1    4    4    0    0 -0.37370568910E-01  0.66901588057E-02  0.40784889325E-01  0.55722400915E-01  0.51100000000E-03 0. -1.
         11    1    4    4    0    0 -0.56856019848E-01  0.38497444874E-01  0.36062539726E-01  0.77559191249E-01  0.51100000000E-03 0.  1.
</event>
<event>
 8    1  0.1132492E+005  0.1043930E+01  0.7957747E-01            NaN
         13   -1    0    0    0    0  0.00000000000E+00  0.00000000000E+00  0.74505805969E-08  0.10566000000E+00  0.10566000000E+00 0.  1.
     999900   -1    0    0    0    0 -0.00000000000E+00 -0.00000000000E+00 -0.74505805969E-08  0.93827000000E+00  0.93827000000E+00 0. -1.
     999902    2    1    2    0    0 -0.18810348870E-01 -0.11570588960E-02 -0.12092518791E-01  0.10215381037E+01  0.10212926614E+01 0.  0.
     999903    2    3    3    0    0  0.90313567658E-01  0.44932700712E-01  0.77946637957E-01  0.12904757441E+00  0.20052680512E-01 0.  0.
         14    1    1    2    0    0  0.18810348870E-01  0.11570588960E-02  0.12092518791E-01  0.22391896316E-01  0.00000000000E+00 0.  1.
     999901    1    3    3    0    0 -0.10912391653E+00 -0.46089759607E-01 -0.90039156748E-01  0.89249052928E+00  0.88000000000E+00 0.  1.
        -11    1    4    4    0    0  0.53757225094E-01  0.21771183393E-01  0.55573956662E-01  0.80327762674E-01  0.51100000000E-03 0.  1.
         11    1    4    4    0    0  0.36556342563E-01  0.23161517319E-01  0.22372681294E-01  0.48719811734E-01  0.51100000000E-03 0. -1.
</event>
<event>
 8    1  0.1132492E+005  0.1043930E+01  0.7957747E-01            NaN
         13   -1    0    0    0    0  0.00000000000E+00  0.00000000000E+00  0.74505805969E-08  0.10566000000E+00  0.10566000000E+00 0.  1.
     999900   -1    0    0    0    0 -0.00000000000E+00 -0.00000000000E+00 -0.74505805969E-08  0.93827000000E+00  0.93827000000E+00 0. -1.
     999902    2    1    2    0    0 -0.16225597712E-01 -0.12351408541E-01  0.11995790971E-01  0.10202714642E+01  0.10199971247E+01 0.  0.
     999903    2    3    3    0    0  0.11423247350E+00 -0.15747178029E-01  0.55754643249E-01  0.12957192075E+00  0.19577302776E-01 0.  0.
         14    1    1    2    0    0  0.16225597712E-01  0.12351408541E-01 -0.11995790971E-01  0.23658535776E-01  0.00000000000E+00 0. -1.
     999901    1    3    3    0    0 -0.13045807121E+00  0.33957694878E-02 -0.43758852278E-01  0.89069954348E+00  0.88000000000E+00 0. -1.
        -11    1    4    4    0    0  0.42495452636E-01  0.13441016450E-02  0.27281689194E-01  0.50519518904E-01  0.51100000000E-03 0.  1.
         11    1    4    4    0    0  0.71737020866E-01 -0.17091279674E-01  0.28472954056E-01  0.79052401844E-01  0.51100000000E-03 0. -1.
</event>
<event>
 8    1  0.1132492E+005  0.1043930E+01  0.7957747E-01            NaN
         13   -1    0    0    0    0  0.00000000000E+00  0.00000000000E+00  0.74505805969E-08  0.10566000000E+00  0.10566000000E+00 0.  1.
     999900   -1    0    0    0    0 -0.00000000000E+00 -0.00000000000E+00 -0.74505805969E-08  0.93827000000E+00  0.93827000000E+00 0.  1.
     999902    2    1    2    0    0 -0.14323104758E-01 -0.18215738360E-01  0.42097012699E-02  0.10203782264E+01  0.10201063861E+01 0.  0.
     999903    2    3    3    0    0  0.35691289934E-01 -0.44711596870E-01 -0.11554742872E+00  0.13046517428E+00  0.19923813488E-01 0.  0.
         14    1    1    2    0    0  0.14323104758E-01  0.18215738360E-01 -0.42097012699E-02  0.23551773578E-01  0.00000000000E+00 0.  1.
     999901    1    3    3    0    0 -0.50014394692E-01  0.26495858510E-01  0.11975712999E+00  0.88991305214E+00  0.88000000000E+00 0. -1.
        -11    1    4    4    0    0  0.26300336164E-01 -0.18099886907E-01 -0.68979122718E-01  0.76011144448E-01  0.51100000000E-03 0. -1.
         11    1    4    4    0    0  0.93909537705E-02 -0.26611709963E-01 -0.46568306000E-01  0.54454029829E-01  0.51100000000E-03 0.  1.
</event>
<event>
 8    1  0.1132492E+005  0.1043930E+01  0.7957747E-01            NaN
         13   -1    0    0    0    0  0.00000000000E+00  0.00000000000E+00  0.74505805969E-08  0.10566000000E+00  0.10566000000E+00 0.  1.
     999900   -1    0    0    0    0 -0.00000000000E+00 -0.00000000000E+00 -0.74505805969E-08  0.93827000000E+00  0.93827000000E+00 0.  1.
     999902    2    1    2    0    0 -0.39812719189E-02  0.15734400517E-01 -0.16899949139E-01  0.10204986072E+01  0.10202295708E+01 0.  0.
     999903    2    3    3    0    0  0.26655845439E-01 -0.11872193478E+00 -0.42321728636E-01  0.12939625289E+00  0.12117328657E-01 0.  0.
         14    1    1    2    0    0  0.39812719189E-02 -0.15734400517E-01  0.16899949139E-01  0.23431392759E-01  0.00000000000E+00 0.  1.
     999901    1    3    3    0    0 -0.30637117358E-01  0.13445633529E+00  0.25421779497E-01  0.89110235435E+00  0.88000000000E+00 0.  1.
        -11    1    4    4    0    0  0.15165313451E-01 -0.90540590902E-01 -0.33171620287E-01  0.97612513780E-01  0.51100000000E-03 0.  1.
         11    1    4    4    0    0  0.11490531989E-01 -0.28181343873E-01 -0.91501083489E-02  0.31783739108E-01  0.51100000000E-03 0. -1.
</event>
<event>
 8    1  0.1132492E+005  0.1043930E+01  0.7957747E-01            NaN
         13   -1    0    0    0    0  0.00000000000E+00  0.00000000000E+00  0.74505805969E-08  0.10566000000E+00  0.10566000000E+00 0.  1.
     999900   -1    0    0    0    0 -0.00000000000E+00 -0.00000000000E+00 -0.74505805969E-08  0.93827000000E+00  0.93827000000E+00 0. -1.
     999902    2    1    2    0    0 -0.87552596177E-02 -0.74380982193E-02 -0.20914858302E-01  0.10200676620E+01  0.10197885192E+01 0.  0.
     999903    2    3    3    0    0  0.25101242259E-01 -0.10724816179E-01 -0.12837973809E+00  0.13287784827E+00  0.20738161985E-01 0.  0.
         14    1    1    2    0    0  0.87552596177E-02  0.74380982193E-02  0.20914858302E-01  0.23862337980E-01  0.00000000000E+00 0.  1.
     999901    1    3    3    0    0 -0.33856501877E-01  0.32867179596E-02  0.10746487979E+00  0.88718981375E+00  0.88000000000E+00 0.  1.
        -11    1    4    4    0    0  0.48496682604E-02 -0.65867844056E-03 -0.71438822154E-01  0.71608097107E-01  0.51100000000E-03 0. -1.
         11    1    4    4    0    0  0.20251573998E-01 -0.10066137738E-01 -0.56940915940E-01  0.61269751162E-01  0.51100000000E-03 0.  1.
</event>
<event>
 8    1  0.1132492E+005  0.1043930E+01  0.7957747E-01            NaN
         13   -1    0    0    0    0  0.00000000000E+00  0.00000000000E+00  0.74505805969E-08  0.10566000000E+00  0.10566000000E+00 0. -1.
     999900   -1    0    0    0    0 -0.00000000000E+00 -0.00000000000E+00 -0.74505805969E-08  0.93827000000E+00  0.93827000000E+00 0. -1.
     999902    2    1    2    0    0 -0.37651175397E-03 -0.23376306345E-01 -0.10273122553E-01  0.10183931539E+01  0.10180729274E+01 0.  0.
     999903    2    3    3    0    0  0.11298228049E+00 -0.48981620566E-01  0.34999260636E-01  0.12959878145E+00  0.20166830443E-01 0.  0.
         14    1    1    2    0    0  0.37651175397E-03  0.23376306345E-01  0.10273122553E-01  0.25536846055E-01  0.00000000000E+00 0. -1.
     999901    1    3    3    0    0 -0.11335879225E+00  0.25605314221E-01 -0.45272383189E-01  0.88879437249E+00  0.88000000000E+00 0. -1.
        -11    1    4    4    0    0  0.27179374814E-01 -0.14447265362E-01  0.17671679978E-01  0.35496355954E-01  0.51100000000E-03 0.  1.
         11    1    4    4    0    0  0.85802905678E-01 -0.34534355204E-01  0.17327580658E-01  0.94102425498E-01  0.51100000000E-03 0. -1.
</event>
<event>
 8    1  0.1132492E+005  0.1043930E+01  0.7957747E-01            NaN
         13   -1    0    0    0    0  0.00000000000E+00  0.00000000000E+00  0.74505805969E-08  0.10566000000E+00  0.10566000000E+00 0.  1.
     999900   -1    0    0    0    0 -0.00000000000E+00 -0.00000000000E+00 -0.74505805969E-08  0.93827000000E+00  0.93827000000E+00 0. -1.
     999902    2    1    2    0    0 -0.13512476933E-01 -0.11711696356E-01 -0.15989531646E-01  0.10199421700E+01  0.10196600484E+01 0.  0.
     999903    2    3    3    0    0 -0.51393624884E-01  0.55292063476E-01 -0.10632984037E+00  0.13197490905E+00  0.20318088054E-01 0.  0.
         14    1    1    2    0    0  0.13512476933E-01  0.11711696356E-01  0.15989531646E-01  0.23987829969E-01  0.00000000000E+00 0.  1.
     999901    1    3    3    0    0  0.37881147951E-01 -0.67003759831E-01  0.90340308724E-01  0.88796726099E+00  0.88000000000E+00 0.  1.
        -11    1    4    4    0    0 -0.37935253158E-01  0.46843249043E-01 -0.94775300936E-01  0.11232093394E+00  0.51100000000E-03 0. -1.
         11    1    4    4    0    0 -0.13458371725E-01  0.84488144327E-02 -0.11554539435E-01  0.19653975103E-01  0.51100000000E-03 0.  1.
</event>
<event>
 8    1  0.1132492E+005  0.1043930E+01  0.7957747E-01            NaN
         13   -1    0    0    0    0  0.00000000000E+00  0.00000000000E+00  0.74505805969E-08  0.10566000000E+00  0.10566000000E+00 0. -1.
     999900   -1    0    0    0    0 -0.00000000000E+00 -0.00000000000E+00 -0.74505805969E-08  0.93827000000E+00  0.93827000000E+00 0.  1.
     999902    2    1    2    0    0  0.28555899220E-02  0.20402349750E-01  0.12399360647E-01  0.10198851583E+01  0.10196016779E+01 0.  0.
     999903    2    3    3    0    0 -0.58406831481E-01  0.94856507909E-01 -0.65404582745E-01  0.13120638642E+00  0.22983501395E-01 0.  0.
         14    1    1    2    0    0 -0.28555899220E-02 -0.20402349750E-01 -0.12399360647E-01  0.24044841725E-01  0.00000000000E+00 0.  1.
     999901    1    3    3    0    0  0.61262421403E-01 -0.74454158158E-01  0.77803943392E-01  0.88867877186E+00  0.88000000000E+00 0. -1.
        -11    1    4    4    0    0 -0.27661129962E-01  0.60161444924E-01 -0.29135108873E-01  0.72343992537E-01  0.51100000000E-03 0. -1.
         11    1    4    4    0    0 -0.30745701518E-01  0.34695062984E-01 -0.36269473872E-01  0.58862393880E-01  0.51100000000E-03 0.  1.
</event>
<event>
 8    1  0.1132492E+005  0.1043930E+01  0.7957747E-01            NaN
         13   -1    0    0    0    0  0.00000000000E+00  0.00000000000E+00  0.74505805969E-08  0.10566000000E+00  0.10566000000E+00 0. -1.
     999900   -1    0    0    0    0 -0.00000000000E+00 -0.00000000000E+00 -0.74505805969E-08  0.93827000000E+00  0.93827000000E+00 0.  1.
     999902    2    1    2    0    0  0.30458894573E-02  0.21492545084E-01  0.90510875419E-02  0.10204113027E+01  0.10201402343E+01 0.  0.
     999903    2    3    3    0    0 -0.12218877456E+00  0.24809631448E-01 -0.32821636239E-01  0.13055285939E+00  0.20522544877E-01 0.  0.
         14    1    1    2    0    0 -0.30458894573E-02 -0.21492545084E-01 -0.90510875419E-02  0.23518697296E-01  0.00000000000E+00 0.  1.
     999901    1    3    3    0    0  0.12523466402E+00 -0.33170863638E-02  0.41872723781E-01  0.88985844331E+00  0.88000000000E+00 0. -1.
        -11    1    4    4    0    0 -0.45717981477E-01  0.65587215985E-05 -0.15820730987E-01  0.48380683369E-01  0.51100000000E-03 0. -1.
         11    1    4    4    0    0 -0.76470793088E-01  0.24803072727E-01 -0.17000905253E-01  0.82172176024E-01  0.51100000000E-03 0.  1.
</event>
<event>
 8    1  0.1132492E+005  0.1043930E+01  0.7957747E-01            NaN
         13   -1    0    0    0    0  0.00000000000E+00  0.00000000000E+00  0.74505805969E-08  0.10566000000E+00  0.10566000000E+00 0.  1.
     999900   -1    0    0    0    0 -0.00000000000E+00 -0.00000000000E+00 -0.74505805969E-08  0.93827000000E+00  0.93827000000E+00 0. -1.
     999902    2    1    2    0    0  0.23621363860E-02 -0.53186740025E-02 -0.22914820955E-01  0.10202877285E+01  0.10200137705E+01 0.  0.
     999903    2    3    3    0    0  0.93815985832E-01 -0.88444375324E-01 -0.18306282936E-01  0.13163992009E+00  0.19238031149E-01 0.  0.
         14    1    1    2    0    0 -0.23621363860E-02  0.53186740025E-02  0.22914820955E-01  0.23642271482E-01  0.00000000000E+00 0.  1.
     999901    1    3    3    0    0 -0.91453849446E-01  0.83125701322E-01 -0.46085380192E-02  0.88864780843E+00  0.88000000000E+00 0. -1.
        -11    1    4    4    0    0  0.59646812206E-01 -0.51752003028E-01 -0.20024886750E-01  0.81469437423E-01  0.51100000000E-03 0. -1.
         11    1    4    4    0    0  0.34169173627E-01 -0.36692372296E-01  0.17186038145E-02  0.50170482668E-01  0.51100000000E-03 0.  1.
</event>
<event>
 7    1  0.1132492E+005  0.1043930E+01  0.7957747E-01            NaN
         13   -1    0    0    0    0  0.00000000000E+00  0.00000000000E+00  0.74505805969E-08  0.10566000000E+00  0.10566000000E+00 0. -1.
     999900   -1    0    0    0    0 -0.00000000000E+00 -0.00000000000E+00 -0.74505805969E-08  0.93827000000E+00  0.93827000000E+00 0. -1.
     999903    2    1    2    0    0  0.59581330155E-01  0.75297152857E-01  0.26848904245E-01  0.10321663340E+00  0.26706059598E-01 0.  0.
         14    1    1    2    0    0  0.10786670196E-01  0.38513468550E-01  0.28137813678E-01  0.48901698051E-01  0.00000000000E+00 0.  1.
     999901    1    1    2    0    0 -0.70368000351E-01 -0.11381062141E+00 -0.54986717923E-01  0.89181166855E+00  0.88000000000E+00 0.  1.
        -11    1    3    3    0    0  0.29489525422E-01  0.26517482254E-01 -0.59902879313E-03  0.39666471121E-01  0.51100000000E-03 0. -1.
         11    1    3    3    0    0  0.30091804733E-01  0.48779670603E-01  0.27447933038E-01  0.63550162276E-01  0.51100000000E-03 0.  1.
</event>
<event>
 8    1  0.1270869E+005  0.1043930E+01  0.7957747E-01            NaN
         13   -1    0    0    0    0  0.00000000000E+00  0.00000000000E+00  0.74505805969E-08  0.10566000000E+00  0.10566000000E+00 0.  1.
     999900   -1    0    0    0    0 -0.00000000000E+00 -0.00000000000E+00 -0.74505805969E-08  0.93827000000E+00  0.93827000000E+00 0.  1.
     999902    2    1    2    0    0  0.16005452853E-01 -0.16550878705E-01  0.14829863382E-01  0.10165433070E+01  0.10161743276E+01 0.  0.
     999903    2    3    3    0    0  0.76097865758E-01  0.26316415764E-01  0.99356391535E-01  0.12941680135E+00  0.19838775686E-01 0.  0.
         14    1    1    2    0    0 -0.16005452853E-01  0.16550878705E-01 -0.14829863382E-01  0.27386693025E-01  0.00000000000E+00 0. -1.
     999901    1    3    3    0    0 -0.60092412905E-01 -0.42867294469E-01 -0.84526528153E-01  0.88712650563E+00  0.88000000000E+00 0.  1.
        -11    1    4    4    0    0  0.26505585258E-01  0.19379046080E-01  0.38289062933E-01  0.50442114727E-01  0.51100000000E-03 0.  1.
         11    1    4    4    0    0  0.49592280500E-01  0.69373696839E-02  0.61067328602E-01  0.78974686621E-01  0.51100000000E-03 0. -1.
</event>
<event>
 8    1  0.1132492E+005  0.1043930E+01  0.7957747E-01            NaN
         13   -1    0    0    0    0  0.00000000000E+00  0.00000000000E+00  0.74505805969E-08  0.10566000000E+00  0.10566000000E+00 0.  1.
     999900   -1    0    0    0    0 -0.00000000000E+00 -0.00000000000E+00 -0.74505805969E-08  0.93827000000E+00  0.93827000000E+00 0. -1.
     999902    2    1    2    0    0  0.80594186599E-02  0.15672119733E-02 -0.19376704265E-01  0.10228855934E+01  0.10226690912E+01 0.  0.
     999903    2    3    3    0    0 -0.99917571716E-01 -0.14455873027E-01  0.80287005734E-01  0.13055794906E+00  0.20171300646E-01 0.  0.
         14    1    1    2    0    0 -0.80594186599E-02 -0.15672119733E-02  0.19376704265E-01  0.21044406636E-01  0.00000000000E+00 0. -1.
     999901    1    3    3    0    0  0.10797699038E+00  0.16023085000E-01 -0.99663709999E-01  0.89232764431E+00  0.88000000000E+00 0.  1.
        -11    1    4    4    0    0 -0.81899104462E-01 -0.13677016432E-01  0.74644031783E-01  0.11165355656E+00  0.51100000000E-03 0. -1.
         11    1    4    4    0    0 -0.18018467253E-01 -0.77885659470E-03  0.56429739511E-02  0.18904392499E-01  0.51100000000E-03 0.  1.
</event>
<event>
 8    1  0.1132492E+005  0.1043930E+01  0.7957747E-01            NaN
         13   -1    0    0    0    0  0.00000000000E+00  0.00000000000E+00  0.74505805969E-08  0.10566000000E+00  0.10566000000E+00 0.  1.
     999900   -1    0    0    0    0 -0.00000000000E+00 -0.00000000000E+00 -0.74505805969E-08  0.93827000000E+00  0.93827000000E+00 0. -1.
     999902    2    1    2    0    0 -0.88675016402E-02 -0.11542246622E-01  0.18922745563E-01  0.10200568699E+01  0.10197774715E+01 0.  0.
     999903    2    3    3    0    0 -0.65196373207E-01 -0.29987410665E-01 -0.10577549731E+00  0.12929157103E+00  0.19443318407E-01 0.  0.
         14    1    1    2    0    0  0.88675016402E-02  0.11542246622E-01 -0.18922745563E-01  0.23873130128E-01  0.00000000000E+00 0. -1.
     999901    1    3    3    0    0  0.56328871567E-01  0.18445164043E-01  0.12469824287E+00  0.89076529884E+00  0.88000000000E+00 0.  1.
        -11    1    4    4    0    0 -0.66764365130E-02  0.26845741545E-02 -0.12501487096E-01  0.14433642767E-01  0.51100000000E-03 0. -1.
         11    1    4    4    0    0 -0.58519936694E-01 -0.32671984820E-01 -0.93274010212E-01  0.11485792826E+00  0.51100000000E-03 0.  1.
</event>
<event>
 8    1  0.1132492E+005  0.1043930E+01  0.7957747E-01            NaN
         13   -1    0    0    0    0  0.00000000000E+00  0.00000000000E+00  0.74505805969E-08  0.10566000000E+00  0.10566000000E+00 0. -1.
     999900   -1    0    0    0    0 -0.00000000000E+00 -0.00000000000E+00 -0.74505805969E-08  0.93827000000E+00  0.93827000000E+00 0. -1.
     999902    2    1    2    0    0 -0.71463359194E-02 -0.19648962985E-01  0.34495626072E-02  0.10227391684E+01  0.10225196111E+01 0.  0.
     999903    2    3    3    0    0  0.10572494259E+00  0.67297157610E-01  0.32258014117E-01  0.13081457498E+00  0.19110275847E-01 0.  0.
         14    1    1    2    0    0  0.71463359194E-02  0.19648962985E-01 -0.34495626072E-02  0.21190831641E-01  0.00000000000E+00 0.  1.
     999901    1    3    3    0    0 -0.11287127851E+00 -0.86946120595E-01 -0.28808451510E-01  0.89192459338E+00  0.88000000000E+00 0. -1.
        -11    1    4    4    0    0  0.29959712570E-01  0.10830558903E-01  0.12809719304E-01  0.34339997279E-01  0.51100000000E-03 0. -1.
         11    1    4    4    0    0  0.75765230024E-01  0.56466598707E-01  0.19448294813E-01  0.96474577699E-01  0.51100000000E-03 0.  1.
</event>
<event>
 7    1  0.1132492E+005  0.1043930E+01  0.7957747E-01            NaN
         13   -1    0    0    0    0  0.00000000000E+00  0.00000000000E+00  0.74505805969E-08  0.10566000000E+00  0.10566000000E+00 0. -1.
     999900   -1    0    0    0    0 -0.00000000000E+00 -0.00000000000E+00 -0.74505805969E-08  0.93827000000E+00  0.93827000000E+00 0. -1.
     999903    2    1    2    0    0 -0.58420138351E-01  0.80513394069E-01 -0.28165827418E-01  0.10572116571E+00  0.22098231941E-01 0.  0.
         14    1    1    2    0    0  0.26273606667E-01 -0.37462966651E-01 -0.29899095823E-01  0.54660151926E-01  0.00000000000E+00 0.  1.
     999901    1    1    2    0    0  0.32146531684E-01 -0.43050427418E-01  0.58064923241E-01  0.88354868237E+00  0.88000000000E+00 0.  1.
        -11    1    3    3    0    0 -0.30005954006E-01  0.26778628731E-01 -0.18102560473E-01  0.44106870770E-01  0.51100000000E-03 0. -1.
         11    1    3    3    0    0 -0.28414184345E-01  0.53734765339E-01 -0.10063266945E-01  0.61614294937E-01  0.51100000000E-03 0.  1.
</event>
<event>
 8    1  0.1132492E+005  0.1043930E+01  0.7957747E-01            NaN
         13   -1    0    0    0    0  0.00000000000E+00  0.00000000000E+00  0.74505805969E-08  0.10566000000E+00  0.10566000000E+00 0. -1.
     999900   -1    0    0    0    0 -0.00000000000E+00 -0.00000000000E+00 -0.74505805969E-08  0.93827000000E+00  0.93827000000E+00 0.  1.
     999902    2    1    2    0    0 -0.11291200104E-01  0.17535776594E-01 -0.10883344493E-01  0.10204046552E+01  0.10201334317E+01 0.  0.
     999903    2    3    3    0    0 -0.33851661532E-01  0.36297295329E-01  0.11896720639E+00  0.13039222014E+00  0.19634312829E-01 0.  0.
         14    1    1    2    0    0  0.11291200104E-01 -0.17535776594E-01  0.10883344493E-01  0.23525344799E-01  0.00000000000E+00 0. -1.
     999901    1    3    3    0    0  0.22560461428E-01 -0.18761518735E-01 -0.12985055088E+00  0.89001243506E+00  0.88000000000E+00 0.  1.
        -11    1    4    4    0    0 -0.15520141606E-01  0.17481290928E-01  0.80358790880E-01  0.83691497302E-01  0.51100000000E-03 0. -1.
         11    1    4    4    0    0 -0.18331519926E-01  0.18816004401E-01  0.38608415507E-01  0.46700722836E-01  0.51100000000E-03 0.  1.
</event>
<event>
 7    1  0.1132492E+005  0.1043930E+01  0.7957747E-01            NaN
         13   -1    0    0    0    0  0.00000000000E+00  0.00000000000E+00  0.74505805969E-08  0.10566000000E+00  0.10566000000E+00 0.  1.
     999900   -1    0    0    0    0 -0.00000000000E+00 -0.00000000000E+00 -0.74505805969E-08  0.93827000000E+00  0.93827000000E+00 0.  1.
     999903    2    1    2    0    0  0.92442537827E-01  0.53110985896E-01  0.16217340065E-01  0.10976873328E+00  0.20488364138E-01 0.  0.
         14    1    1    2    0    0  0.10804722603E-01  0.33735098144E-01 -0.25807958766E-01  0.43827498365E-01  0.00000000000E+00 0. -1.
     999901    1    1    2    0    0 -0.10324726043E+00 -0.86846084040E-01  0.95906187004E-02  0.89033376835E+00  0.88000000000E+00 0.  1.
        -11    1    3    3    0    0  0.72772235475E-01  0.43946482053E-01  0.45742475895E-02  0.85136809917E-01  0.51100000000E-03 0. -1.
         11    1    3    3    0    0  0.19670302353E-01  0.91645038431E-02  0.11643092476E-01  0.24631923366E-01  0.51100000000E-03 0.  1.
</event>
<event>
 8    1  0.1132492E+005  0.1043930E+01  0.7957747E-01            NaN
         13   -1    0    0    0    0  0.00000000000E+00  0.00000000000E+00  0.74505805969E-08  0.10566000000E+00  0.10566000000E+00 0.  1.
     999900   -1    0    0    0    0 -0.00000000000E+00 -0.00000000000E+00 -0.74505805969E-08  0.93827000000E+00  0.93827000000E+00 0.  1.
     999902    2    1    2    0    0 -0.63998073710E-02  0.21489313047E-01  0.88321728462E-02  0.10198311331E+01  0.10195463622E+01 0.  0.
     999903    2    3    3    0    0 -0.73800602541E-01  0.98851887334E-01  0.45291036990E-01  0.13311974606E+00  0.21245333504E-01 0.  0.
         14    1    1    2    0    0  0.63998073710E-02 -0.21489313047E-01 -0.88321728462E-02  0.24098866920E-01  0.00000000000E+00 0.  1.
     999901    1    3    3    0    0  0.67400795170E-01 -0.77362574286E-01 -0.36458864143E-01  0.88671138702E+00  0.88000000000E+00 0.  1.
        -11    1    4    4    0    0 -0.51706732140E-01  0.52468253008E-01  0.23663156536E-01  0.77373831626E-01  0.51100000000E-03 0.  1.
         11    1    4    4    0    0 -0.22093870401E-01  0.46383634326E-01  0.21627880454E-01  0.55745914438E-01  0.51100000000E-03 0. -1.
</event>
<event>
 8    1  0.1132492E+005  0.1043930E+01  0.7957747E-01            NaN
         13   -1    0    0    0    0  0.00000000000E+00  0.00000000000E+00  0.74505805969E-08  0.10566000000E+00  0.10566000000E+00 0. -1.
     999900   -1    0    0    0    0 -0.00000000000E+00 -0.00000000000E+00 -0.74505805969E-08  0.93827000000E+00  0.93827000000E+00 0. -1.
     999902    2    1    2    0    0 -0.10638746676E-01 -0.68720287027E-02  0.23394410651E-01  0.10173272528E+01  0.10169793671E+01 0.  0.
     999903    2    3    3    0    0 -0.12449051225E+00 -0.32045989706E-02  0.31270690562E-01  0.12995038226E+00  0.20027198199E-01 0.  0.
         14    1    1    2    0    0  0.10638746676E-01  0.68720287027E-02 -0.23394410651E-01  0.26602747208E-01  0.00000000000E+00 0.  1.
     999901    1    3    3    0    0  0.11385176557E+00 -0.36674297321E-02 -0.78762799113E-02  0.88737687053E+00  0.88000000000E+00 0.  1.
        -11    1    4    4    0    0 -0.59891418055E-01  0.81919855098E-02  0.12657823190E-01  0.61762223018E-01  0.51100000000E-03 0. -1.
         11    1    4    4    0    0 -0.64599094193E-01 -0.11396584480E-01  0.18612867373E-01  0.68188159244E-01  0.51100000000E-03 0.  1.
</event>
<event>
 8    1  0.1132492E+005  0.1043930E+01  0.7957747E-01            NaN
         13   -1    0    0    0    0  0.00000000000E+00  0.00000000000E+00  0.74505805969E-08  0.10566000000E+00  0.10566000000E+00 0. -1.
     999900   -1    0    0    0    0 -0.00000000000E+00 -0.00000000000E+00 -0.74505805969E-08  0.93827000000E+00  0.93827000000E+00 0. -1.
     999902    2    1    2    0    0  0.22671924361E-01 -0.67065357233E-02  0.27680666607E-02  0.10201254633E+01  0.10198476871E+01 0.  0.
     999903    2    3    3    0    0 -0.11052503203E+00  0.49085474902E-01 -0.35202828659E-01  0.12754719414E+00  0.20096791647E-01 0.  0.
         14    1    1    2    0    0 -0.22671924361E-01  0.67065357233E-02 -0.27680666607E-02  0.23804536725E-01  0.00000000000E+00 0.  1.
     999901    1    3    3    0    0  0.13319695640E+00 -0.55792010625E-01  0.37970895320E-01  0.89257826914E+00  0.88000000000E+00 0.  1.
        -11    1    4    4    0    0 -0.14067438956E-01  0.44266207440E-02 -0.11328977807E-01  0.18603619786E-01  0.51100000000E-03 0. -1.
         11    1    4    4    0    0 -0.96457593079E-01  0.44658854158E-01 -0.23873850851E-01  0.10894357435E+00  0.51100000000E-03 0.  1.
</event>
<event>
 8    1  0.1132492E+005  0.1043930E+01  0.7957747E-01            NaN
         13   -1    0    0    0    0  0.00000000000E+00  0.00000000000E+00  0.74505805969E-08  0.10566000000E+00  0.10566000000E+00 0.  1.
     999900   -1    0    0    0    0 -0.00000000000E+00 -0.00000000000E+00 -0.74505805969E-08  0.93827000000E+00  0.93827000000E+00 0. -1.
     999902    2    1    2    0    0  0.16683223829E-01 -0.20087615195E-02  0.15174794138E-01  0.10212884573E+01  0.10210374496E+01 0.  0.
     999903    2    3    3    0    0 -0.50685877178E-01  0.41330249345E-01  0.11318493954E+00  0.13223117327E+00  0.19924984013E-01 0.  0.
         14    1    1    2    0    0 -0.16683223829E-01  0.20087615195E-02 -0.15174794138E-01  0.22641542732E-01  0.00000000000E+00 0. -1.
     999901    1    3    3    0    0  0.67369101007E-01 -0.43339010865E-01 -0.98010145405E-01  0.88905728400E+00  0.88000000000E+00 0. -1.
        -11    1    4    4    0    0 -0.45631959054E-01  0.37060515308E-01  0.85490294738E-01  0.10375263417E+00  0.51100000000E-03 0. -1.
         11    1    4    4    0    0 -0.50539181232E-02  0.42697340369E-02  0.27694644805E-01  0.28478539095E-01  0.51100000000E-03 0.  1.
</event>
<event>
 8    1  0.1132492E+005  0.1043930E+01  0.7957747E-01            NaN
         13   -1    0    0    0    0  0.00000000000E+00  0.00000000000E+00  0.74505805969E-08  0.10566000000E+00  0.10566000000E+00 0.  1.
     999900   -1    0    0    0    0 -0.00000000000E+00 -0.00000000000E+00 -0.74505805969E-08  0.93827000000E+00  0.93827000000E+00 0. -1.
     999902    2    1    2    0    0 -0.40345354110E-02 -0.17510718252E-01 -0.16785808801E-01  0.10193400405E+01  0.10190434005E+01 0.  0.
     999903    2    3    3    0    0 -0.81612744260E-01  0.47688915744E-01 -0.87605072661E-01  0.13069796472E+00  0.21735604801E-01 0.  0.
         14    1    1    2    0    0  0.40345354110E-02  0.17510718252E-01  0.16785808801E-01  0.24589959471E-01  0.00000000000E+00 0.  1.
     999901    1    3    3    0    0  0.77578208849E-01 -0.65199633996E-01  0.70819263860E-01  0.88864207581E+00  0.88000000000E+00 0.  1.
        -11    1    4    4    0    0 -0.50260466089E-01  0.31637770707E-01 -0.40531814068E-01  0.71903769438E-01  0.51100000000E-03 0. -1.
         11    1    4    4    0    0 -0.31352278171E-01  0.16051145037E-01 -0.47073258593E-01  0.58794195284E-01  0.51100000000E-03 0.  1.
</event>
<event>
 8    1  0.1132492E+005  0.1043930E+01  0.7957747E-01            NaN
         13   -1    0    0    0    0  0.00000000000E+00  0.00000000000E+00  0.74505805969E-08  0.10566000000E+00  0.10566000000E+00 0.  1.
     999900   -1    0    0    0    0 -0.00000000000E+00 -0.00000000000E+00 -0.74505805969E-08  0.93827000000E+00  0.93827000000E+00 0.  1.
     999902    2    1    2    0    0 -0.25488191140E-02  0.24616550940E-01 -0.79075849028E-03  0.10191692173E+01  0.10188683905E+01 0.  0.
     999903    2    3    3    0    0 -0.81666882754E-01 -0.42226955080E-01  0.87202078629E-01  0.12873647890E+00  0.22721861921E-01 0.  0.
         14    1    1    2    0    0  0.25488191140E-02 -0.24616550940E-01  0.79075849028E-03  0.24760782662E-01  0.00000000000E+00 0. -1.
     999901    1    3    3    0    0  0.79118063640E-01  0.66843506020E-01 -0.87992837120E-01  0.89043273843E+00  0.88000000000E+00 0.  1.
        -11    1    4    4    0    0 -0.41554789140E-01 -0.19379756740E-01  0.58678657220E-01  0.74470271961E-01  0.51100000000E-03 0.  1.
         11    1    4    4    0    0 -0.40112093613E-01 -0.22847198340E-01  0.28523421409E-01  0.54266206943E-01  0.51100000000E-03 0. -1.
</event>
<event>
 8    1  0.1132492E+005  0.1043930E+01  0.7957747E-01            NaN
         13   -1    0    0    0    0  0.00000000000E+00  0.00000000000E+00  0.74505805969E-08  0.10566000000E+00  0.10566000000E+00 0. -1.
     999900   -1    0    0    0    0 -0.00000000000E+00 -0.00000000000E+00 -0.74505805969E-08  0.93827000000E+00  0.93827000000E+00 0. -1.
     999902    2    1    2    0    0  0.22424792250E-01 -0.62377156746E-02  0.34677765701E-02  0.10203969195E+01  0.10201255155E+01 0.  0.
     999903    2    3    3    0    0 -0.60490327640E-01  0.92244334801E-03 -0.11210089527E+00  0.12894736797E+00  0.20022046498E-01 0.  0.
         14    1    1    2    0    0 -0.22424792250E-01  0.62377156746E-02 -0.34677765701E-02  0.23533080517E-01  0.00000000000E+00 0. -1.
     999901    1    3    3    0    0  0.82915119890E-01 -0.71601590226E-02  0.11556867184E+00  0.89144955151E+00  0.88000000000E+00 0.  1.
        -11    1    4    4    0    0 -0.35677199198E-01  0.70120753282E-02 -0.80310303547E-01  0.88159161292E-01  0.51100000000E-03 0.  1.
         11    1    4    4    0    0 -0.24813128442E-01 -0.60896319802E-02 -0.31790591723E-01  0.40788206676E-01  0.51100000000E-03 0. -1.
</event>
<event>
 8    1  0.1132492E+005  0.1043930E+01  0.7957747E-01            NaN
         13   -1    0    0    0    0  0.00000000000E+00  0.00000000000E+00  0.74505805969E-08  0.10566000000E+00  0.10566000000E+00 0. -1.
     999900   -1    0    0    0    0 -0.00000000000E+00 -0.00000000000E+00 -0.74505805969E-08  0.93827000000E+00  0.93827000000E+00 0. -1.
     999902    2    1    2    0    0 -0.53294199437E-02 -0.51544317498E-02  0.19842167192E-01  0.10227478735E+01  0.10225284985E+01 0.  0.
     999903    2    3    3    0    0  0.89613156180E-01  0.54305033364E-02  0.97832923620E-01  0.13414858717E+00  0.19093306872E-01 0.  0.
         14    1    1    2    0    0  0.53294199437E-02  0.51544317498E-02 -0.19842167192E-01  0.21182126486E-01  0.00000000000E+00 0.  1.
     999901    1    3    3    0    0 -0.94942576123E-01 -0.10584935086E-01 -0.77990756429E-01  0.88859928635E+00  0.88000000000E+00 0. -1.
        -11    1    4    4    0    0  0.12513970337E-01 -0.10872100905E-02  0.56126760221E-02  0.13767524559E-01  0.51100000000E-03 0. -1.
         11    1    4    4    0    0  0.77099185843E-01  0.65177134269E-02  0.92220247598E-01  0.12038106261E+00  0.51100000000E-03 0.  1.
</event>
<event>
 8    1  0.1132492E+005  0.1043930E+01  0.7957747E-01            NaN
         13   -1    0    0    0    0  0.00000000000E+00  0.00000000000E+00  0.74505805969E-08  0.10566000000E+00  0.10566000000E+00 0.  1.
     999900   -1    0    0    0    0 -0.00000000000E+00 -0.00000000000E+00 -0.74505805969E-08  0.93827000000E+00  0.93827000000E+00 0. -1.
     999902    2    1    2    0    0  0.17049742711E-01  0.11086894411E-01 -0.12431531129E-01  0.10200939785E+01  0.10198154583E+01 0.  0.
     999903    2    3    3    0    0  0.20178331499E-01 -0.79619829538E-01  0.97055910390E-01  0.12867656916E+00  0.19781996675E-01 0.  0.
         14    1    1    2    0    0 -0.17049742711E-01 -0.11086894411E-01  0.12431531129E-01  0.23836021489E-01  0.00000000000E+00 0. -1.
     999901    1    3    3    0    0 -0.31285887873E-02  0.90706723949E-01 -0.10948744152E+00  0.89141740935E+00  0.88000000000E+00 0. -1.
        -11    1    4    4    0    0  0.39580985972E-02 -0.44017217092E-01  0.62011142132E-01  0.76150015197E-01  0.51100000000E-03 0.  1.
         11    1    4    4    0    0  0.16220232901E-01 -0.35602612446E-01  0.35044768258E-01  0.52526553967E-01  0.51100000000E-03 0. -1.
</event>
<event>
 8    1  0.1132492E+005  0.1043930E+01  0.7957747E-01            NaN
         13   -1    0    0    0    0  0.00000000000E+00  0.00000000000E+00  0.74505805969E-08  0.10566000000E+00  0.10566000000E+00 0. -1.
     999900   -1    0    0    0    0 -0.00000000000E+00 -0.00000000000E+00 -0.74505805969E-08  0.93827000000E+00  0.93827000000E+00 0.  1.
     999902    2    1    2    0    0  0.14195069048E-02 -0.12013691651E-01 -0.20352142700E-01  0.10202539889E+01  0.10199792392E+01 0.  0.
     999903    2    3    3    0    0  0.20559815291E-01  0.54171202833E-01  0.11187328485E+00  0.12771247431E+00  0.20919345321E-01 0.  0.
         14    1    1    2    0    0 -0.14195069048E-02  0.12013691651E-01  0.20352142700E-01  0.23676011054E-01  0.00000000000E+00 0. -1.
     999901    1    3    3    0    0 -0.19140308386E-01 -0.66184894484E-01 -0.13222542755E+00  0.89254151464E+00  0.88000000000E+00 0.  1.
        -11    1    4    4    0    0  0.22054986261E-01  0.35434016330E-01  0.65467696693E-01  0.77641949767E-01  0.51100000000E-03 0.  1.
         11    1    4    4    0    0 -0.14951709706E-02  0.18737186503E-01  0.46405588160E-01  0.50070524540E-01  0.51100000000E-03 0. -1.
</event>
<event>
 8    1  0.1132492E+005  0.1043930E+01  0.7957747E-01            NaN
         13   -1    0    0    0    0  0.00000000000E+00  0.00000000000E+00  0.74505805969E-08  0.10566000000E+00  0.10566000000E+00 0.  1.
     999900   -1    0    0    0    0 -0.00000000000E+00 -0.00000000000E+00 -0.74505805969E-08  0.93827000000E+00  0.93827000000E+00 0.  1.
     999902    2    1    2    0    0  0.66271915408E-02 -0.20161442458E-01 -0.95146656018E-02  0.10206720489E+01  0.10204070262E+01 0.  0.
     999903    2    3    3    0    0 -0.47367999682E-01  0.87959859966E-01 -0.80001056859E-01  0.12961984609E+00  0.20505390563E-01 0.  0.
         14    1    1    2    0    0 -0.66271915408E-02  0.20161442458E-01  0.95146656018E-02  0.23257951140E-01  0.00000000000E+00 0.  1.
     999901    1    3    3    0    0  0.53995191223E-01 -0.10812130242E+00  0.70486391257E-01  0.89105220277E+00  0.88000000000E+00 0.  1.
        -11    1    4    4    0    0 -0.20644727899E-01  0.58512196885E-01 -0.45100562521E-01  0.76708564288E-01  0.51100000000E-03 0. -1.
         11    1    4    4    0    0 -0.26723271783E-01  0.29447663081E-01 -0.34900494338E-01  0.52911281800E-01  0.51100000000E-03 0.  1.
</event>
<event>
 8    1  0.1132492E+005  0.1043930E+01  0.7957747E-01            NaN
         13   -1    0    0    0    0  0.00000000000E+00  0.00000000000E+00  0.74505805969E-08  0.10566000000E+00  0.10566000000E+00 0. -1.
     999900   -1    0    0    0    0 -0.00000000000E+00 -0.00000000000E+00 -0.74505805969E-08  0.93827000000E+00  0.93827000000E+00 0.  1.
     999902    2    1    2    0    0  0.15704921087E-01 -0.17750358843E-01 -0.39257439892E-02  0.10199064438E+01  0.10196234711E+01 0.  0.
     999903    2    3    3    0    0  0.40137543771E-01 -0.72930372497E-01  0.99576377874E-01  0.13178794037E+00  0.22863607387E-01 0.  0.
         14    1    1    2    0    0 -0.15704921087E-01  0.17750358843E-01  0.39257439892E-02  0.24023556175E-01  0.00000000000E+00 0.  1.
     999901    1    3    3    0    0 -0.24432622684E-01  0.55180013654E-01 -0.10350212186E+00  0.88811850346E+00  0.88000000000E+00 0.  1.
        -11    1    4    4    0    0  0.48465610471E-02  0.40127711178E-03  0.46079126164E-02  0.67189401682E-02  0.51100000000E-03 0. -1.
         11    1    4    4    0    0  0.35290982724E-01 -0.73331649609E-01  0.94968465257E-01  0.12506900020E+00  0.51100000000E-03 0.  1.
</event>
<event>
 8    1  0.1132492E+005  0.1043930E+01  0.7957747E-01            NaN
         13   -1    0    0    0    0  0.00000000000E+00  0.00000000000E+00  0.74505805969E-08  0.10566000000E+00  0.10566000000E+00 0. -1.
     999900   -1    0    0    0    0 -0.00000000000E+00 -0.00000000000E+00 -0.74505805969E-08  0.93827000000E+00  0.93827000000E+00 0.  1.
     999902    2    1    2    0    0 -0.12550499782E-01  0.17513099021E-01 -0.10788313892E-01  0.10198341207E+01  0.10195494212E+01 0.  0.
     999903    2    3    3    0    0 -0.54650893511E-01  0.61076041137E-01 -0.10283528407E+00  0.13296162830E+00  0.19664587125E-01 0.  0.
         14    1    1    2    0    0  0.12550499782E-01 -0.17513099021E-01  0.10788313892E-01  0.24095879290E-01  0.00000000000E+00 0. -1.
     999901    1    3    3    0    0  0.42100393729E-01 -0.43562942116E-01  0.92046970181E-01  0.88687249241E+00  0.88000000000E+00 0. -1.
        -11    1    4    4    0    0 -0.33705292658E-01  0.43578027702E-01 -0.54771627718E-01  0.77687087572E-01  0.51100000000E-03 0. -1.
         11    1    4    4    0    0 -0.20945600853E-01  0.17498013435E-01 -0.48063656355E-01  0.55274540726E-01  0.51100000000E-03 0.  1.
</event>
<event>
 8    1  0.1132492E+005  0.1043930E+01  0.7957747E-01            NaN
         13   -1    0    0    0    0  0.00000000000E+00  0.00000000000E+00  0.74505805969E-08  0.10566000000E+00  0.10566000000E+00 0. -1.
     999900   -1    0    0    0    0 -0.00000000000E+00 -0.00000000000E+00 -0.74505805969E-08  0.93827000000E+00  0.93827000000E+00 0.  1.
     999902    2    1    2    0    0 -0.62381104555E-02  0.15682182496E-01 -0.16821421612E-01  0.10201013388E+01  0.10198229926E+01 0.  0.
     999903    2    3    3    0    0 -0.59339704901E-01  0.11583664039E+00 -0.19028507904E-01  0.13282710497E+00  0.18483177954E-01 0.  0.
         14    1    1    2    0    0  0.62381104555E-02 -0.15682182496E-01  0.16821421612E-01  0.23828661208E-01  0.00000000000E+00 0. -1.
     999901    1    3    3    0    0  0.53101594446E-01 -0.10015445790E+00  0.22070862918E-02  0.88727423382E+00  0.88000000000E+00 0.  1.
        -11    1    4    4    0    0 -0.21184385523E-01  0.60820501175E-01 -0.67856868815E-02  0.64762784226E-01  0.51100000000E-03 0.  1.
         11    1    4    4    0    0 -0.38155319378E-01  0.55016139217E-01 -0.12242821022E-01  0.68064320747E-01  0.51100000000E-03 0. -1.
</event>
<event>
 8    1  0.1132492E+005  0.1043930E+01  0.7957747E-01            NaN
         13   -1    0    0    0    0  0.00000000000E+00  0.00000000000E+00  0.74505805969E-08  0.10566000000E+00  0.10566000000E+00 0. -1.
     999900   -1    0    0    0    0 -0.00000000000E+00 -0.00000000000E+00 -0.74505805969E-08  0.93827000000E+00  0.93827000000E+00 0.  1.
     999902    2    1    2    0    0 -0.52707021496E-02  0.22518134669E-01 -0.58474618078E-02  0.10200754512E+01  0.10197964927E+01 0.  0.
     999903    2    3    3    0    0 -0.73969617900E-01  0.57800548329E-01 -0.91362804335E-01  0.13256361263E+00  0.20335722737E-01 0.  0.
         14    1    1    2    0    0  0.52707021496E-02 -0.22518134669E-01  0.58474618078E-02  0.23854548826E-01  0.00000000000E+00 0. -1.
     999901    1    3    3    0    0  0.68698915751E-01 -0.35282413660E-01  0.85515342528E-01  0.88751183854E+00  0.88000000000E+00 0. -1.
        -11    1    4    4    0    0 -0.43482141059E-01  0.23292190462E-01 -0.39409977471E-01  0.63139766969E-01  0.51100000000E-03 0.  1.
         11    1    4    4    0    0 -0.30487476841E-01  0.34508357867E-01 -0.51952826864E-01  0.69423845666E-01  0.51100000000E-03 0. -1.
</event>
<event>
 8    1  0.1132492E+005  0.1043930E+01  0.7957747E-01            NaN
         13   -1    0    0    0    0  0.00000000000E+00  0.00000000000E+00  0.74505805969E-08  0.10566000000E+00  0.10566000000E+00 0. -1.
     999900   -1    0    0    0    0 -0.00000000000E+00 -0.00000000000E+00 -0.74505805969E-08  0.93827000000E+00  0.93827000000E+00 0.  1.
     999902    2    1    2    0    0  0.23710049704E-02 -0.23682441189E-01 -0.36940396924E-03  0.10201262998E+01  0.10198485433E+01 0.  0.
     999903    2    3    3    0    0 -0.39777745554E-01  0.67548132799E-01 -0.99950876064E-01  0.12882612341E+00  0.21470285521E-01 0.  0.
         14    1    1    2    0    0 -0.23710049704E-02  0.23682441189E-01  0.36940396924E-03  0.23803700228E-01  0.00000000000E+00 0.  1.
     999901    1    3    3    0    0  0.42148750525E-01 -0.91230573988E-01  0.99581472095E-01  0.89130017636E+00  0.88000000000E+00 0. -1.
        -11    1    4    4    0    0 -0.18373203811E-01  0.46338190822E-01 -0.72990017874E-01  0.88388949406E-01  0.51100000000E-03 0. -1.
         11    1    4    4    0    0 -0.21404541743E-01  0.21209941977E-01 -0.26960858191E-01  0.40437174002E-01  0.51100000000E-03 0.  1.
</event>
<event>
 8    1  0.1132492E+005  0.1043930E+01  0.7957747E-01            NaN
         13   -1    0    0    0    0  0.00000000000E+00  0.00000000000E+00  0.74505805969E-08  0.10566000000E+00  0.10566000000E+00 0.  1.
     999900   -1    0    0    0    0 -0.00000000000E+00 -0.00000000000E+00 -0.74505805969E-08  0.93827000000E+00  0.93827000000E+00 0. -1.
     999902    2    1    2    0    0 -0.27279984408E-01  0.25187981121E-02 -0.17381503497E-01  0.10114853000E+01  0.10109648132E+01 0.  0.
     999903    2    3    3    0    0  0.73191154390E-01 -0.65105951956E-01 -0.69566703742E-01  0.12165899580E+00  0.19122105745E-01 0.  0.
         14    1    1    2    0    0  0.27279984408E-01 -0.25187981121E-02  0.17381503497E-01  0.32444699984E-01  0.00000000000E+00 0.  1.
     999901    1    3    3    0    0 -0.10047113880E+00  0.67624750068E-01  0.52185200245E-01  0.88982630422E+00  0.88000000000E+00 0.  1.
        -11    1    4    4    0    0  0.22790703218E-01 -0.15605032023E-01 -0.10431418266E-01  0.29529794880E-01  0.51100000000E-03 0. -1.
         11    1    4    4    0    0  0.50400451172E-01 -0.49500919932E-01 -0.59135285476E-01  0.92129200918E-01  0.51100000000E-03 0.  1.
</event>
<event>
 8    1  0.1132492E+005  0.1043930E+01  0.7957747E-01            NaN
         13   -1    0    0    0    0  0.00000000000E+00  0.00000000000E+00  0.74505805969E-08  0.10566000000E+00  0.10566000000E+00 0. -1.
     999900   -1    0    0    0    0 -0.00000000000E+00 -0.00000000000E+00 -0.74505805969E-08  0.93827000000E+00  0.93827000000E+00 0.  1.
     999902    2    1    2    0    0  0.26176588332E-02  0.18697153003E-01 -0.13220282722E-01  0.10208819731E+01  0.10206217671E+01 0.  0.
     999903    2    3    3    0    0  0.10921576004E+00 -0.38005169244E-01 -0.59145441957E-01  0.13145101526E+00  0.20216601558E-01 0.  0.
         14    1    1    2    0    0 -0.26176588332E-02 -0.18697153003E-01  0.13220282722E-01  0.23048026888E-01  0.00000000000E+00 0. -1.
     999901    1    3    3    0    0 -0.10659810121E+00  0.56702322247E-01  0.45925159236E-01  0.88943095785E+00  0.88000000000E+00 0.  1.
        -11    1    4    4    0    0  0.16994184060E-01 -0.14058943982E-01 -0.12641863684E-01  0.25427033570E-01  0.51100000000E-03 0.  1.
         11    1    4    4    0    0  0.92221575982E-01 -0.23946225262E-01 -0.46503578273E-01  0.10602398169E+00  0.51100000000E-03 0. -1.
</event>
<event>
 8    1  0.1132492E+005  0.1043930E+01  0.7957747E-01            NaN
         13   -1    0    0    0    0  0.00000000000E+00  0.00000000000E+00  0.74505805969E-08  0.10566000000E+00  0.10566000000E+00 0. -1.
     999900   -1    0    0    0    0 -0.00000000000E+00 -0.00000000000E+00 -0.74505805969E-08  0.93827000000E+00  0.93827000000E+00 0. -1.
     999902    2    1    2    0    0  0.15855207004E-01  0.62191677493E-02  0.17012168599E-01  0.10198576192E+01  0.10195734814E+01 0.  0.
     999903    2    3    3    0    0 -0.77458253950E-01 -0.10091456602E+00  0.43121702394E-03  0.12830842434E+00  0.16713320101E-01 0.  0.
         14    1    1    2    0    0 -0.15855207004E-01 -0.62191677493E-02 -0.17012168599E-01  0.24072380794E-01  0.00000000000E+00 0.  1.
     999901    1    3    3    0    0  0.93313460954E-01  0.10713373377E+00  0.16580951576E-01  0.89154919486E+00  0.88000000000E+00 0. -1.
        -11    1    4    4    0    0 -0.23460748208E-01 -0.19131209741E-01  0.12507750944E-02  0.30302400103E-01  0.51100000000E-03 0. -1.
         11    1    4    4    0    0 -0.53997505742E-01 -0.81783356281E-01 -0.81955807047E-03  0.98006024240E-01  0.51100000000E-03 0.  1.
</event>
<event>
 7    1  0.1188345E+005  0.1043930E+01  0.7957747E-01            NaN
         13   -1    0    0    0    0  0.00000000000E+00  0.00000000000E+00  0.74505805969E-08  0.10566000000E+00  0.10566000000E+00 0.  1.
     999900   -1    0    0    0    0 -0.00000000000E+00 -0.00000000000E+00 -0.74505805969E-08  0.93827000000E+00  0.93827000000E+00 0.  1.
     999903    2    1    2    0    0  0.40554220115E-01  0.33707657566E-01 -0.91719611416E-01  0.10762885746E+00  0.19764435034E-01 0.  0.
         14    1    1    2    0    0 -0.30402726545E-02  0.29091104898E-01  0.42893586916E-01  0.51917197927E-01  0.00000000000E+00 0.  1.
     999901    1    1    2    0    0 -0.37513947460E-01 -0.62798762465E-01  0.48826024499E-01  0.88438394461E+00  0.88000000000E+00 0. -1.
        -11    1    3    3    0    0  0.34566796720E-01  0.20344861028E-01 -0.54833520574E-01  0.67939332535E-01  0.51100000000E-03 0. -1.
         11    1    3    3    0    0  0.59874233951E-02  0.13362796539E-01 -0.36886090841E-01  0.39689524925E-01  0.51100000000E-03 0.  1.
</event>
<event>
 8    1  0.1132492E+005  0.1043930E+01  0.7957747E-01            NaN
         13   -1    0    0    0    0  0.00000000000E+00  0.00000000000E+00  0.74505805969E-08  0.10566000000E+00  0.10566000000E+00 0.  1.
     999900   -1    0    0    0    0 -0.00000000000E+00 -0.00000000000E+00 -0.74505805969E-08  0.93827000000E+00  0.93827000000E+00 0.  1.
     999902    2    1    2    0    0 -0.76366559988E-02 -0.95371993932E-02 -0.16410564167E-01  0.10234706915E+01  0.10232661790E+01 0.  0.
     999903    2    3    3    0    0 -0.78965951160E-01  0.10155790744E+00  0.25556534133E-01  0.13263331666E+00  0.19718778999E-01 0.  0.
         14    1    1    2    0    0  0.76366559988E-02  0.95371993932E-02  0.16410564167E-01  0.20459308478E-01  0.00000000000E+00 0.  1.
     999901    1    3    3    0    0  0.71329295161E-01 -0.11109510683E+00 -0.41967098299E-01  0.89083737486E+00  0.88000000000E+00 0.  1.
        -11    1    4    4    0    0 -0.36996631889E-01  0.63291144538E-01  0.12835271730E-01  0.74427985795E-01  0.51100000000E-03 0. -1.
         11    1    4    4    0    0 -0.41969319271E-01  0.38266762903E-01  0.12721262403E-01  0.58205330866E-01  0.51100000000E-03 0.  1.
</event>
<event>
 8    1  0.1132492E+005  0.1043930E+01  0.7957747E-01            NaN
         13   -1    0    0    0    0  0.00000000000E+00  0.00000000000E+00  0.74505805969E-08  0.10566000000E+00  0.10566000000E+00 0.  1.
     999900   -1    0    0    0    0 -0.00000000000E+00 -0.00000000000E+00 -0.74505805969E-08  0.93827000000E+00  0.93827000000E+00 0. -1.
     999902    2    1    2    0    0 -0.22192670290E-01 -0.20008262980E-02 -0.51080823560E-02  0.10210693258E+01  0.10208133804E+01 0.  0.
     999903    2    3    3    0    0  0.41601824317E-01 -0.33459036746E-01  0.11668074663E+00  0.12983878579E+00  0.19836701705E-01 0.  0.
         14    1    1    2    0    0  0.22192670290E-01  0.20008262980E-02  0.51080823560E-02  0.22860674221E-01  0.00000000000E+00 0. -1.
     999901    1    3    3    0    0 -0.63794494607E-01  0.31458210448E-01 -0.12178882899E+00  0.89123053999E+00  0.88000000000E+00 0. -1.
        -11    1    4    4    0    0  0.29921173870E-01 -0.13388435150E-01  0.79558636261E-01  0.86048617457E-01  0.51100000000E-03 0. -1.
         11    1    4    4    0    0  0.11680650447E-01 -0.20070601596E-01  0.37122110368E-01  0.43790168331E-01  0.51100000000E-03 0.  1.
</event>
<event>
 8    1  0.1132492E+005  0.1043930E+01  0.7957747E-01            NaN
         13   -1    0    0    0    0  0.00000000000E+00  0.00000000000E+00  0.74505805969E-08  0.10566000000E+00  0.10566000000E+00 0. -1.
     999900   -1    0    0    0    0 -0.00000000000E+00 -0.00000000000E+00 -0.74505805969E-08  0.93827000000E+00  0.93827000000E+00 0. -1.
     999902    2    1    2    0    0 -0.17590596537E-01 -0.61230717267E-02  0.13997361051E-01  0.10206309183E+01  0.10203649465E+01 0.  0.
     999903    2    3    3    0    0  0.89195879368E-01 -0.45040971878E-01  0.81990469189E-01  0.13072023895E+00  0.19512810884E-01 0.  0.
         14    1    1    2    0    0  0.17590596537E-01  0.61230717267E-02 -0.13997361051E-01  0.23299081748E-01  0.00000000000E+00 0.  1.
     999901    1    3    3    0    0 -0.10678647590E+00  0.38917900151E-01 -0.67993108138E-01  0.88991067931E+00  0.88000000000E+00 0. -1.
        -11    1    4    4    0    0  0.10908517731E-03 -0.13750473643E-02  0.47844797374E-02  0.50054991946E-02  0.51100000000E-03 0. -1.
         11    1    4    4    0    0  0.89086794190E-01 -0.43665924513E-01  0.77205989451E-01  0.12571473975E+00  0.51100000000E-03 0.  1.
</event>
<event>
 8    1  0.1132492E+005  0.1043930E+01  0.7957747E-01            NaN
         13   -1    0    0    0    0  0.00000000000E+00  0.00000000000E+00  0.74505805969E-08  0.10566000000E+00  0.10566000000E+00 0. -1.
     999900   -1    0    0    0    0 -0.00000000000E+00 -0.00000000000E+00 -0.74505805969E-08  0.93827000000E+00  0.93827000000E+00 0. -1.
     999902    2    1    2    0    0  0.27240381761E-02 -0.17069943718E-01 -0.16389073655E-01  0.10201097335E+01  0.10198315857E+01 0.  0.
     999903    2    3    3    0    0  0.39574633643E-01 -0.74575391697E-01 -0.10128069957E+00  0.13339025636E+00  0.20187612820E-01 0.  0.
         14    1    1    2    0    0 -0.27240381761E-02  0.17069943718E-01  0.16389073655E-01  0.23820266535E-01  0.00000000000E+00 0. -1.
     999901    1    3    3    0    0 -0.36850595467E-01  0.57505447979E-01  0.84891625912E-01  0.88671947711E+00  0.88000000000E+00 0.  1.
        -11    1    4    4    0    0  0.10121799935E-01 -0.23316098408E-01 -0.45432450485E-01  0.52062077917E-01  0.51100000000E-03 0.  1.
         11    1    4    4    0    0  0.29452833708E-01 -0.51259293288E-01 -0.55848249082E-01  0.81328178440E-01  0.51100000000E-03 0. -1.
</event>
<event>
 7    1  0.1132492E+005  0.1043930E+01  0.7957747E-01            NaN
         13   -1    0    0    0    0  0.00000000000E+00  0.00000000000E+00  0.74505805969E-08  0.10566000000E+00  0.10566000000E+00 0.  1.
     999900   -1    0    0    0    0 -0.00000000000E+00 -0.00000000000E+00 -0.74505805969E-08  0.93827000000E+00  0.93827000000E+00 0.  1.
     999903    2    1    2    0    0  0.25529928708E-01  0.83760558389E-01  0.69540254540E-01  0.11342569613E+00  0.19024540465E-01 0.  0.
         14    1    1    2    0    0  0.12066401867E-01  0.15624140600E-01  0.32739631239E-01  0.38230815805E-01  0.00000000000E+00 0.  1.
     999901    1    1    2    0    0 -0.37596330575E-01 -0.99384698989E-01 -0.10227988578E+00  0.89227348806E+00  0.88000000000E+00 0.  1.
        -11    1    3    3    0    0  0.10746647282E-01  0.39908184962E-01  0.21011702496E-01  0.46367083341E-01  0.51100000000E-03 0. -1.
         11    1    3    3    0    0  0.14783281426E-01  0.43852373427E-01  0.48528552044E-01  0.67058612791E-01  0.51100000000E-03 0.  1.
</event>
<event>
 8    1  0.1132492E+005  0.1043930E+01  0.7957747E-01            NaN
         13   -1    0    0    0    0  0.00000000000E+00  0.00000000000E+00  0.74505805969E-08  0.10566000000E+00  0.10566000000E+00 0. -1.
     999900   -1    0    0    0    0 -0.00000000000E+00 -0.00000000000E+00 -0.74505805969E-08  0.93827000000E+00  0.93827000000E+00 0.  1.
     999902    2    1    2    0    0  0.17290863533E-01  0.54935954102E-02 -0.15274371476E-01  0.10202137613E+01  0.10199380662E+01 0.  0.
     999903    2    3    3    0    0 -0.61054078902E-01  0.98108370819E-01 -0.58714776677E-01  0.13083055066E+00  0.17786371502E-01 0.  0.
         14    1    1    2    0    0 -0.17290863533E-01 -0.54935954102E-02  0.15274371476E-01  0.23716238661E-01  0.00000000000E+00 0. -1.
     999901    1    3    3    0    0  0.78344942435E-01 -0.92614775409E-01  0.43440405201E-01  0.88938321068E+00  0.88000000000E+00 0.  1.
        -11    1    4    4    0    0 -0.29887301810E-02  0.67623911679E-02 -0.91694135753E-02  0.11789898588E-01  0.51100000000E-03 0.  1.
         11    1    4    4    0    0 -0.58065348721E-01  0.91345979651E-01 -0.49545363101E-01  0.11904065207E+00  0.51100000000E-03 0. -1.
</event>
<event>
 8    1  0.1132492E+005  0.1043930E+01  0.7957747E-01            NaN
         13   -1    0    0    0    0  0.00000000000E+00  0.00000000000E+00  0.74505805969E-08  0.10566000000E+00  0.10566000000E+00 0.  1.
     999900   -1    0    0    0    0 -0.00000000000E+00 -0.00000000000E+00 -0.74505805969E-08  0.93827000000E+00  0.93827000000E+00 0.  1.
     999902    2    1    2    0    0 -0.44813336252E-02  0.22464284116E-01 -0.10507804239E-01  0.10187280088E+01  0.10184162290E+01 0.  0.
     999903    2    3    3    0    0  0.31597412003E-01 -0.39765055354E-01 -0.11719649752E+00  0.12937057565E+00  0.20544360270E-01 0.  0.
         14    1    1    2    0    0  0.44813336252E-02 -0.22464284116E-01  0.10507804239E-01  0.25201991228E-01  0.00000000000E+00 0.  1.
     999901    1    3    3    0    0 -0.36078745628E-01  0.62229339471E-01  0.10668869329E+00  0.88935743312E+00  0.88000000000E+00 0. -1.
        -11    1    4    4    0    0  0.21899915209E-01 -0.34246730628E-01 -0.70733398033E-01  0.81583819249E-01  0.51100000000E-03 0.  1.
         11    1    4    4    0    0  0.96974967935E-02 -0.55183247266E-02 -0.46463099492E-01  0.47786756400E-01  0.51100000000E-03 0. -1.
</event>
<event>
 8    1  0.1132492E+005  0.1043930E+01  0.7957747E-01            NaN
         13   -1    0    0    0    0  0.00000000000E+00  0.00000000000E+00  0.74505805969E-08  0.10566000000E+00  0.10566000000E+00 0.  1.
     999900   -1    0    0    0    0 -0.00000000000E+00 -0.00000000000E+00 -0.74505805969E-08  0.93827000000E+00  0.93827000000E+00 0. -1.
     999902    2    1    2    0    0 -0.17818443861E-01 -0.77272311019E-02  0.11832151543E-01  0.10211878178E+01  0.10209345485E+01 0.  0.
     999903    2    3    3    0    0  0.63130004246E-01 -0.64485899043E-01 -0.90936391054E-01  0.12970838953E+00  0.20273393534E-01 0.  0.
         14    1    1    2    0    0  0.17818443861E-01  0.77272311019E-02 -0.11832151543E-01  0.22742182223E-01  0.00000000000E+00 0. -1.
     999901    1    3    3    0    0 -0.80948448108E-01  0.56758667941E-01  0.10276854260E+00  0.89147942825E+00  0.88000000000E+00 0.  1.
        -11    1    4    4    0    0  0.31859355299E-01 -0.46490196080E-01 -0.53389348954E-01  0.77634016735E-01  0.51100000000E-03 0. -1.
         11    1    4    4    0    0  0.31270648947E-01 -0.17995702963E-01 -0.37547042099E-01  0.52074372796E-01  0.51100000000E-03 0.  1.
</event>
<event>
 8    1  0.1132492E+005  0.1043930E+01  0.7957747E-01            NaN
         13   -1    0    0    0    0  0.00000000000E+00  0.00000000000E+00  0.74505805969E-08  0.10566000000E+00  0.10566000000E+00 0. -1.
     999900   -1    0    0    0    0 -0.00000000000E+00 -0.00000000000E+00 -0.74505805969E-08  0.93827000000E+00  0.93827000000E+00 0.  1.
     999902    2    1    2    0    0 -0.10831657866E-01  0.21221064086E-01  0.29026154166E-02  0.10199282595E+01  0.10196458066E+01 0.  0.
     999903    2    3    3    0    0 -0.10753628269E+00  0.21309069788E-01 -0.70221078868E-01  0.13161588935E+00  0.19329093658E-01 0.  0.
         14    1    1    2    0    0  0.10831657866E-01 -0.21221064086E-01 -0.29026154166E-02  0.24001740548E-01  0.00000000000E+00 0. -1.
     999901    1    3    3    0    0  0.96704624827E-01 -0.88005701642E-04  0.73123694285E-01  0.88831237010E+00  0.88000000000E+00 0. -1.
        -11    1    4    4    0    0 -0.78045033210E-01  0.14437854289E-01 -0.40193440562E-01  0.88967705548E-01  0.51100000000E-03 0. -1.
         11    1    4    4    0    0 -0.29491249483E-01  0.68712154989E-02 -0.30027638306E-01  0.42648183804E-01  0.51100000000E-03 0.  1.
</event>
<event>
 8    1  0.1132492E+005  0.1043930E+01  0.7957747E-01            NaN
         13   -1    0    0    0    0  0.00000000000E+00  0.00000000000E+00  0.74505805969E-08  0.10566000000E+00  0.10566000000E+00 0. -1.
     999900   -1    0    0    0    0 -0.00000000000E+00 -0.00000000000E+00 -0.74505805969E-08  0.93827000000E+00  0.93827000000E+00 0. -1.
     999902    2    1    2    0    0  0.39565674978E-02  0.23446454432E-01 -0.15274987015E-02  0.10201030425E+01  0.10198247366E+01 0.  0.
     999903    2    3    3    0    0  0.83002955866E-01  0.29965211707E-01  0.95316085995E-01  0.13124450166E+00  0.18776537804E-01 0.  0.
         14    1    1    2    0    0 -0.39565674978E-02 -0.23446454432E-01  0.15274987015E-02  0.23826957508E-01  0.00000000000E+00 0.  1.
     999901    1    3    3    0    0 -0.79046388368E-01 -0.65187572750E-02 -0.96843584696E-01  0.88885854083E+00  0.88000000000E+00 0. -1.
        -11    1    4    4    0    0  0.47844185179E-01  0.25120294703E-01  0.65288469151E-01  0.84752230569E-01  0.51100000000E-03 0. -1.
         11    1    4    4    0    0  0.35158770687E-01  0.48449170037E-02  0.30027616844E-01  0.46492271092E-01  0.51100000000E-03 0.  1.
</event>
<event>
 8    1  0.1132492E+005  0.1043930E+01  0.7957747E-01            NaN
         13   -1    0    0    0    0  0.00000000000E+00  0.00000000000E+00  0.74505805969E-08  0.10566000000E+00  0.10566000000E+00 0. -1.
     999900   -1    0    0    0    0 -0.00000000000E+00 -0.00000000000E+00 -0.74505805969E-08  0.93827000000E+00  0.93827000000E+00 0.  1.
     999902    2    1    2    0    0 -0.32193459848E-02 -0.17978448560E-01 -0.15427931309E-01  0.10200216361E+01  0.10197414026E+01 0.  0.
     999903    2    3    3    0    0  0.35452189343E-01 -0.12108528732E-01  0.12134957949E+00  0.12859691628E+00  0.20198322632E-01 0.  0.
         14    1    1    2    0    0  0.32193459848E-02  0.17978448560E-01  0.15427931309E-01  0.23908363928E-01  0.00000000000E+00 0. -1.
     999901    1    3    3    0    0 -0.38671535328E-01 -0.58699198289E-02 -0.13677751080E+00  0.89142471980E+00  0.88000000000E+00 0.  1.
        -11    1    4    4    0    0  0.16173148804E-01 -0.81753005347E-02  0.88202833433E-01  0.90046694708E-01  0.51100000000E-03 0. -1.
         11    1    4    4    0    0  0.19279040539E-01 -0.39332281968E-02  0.33146746053E-01  0.38550221569E-01  0.51100000000E-03 0.  1.
</event>
<event>
 8    1  0.1132492E+005  0.1043930E+01  0.7957747E-01            NaN
         13   -1    0    0    0    0  0.00000000000E+00  0.00000000000E+00  0.74505805969E-08  0.10566000000E+00  0.10566000000E+00 0.  1.
     999900   -1    0    0    0    0 -0.00000000000E+00 -0.00000000000E+00 -0.74505805969E-08  0.93827000000E+00  0.93827000000E+00 0. -1.
     999902    2    1    2    0    0 -0.26712730978E-01 -0.48755208626E-02  0.16182378354E-02  0.10167278054E+01  0.10163638476E+01 0.  0.
     999903    2    3    3    0    0  0.93183197650E-01 -0.24852632052E-01  0.77172860189E-01  0.12516590642E+00  0.20250731724E-01 0.  0.
         14    1    1    2    0    0  0.26712730978E-01  0.48755208626E-02 -0.16182378354E-02  0.27202194648E-01  0.00000000000E+00 0. -1.
     999901    1    3    3    0    0 -0.11989592863E+00  0.19977111190E-01 -0.75554622354E-01  0.89156189893E+00  0.88000000000E+00 0.  1.
        -11    1    4    4    0    0  0.46510225495E-01 -0.51645359855E-02  0.27830778319E-01  0.54448938010E-01  0.51100000000E-03 0.  1.
         11    1    4    4    0    0  0.46672972155E-01 -0.19688096067E-01  0.49342081870E-01  0.70716968408E-01  0.51100000000E-03 0. -1.
</event>
<event>
 8    1  0.1132492E+005  0.1043930E+01  0.7957747E-01            NaN
         13   -1    0    0    0    0  0.00000000000E+00  0.00000000000E+00  0.74505805969E-08  0.10566000000E+00  0.10566000000E+00 0. -1.
     999900   -1    0    0    0    0 -0.00000000000E+00 -0.00000000000E+00 -0.74505805969E-08  0.93827000000E+00  0.93827000000E+00 0.  1.
     999902    2    1    2    0    0  0.29447334825E-02  0.24019938882E-01  0.16749183339E-02  0.10196723358E+01  0.10193837541E+01 0.  0.
     999903    2    3    3    0    0 -0.88106319669E-01 -0.73414247167E-01 -0.46953642978E-01  0.12829786242E+00  0.33216286052E-01 0.  0.
         14    1    1    2    0    0 -0.29447334825E-02 -0.24019938882E-01 -0.16749183339E-02  0.24257664162E-01  0.00000000000E+00 0. -1.
     999901    1    3    3    0    0  0.91051053152E-01  0.97434186049E-01  0.48628561312E-01  0.89137447342E+00  0.88000000000E+00 0.  1.
        -11    1    4    4    0    0 -0.41428333197E-01 -0.17111340433E-01 -0.27605197035E-01  0.52644209437E-01  0.51100000000E-03 0. -1.
         11    1    4    4    0    0 -0.46677986472E-01 -0.56302906735E-01 -0.19348445943E-01  0.75653652980E-01  0.51100000000E-03 0.  1.
</event>
<event>
 8    1  0.1132492E+005  0.1043930E+01  0.7957747E-01            NaN
         13   -1    0    0    0    0  0.00000000000E+00  0.00000000000E+00  0.74505805969E-08  0.10566000000E+00  0.10566000000E+00 0. -1.
     999900   -1    0    0    0    0 -0.00000000000E+00 -0.00000000000E+00 -0.74505805969E-08  0.93827000000E+00  0.93827000000E+00 0.  1.
     999902    2    1    2    0    0  0.18222510743E-01 -0.34216137737E-03 -0.18445372508E-01  0.10179991547E+01  0.10176688411E+01 0.  0.
     999903    2    3    3    0    0  0.97496369966E-01 -0.75115116315E-01  0.29145543388E-01  0.13000127471E+00  0.30050721651E-01 0.  0.
         14    1    1    2    0    0 -0.18222510743E-01  0.34216137737E-03  0.18445372508E-01  0.25930845323E-01  0.00000000000E+00 0.  1.
     999901    1    3    3    0    0 -0.79273859223E-01  0.74772954938E-01 -0.47590915896E-01  0.88799787996E+00  0.88000000000E+00 0. -1.
        -11    1    4    4    0    0  0.34784289211E-01 -0.12973869639E-01  0.32759921998E-03  0.37129994770E-01  0.51100000000E-03 0.  1.
         11    1    4    4    0    0  0.62712080755E-01 -0.62141246676E-01  0.28817944168E-01  0.92871279942E-01  0.51100000000E-03 0. -1.
</event>
<event>
 8    1  0.1132492E+005  0.1043930E+01  0.7957747E-01            NaN
         13   -1    0    0    0    0  0.00000000000E+00  0.00000000000E+00  0.74505805969E-08  0.10566000000E+00  0.10566000000E+00 0.  1.
     999900   -1    0    0    0    0 -0.00000000000E+00 -0.00000000000E+00 -0.74505805969E-08  0.93827000000E+00  0.93827000000E+00 0. -1.
     999902    2    1    2    0    0 -0.25455741160E-02  0.23425462686E-01  0.56571072218E-02  0.10196970656E+01  0.10194090790E+01 0.  0.
     999903    2    3    3    0    0  0.10396750560E+00  0.49440770275E-01  0.60019381715E-01  0.13122810759E+00  0.19101257947E-01 0.  0.
         14    1    1    2    0    0  0.25455741160E-02 -0.23425462686E-01 -0.56571072218E-02  0.24232934444E-01  0.00000000000E+00 0.  1.
     999901    1    3    3    0    0 -0.10651307971E+00 -0.26015307589E-01 -0.54362274493E-01  0.88846895796E+00  0.88000000000E+00 0. -1.
        -11    1    4    4    0    0  0.84270372376E-01  0.32701093940E-01  0.41748816842E-01  0.99569483447E-01  0.51100000000E-03 0.  1.
         11    1    4    4    0    0  0.19697133221E-01  0.16739676335E-01  0.18270564873E-01  0.31658624144E-01  0.51100000000E-03 0. -1.
</event>
<event>
 8    1  0.1132492E+005  0.1043930E+01  0.7957747E-01            NaN
         13   -1    0    0    0    0  0.00000000000E+00  0.00000000000E+00  0.74505805969E-08  0.10566000000E+00  0.10566000000E+00 0. -1.
     999900   -1    0    0    0    0 -0.00000000000E+00 -0.00000000000E+00 -0.74505805969E-08  0.93827000000E+00  0.93827000000E+00 0.  1.
     999902    2    1    2    0    0  0.20665114444E-01 -0.29392823739E-02  0.11667067430E-01  0.10200175179E+01  0.10197371868E+01 0.  0.
     999903    2    3    3    0    0  0.58654831100E-01 -0.10653606745E+00  0.48092262951E-01  0.13237890492E+00  0.20517939291E-01 0.  0.
         14    1    1    2    0    0 -0.20665114444E-01  0.29392823739E-02 -0.11667067430E-01  0.23912482060E-01  0.00000000000E+00 0.  1.
     999901    1    3    3    0    0 -0.37989716657E-01  0.10359678508E+00 -0.36425195521E-01  0.88763861302E+00  0.88000000000E+00 0. -1.
        -11    1    4    4    0    0  0.21011000442E-01 -0.58516802315E-01  0.21122720967E-01  0.65666648725E-01  0.51100000000E-03 0.  1.
         11    1    4    4    0    0  0.37643830658E-01 -0.48019265140E-01  0.26969541984E-01  0.66712256198E-01  0.51100000000E-03 0. -1.
</event>
<event>
 8    1  0.1132492E+005  0.1043930E+01  0.7957747E-01            NaN
         13   -1    0    0    0    0  0.00000000000E+00  0.00000000000E+00  0.74505805969E-08  0.10566000000E+00  0.10566000000E+00 0. -1.
     999900   -1    0    0    0    0 -0.00000000000E+00 -0.00000000000E+00 -0.74505805969E-08  0.93827000000E+00  0.93827000000E+00 0.  1.
     999902    2    1    2    0    0 -0.12984709670E-01  0.18834430257E-01  0.45438505166E-02  0.10206065134E+01  0.10203399778E+01 0.  0.
     999903    2    3    3    0    0 -0.55178625185E-01 -0.18023237857E-01 -0.11518452399E+00  0.13073365854E+00  0.21314247088E-01 0.  0.
         14    1    1    2    0    0  0.12984709670E-01 -0.18834430257E-01 -0.45438505166E-02  0.23323486571E-01  0.00000000000E+00 0. -1.
     999901    1    3    3    0    0  0.42193915515E-01  0.36857668114E-01  0.11972837450E+00  0.88987285489E+00  0.88000000000E+00 0. -1.
        -11    1    4    4    0    0 -0.33988154363E-01 -0.83693738778E-02 -0.89278973133E-01  0.95897013618E-01  0.51100000000E-03 0.  1.
         11    1    4    4    0    0 -0.21190470822E-01 -0.96538639790E-02 -0.25905550855E-01  0.34836644923E-01  0.51100000000E-03 0. -1.
</event>
<event>
 8    1  0.1132492E+005  0.1043930E+01  0.7957747E-01            NaN
         13   -1    0    0    0    0  0.00000000000E+00  0.00000000000E+00  0.74505805969E-08  0.10566000000E+00  0.10566000000E+00 0. -1.
     999900   -1    0    0    0    0 -0.00000000000E+00 -0.00000000000E+00 -0.74505805969E-08  0.93827000000E+00  0.93827000000E+00 0. -1.
     999902    2    1    2    0    0 -0.97950118184E-02  0.13317990279E-01  0.17338858215E-01  0.10199728064E+01  0.10196914134E+01 0.  0.
     999903    2    3    3    0    0 -0.71324053298E-01 -0.71541541203E-01  0.82033845421E-01  0.13139393853E+00  0.18152206257E-01 0.  0.
         14    1    1    2    0    0  0.97950118184E-02 -0.13317990279E-01 -0.17338858215E-01  0.23957193613E-01  0.00000000000E+00 0. -1.
     999901    1    3    3    0    0  0.61529041479E-01  0.84859531482E-01 -0.64694987206E-01  0.88857886785E+00  0.88000000000E+00 0.  1.
        -11    1    4    4    0    0 -0.33856981880E-01 -0.37482365371E-01  0.52122933739E-01  0.72582947573E-01  0.51100000000E-03 0. -1.
         11    1    4    4    0    0 -0.37467071418E-01 -0.34059175831E-01  0.29910911682E-01  0.58810990959E-01  0.51100000000E-03 0.  1.
</event>
<event>
 8    1  0.1132492E+005  0.1043930E+01  0.7957747E-01            NaN
         13   -1    0    0    0    0  0.00000000000E+00  0.00000000000E+00  0.74505805969E-08  0.10566000000E+00  0.10566000000E+00 0.  1.
     999900   -1    0    0    0    0 -0.00000000000E+00 -0.00000000000E+00 -0.74505805969E-08  0.93827000000E+00  0.93827000000E+00 0. -1.
     999902    2    1    2    0    0 -0.22219936884E-02 -0.72408225574E-02 -0.22349606061E-01  0.10203318717E+01  0.10200589477E+01 0.  0.
     999903    2    3    3    0    0 -0.65295727818E-01  0.10698073412E+00  0.25433569394E-01  0.12942890742E+00  0.19913966917E-01 0.  0.
         14    1    1    2    0    0  0.22219936884E-02  0.72408225574E-02  0.22349606061E-01  0.23598128281E-01  0.00000000000E+00 0.  1.
     999901    1    3    3    0    0  0.63073734130E-01 -0.11422155668E+00 -0.47783175455E-01  0.89090296430E+00  0.88000000000E+00 0. -1.
        -11    1    4    4    0    0 -0.26420951576E-01  0.48921520499E-01  0.16806458272E-02  0.55627938498E-01  0.51100000000E-03 0.  1.
         11    1    4    4    0    0 -0.38874776242E-01  0.58059213623E-01  0.23752923566E-01  0.73800968919E-01  0.51100000000E-03 0. -1.
</event>
<event>
 8    1  0.1132492E+005  0.1043930E+01  0.7957747E-01            NaN
         13   -1    0    0    0    0  0.00000000000E+00  0.00000000000E+00  0.74505805969E-08  0.10566000000E+00  0.10566000000E+00 0. -1.
     999900   -1    0    0    0    0 -0.00000000000E+00 -0.00000000000E+00 -0.74505805969E-08  0.93827000000E+00  0.93827000000E+00 0.  1.
     999902    2    1    2    0    0 -0.66298341741E-02 -0.13123141162E-01 -0.18199149005E-01  0.10205338345E+01  0.10202656158E+01 0.  0.
     999903    2    3    3    0    0  0.36112958787E-01 -0.36663073032E-01  0.11650879122E+00  0.12894687638E+00  0.20116455485E-01 0.  0.
         14    1    1    2    0    0  0.66298341741E-02  0.13123141162E-01  0.18199149005E-01  0.23396165490E-01  0.00000000000E+00 0. -1.
     999901    1    3    3    0    0 -0.42742792961E-01  0.23539931870E-01 -0.13470794022E+00  0.89158695813E+00  0.88000000000E+00 0.  1.
        -11    1    4    4    0    0  0.20583290378E-02 -0.76101433916E-02  0.35728954654E-01  0.36591943410E-01  0.51100000000E-03 0. -1.
         11    1    4    4    0    0  0.34054629749E-01 -0.29052929640E-01  0.80779836564E-01  0.92354932973E-01  0.51100000000E-03 0.  1.
</event>
<event>
 8    1  0.1132492E+005  0.1043930E+01  0.7957747E-01            NaN
         13   -1    0    0    0    0  0.00000000000E+00  0.00000000000E+00  0.74505805969E-08  0.10566000000E+00  0.10566000000E+00 0. -1.
     999900   -1    0    0    0    0 -0.00000000000E+00 -0.00000000000E+00 -0.74505805969E-08  0.93827000000E+00  0.93827000000E+00 0. -1.
     999902    2    1    2    0    0  0.79469042959E-02 -0.61709836357E-02  0.20821052942E-01  0.10208053255E+01  0.10205433660E+01 0.  0.
     999903    2    3    3    0    0  0.49981666344E-01  0.11685482368E+00  0.24662264792E-01  0.13124530759E+00  0.21538028527E-01 0.  0.
         14    1    1    2    0    0 -0.79469042959E-02  0.61709836357E-02 -0.20821052942E-01  0.23124674539E-01  0.00000000000E+00 0.  1.
     999901    1    3    3    0    0 -0.42034762048E-01 -0.12302580731E+00 -0.38412118508E-02  0.88956001787E+00  0.88000000000E+00 0. -1.
        -11    1    4    4    0    0  0.41408585428E-01  0.72561060895E-01  0.12163621453E-01  0.84427444076E-01  0.51100000000E-03 0. -1.
         11    1    4    4    0    0  0.85730809163E-02  0.44293762782E-01  0.12498643339E-01  0.46817863515E-01  0.51100000000E-03 0.  1.
</event>
<event>
 8    1  0.1132492E+005  0.1043930E+01  0.7957747E-01            NaN
         13   -1    0    0    0    0  0.00000000000E+00  0.00000000000E+00  0.74505805969E-08  0.10566000000E+00  0.10566000000E+00 0.  1.
     999900   -1    0    0    0    0 -0.00000000000E+00 -0.00000000000E+00 -0.74505805969E-08  0.93827000000E+00  0.93827000000E+00 0. -1.
     999902    2    1    2    0    0  0.19072201419E-01  0.13893312892E-01 -0.99181064255E-02  0.10183342612E+01  0.10180125371E+01 0.  0.
     999903    2    3    3    0    0  0.88503422738E-01  0.24710171910E-01 -0.92004671184E-01  0.13172504454E+00  0.21051826715E-01 0.  0.
         14    1    1    2    0    0 -0.19072201419E-01 -0.13893312892E-01  0.99181064255E-02  0.25595738808E-01  0.00000000000E+00 0.  1.
     999901    1    3    3    0    0 -0.69431221319E-01 -0.10816859018E-01  0.82086564759E-01  0.88660921665E+00  0.88000000000E+00 0.  1.
        -11    1    4    4    0    0  0.83839251069E-01  0.18191490561E-01 -0.87384641992E-01  0.12245932846E+00  0.51100000000E-03 0. -1.
         11    1    4    4    0    0  0.46641716688E-02  0.65186813486E-02 -0.46200291916E-02  0.92657160874E-02  0.51100000000E-03 0.  1.
</event>
<event>
 8    1  0.1132492E+005  0.1043930E+01  0.7957747E-01            NaN
         13   -1    0    0    0    0  0.00000000000E+00  0.00000000000E+00  0.74505805969E-08  0.10566000000E+00  0.10566000000E+00 0. -1.
     999900   -1    0    0    0    0 -0.00000000000E+00 -0.00000000000E+00 -0.74505805969E-08  0.93827000000E+00  0.93827000000E+00 0.  1.
     999902    2    1    2    0    0  0.64119883112E-03 -0.21343677857E-01  0.11539798029E-01  0.10196579861E+01  0.10193690588E+01 0.  0.
     999903    2    3    3    0    0  0.36420685956E-02  0.77905192319E-01  0.10187119143E+00  0.12947873219E+00  0.17450466802E-01 0.  0.
         14    1    1    2    0    0 -0.64119883112E-03  0.21343677857E-01 -0.11539798029E-01  0.24272013904E-01  0.00000000000E+00 0.  1.
     999901    1    3    3    0    0 -0.30008697645E-02 -0.99248870176E-01 -0.90331393404E-01  0.89017925391E+00  0.88000000000E+00 0.  1.
        -11    1    4    4    0    0 -0.60690953589E-02  0.45211297569E-01  0.62663525395E-01  0.77510475951E-01  0.51100000000E-03 0.  1.
         11    1    4    4    0    0  0.97111639545E-02  0.32693894750E-01  0.39207666038E-01  0.51968256238E-01  0.51100000000E-03 0. -1.
</event>
<event>
 8    1  0.1132492E+005  0.1043930E+01  0.7957747E-01            NaN
         13   -1    0    0    0    0  0.00000000000E+00  0.00000000000E+00  0.74505805969E-08  0.10566000000E+00  0.10566000000E+00 0.  1.
     999900   -1    0    0    0    0 -0.00000000000E+00 -0.00000000000E+00 -0.74505805969E-08  0.93827000000E+00  0.93827000000E+00 0.  1.
     999902    2    1    2    0    0  0.32654898419E-02  0.23339111652E-01 -0.41618304188E-02  0.10199988824E+01  0.10197181090E+01 0.  0.
     999903    2    3    3    0    0  0.77643251873E-01  0.10562422265E+00  0.92627898828E-02  0.13293456039E+00  0.20021166209E-01 0.  0.
         14    1    1    2    0    0 -0.32654898419E-02 -0.23339111652E-01  0.41618304188E-02  0.23931117589E-01  0.00000000000E+00 0.  1.
     999901    1    3    3    0    0 -0.74377762031E-01 -0.82285111001E-01 -0.13424620302E-01  0.88706432202E+00  0.88000000000E+00 0.  1.
        -11    1    4    4    0    0  0.23696050936E-01  0.27282545015E-01 -0.58820875979E-02  0.36615572753E-01  0.51100000000E-03 0.  1.
         11    1    4    4    0    0  0.53947200937E-01  0.78341677638E-01  0.15144877481E-01  0.96318987635E-01  0.51100000000E-03 0. -1.
</event>
<event>
 8    1  0.1132492E+005  0.1043930E+01  0.7957747E-01            NaN
         13   -1    0    0    0    0  0.00000000000E+00  0.00000000000E+00  0.74505805969E-08  0.10566000000E+00  0.10566000000E+00 0. -1.
     999900   -1    0    0    0    0 -0.00000000000E+00 -0.00000000000E+00 -0.74505805969E-08  0.93827000000E+00  0.93827000000E+00 0.  1.
     999902    2    1    2    0    0 -0.10561733531E-01 -0.20055017633E-01 -0.50951553842E-02  0.10206982425E+01  0.10204338233E+01 0.  0.
     999903    2    3    3    0    0  0.21108735127E-01  0.12445212289E+00  0.11561410348E-01  0.12819458794E+00  0.19138353591E-01 0.  0.
         14    1    1    2    0    0  0.10561733531E-01  0.20055017633E-01  0.50951553842E-02  0.23231757485E-01  0.00000000000E+00 0.  1.
     999901    1    3    3    0    0 -0.31670468658E-01 -0.14450714052E+00 -0.16656565732E-01  0.89250365457E+00  0.88000000000E+00 0.  1.
        -11    1    4    4    0    0  0.18193895426E-01  0.10655130385E+00  0.16605507736E-01  0.10936270933E+00  0.51100000000E-03 0. -1.
         11    1    4    4    0    0  0.29148397010E-02  0.17900819035E-01 -0.50440973884E-02  0.18831878612E-01  0.51100000000E-03 0.  1.
</event>
<event>
 8    1  0.1132492E+005  0.1043930E+01  0.7957747E-01            NaN
         13   -1    0    0    0    0  0.00000000000E+00  0.00000000000E+00  0.74505805969E-08  0.10566000000E+00  0.10566000000E+00 0.  1.
     999900   -1    0    0    0    0 -0.00000000000E+00 -0.00000000000E+00 -0.74505805969E-08  0.93827000000E+00  0.93827000000E+00 0. -1.
     999902    2    1    2    0    0  0.21441023281E-01 -0.10442758191E-01  0.13107054232E-02  0.10200451381E+01  0.10197654619E+01 0.  0.
     999903    2    3    3    0    0 -0.84279627465E-01 -0.37364624749E-01  0.87812040292E-01  0.12909950352E+00  0.21367185130E-01 0.  0.
         14    1    1    2    0    0 -0.21441023281E-01  0.10442758191E-01 -0.13107054232E-02  0.23884861873E-01  0.00000000000E+00 0. -1.
     999901    1    3    3    0    0  0.10572065075E+00  0.26921866558E-01 -0.86501334868E-01  0.89094563461E+00  0.88000000000E+00 0. -1.
        -11    1    4    4    0    0 -0.31501175808E-01 -0.17549817829E-01  0.21204883396E-01  0.41835730948E-01  0.51100000000E-03 0. -1.
         11    1    4    4    0    0 -0.52778451658E-01 -0.19814806920E-01  0.66607156896E-01  0.87263772572E-01  0.51100000000E-03 0.  1.
</event>
<event>
 8    1  0.1132492E+005  0.1043930E+01  0.7957747E-01            NaN
         13   -1    0    0    0    0  0.00000000000E+00  0.00000000000E+00  0.74505805969E-08  0.10566000000E+00  0.10566000000E+00 0.  1.
     999900   -1    0    0    0    0 -0.00000000000E+00 -0.00000000000E+00 -0.74505805969E-08  0.93827000000E+00  0.93827000000E+00 0.  1.
     999902    2    1    2    0    0  0.10734856586E-01 -0.18580133922E-01  0.11262140913E-01  0.10196958435E+01  0.10194078276E+01 0.  0.
     999903    2    3    3    0    0  0.48112304074E-01 -0.11852183626E+00 -0.28385931995E-01  0.13236423294E+00  0.18769910848E-01 0.  0.
         14    1    1    2    0    0 -0.10734856586E-01  0.18580133922E-01 -0.11262140913E-01  0.24234156483E-01  0.00000000000E+00 0. -1.
     999901    1    3    3    0    0 -0.37377447488E-01  0.99941702334E-01  0.39648072908E-01  0.88733161058E+00  0.88000000000E+00 0. -1.
        -11    1    4    4    0    0  0.17294896129E-01 -0.59623112272E-01 -0.67138434167E-02  0.62444901822E-01  0.51100000000E-03 0.  1.
         11    1    4    4    0    0  0.30817407945E-01 -0.58898723984E-01 -0.21672088578E-01  0.69919331116E-01  0.51100000000E-03 0. -1.
</event>
<event>
 8    1  0.1132492E+005  0.1043930E+01  0.7957747E-01            NaN
         13   -1    0    0    0    0  0.00000000000E+00  0.00000000000E+00  0.74505805969E-08  0.10566000000E+00  0.10566000000E+00 0. -1.
     999900   -1    0    0    0    0 -0.00000000000E+00 -0.00000000000E+00 -0.74505805969E-08  0.93827000000E+00  0.93827000000E+00 0.  1.
     999902    2    1    2    0    0  0.19273532604E-02  0.30321075835E-02 -0.23422314393E-01  0.10202337307E+01  0.10199585051E+01 0.  0.
     999903    2    3    3    0    0  0.61992947395E-01 -0.17456349976E-02  0.11052558495E+00  0.12806068574E+00  0.18370126179E-01 0.  0.
         14    1    1    2    0    0 -0.19273532604E-02 -0.30321075835E-02  0.23422314393E-01  0.23696269295E-01  0.00000000000E+00 0. -1.
     999901    1    3    3    0    0 -0.60065594135E-01  0.47777425811E-02 -0.13394789934E+00  0.89217304496E+00  0.88000000000E+00 0.  1.
        -11    1    4    4    0    0  0.30355233223E-01 -0.38550010520E-02  0.37194149074E-01  0.48166036410E-01  0.51100000000E-03 0.  1.
         11    1    4    4    0    0  0.31637714172E-01  0.21093660544E-02  0.73331435875E-01  0.79894649331E-01  0.51100000000E-03 0. -1.
</event>
<event>
 8    1  0.1132492E+005  0.1043930E+01  0.7957747E-01            NaN
         13   -1    0    0    0    0  0.00000000000E+00  0.00000000000E+00  0.74505805969E-08  0.10566000000E+00  0.10566000000E+00 0.  1.
     999900   -1    0    0    0    0 -0.00000000000E+00 -0.00000000000E+00 -0.74505805969E-08  0.93827000000E+00  0.93827000000E+00 0.  1.
     999902    2    1    2    0    0  0.18005959267E-01  0.13313451492E-01 -0.81384396157E-02  0.10201036121E+01  0.10198253197E+01 0.  0.
     999903    2    3    3    0    0  0.99503962784E-01 -0.19002991333E-01  0.81111788761E-01  0.13125498591E+00  0.19662064031E-01 0.  0.
         14    1    1    2    0    0 -0.18005959267E-01 -0.13313451492E-01  0.81384396157E-02  0.23826387874E-01  0.00000000000E+00 0.  1.
     999901    1    3    3    0    0 -0.81498003517E-01  0.32316442826E-01 -0.89250228376E-01  0.88884862621E+00  0.88000000000E+00 0.  1.
        -11    1    4    4    0    0  0.42246369938E-01  0.24435967417E-03  0.26890389073E-01  0.50081629667E-01  0.51100000000E-03 0.  1.
         11    1    4    4    0    0  0.57257592845E-01 -0.19247351007E-01  0.54221399687E-01  0.81173356246E-01  0.51100000000E-03 0. -1.
</event>
<event>
 8    1  0.1132492E+005  0.1043930E+01  0.7957747E-01            NaN
         13   -1    0    0    0    0  0.00000000000E+00  0.00000000000E+00  0.74505805969E-08  0.10566000000E+00  0.10566000000E+00 0. -1.
     999900   -1    0    0    0    0 -0.00000000000E+00 -0.00000000000E+00 -0.74505805969E-08  0.93827000000E+00  0.93827000000E+00 0. -1.
     999902    2    1    2    0    0 -0.18405332212E-01  0.12838665780E-01 -0.67466170053E-02  0.10204970225E+01  0.10202279493E+01 0.  0.
     999903    2    3    3    0    0  0.62096520938E-01 -0.32549310978E-02  0.11108464797E+00  0.12885597409E+00  0.19937165173E-01 0.  0.
         14    1    1    2    0    0  0.18405332212E-01 -0.12838665780E-01  0.67466170053E-02  0.23432977486E-01  0.00000000000E+00 0.  1.
     999901    1    3    3    0    0 -0.80501853151E-01  0.16093596878E-01 -0.11783126498E+00  0.89164104842E+00  0.88000000000E+00 0. -1.
        -11    1    4    4    0    0  0.39294895176E-01  0.21350021890E-02  0.51413117012E-01  0.64747330008E-01  0.51100000000E-03 0.  1.
         11    1    4    4    0    0  0.22801625762E-01 -0.53899332868E-02  0.59671530962E-01  0.64108644086E-01  0.51100000000E-03 0. -1.
</event>
<event>
 8    1  0.1132492E+005  0.1043930E+01  0.7957747E-01            NaN
         13   -1    0    0    0    0  0.00000000000E+00  0.00000000000E+00  0.74505805969E-08  0.10566000000E+00  0.10566000000E+00 0.  1.
     999900   -1    0    0    0    0 -0.00000000000E+00 -0.00000000000E+00 -0.74505805969E-08  0.93827000000E+00  0.93827000000E+00 0. -1.
     999902    2    1    2    0    0 -0.31005650930E-02  0.20346238280E-01 -0.13023337249E-01  0.10195745031E+01  0.10192835607E+01 0.  0.
     999903    2    3    3    0    0  0.61400062816E-01 -0.54184897850E-01 -0.98727734094E-01  0.12993386504E+00  0.20728553637E-01 0.  0.
         14    1    1    2    0    0  0.31005650930E-02 -0.20346238280E-01  0.13023337249E-01  0.24355496898E-01  0.00000000000E+00 0.  1.
     999901    1    3    3    0    0 -0.64500627909E-01  0.74531136130E-01  0.85704396845E-01  0.88964063806E+00  0.88000000000E+00 0.  1.
        -11    1    4    4    0    0  0.35949402648E-01 -0.34748206721E-01 -0.44402633948E-01  0.66870415309E-01  0.51100000000E-03 0. -1.
         11    1    4    4    0    0  0.25450660168E-01 -0.19436691130E-01 -0.54325100146E-01  0.63063449731E-01  0.51100000000E-03 0.  1.
</event>
<event>
 8    1  0.1132492E+005  0.1043930E+01  0.7957747E-01            NaN
         13   -1    0    0    0    0  0.00000000000E+00  0.00000000000E+00  0.74505805969E-08  0.10566000000E+00  0.10566000000E+00 0.  1.
     999900   -1    0    0    0    0 -0.00000000000E+00 -0.00000000000E+00 -0.74505805969E-08  0.93827000000E+00  0.93827000000E+00 0.  1.
     999902    2    1    2    0    0  0.14064143414E-01 -0.19228668140E-01  0.12552620945E-03  0.10201065333E+01  0.10198283099E+01 0.  0.
     999903    2    3    3    0    0 -0.11695386219E+00  0.38892744714E-01 -0.28695862794E-01  0.12804460222E+00  0.19522196212E-01 0.  0.
         14    1    1    2    0    0 -0.14064143414E-01  0.19228668140E-01 -0.12552620945E-03  0.23823466692E-01  0.00000000000E+00 0. -1.
     999901    1    3    3    0    0  0.13101800560E+00 -0.58121412854E-01  0.28821389003E-01  0.89206193108E+00  0.88000000000E+00 0. -1.
        -11    1    4    4    0    0 -0.72318267616E-01  0.29224842361E-01 -0.26270110320E-01  0.82306761929E-01  0.51100000000E-03 0.  1.
         11    1    4    4    0    0 -0.44635594574E-01  0.96679023529E-02 -0.24257524738E-02  0.45737840296E-01  0.51100000000E-03 0. -1.
</event>
<event>
 8    1  0.1132492E+005  0.1043930E+01  0.7957747E-01            NaN
         13   -1    0    0    0    0  0.00000000000E+00  0.00000000000E+00  0.74505805969E-08  0.10566000000E+00  0.10566000000E+00 0.  1.
     999900   -1    0    0    0    0 -0.00000000000E+00 -0.00000000000E+00 -0.74505805969E-08  0.93827000000E+00  0.93827000000E+00 0.  1.
     999902    2    1    2    0    0 -0.58817045539E-02  0.19239909482E-01 -0.12693704358E-01  0.10201413747E+01  0.10198639741E+01 0.  0.
     999903    2    3    3    0    0 -0.95771543326E-01  0.99201498789E-02  0.84704415847E-01  0.13016753524E+00  0.22319302884E-01 0.  0.
         14    1    1    2    0    0  0.58817045539E-02 -0.19239909482E-01  0.12693704358E-01  0.23788625342E-01  0.00000000000E+00 0.  1.
     999901    1    3    3    0    0  0.89889838772E-01  0.93197596030E-02 -0.97398120204E-01  0.88997383942E+00  0.88000000000E+00 0. -1.
        -11    1    4    4    0    0 -0.32916176500E-01  0.13246640959E-02  0.43300845556E-01  0.54410051987E-01  0.51100000000E-03 0. -1.
         11    1    4    4    0    0 -0.62855366826E-01  0.85954857831E-02  0.41403570291E-01  0.75757483251E-01  0.51100000000E-03 0.  1.
</event>
<event>
 8    1  0.1137696E+005  0.1043930E+01  0.7957747E-01            NaN
         13   -1    0    0    0    0  0.00000000000E+00  0.00000000000E+00  0.74505805969E-08  0.10566000000E+00  0.10566000000E+00 0. -1.
     999900   -1    0    0    0    0 -0.00000000000E+00 -0.00000000000E+00 -0.74505805969E-08  0.93827000000E+00  0.93827000000E+00 0.  1.
     999902    2    1    2    0    0 -0.26760101799E-02  0.46884728565E-05 -0.23302207433E-01  0.10204746398E+01  0.10202050463E+01 0.  0.
     999903    2    3    3    0    0 -0.10344580282E+00 -0.42591543935E-01  0.62368218969E-01  0.12957149571E+00  0.19593469023E-01 0.  0.
         14    1    1    2    0    0  0.26760101799E-02 -0.46884728565E-05  0.23302207433E-01  0.23455360235E-01  0.00000000000E+00 0. -1.
     999901    1    3    3    0    0  0.10076979264E+00  0.42596232407E-01 -0.85670426403E-01  0.89090314405E+00  0.88000000000E+00 0.  1.
        -11    1    4    4    0    0 -0.62242169448E-01 -0.35252541062E-01  0.35755961235E-01  0.79972365188E-01  0.51100000000E-03 0.  1.
         11    1    4    4    0    0 -0.41203633370E-01 -0.73390028722E-02  0.26612257734E-01  0.49599130524E-01  0.51100000000E-03 0. -1.
</event>
<event>
 8    1  0.1132492E+005  0.1043930E+01  0.7957747E-01            NaN
         13   -1    0    0    0    0  0.00000000000E+00  0.00000000000E+00  0.74505805969E-08  0.10566000000E+00  0.10566000000E+00 0.  1.
     999900   -1    0    0    0    0 -0.00000000000E+00 -0.00000000000E+00 -0.74505805969E-08  0.93827000000E+00  0.93827000000E+00 0. -1.
     999902    2    1    2    0    0 -0.11495707941E-01 -0.11618151263E-01 -0.17793622261E-01  0.10197691694E+01  0.10194829146E+01 0.  0.
     999903    2    3    3    0    0 -0.88084650674E-03  0.30842115689E-01  0.12177034450E+00  0.12769649843E+00  0.22942687771E-01 0.  0.
         14    1    1    2    0    0  0.11495707941E-01  0.11618151263E-01  0.17793622261E-01  0.24160830553E-01  0.00000000000E+00 0. -1.
     999901    1    3    3    0    0 -0.10614861434E-01 -0.42460266952E-01 -0.13956396676E+00  0.89207267101E+00  0.88000000000E+00 0. -1.
        -11    1    4    4    0    0 -0.11644013725E-01  0.11984674555E-01  0.51306194193E-01  0.53961117143E-01  0.51100000000E-03 0.  1.
         11    1    4    4    0    0  0.10763167218E-01  0.18857441134E-01  0.70464150305E-01  0.73735381289E-01  0.51100000000E-03 0. -1.
</event>
<event>
 8    1  0.1132492E+005  0.1043930E+01  0.7957747E-01            NaN
         13   -1    0    0    0    0  0.00000000000E+00  0.00000000000E+00  0.74505805969E-08  0.10566000000E+00  0.10566000000E+00 0. -1.
     999900   -1    0    0    0    0 -0.00000000000E+00 -0.00000000000E+00 -0.74505805969E-08  0.93827000000E+00  0.93827000000E+00 0.  1.
     999902    2    1    2    0    0 -0.24476684785E-02 -0.84906876291E-02  0.24320909524E-01  0.10180535726E+01  0.10177246617E+01 0.  0.
     999903    2    3    3    0    0 -0.47073322057E-02 -0.34020719152E-01 -0.11957582974E+00  0.12599799123E+00  0.19938566378E-01 0.  0.
         14    1    1    2    0    0  0.24476684785E-02  0.84906876291E-02 -0.24320909524E-01  0.25876427448E-01  0.00000000000E+00 0.  1.
     999901    1    3    3    0    0  0.22596637272E-02  0.25530031523E-01  0.14389673926E+00  0.89205558132E+00  0.88000000000E+00 0. -1.
        -11    1    4    4    0    0 -0.80773650896E-03 -0.43893594278E-02 -0.50914868316E-01  0.51112658423E-01  0.51100000000E-03 0. -1.
         11    1    4    4    0    0 -0.38995956967E-02 -0.29631359724E-01 -0.68660961423E-01  0.74885332811E-01  0.51100000000E-03 0.  1.
</event>
<event>
 8    1  0.1132492E+005  0.1043930E+01  0.7957747E-01            NaN
         13   -1    0    0    0    0  0.00000000000E+00  0.00000000000E+00  0.74505805969E-08  0.10566000000E+00  0.10566000000E+00 0.  1.
     999900   -1    0    0    0    0 -0.00000000000E+00 -0.00000000000E+00 -0.74505805969E-08  0.93827000000E+00  0.93827000000E+00 0.  1.
     999902    2    1    2    0    0  0.16040425092E-02 -0.42264079258E-02  0.23315134831E-01  0.10201806634E+01  0.10199041891E+01 0.  0.
     999903    2    3    3    0    0 -0.50515244716E-01 -0.96679932090E-01 -0.66490783677E-01  0.12926586545E+00  0.19744377369E-01 0.  0.
         14    1    1    2    0    0 -0.16040425092E-02  0.42264079258E-02 -0.23315134831E-01  0.23749336591E-01  0.00000000000E+00 0. -1.
     999901    1    3    3    0    0  0.52119287225E-01  0.92453524164E-01  0.89805918508E-01  0.89091479796E+00  0.88000000000E+00 0. -1.
        -11    1    4    4    0    0 -0.41744440067E-01 -0.61214177656E-01 -0.40643106173E-01  0.84509745136E-01  0.51100000000E-03 0.  1.
         11    1    4    4    0    0 -0.87708046488E-02 -0.35465754434E-01 -0.25847677504E-01  0.44756120309E-01  0.51100000000E-03 0. -1.
</event>
<event>
 8    1  0.1132492E+005  0.1043930E+01  0.7957747E-01            NaN
         13   -1    0    0    0    0  0.00000000000E+00  0.00000000000E+00  0.74505805969E-08  0.10566000000E+00  0.10566000000E+00 0. -1.
     999900   -1    0    0    0    0 -0.00000000000E+00 -0.00000000000E+00 -0.74505805969E-08  0.93827000000E+00  0.93827000000E+00 0.  1.
     999902    2    1    2    0    0  0.19016685633E-01 -0.50998427824E-03 -0.13873401425E-01  0.10203850285E+01  0.10201133470E+01 0.  0.
     999903    2    3    3    0    0 -0.77393296775E-01  0.59824611309E-01  0.80332405482E-01  0.12807909318E+00  0.19551271955E-01 0.  0.
         14    1    1    2    0    0 -0.19016685633E-01  0.50998427824E-03  0.13873401425E-01  0.23544971513E-01  0.00000000000E+00 0.  1.
     999901    1    3    3    0    0  0.96409982408E-01 -0.60334595587E-01 -0.94205806907E-01  0.89230593531E+00  0.88000000000E+00 0.  1.
        -11    1    4    4    0    0 -0.30305264272E-01  0.28602829528E-01  0.23068516002E-01  0.47633480359E-01  0.51100000000E-03 0. -1.
         11    1    4    4    0    0 -0.47088032503E-01  0.31221781781E-01  0.57263889479E-01  0.80445612819E-01  0.51100000000E-03 0.  1.
</event>
<event>
 8    1  0.1132492E+005  0.1043930E+01  0.7957747E-01            NaN
         13   -1    0    0    0    0  0.00000000000E+00  0.00000000000E+00  0.74505805969E-08  0.10566000000E+00  0.10566000000E+00 0. -1.
     999900   -1    0    0    0    0 -0.00000000000E+00 -0.00000000000E+00 -0.74505805969E-08  0.93827000000E+00  0.93827000000E+00 0. -1.
     999902    2    1    2    0    0 -0.10541013652E-02  0.18861783681E-01 -0.12934346017E-01  0.10210351246E+01  0.10207784041E+01 0.  0.
     999903    2    3    3    0    0  0.97715410893E-01 -0.82377776907E-01  0.61164925480E-02  0.12953762059E+00  0.20203564365E-01 0.  0.
         14    1    1    2    0    0  0.10541013652E-02 -0.18861783681E-01  0.12934346017E-01  0.22894875414E-01  0.00000000000E+00 0. -1.
     999901    1    3    3    0    0 -0.98769512258E-01  0.10123956059E+00 -0.19050838565E-01  0.89149750400E+00  0.88000000000E+00 0. -1.
        -11    1    4    4    0    0  0.29616552747E-01 -0.28049786018E-01 -0.71519616327E-02  0.41416691906E-01  0.51100000000E-03 0. -1.
         11    1    4    4    0    0  0.68098858146E-01 -0.54327990889E-01  0.13268454181E-01  0.88120928684E-01  0.51100000000E-03 0.  1.
</event>
<event>
 8    1  0.1132492E+005  0.1043930E+01  0.7957747E-01            NaN
         13   -1    0    0    0    0  0.00000000000E+00  0.00000000000E+00  0.74505805969E-08  0.10566000000E+00  0.10566000000E+00 0. -1.
     999900   -1    0    0    0    0 -0.00000000000E+00 -0.00000000000E+00 -0.74505805969E-08  0.93827000000E+00  0.93827000000E+00 0.  1.
     999902    2    1    2    0    0  0.71203071757E-02  0.21816591077E-01 -0.48837994052E-02  0.10204669670E+01  0.10201971951E+01 0.  0.
     999903    2    3    3    0    0 -0.87265540296E-02 -0.10843420287E+00 -0.65706833765E-01  0.12866214877E+00  0.20060693535E-01 0.  0.
         14    1    1    2    0    0 -0.71203071757E-02 -0.21816591077E-01  0.48837994052E-02  0.23463032991E-01  0.00000000000E+00 0. -1.
     999901    1    3    3    0    0  0.15846861205E-01  0.13025079394E+00  0.60823034360E-01  0.89180481824E+00  0.88000000000E+00 0. -1.
        -11    1    4    4    0    0  0.48941517492E-02 -0.62700515237E-01 -0.36814712964E-01  0.72875863933E-01  0.51100000000E-03 0. -1.
         11    1    4    4    0    0 -0.13620705779E-01 -0.45733687630E-01 -0.28892120801E-01  0.55786284833E-01  0.51100000000E-03 0.  1.
</event>
<event>
 8    1  0.1132492E+005  0.1043930E+01  0.7957747E-01            NaN
         13   -1    0    0    0    0  0.00000000000E+00  0.00000000000E+00  0.74505805969E-08  0.10566000000E+00  0.10566000000E+00 0.  1.
     999900   -1    0    0    0    0 -0.00000000000E+00 -0.00000000000E+00 -0.74505805969E-08  0.93827000000E+00  0.93827000000E+00 0.  1.
     999902    2    1    2    0    0  0.10905127501E-01  0.10228983097E-01  0.18183588781E-01  0.10203886151E+01  0.10201170173E+01 0.  0.
     999903    2    3    3    0    0 -0.10934154160E+00 -0.55319540445E-01 -0.32349431947E-01  0.12836313536E+00  0.20366258793E-01 0.  0.
         14    1    1    2    0    0 -0.10905127501E-01 -0.10228983097E-01 -0.18183588781E-01  0.23541384878E-01  0.00000000000E+00 0.  1.
     999901    1    3    3    0    0  0.12024666910E+00  0.65548523542E-01  0.50533020728E-01  0.89202547977E+00  0.88000000000E+00 0.  1.
        -11    1    4    4    0    0 -0.36580524159E-01 -0.28430095979E-01 -0.76925616407E-02  0.46966389373E-01  0.51100000000E-03 0.  1.
         11    1    4    4    0    0 -0.72761017439E-01 -0.26889444466E-01 -0.24656870306E-01  0.81396745983E-01  0.51100000000E-03 0. -1.
</event>
<event>
 8    1  0.1132492E+005  0.1043930E+01  0.7957747E-01            NaN
         13   -1    0    0    0    0  0.00000000000E+00  0.00000000000E+00  0.74505805969E-08  0.10566000000E+00  0.10566000000E+00 0. -1.
     999900   -1    0    0    0    0 -0.00000000000E+00 -0.00000000000E+00 -0.74505805969E-08  0.93827000000E+00  0.93827000000E+00 0.  1.
     999902    2    1    2    0    0 -0.23157983677E-01  0.86281949870E-02  0.43698100269E-03  0.10192130239E+01  0.10189132736E+01 0.  0.
     999903    2    3    3    0    0 -0.10373904346E+00  0.59255067643E-01 -0.53573303763E-01  0.13243599536E+00  0.19905823554E-01 0.  0.
         14    1    1    2    0    0  0.23157983677E-01 -0.86281949870E-02 -0.43698100269E-03  0.24716976132E-01  0.00000000000E+00 0.  1.
     999901    1    3    3    0    0  0.80581059782E-01 -0.50626872656E-01  0.54010284766E-01  0.88677702851E+00  0.88000000000E+00 0. -1.
        -11    1    4    4    0    0 -0.43132898571E-01  0.33583896264E-01 -0.31037155541E-01  0.62864069010E-01  0.51100000000E-03 0.  1.
         11    1    4    4    0    0 -0.60606144889E-01  0.25671171379E-01 -0.22536148222E-01  0.69571926349E-01  0.51100000000E-03 0. -1.
</event>
<event>
 8    1  0.1132492E+005  0.1043930E+01  0.7957747E-01            NaN
         13   -1    0    0    0    0  0.00000000000E+00  0.00000000000E+00  0.74505805969E-08  0.10566000000E+00  0.10566000000E+00 0. -1.
     999900   -1    0    0    0    0 -0.00000000000E+00 -0.00000000000E+00 -0.74505805969E-08  0.93827000000E+00  0.93827000000E+00 0. -1.
     999902    2    1    2    0    0  0.77911491837E-02 -0.22318147958E-01 -0.24270885363E-02  0.10201667407E+01  0.10198899383E+01 0.  0.
     999903    2    3    3    0    0 -0.10944835103E+00  0.17963932215E-01  0.62555345897E-01  0.12910531567E+00  0.21292412480E-01 0.  0.
         14    1    1    2    0    0 -0.77911491837E-02  0.22318147958E-01  0.24270885363E-02  0.23763259302E-01  0.00000000000E+00 0.  1.
     999901    1    3    3    0    0  0.11723950021E+00 -0.40282080173E-01 -0.64982434434E-01  0.89106142503E+00  0.88000000000E+00 0. -1.
        -11    1    4    4    0    0 -0.41310571272E-01  0.13464533697E-01  0.15326470721E-01  0.46076228060E-01  0.51100000000E-03 0. -1.
         11    1    4    4    0    0 -0.68137779759E-01  0.44993985189E-02  0.47228875176E-01  0.83029087607E-01  0.51100000000E-03 0.  1.
</event>
<event>
 8    1  0.1132492E+005  0.1043930E+01  0.7957747E-01            NaN
         13   -1    0    0    0    0  0.00000000000E+00  0.00000000000E+00  0.74505805969E-08  0.10566000000E+00  0.10566000000E+00 0. -1.
     999900   -1    0    0    0    0 -0.00000000000E+00 -0.00000000000E+00 -0.74505805969E-08  0.93827000000E+00  0.93827000000E+00 0.  1.
     999902    2    1    2    0    0  0.91860234686E-02 -0.20439522623E-01 -0.76640459573E-02  0.10202467842E+01  0.10199718652E+01 0.  0.
     999903    2    3    3    0    0 -0.27427118282E-01  0.10382704940E+00 -0.68112633485E-01  0.12871061843E+00  0.19869309300E-01 0.  0.
         14    1    1    2    0    0 -0.91860234686E-02  0.20439522623E-01  0.76640459573E-02  0.23683215842E-01  0.00000000000E+00 0. -1.
     999901    1    3    3    0    0  0.36613141751E-01 -0.12426657202E+00  0.60448587527E-01  0.89153616573E+00  0.88000000000E+00 0. -1.
        -11    1    4    4    0    0 -0.66987491431E-02  0.28559614931E-01 -0.86944890949E-02  0.30600328539E-01  0.51100000000E-03 0.  1.
         11    1    4    4    0    0 -0.20728369139E-01  0.75267434466E-01 -0.59418144390E-01  0.98110289888E-01  0.51100000000E-03 0. -1.
</event>
<event>
 8    1  0.1132492E+005  0.1043930E+01  0.7957747E-01            NaN
         13   -1    0    0    0    0  0.00000000000E+00  0.00000000000E+00  0.74505805969E-08  0.10566000000E+00  0.10566000000E+00 0. -1.
     999900   -1    0    0    0    0 -0.00000000000E+00 -0.00000000000E+00 -0.74505805969E-08  0.93827000000E+00  0.93827000000E+00 0. -1.
     999902    2    1    2    0    0 -0.68694195416E-02  0.22906992867E-01 -0.35118992509E-02  0.10197586806E+01  0.10194721742E+01 0.  0.
     999903    2    3    3    0    0 -0.11334206470E-01  0.10079326342E+00  0.82234008301E-01  0.13215597319E+00  0.20372111897E-01 0.  0.
         14    1    1    2    0    0  0.68694195416E-02 -0.22906992867E-01  0.35118992509E-02  0.24171319439E-01  0.00000000000E+00 0.  1.
     999901    1    3    3    0    0  0.44647869282E-02 -0.77886270550E-01 -0.85745907552E-01  0.88760270737E+00  0.88000000000E+00 0.  1.
        -11    1    4    4    0    0 -0.15694222641E-01  0.50068640342E-01  0.44109198276E-01  0.68549689012E-01  0.51100000000E-03 0. -1.
         11    1    4    4    0    0  0.43600161715E-02  0.50724623075E-01  0.38124810025E-01  0.63606284183E-01  0.51100000000E-03 0.  1.
</event>
<event>
 8    1  0.1132492E+005  0.1043930E+01  0.7957747E-01            NaN
         13   -1    0    0    0    0  0.00000000000E+00  0.00000000000E+00  0.74505805969E-08  0.10566000000E+00  0.10566000000E+00 0. -1.
     999900   -1    0    0    0    0 -0.00000000000E+00 -0.00000000000E+00 -0.74505805969E-08  0.93827000000E+00  0.93827000000E+00 0. -1.
     999902    2    1    2    0    0  0.13625617514E-01  0.18529564844E-01 -0.11724194574E-02  0.10209000892E+01  0.10206402967E+01 0.  0.
     999903    2    3    3    0    0 -0.49089118537E-01  0.93162970306E-01  0.77161101550E-01  0.13205847006E+00  0.19912893494E-01 0.  0.
         14    1    1    2    0    0 -0.13625617514E-01 -0.18529564844E-01  0.11724194574E-02  0.23029910840E-01  0.00000000000E+00 0.  1.
     999901    1    3    3    0    0  0.62714736051E-01 -0.74633405463E-01 -0.78333521008E-01  0.88884161910E+00  0.88000000000E+00 0. -1.
        -11    1    4    4    0    0 -0.29690817883E-02  0.18513099796E-01  0.19518321705E-01  0.27069841409E-01  0.51100000000E-03 0. -1.
         11    1    4    4    0    0 -0.46120036749E-01  0.74649870510E-01  0.57642779846E-01  0.10498862865E+00  0.51100000000E-03 0.  1.
</event>
<event>
 8    1  0.1132492E+005  0.1043930E+01  0.7957747E-01            NaN
         13   -1    0    0    0    0  0.00000000000E+00  0.00000000000E+00  0.74505805969E-08  0.10566000000E+00  0.10566000000E+00 0. -1.
     999900   -1    0    0    0    0 -0.00000000000E+00 -0.00000000000E+00 -0.74505805969E-08  0.93827000000E+00  0.93827000000E+00 0.  1.
     999902    2    1    2    0    0  0.22470199335E-01 -0.44420832613E-02 -0.50588175544E-02  0.10204729414E+01  0.10202033085E+01 0.  0.
     999903    2    3    3    0    0  0.10039749743E+00 -0.79954203707E-01  0.29195907132E-01  0.13314654698E+00  0.20081578562E-01 0.  0.
         14    1    1    2    0    0 -0.22470199335E-01  0.44420832613E-02  0.50588175544E-02  0.23457058573E-01  0.00000000000E+00 0. -1.
     999901    1    3    3    0    0 -0.77927298098E-01  0.75512120446E-01 -0.34254724686E-01  0.88732639445E+00  0.88000000000E+00 0. -1.
        -11    1    4    4    0    0  0.48628089421E-01 -0.46313389344E-01  0.23474836922E-01  0.71140355655E-01  0.51100000000E-03 0. -1.
         11    1    4    4    0    0  0.51769408012E-01 -0.33640814363E-01  0.57210702100E-02  0.62006191322E-01  0.51100000000E-03 0.  1.
</event>
<event>
 7    1  0.1614673E+005  0.1043930E+01  0.7957747E-01            NaN
         13   -1    0    0    0    0  0.00000000000E+00  0.00000000000E+00  0.74505805969E-08  0.10566000000E+00  0.10566000000E+00 0.  1.
     999900   -1    0    0    0    0 -0.00000000000E+00 -0.00000000000E+00 -0.74505805969E-08  0.93827000000E+00  0.93827000000E+00 0. -1.
     999903    2    1    2    0    0 -0.19942749584E-01  0.72867784046E-01 -0.54497063647E-01  0.95417222785E-01  0.20666137642E-01 0.  0.
         14    1    1    2    0    0  0.44647441337E-01  0.22261867003E-01  0.38295421818E-01  0.62892957258E-01  0.00000000000E+00 0. -1.
     999901    1    1    2    0    0 -0.24704691753E-01 -0.95129651049E-01  0.16201641829E-01  0.88561981996E+00  0.88000000000E+00 0.  1.
        -11    1    3    3    0    0 -0.23974110782E-01  0.55376063599E-01 -0.41072455954E-01  0.72996398312E-01  0.51100000000E-03 0. -1.
         11    1    3    3    0    0  0.40313611975E-02  0.17491720447E-01 -0.13424607693E-01  0.22420824472E-01  0.51100000000E-03 0.  1.
</event>
<event>
 8    1  0.1132492E+005  0.1043930E+01  0.7957747E-01            NaN
         13   -1    0    0    0    0  0.00000000000E+00  0.00000000000E+00  0.74505805969E-08  0.10566000000E+00  0.10566000000E+00 0. -1.
     999900   -1    0    0    0    0 -0.00000000000E+00 -0.00000000000E+00 -0.74505805969E-08  0.93827000000E+00  0.93827000000E+00 0.  1.
     999902    2    1    2    0    0  0.11760090915E-01 -0.18482616743E-01 -0.82486708020E-02  0.10205217230E+01  0.10202532234E+01 0.  0.
     999903    2    3    3    0    0 -0.44661168676E-01  0.31387894327E-01 -0.11699798754E+00  0.13063586503E+00  0.19934398536E-01 0.  0.
         14    1    1    2    0    0 -0.11760090915E-01  0.18482616743E-01  0.82486708020E-02  0.23408276955E-01  0.00000000000E+00 0.  1.
     999901    1    3    3    0    0  0.56421259591E-01 -0.49870511070E-01  0.10874931674E+00  0.88988585802E+00  0.88000000000E+00 0. -1.
        -11    1    4    4    0    0 -0.10991575209E-01  0.19412347588E-01 -0.42108688323E-01  0.47655605313E-01  0.51100000000E-03 0. -1.
         11    1    4    4    0    0 -0.33669593467E-01  0.11975546739E-01 -0.74889299218E-01  0.82980259715E-01  0.51100000000E-03 0.  1.
</event>
<event>
 8    1  0.1132492E+005  0.1043930E+01  0.7957747E-01            NaN
         13   -1    0    0    0    0  0.00000000000E+00  0.00000000000E+00  0.74505805969E-08  0.10566000000E+00  0.10566000000E+00 0. -1.
     999900   -1    0    0    0    0 -0.00000000000E+00 -0.00000000000E+00 -0.74505805969E-08  0.93827000000E+00  0.93827000000E+00 0. -1.
     999902    2    1    2    0    0  0.13366505895E-01 -0.52654902704E-02 -0.18641807675E-01  0.10203947953E+01  0.10201233417E+01 0.  0.
     999903    2    3    3    0    0  0.67811475590E-01 -0.53668706513E-01 -0.99982366674E-01  0.13364600752E+00  0.19648292526E-01 0.  0.
         14    1    1    2    0    0 -0.13366505895E-01  0.52654902704E-02  0.18641807675E-01  0.23535204716E-01  0.00000000000E+00 0. -1.
     999901    1    3    3    0    0 -0.54444969695E-01  0.48403216243E-01  0.81340558998E-01  0.88674878777E+00  0.88000000000E+00 0.  1.
        -11    1    4    4    0    0  0.40239675995E-01 -0.19516739546E-01 -0.47955885806E-01  0.65575626196E-01  0.51100000000E-03 0. -1.
         11    1    4    4    0    0  0.27571799595E-01 -0.34151966967E-01 -0.52026480868E-01  0.68070381321E-01  0.51100000000E-03 0.  1.
</event>
<event>
 8    1  0.1132492E+005  0.1043930E+01  0.7957747E-01            NaN
         13   -1    0    0    0    0  0.00000000000E+00  0.00000000000E+00  0.74505805969E-08  0.10566000000E+00  0.10566000000E+00 0.  1.
     999900   -1    0    0    0    0 -0.00000000000E+00 -0.00000000000E+00 -0.74505805969E-08  0.93827000000E+00  0.93827000000E+00 0.  1.
     999902    2    1    2    0    0 -0.11493717985E-01  0.19578952976E-01 -0.75468181005E-02  0.10200052134E+01  0.10197245902E+01 0.  0.
     999903    2    3    3    0    0  0.58817856166E-01  0.10807979940E+00  0.41361405377E-01  0.13142874979E+00  0.20541839586E-01 0.  0.
         14    1    1    2    0    0  0.11493717985E-01 -0.19578952976E-01  0.75468181005E-02  0.23924786649E-01  0.00000000000E+00 0. -1.
     999901    1    3    3    0    0 -0.70311574151E-01 -0.88500846424E-01 -0.48908223477E-01  0.88857646356E+00  0.88000000000E+00 0. -1.
        -11    1    4    4    0    0  0.34670468086E-01  0.57146042480E-01  0.12146017516E-01  0.67937459409E-01  0.51100000000E-03 0.  1.
         11    1    4    4    0    0  0.24147388080E-01  0.50933756919E-01  0.29215387860E-01  0.63491290378E-01  0.51100000000E-03 0. -1.
</event>
<event>
 8    1  0.1132492E+005  0.1043930E+01  0.7957747E-01            NaN
         13   -1    0    0    0    0  0.00000000000E+00  0.00000000000E+00  0.74505805969E-08  0.10566000000E+00  0.10566000000E+00 0. -1.
     999900   -1    0    0    0    0 -0.00000000000E+00 -0.00000000000E+00 -0.74505805969E-08  0.93827000000E+00  0.93827000000E+00 0. -1.
     999902    2    1    2    0    0 -0.15234460637E-01  0.16532367697E-01  0.72486597725E-02  0.10203090127E+01  0.10200355535E+01 0.  0.
     999903    2    3    3    0    0 -0.53109278560E-01  0.10762889131E+00  0.54793517073E-01  0.13352065469E+00  0.20514921462E-01 0.  0.
         14    1    1    2    0    0  0.15234460637E-01 -0.16532367697E-01 -0.72486597725E-02  0.23620987301E-01  0.00000000000E+00 0. -1.
     999901    1    3    3    0    0  0.37874817923E-01 -0.91096523609E-01 -0.47544857300E-01  0.88678835801E+00  0.88000000000E+00 0. -1.
        -11    1    4    4    0    0 -0.90302278710E-02  0.36387577961E-01  0.22548499399E-01  0.43752677534E-01  0.51100000000E-03 0.  1.
         11    1    4    4    0    0 -0.44079050689E-01  0.71241313345E-01  0.32245017674E-01  0.89767977155E-01  0.51100000000E-03 0. -1.
</event>
<event>
 8    1  0.1132492E+005  0.1043930E+01  0.7957747E-01            NaN
         13   -1    0    0    0    0  0.00000000000E+00  0.00000000000E+00  0.74505805969E-08  0.10566000000E+00  0.10566000000E+00 0.  1.
     999900   -1    0    0    0    0 -0.00000000000E+00 -0.00000000000E+00 -0.74505805969E-08  0.93827000000E+00  0.93827000000E+00 0.  1.
     999902    2    1    2    0    0  0.12630197104E-01  0.16678558336E-01 -0.93635524401E-02  0.10210089987E+01  0.10207516853E+01 0.  0.
     999903    2    3    3    0    0  0.66445508135E-01 -0.47955199745E-01  0.99259840986E-01  0.13035044908E+00  0.20591668426E-01 0.  0.
         14    1    1    2    0    0 -0.12630197104E-01 -0.16678558336E-01  0.93635524401E-02  0.22921001317E-01  0.00000000000E+00 0.  1.
     999901    1    3    3    0    0 -0.53815311031E-01  0.64633758081E-01 -0.10862339343E+00  0.89065854960E+00  0.88000000000E+00 0.  1.
        -11    1    4    4    0    0  0.35230419207E-01 -0.33366300785E-01  0.45667908942E-01  0.66635662327E-01  0.51100000000E-03 0.  1.
         11    1    4    4    0    0  0.31215088928E-01 -0.14588898960E-01  0.53591932043E-01  0.63714786751E-01  0.51100000000E-03 0. -1.
</event>
<event>
 8    1  0.1132492E+005  0.1043930E+01  0.7957747E-01            NaN
         13   -1    0    0    0    0  0.00000000000E+00  0.00000000000E+00  0.74505805969E-08  0.10566000000E+00  0.10566000000E+00 0.  1.
     999900   -1    0    0    0    0 -0.00000000000E+00 -0.00000000000E+00 -0.74505805969E-08  0.93827000000E+00  0.93827000000E+00 0.  1.
     999902    2    1    2    0    0 -0.48733352655E-02  0.17856016880E-01  0.15925549834E-01  0.10195125908E+01  0.10192201494E+01 0.  0.
     999903    2    3    3    0    0  0.46016135986E-01 -0.74246051397E-01 -0.87460548584E-01  0.12723392657E+00  0.30152339747E-01 0.  0.
         14    1    1    2    0    0  0.48733352655E-02 -0.17856016880E-01 -0.15925549834E-01  0.24417409218E-01  0.00000000000E+00 0. -1.
     999901    1    3    3    0    0 -0.50889471252E-01  0.92102068276E-01  0.10338609842E+00  0.89227866421E+00  0.88000000000E+00 0. -1.
        -11    1    4    4    0    0  0.17668919822E-01 -0.33130314877E-01 -0.17894874952E-01  0.41596828750E-01  0.51100000000E-03 0.  1.
         11    1    4    4    0    0  0.28347216164E-01 -0.41115736520E-01 -0.69565673632E-01  0.85637097818E-01  0.51100000000E-03 0. -1.
</event>
<event>
 8    1  0.1132492E+005  0.1043930E+01  0.7957747E-01            NaN
         13   -1    0    0    0    0  0.00000000000E+00  0.00000000000E+00  0.74505805969E-08  0.10566000000E+00  0.10566000000E+00 0.  1.
     999900   -1    0    0    0    0 -0.00000000000E+00 -0.00000000000E+00 -0.74505805969E-08  0.93827000000E+00  0.93827000000E+00 0.  1.
     999902    2    1    2    0    0 -0.97720119303E-02  0.79723367957E-03  0.20451781265E-01  0.10212495424E+01  0.10209976615E+01 0.  0.
     999903    2    3    3    0    0 -0.22301118780E-01 -0.28637448794E-01  0.12760234988E+00  0.13417309510E+00  0.20065302967E-01 0.  0.
         14    1    1    2    0    0  0.97720119303E-02 -0.79723367957E-03 -0.20451781265E-01  0.22680457571E-01  0.00000000000E+00 0. -1.
     999901    1    3    3    0    0  0.12529106849E-01  0.29434682473E-01 -0.10715056861E+00  0.88707644733E+00  0.88000000000E+00 0. -1.
        -11    1    4    4    0    0 -0.24960618365E-02 -0.71107802390E-02  0.78300692833E-02  0.10879550831E-01  0.51100000000E-03 0.  1.
         11    1    4    4    0    0 -0.19805056943E-01 -0.21526668555E-01  0.11977228059E+00  0.12329354427E+00  0.51100000000E-03 0. -1.
</event>
<event>
 8    1  0.1132492E+005  0.1043930E+01  0.7957747E-01            NaN
         13   -1    0    0    0    0  0.00000000000E+00  0.00000000000E+00  0.74505805969E-08  0.10566000000E+00  0.10566000000E+00 0.  1.
     999900   -1    0    0    0    0 -0.00000000000E+00 -0.00000000000E+00 -0.74505805969E-08  0.93827000000E+00  0.93827000000E+00 0. -1.
     999902    2    1    2    0    0  0.15799124261E-01  0.13221151169E-01 -0.10350656016E-01  0.10208746916E+01  0.10206143193E+01 0.  0.
     999903    2    3    3    0    0 -0.43519726875E-01 -0.11944260037E+00  0.68599125689E-02  0.12879027813E+00  0.19477575047E-01 0.  0.
         14    1    1    2    0    0 -0.15799124261E-01 -0.13221151169E-01  0.10350656016E-01  0.23055308404E-01  0.00000000000E+00 0.  1.
     999901    1    3    3    0    0  0.59318851136E-01  0.13266375154E+00 -0.17210568585E-01  0.89208441346E+00  0.88000000000E+00 0. -1.
        -11    1    4    4    0    0 -0.34335145795E-01 -0.74074875691E-01 -0.19409818030E-02  0.81670178013E-01  0.51100000000E-03 0.  1.
         11    1    4    4    0    0 -0.91845810808E-02 -0.45367724682E-01  0.88008943719E-02  0.47120100119E-01  0.51100000000E-03 0. -1.
</event>
<event>
 8    1  0.1132492E+005  0.1043930E+01  0.7957747E-01            NaN
         13   -1    0    0    0    0  0.00000000000E+00  0.00000000000E+00  0.74505805969E-08  0.10566000000E+00  0.10566000000E+00 0.  1.
     999900   -1    0    0    0    0 -0.00000000000E+00 -0.00000000000E+00 -0.74505805969E-08  0.93827000000E+00  0.93827000000E+00 0.  1.
     999902    2    1    2    0    0  0.24687139047E-02 -0.11681851354E-01 -0.20513244431E-01  0.10201949332E+01  0.10199187950E+01 0.  0.
     999903    2    3    3    0    0  0.98926857625E-01  0.73399135031E-01  0.33525390538E-01  0.12920496590E+00  0.19900131171E-01 0.  0.
         14    1    1    2    0    0 -0.24687139047E-02  0.11681851354E-01  0.20513244431E-01  0.23735066811E-01  0.00000000000E+00 0.  1.
     999901    1    3    3    0    0 -0.96458143720E-01 -0.85080986386E-01 -0.54038634970E-01  0.89098996729E+00  0.88000000000E+00 0. -1.
        -11    1    4    4    0    0  0.96023147332E-01  0.72078789625E-01  0.28786150293E-01  0.12346943066E+00  0.51100000000E-03 0. -1.
         11    1    4    4    0    0  0.29037102925E-02  0.13203454063E-02  0.47392402445E-02  0.57355352453E-02  0.51100000000E-03 0.  1.
</event>
<event>
 8    1  0.1132492E+005  0.1043930E+01  0.7957747E-01            NaN
         13   -1    0    0    0    0  0.00000000000E+00  0.00000000000E+00  0.74505805969E-08  0.10566000000E+00  0.10566000000E+00 0.  1.
     999900   -1    0    0    0    0 -0.00000000000E+00 -0.00000000000E+00 -0.74505805969E-08  0.93827000000E+00  0.93827000000E+00 0.  1.
     999902    2    1    2    0    0 -0.16685255682E-01 -0.24056131816E-02 -0.15372233852E-01  0.10211157434E+01  0.10208608480E+01 0.  0.
     999903    2    3    3    0    0 -0.85254687666E-01 -0.71209197006E-01  0.67815589342E-01  0.13187116842E+00  0.21258866286E-01 0.  0.
         14    1    1    2    0    0  0.16685255682E-01  0.24056131816E-02  0.15372233852E-01  0.22814256630E-01  0.00000000000E+00 0.  1.
     999901    1    3    3    0    0  0.68569431983E-01  0.68803583824E-01 -0.83187823194E-01  0.88924457495E+00  0.88000000000E+00 0. -1.
        -11    1    4    4    0    0 -0.38072389669E-01 -0.23735655906E-01  0.37127443930E-01  0.58237414350E-01  0.51100000000E-03 0. -1.
         11    1    4    4    0    0 -0.47182297997E-01 -0.47473541099E-01  0.30688145412E-01  0.73633754071E-01  0.51100000000E-03 0.  1.
</event>
<event>
 8    1  0.1132492E+005  0.1043930E+01  0.7957747E-01            NaN
         13   -1    0    0    0    0  0.00000000000E+00  0.00000000000E+00  0.74505805969E-08  0.10566000000E+00  0.10566000000E+00 0. -1.
     999900   -1    0    0    0    0 -0.00000000000E+00 -0.00000000000E+00 -0.74505805969E-08  0.93827000000E+00  0.93827000000E+00 0. -1.
     999902    2    1    2    0    0  0.18872671025E-01  0.13745563708E-01  0.54876515981E-03  0.10205757846E+01  0.10203085380E+01 0.  0.
     999903    2    3    3    0    0  0.32643495041E-01 -0.12383320574E+00 -0.53061948681E-02  0.12976052096E+00  0.20233054212E-01 0.  0.
         14    1    1    2    0    0 -0.18872671025E-01 -0.13745563708E-01 -0.54876515981E-03  0.23354215390E-01  0.00000000000E+00 0. -1.
     999901    1    3    3    0    0 -0.13770824016E-01  0.13757876945E+00  0.58549600279E-02  0.89081526365E+00  0.88000000000E+00 0. -1.
        -11    1    4    4    0    0  0.26658305665E-01 -0.72922868596E-01  0.36054830745E-02  0.77728184428E-01  0.51100000000E-03 0.  1.
         11    1    4    4    0    0  0.59851893764E-02 -0.50910337145E-01 -0.89116779425E-02  0.52032336531E-01  0.51100000000E-03 0. -1.
</event>
<event>
 8    1  0.1132492E+005  0.1043930E+01  0.7957747E-01            NaN
         13   -1    0    0    0    0  0.00000000000E+00  0.00000000000E+00  0.74505805969E-08  0.10566000000E+00  0.10566000000E+00 0.  1.
     999900   -1    0    0    0    0 -0.00000000000E+00 -0.00000000000E+00 -0.74505805969E-08  0.93827000000E+00  0.93827000000E+00 0.  1.
     999902    2    1    2    0    0 -0.18308775769E-01  0.66351649324E-02 -0.12571443929E-01  0.10207507445E+01  0.10204875327E+01 0.  0.
     999903    2    3    3    0    0  0.56146901744E-01 -0.25750004869E-01 -0.11400101424E+00  0.13121131035E+00  0.20115650428E-01 0.  0.
         14    1    1    2    0    0  0.18308775769E-01 -0.66351649324E-02  0.12571443929E-01  0.23179255517E-01  0.00000000000E+00 0.  1.
     999901    1    3    3    0    0 -0.74455677513E-01  0.32385169802E-01  0.10142957031E+00  0.88953943413E+00  0.88000000000E+00 0. -1.
        -11    1    4    4    0    0  0.31437874047E-01 -0.33726104113E-02 -0.55788518390E-01  0.64127484987E-01  0.51100000000E-03 0.  1.
         11    1    4    4    0    0  0.24709027697E-01 -0.22377394458E-01 -0.58212495845E-01  0.67083825368E-01  0.51100000000E-03 0. -1.
</event>
<event>
 8    1  0.1132492E+005  0.1043930E+01  0.7957747E-01            NaN
         13   -1    0    0    0    0  0.00000000000E+00  0.00000000000E+00  0.74505805969E-08  0.10566000000E+00  0.10566000000E+00 0. -1.
     999900   -1    0    0    0    0 -0.00000000000E+00 -0.00000000000E+00 -0.74505805969E-08  0.93827000000E+00  0.93827000000E+00 0. -1.
     999902    2    1    2    0    0  0.37749629623E-02 -0.46234082362E-02 -0.22961347506E-01  0.10202055458E+01  0.10199296573E+01 0.  0.
     999903    2    3    3    0    0  0.26924942116E-01 -0.91051203378E-01 -0.91111025438E-01  0.13304712480E+00  0.19622546100E-01 0.  0.
         14    1    1    2    0    0 -0.37749629623E-02  0.46234082362E-02  0.22961347506E-01  0.23724454227E-01  0.00000000000E+00 0. -1.
     999901    1    3    3    0    0 -0.23149979153E-01  0.86427795142E-01  0.68149677932E-01  0.88715842098E+00  0.88000000000E+00 0.  1.
        -11    1    4    4    0    0  0.14332390990E-03 -0.29201595768E-01 -0.32848571507E-01  0.43955016871E-01  0.51100000000E-03 0. -1.
         11    1    4    4    0    0  0.26781618206E-01 -0.61849607611E-01 -0.58262453931E-01  0.89092107924E-01  0.51100000000E-03 0.  1.
</event>
<event>
 8    1  0.1132492E+005  0.1043930E+01  0.7957747E-01            NaN
         13   -1    0    0    0    0  0.00000000000E+00  0.00000000000E+00  0.74505805969E-08  0.10566000000E+00  0.10566000000E+00 0. -1.
     999900   -1    0    0    0    0 -0.00000000000E+00 -0.00000000000E+00 -0.74505805969E-08  0.93827000000E+00  0.93827000000E+00 0. -1.
     999902    2    1    2    0    0 -0.58255566000E-02 -0.22633145288E-01  0.27288101579E-02  0.10204003850E+01  0.10201290619E+01 0.  0.
     999903    2    3    3    0    0  0.28573475224E-01  0.12231229749E+00 -0.13379992515E-01  0.12773473190E+00  0.18984096744E-01 0.  0.
         14    1    1    2    0    0  0.58255566000E-02  0.22633145288E-01 -0.27288101579E-02  0.23529614961E-01  0.00000000000E+00 0.  1.
     999901    1    3    3    0    0 -0.34399031824E-01 -0.14494544278E+00  0.16108802673E-01  0.89266565314E+00  0.88000000000E+00 0. -1.
        -11    1    4    4    0    0  0.21781266232E-01  0.74888981836E-01 -0.16511646998E-01  0.79722511042E-01  0.51100000000E-03 0. -1.
         11    1    4    4    0    0  0.67922089914E-02  0.47423315656E-01  0.31316544833E-02  0.48012220857E-01  0.51100000000E-03 0.  1.
</event>
<event>
 8    1  0.1132492E+005  0.1043930E+01  0.7957747E-01            NaN
         13   -1    0    0    0    0  0.00000000000E+00  0.00000000000E+00  0.74505805969E-08  0.10566000000E+00  0.10566000000E+00 0.  1.
     999900   -1    0    0    0    0 -0.00000000000E+00 -0.00000000000E+00 -0.74505805969E-08  0.93827000000E+00  0.93827000000E+00 0.  1.
     999902    2    1    2    0    0  0.19426091805E-02  0.22272984426E-01  0.73361743956E-02  0.10203996150E+01  0.10201282739E+01 0.  0.
     999903    2    3    3    0    0 -0.42904151343E-01 -0.85381601212E-01 -0.82896916627E-01  0.12813129631E+00  0.20370230238E-01 0.  0.
         14    1    1    2    0    0 -0.19426091805E-02 -0.22272984426E-01 -0.73361743956E-02  0.23530385047E-01  0.00000000000E+00 0.  1.
     999901    1    3    3    0    0  0.44846760524E-01  0.10765458564E+00  0.90233091022E-01  0.89226831864E+00  0.88000000000E+00 0. -1.
        -11    1    4    4    0    0 -0.29875165237E-01 -0.36816676789E-01 -0.40601201125E-01  0.62423648095E-01  0.51100000000E-03 0.  1.
         11    1    4    4    0    0 -0.13028986106E-01 -0.48564924423E-01 -0.42295715502E-01  0.65707648215E-01  0.51100000000E-03 0. -1.
</event>
<event>
 8    1  0.1132492E+005  0.1043930E+01  0.7957747E-01            NaN
         13   -1    0    0    0    0  0.00000000000E+00  0.00000000000E+00  0.74505805969E-08  0.10566000000E+00  0.10566000000E+00 0. -1.
     999900   -1    0    0    0    0 -0.00000000000E+00 -0.00000000000E+00 -0.74505805969E-08  0.93827000000E+00  0.93827000000E+00 0.  1.
     999902    2    1    2    0    0 -0.18409258789E-01 -0.15567847969E-01 -0.19450673259E-02  0.10197423588E+01  0.10194554607E+01 0.  0.
     999903    2    3    3    0    0 -0.11563904488E+00 -0.55176594053E-02 -0.60695411171E-01  0.13238322041E+00  0.20941605533E-01 0.  0.
         14    1    1    2    0    0  0.18409258789E-01  0.15567847969E-01  0.19450673259E-02  0.24187641193E-01  0.00000000000E+00 0.  1.
     999901    1    3    3    0    0  0.97229786093E-01 -0.10050188564E-01  0.58750343846E-01  0.88735913840E+00  0.88000000000E+00 0.  1.
        -11    1    4    4    0    0 -0.70821735481E-01 -0.13462678412E-01 -0.38853338640E-01  0.81895085146E-01  0.51100000000E-03 0. -1.
         11    1    4    4    0    0 -0.44817309402E-01  0.79450190070E-02 -0.21842072531E-01  0.50488135265E-01  0.51100000000E-03 0.  1.
</event>
<event>
 8    1  0.1132492E+005  0.1043930E+01  0.7957747E-01            NaN
         13   -1    0    0    0    0  0.00000000000E+00  0.00000000000E+00  0.74505805969E-08  0.10566000000E+00  0.10566000000E+00 0.  1.
     999900   -1    0    0    0    0 -0.00000000000E+00 -0.00000000000E+00 -0.74505805969E-08  0.93827000000E+00  0.93827000000E+00 0.  1.
     999902    2    1    2    0    0 -0.18955496132E-01 -0.51286167206E-02 -0.13415082348E-01  0.10201481166E+01  0.10198708751E+01 0.  0.
     999903    2    3    3    0    0 -0.69490554133E-01  0.44144111998E-01  0.99059801468E-01  0.13018621104E+00  0.18919977271E-01 0.  0.
         14    1    1    2    0    0  0.18955496132E-01  0.51286167206E-02  0.13415082348E-01  0.23781883388E-01  0.00000000000E+00 0. -1.
     999901    1    3    3    0    0  0.50535058001E-01 -0.49272728719E-01 -0.11247488382E+00  0.88996190557E+00  0.88000000000E+00 0.  1.
        -11    1    4    4    0    0 -0.16375997962E-01  0.13258504692E-01  0.14186152688E-01  0.25406087952E-01  0.51100000000E-03 0. -1.
         11    1    4    4    0    0 -0.53114556171E-01  0.30885607307E-01  0.84873648780E-01  0.10478012309E+00  0.51100000000E-03 0.  1.
</event>
<event>
 8    1  0.1132492E+005  0.1043930E+01  0.7957747E-01            NaN
         13   -1    0    0    0    0  0.00000000000E+00  0.00000000000E+00  0.74505805969E-08  0.10566000000E+00  0.10566000000E+00 0.  1.
     999900   -1    0    0    0    0 -0.00000000000E+00 -0.00000000000E+00 -0.74505805969E-08  0.93827000000E+00  0.93827000000E+00 0.  1.
     999902    2    1    2    0    0  0.60802367651E-02 -0.33111574842E-02 -0.25445967258E-01  0.10175589876E+01  0.10172172153E+01 0.  0.
     999903    2    3    3    0    0  0.63744174636E-01  0.10574820660E+00 -0.31892569639E-01  0.12893047510E+00  0.18971779378E-01 0.  0.
         14    1    1    2    0    0 -0.60802367651E-02  0.33111574842E-02  0.25445967258E-01  0.26371012356E-01  0.00000000000E+00 0.  1.
     999901    1    3    3    0    0 -0.57663937871E-01 -0.10905936408E+00  0.64466023809E-02  0.88862851254E+00  0.88000000000E+00 0.  1.
        -11    1    4    4    0    0  0.59197062929E-01  0.89316630682E-01 -0.32144836163E-01  0.11187182125E+00  0.51100000000E-03 0.  1.
         11    1    4    4    0    0  0.45471117069E-02  0.16431575915E-01  0.25226652376E-03  0.17058653854E-01  0.51100000000E-03 0. -1.
</event>
<event>
 8    1  0.1132492E+005  0.1043930E+01  0.7957747E-01            NaN
         13   -1    0    0    0    0  0.00000000000E+00  0.00000000000E+00  0.74505805969E-08  0.10566000000E+00  0.10566000000E+00 0.  1.
     999900   -1    0    0    0    0 -0.00000000000E+00 -0.00000000000E+00 -0.74505805969E-08  0.93827000000E+00  0.93827000000E+00 0. -1.
     999902    2    1    2    0    0 -0.11893772285E-01 -0.11111958767E-01  0.11564966343E-01  0.10239628797E+01  0.10237681833E+01 0.  0.
     999903    2    3    3    0    0  0.60058507652E-01  0.10391024413E+00  0.53092653823E-01  0.13259775441E+00  0.18946540765E-01 0.  0.
         14    1    1    2    0    0  0.11893772285E-01  0.11111958767E-01 -0.11564966343E-01  0.19967120306E-01  0.00000000000E+00 0. -1.
     999901    1    3    3    0    0 -0.71952279937E-01 -0.11502220290E+00 -0.41527687480E-01  0.89136512529E+00  0.88000000000E+00 0. -1.
        -11    1    4    4    0    0  0.56310435635E-01  0.10222058828E+00  0.53596743476E-01  0.12842424173E+00  0.51100000000E-03 0.  1.
         11    1    4    4    0    0  0.37480720165E-02  0.16896558485E-02 -0.50408965337E-03  0.41735126819E-02  0.51100000000E-03 0. -1.
</event>
<event>
 8    1  0.1132492E+005  0.1043930E+01  0.7957747E-01            NaN
         13   -1    0    0    0    0  0.00000000000E+00  0.00000000000E+00  0.74505805969E-08  0.10566000000E+00  0.10566000000E+00 0.  1.
     999900   -1    0    0    0    0 -0.00000000000E+00 -0.00000000000E+00 -0.74505805969E-08  0.93827000000E+00  0.93827000000E+00 0.  1.
     999902    2    1    2    0    0  0.14293100725E-01  0.44484907624E-02 -0.17002676695E-01  0.10212766821E+01  0.10210254103E+01 0.  0.
     999903    2    3    3    0    0 -0.12405409755E+00  0.26362188373E-01 -0.21983663190E-01  0.13018467356E+00  0.19503427590E-01 0.  0.
         14    1    1    2    0    0 -0.14293100725E-01 -0.44484907624E-02  0.17002676695E-01  0.22653317929E-01  0.00000000000E+00 0.  1.
     999901    1    3    3    0    0  0.13834719827E+00 -0.21913697611E-01  0.49809864944E-02  0.89109200851E+00  0.88000000000E+00 0.  1.
        -11    1    4    4    0    0 -0.90116189543E-01  0.10405906929E-01 -0.17806303458E-01  0.92447477416E-01  0.51100000000E-03 0.  1.
         11    1    4    4    0    0 -0.33937908004E-01  0.15956281444E-01 -0.41773597312E-02  0.37737196140E-01  0.51100000000E-03 0. -1.
</event>
<event>
 8    1  0.1132492E+005  0.1043930E+01  0.7957747E-01            NaN
         13   -1    0    0    0    0  0.00000000000E+00  0.00000000000E+00  0.74505805969E-08  0.10566000000E+00  0.10566000000E+00 0. -1.
     999900   -1    0    0    0    0 -0.00000000000E+00 -0.00000000000E+00 -0.74505805969E-08  0.93827000000E+00  0.93827000000E+00 0. -1.
     999902    2    1    2    0    0 -0.89558154060E-02 -0.22152891117E-01  0.19530102829E-02  0.10199556082E+01  0.10196738063E+01 0.  0.
     999903    2    3    3    0    0  0.42148213855E-02  0.21267286766E-01 -0.12618637754E+00  0.12951836713E+00  0.19543370787E-01 0.  0.
         14    1    1    2    0    0  0.89558154060E-02  0.22152891117E-01 -0.19530102829E-02  0.23974391829E-01  0.00000000000E+00 0.  1.
     999901    1    3    3    0    0 -0.13170636792E-01 -0.43420177883E-01  0.12813938782E+00  0.89043724104E+00  0.88000000000E+00 0.  1.
        -11    1    4    4    0    0  0.44491579340E-02  0.24884028711E-01 -0.11506670302E+00  0.11781178700E+00  0.51100000000E-03 0.  1.
         11    1    4    4    0    0 -0.23433654846E-03 -0.36167419450E-02 -0.11119674516E-01  0.11706580126E-01  0.51100000000E-03 0. -1.
</event>
<event>
 8    1  0.1132492E+005  0.1043930E+01  0.7957747E-01            NaN
         13   -1    0    0    0    0  0.00000000000E+00  0.00000000000E+00  0.74505805969E-08  0.10566000000E+00  0.10566000000E+00 0. -1.
     999900   -1    0    0    0    0 -0.00000000000E+00 -0.00000000000E+00 -0.74505805969E-08  0.93827000000E+00  0.93827000000E+00 0.  1.
     999902    2    1    2    0    0 -0.67497701462E-02 -0.12396362182E-01  0.74946476742E-02  0.10279487943E+01  0.10278245593E+01 0.  0.
     999903    2    3    3    0    0  0.65100367183E-01  0.11712079966E+00 -0.15034940111E-02  0.13552619036E+00  0.20242239427E-01 0.  0.
         14    1    1    2    0    0  0.67497701462E-02  0.12396362182E-01 -0.74946476742E-02  0.15981205716E-01  0.00000000000E+00 0.  1.
     999901    1    3    3    0    0 -0.71850137329E-01 -0.12951716185E+00  0.89981416853E-02  0.89242260393E+00  0.88000000000E+00 0. -1.
        -11    1    4    4    0    0  0.12860386862E-01  0.25940260289E-01 -0.85790398274E-02  0.30201783051E-01  0.51100000000E-03 0.  1.
         11    1    4    4    0    0  0.52239980321E-01  0.91180539375E-01  0.70755458164E-02  0.10532440731E+00  0.51100000000E-03 0. -1.
</event>
<event>
 8    1  0.1132492E+005  0.1043930E+01  0.7957747E-01            NaN
         13   -1    0    0    0    0  0.00000000000E+00  0.00000000000E+00  0.74505805969E-08  0.10566000000E+00  0.10566000000E+00 0.  1.
     999900   -1    0    0    0    0 -0.00000000000E+00 -0.00000000000E+00 -0.74505805969E-08  0.93827000000E+00  0.93827000000E+00 0. -1.
     999902    2    1    2    0    0  0.91893997138E-02 -0.30838045402E-01  0.17946377361E-01  0.10070856982E+01  0.10064114969E+01 0.  0.
     999903    2    3    3    0    0 -0.26419894934E-01 -0.93847459753E-01 -0.66726604788E-01  0.12006387097E+00  0.21390109277E-01 0.  0.
         14    1    1    2    0    0 -0.91893997138E-02  0.30838045402E-01 -0.17946377361E-01  0.36844301754E-01  0.00000000000E+00 0. -1.
     999901    1    3    3    0    0  0.35609294648E-01  0.63009414351E-01  0.84672982150E-01  0.88702182728E+00  0.88000000000E+00 0.  1.
        -11    1    4    4    0    0 -0.85289504885E-02 -0.33165104729E-01 -0.36144998922E-01  0.49793465798E-01  0.51100000000E-03 0. -1.
         11    1    4    4    0    0 -0.17890944446E-01 -0.60682355024E-01 -0.30581605866E-01  0.70270405170E-01  0.51100000000E-03 0.  1.
</event>
<event>
 8    1  0.1132492E+005  0.1043930E+01  0.7957747E-01            NaN
         13   -1    0    0    0    0  0.00000000000E+00  0.00000000000E+00  0.74505805969E-08  0.10566000000E+00  0.10566000000E+00 0.  1.
     999900   -1    0    0    0    0 -0.00000000000E+00 -0.00000000000E+00 -0.74505805969E-08  0.93827000000E+00  0.93827000000E+00 0.  1.
     999902    2    1    2    0    0  0.57998371176E-02 -0.20411027162E-01 -0.91042680180E-02  0.10208402656E+01  0.10205791062E+01 0.  0.
     999903    2    3    3    0    0 -0.77963089408E-01 -0.10524615022E+00  0.66844176463E-02  0.13266094326E+00  0.19981215688E-01 0.  0.
         14    1    1    2    0    0 -0.57998371176E-02  0.20411027162E-01  0.91042680180E-02  0.23089734441E-01  0.00000000000E+00 0. -1.
     999901    1    3    3    0    0  0.83762926525E-01  0.84835123061E-01 -0.15788685664E-01  0.88817932230E+00  0.88000000000E+00 0.  1.
        -11    1    4    4    0    0 -0.13178122146E-01 -0.26170092233E-01 -0.51388801906E-02  0.29752409001E-01  0.51100000000E-03 0. -1.
         11    1    4    4    0    0 -0.64784967261E-01 -0.79076057991E-01  0.11823297837E-01  0.10290853426E+00  0.51100000000E-03 0.  1.
</event>
<event>
 8    1  0.1132492E+005  0.1043930E+01  0.7957747E-01            NaN
         13   -1    0    0    0    0  0.00000000000E+00  0.00000000000E+00  0.74505805969E-08  0.10566000000E+00  0.10566000000E+00 0. -1.
     999900   -1    0    0    0    0 -0.00000000000E+00 -0.00000000000E+00 -0.74505805969E-08  0.93827000000E+00  0.93827000000E+00 0. -1.
     999902    2    1    2    0    0  0.14234126505E-02  0.22764222816E-01 -0.61674318439E-02  0.10203021952E+01  0.10200285763E+01 0.  0.
     999903    2    3    3    0    0 -0.94407533166E-01 -0.32017825046E-01 -0.83288138967E-01  0.13005939326E+00  0.63724597698E-02 0.  0.
         14    1    1    2    0    0 -0.14234126505E-02 -0.22764222816E-01  0.61674318439E-02  0.23627804797E-01  0.00000000000E+00 0.  1.
     999901    1    3    3    0    0  0.95830945816E-01  0.54782047862E-01  0.77120707123E-01  0.89024280194E+00  0.88000000000E+00 0.  1.
        -11    1    4    4    0    0 -0.49459672037E-01 -0.13913981642E-01 -0.40784231427E-01  0.65600858967E-01  0.51100000000E-03 0.  1.
         11    1    4    4    0    0 -0.44947861129E-01 -0.18103843404E-01 -0.42503907540E-01  0.64458534293E-01  0.51100000000E-03 0. -1.
</event>
<event>
 8    1  0.1132492E+005  0.1043930E+01  0.7957747E-01            NaN
         13   -1    0    0    0    0  0.00000000000E+00  0.00000000000E+00  0.74505805969E-08  0.10566000000E+00  0.10566000000E+00 0.  1.
     999900   -1    0    0    0    0 -0.00000000000E+00 -0.00000000000E+00 -0.74505805969E-08  0.93827000000E+00  0.93827000000E+00 0. -1.
     999902    2    1    2    0    0  0.21961120663E-01 -0.27038469302E-01 -0.23567829976E-02  0.10090169069E+01  0.10084127103E+01 0.  0.
     999903    2    3    3    0    0 -0.44066722404E-01 -0.11234539143E+00 -0.74125246519E-02  0.12241524464E+00  0.19162035324E-01 0.  0.
         14    1    1    2    0    0 -0.21961120663E-01  0.27038469302E-01  0.23567829976E-02  0.34913093089E-01  0.00000000000E+00 0. -1.
     999901    1    3    3    0    0  0.66027843067E-01  0.85306922133E-01  0.50557416543E-02  0.88660166227E+00  0.88000000000E+00 0. -1.
        -11    1    4    4    0    0 -0.96272855969E-02 -0.17997042490E-01 -0.81249628466E-02  0.21973946132E-01  0.51100000000E-03 0.  1.
         11    1    4    4    0    0 -0.34439436807E-01 -0.94348348945E-01  0.71243819477E-03  0.10044129850E+00  0.51100000000E-03 0. -1.
</event>
<event>
 8    1  0.1132492E+005  0.1043930E+01  0.7957747E-01            NaN
         13   -1    0    0    0    0  0.00000000000E+00  0.00000000000E+00  0.74505805969E-08  0.10566000000E+00  0.10566000000E+00 0. -1.
     999900   -1    0    0    0    0 -0.00000000000E+00 -0.00000000000E+00 -0.74505805969E-08  0.93827000000E+00  0.93827000000E+00 0.  1.
     999902    2    1    2    0    0  0.56567517531E-02  0.22985955537E-01 -0.68852497226E-02  0.10192772181E+01  0.10189790418E+01 0.  0.
     999903    2    3    3    0    0 -0.46619202677E-01 -0.40248322043E-01 -0.11093377752E+00  0.12935730854E+00  0.25174049993E-01 0.  0.
         14    1    1    2    0    0 -0.56567517531E-02 -0.22985955537E-01  0.68852497226E-02  0.24652781914E-01  0.00000000000E+00 0.  1.
     999901    1    3    3    0    0  0.52275954430E-01  0.63234277580E-01  0.10404852779E+00  0.88991990955E+00  0.88000000000E+00 0. -1.
        -11    1    4    4    0    0 -0.91382496998E-03 -0.13402287946E-01 -0.19917556365E-01  0.24029701846E-01  0.51100000000E-03 0. -1.
         11    1    4    4    0    0 -0.45705377707E-01 -0.26846034097E-01 -0.91016221150E-01  0.10532760669E+00  0.51100000000E-03 0.  1.
</event>
<event>
 8    1  0.1189623E+005  0.1043930E+01  0.7957747E-01            NaN
         13   -1    0    0    0    0  0.00000000000E+00  0.00000000000E+00  0.74505805969E-08  0.10566000000E+00  0.10566000000E+00 0.  1.
     999900   -1    0    0    0    0 -0.00000000000E+00 -0.00000000000E+00 -0.74505805969E-08  0.93827000000E+00  0.93827000000E+00 0. -1.
     999902    2    1    2    0    0 -0.81031341012E-02  0.20190018145E-01  0.13942344220E-01  0.10180903681E+01  0.10177624040E+01 0.  0.
     999903    2    3    3    0    0 -0.12350747523E+00 -0.28534255394E-01 -0.11660349783E-01  0.12885040344E+00  0.19954010675E-01 0.  0.
         14    1    1    2    0    0  0.81031341012E-02 -0.20190018145E-01 -0.13942344220E-01  0.25839631911E-01  0.00000000000E+00 0.  1.
     999901    1    3    3    0    0  0.11540434113E+00  0.48724273539E-01  0.25602694003E-01  0.88923996465E+00  0.88000000000E+00 0. -1.
        -11    1    4    4    0    0 -0.88102972643E-01 -0.28999055511E-01 -0.11275954011E-01  0.93437076522E-01  0.51100000000E-03 0. -1.
         11    1    4    4    0    0 -0.35404502586E-01  0.46480011712E-03 -0.38439577163E-03  0.35413326921E-01  0.51100000000E-03 0.  1.
</event>
<event>
 8    1  0.1132492E+005  0.1043930E+01  0.7957747E-01            NaN
         13   -1    0    0    0    0  0.00000000000E+00  0.00000000000E+00  0.74505805969E-08  0.10566000000E+00  0.10566000000E+00 0.  1.
     999900   -1    0    0    0    0 -0.00000000000E+00 -0.00000000000E+00 -0.74505805969E-08  0.93827000000E+00  0.93827000000E+00 0.  1.
     999902    2    1    2    0    0 -0.64267871226E-02 -0.60214996787E-02 -0.21445978860E-01  0.10207461250E+01  0.10204828071E+01 0.  0.
     999903    2    3    3    0    0 -0.10241990240E+00  0.49433769876E-01 -0.65536506618E-01  0.13269548469E+00  0.19481374347E-01 0.  0.
         14    1    1    2    0    0  0.64267871226E-02  0.60214996787E-02  0.21445978860E-01  0.23183875007E-01  0.00000000000E+00 0.  1.
     999901    1    3    3    0    0  0.95993115275E-01 -0.55455269555E-01  0.44090527758E-01  0.88805064030E+00  0.88000000000E+00 0. -1.
        -11    1    4    4    0    0 -0.24418527722E-01  0.32435804363E-02 -0.16191828604E-01  0.29482566793E-01  0.51100000000E-03 0. -1.
         11    1    4    4    0    0 -0.78001374676E-01  0.46190189440E-01 -0.49344678014E-01  0.10321291790E+00  0.51100000000E-03 0.  1.
</event>
<event>
 8    1  0.1132492E+005  0.1043930E+01  0.7957747E-01            NaN
         13   -1    0    0    0    0  0.00000000000E+00  0.00000000000E+00  0.74505805969E-08  0.10566000000E+00  0.10566000000E+00 0. -1.
     999900   -1    0    0    0    0 -0.00000000000E+00 -0.00000000000E+00 -0.74505805969E-08  0.93827000000E+00  0.93827000000E+00 0. -1.
     999902    2    1    2    0    0  0.18766553393E-01 -0.12378574922E-01  0.66485036633E-02  0.10204861257E+01  0.10202167992E+01 0.  0.
     999903    2    3    3    0    0  0.61608507145E-01 -0.11057320831E+00  0.37099220612E-01  0.13346590875E+00  0.20365512040E-01 0.  0.
         14    1    1    2    0    0 -0.18766553393E-01  0.12378574922E-01 -0.66485036633E-02  0.23443874345E-01  0.00000000000E+00 0. -1.
     999901    1    3    3    0    0 -0.42841953752E-01  0.98194633389E-01 -0.30450716949E-01  0.88702021690E+00  0.88000000000E+00 0. -1.
        -11    1    4    4    0    0  0.38638632774E-01 -0.81610984784E-01  0.33545259379E-01  0.96326747729E-01  0.51100000000E-03 0. -1.
         11    1    4    4    0    0  0.22969874371E-01 -0.28962223527E-01  0.35539612325E-02  0.37139161025E-01  0.51100000000E-03 0.  1.
</event>
<event>
 8    1  0.1132492E+005  0.1043930E+01  0.7957747E-01            NaN
         13   -1    0    0    0    0  0.00000000000E+00  0.00000000000E+00  0.74505805969E-08  0.10566000000E+00  0.10566000000E+00 0.  1.
     999900   -1    0    0    0    0 -0.00000000000E+00 -0.00000000000E+00 -0.74505805969E-08  0.93827000000E+00  0.93827000000E+00 0.  1.
     999902    2    1    2    0    0 -0.13452506061E-01 -0.19143528419E-01 -0.25636889280E-02  0.10203924321E+01  0.10201209235E+01 0.  0.
     999903    2    3    3    0    0  0.28918087801E-01  0.53851289320E-01  0.11188417072E+00  0.12897680337E+00  0.19512329103E-01 0.  0.
         14    1    1    2    0    0  0.13452506061E-01  0.19143528419E-01  0.25636889280E-02  0.23537567856E-01  0.00000000000E+00 0.  1.
     999901    1    3    3    0    0 -0.42370593862E-01 -0.72994817739E-01 -0.11444785965E+00  0.89141562877E+00  0.88000000000E+00 0.  1.
        -11    1    4    4    0    0  0.44912489427E-02  0.75994102260E-02  0.34190267493E-01  0.35315122328E-01  0.51100000000E-03 0. -1.
         11    1    4    4    0    0  0.24426838858E-01  0.46251879094E-01  0.77693903227E-01  0.93661681044E-01  0.51100000000E-03 0.  1.
</event>
<event>
 8    1  0.1132492E+005  0.1043930E+01  0.7957747E-01            NaN
         13   -1    0    0    0    0  0.00000000000E+00  0.00000000000E+00  0.74505805969E-08  0.10566000000E+00  0.10566000000E+00 0. -1.
     999900   -1    0    0    0    0 -0.00000000000E+00 -0.00000000000E+00 -0.74505805969E-08  0.93827000000E+00  0.93827000000E+00 0.  1.
     999902    2    1    2    0    0  0.15586790923E-01 -0.80678012775E-02 -0.14340043329E-01  0.10212656158E+01  0.10210140957E+01 0.  0.
     999903    2    3    3    0    0 -0.12466532185E+00  0.13115415917E-01  0.23783768660E-01  0.12909253345E+00  0.19640721285E-01 0.  0.
         14    1    1    2    0    0 -0.15586790923E-01  0.80678012775E-02  0.14340043329E-01  0.22664384205E-01  0.00000000000E+00 0. -1.
     999901    1    3    3    0    0  0.14025211277E+00 -0.21183217195E-01 -0.38123811989E-01  0.89217308235E+00  0.88000000000E+00 0. -1.
        -11    1    4    4    0    0 -0.16933949813E-01  0.75212552838E-02 -0.38679647794E-03  0.18540190664E-01  0.51100000000E-03 0.  1.
         11    1    4    4    0    0 -0.10773137204E+00  0.55941606334E-02  0.24170565138E-01  0.11055234278E+00  0.51100000000E-03 0. -1.
</event>
<event>
 8    1  0.1132492E+005  0.1043930E+01  0.7957747E-01            NaN
         13   -1    0    0    0    0  0.00000000000E+00  0.00000000000E+00  0.74505805969E-08  0.10566000000E+00  0.10566000000E+00 0.  1.
     999900   -1    0    0    0    0 -0.00000000000E+00 -0.00000000000E+00 -0.74505805969E-08  0.93827000000E+00  0.93827000000E+00 0.  1.
     999902    2    1    2    0    0  0.20455727797E-01  0.14345859559E-02 -0.11086742819E-01  0.10206188288E+01  0.10203525778E+01 0.  0.
     999903    2    3    3    0    0 -0.72546317795E-01 -0.86425460577E-01 -0.61337575977E-01  0.12994834287E+00  0.19797604076E-01 0.  0.
         14    1    1    2    0    0 -0.20455727797E-01 -0.14345859559E-02  0.11086742819E-01  0.23311171204E-01  0.00000000000E+00 0.  1.
     999901    1    3    3    0    0  0.93002045592E-01  0.87860046533E-01  0.50250833158E-01  0.89067048592E+00  0.88000000000E+00 0. -1.
        -11    1    4    4    0    0 -0.52119900306E-01 -0.67486674684E-01 -0.36990333474E-01  0.92948809348E-01  0.51100000000E-03 0.  1.
         11    1    4    4    0    0 -0.20426417490E-01 -0.18938785893E-01 -0.24347242503E-01  0.36999533525E-01  0.51100000000E-03 0. -1.
</event>
<event>
 8    1  0.1132492E+005  0.1043930E+01  0.7957747E-01            NaN
         13   -1    0    0    0    0  0.00000000000E+00  0.00000000000E+00  0.74505805969E-08  0.10566000000E+00  0.10566000000E+00 0.  1.
     999900   -1    0    0    0    0 -0.00000000000E+00 -0.00000000000E+00 -0.74505805969E-08  0.93827000000E+00  0.93827000000E+00 0.  1.
     999902    2    1    2    0    0  0.73824726525E-02 -0.20548760474E-01  0.10385428706E-01  0.10197512989E+01  0.10194646153E+01 0.  0.
     999903    2    3    3    0    0 -0.54551167696E-01 -0.11504814583E+00  0.29029103024E-01  0.13233172716E+00  0.21379696826E-01 0.  0.
         14    1    1    2    0    0 -0.73824726525E-02  0.20548760474E-01 -0.10385428706E-01  0.24178701141E-01  0.00000000000E+00 0. -1.
     999901    1    3    3    0    0  0.61933640348E-01  0.94499385352E-01 -0.18643674318E-01  0.88741957170E+00  0.88000000000E+00 0.  1.
        -11    1    4    4    0    0 -0.12116212847E-01 -0.33996818351E-01  0.17516825918E-01  0.40120899579E-01  0.51100000000E-03 0. -1.
         11    1    4    4    0    0 -0.42434954849E-01 -0.81051327474E-01  0.11512277106E-01  0.92210827583E-01  0.51100000000E-03 0.  1.
</event>
<event>
 8    1  0.1132492E+005  0.1043930E+01  0.7957747E-01            NaN
         13   -1    0    0    0    0  0.00000000000E+00  0.00000000000E+00  0.74505805969E-08  0.10566000000E+00  0.10566000000E+00 0. -1.
     999900   -1    0    0    0    0 -0.00000000000E+00 -0.00000000000E+00 -0.74505805969E-08  0.93827000000E+00  0.93827000000E+00 0. -1.
     999902    2    1    2    0    0  0.48303953957E-02 -0.20469370656E-01 -0.99798182372E-02  0.10206507254E+01  0.10203852109E+01 0.  0.
     999903    2    3    3    0    0 -0.12488601385E+00 -0.11409638406E-01 -0.31451226930E-01  0.13083644871E+00  0.20057425838E-01 0.  0.
         14    1    1    2    0    0 -0.48303953957E-02  0.20469370656E-01  0.99798182372E-02  0.23279274619E-01  0.00000000000E+00 0. -1.
     999901    1    3    3    0    0  0.12971640925E+00 -0.90597322499E-02  0.21471408693E-01  0.88981427667E+00  0.88000000000E+00 0. -1.
        -11    1    4    4    0    0 -0.40484923988E-01  0.31449808297E-02 -0.35812637075E-02  0.40767714499E-01  0.51100000000E-03 0. -1.
         11    1    4    4    0    0 -0.84401089863E-01 -0.14554619236E-01 -0.27869963223E-01  0.90068734210E-01  0.51100000000E-03 0.  1.
</event>
<event>
 8    1  0.1132492E+005  0.1043930E+01  0.7957747E-01            NaN
         13   -1    0    0    0    0  0.00000000000E+00  0.00000000000E+00  0.74505805969E-08  0.10566000000E+00  0.10566000000E+00 0. -1.
     999900   -1    0    0    0    0 -0.00000000000E+00 -0.00000000000E+00 -0.74505805969E-08  0.93827000000E+00  0.93827000000E+00 0. -1.
     999902    2    1    2    0    0 -0.60087417331E-02 -0.15977402919E-01 -0.14061945322E-01  0.10218139269E+01  0.10215745595E+01 0.  0.
     999903    2    3    3    0    0  0.76031321227E-01  0.53416375326E-01 -0.91448685260E-01  0.13190675431E+00  0.20061376710E-01 0.  0.
         14    1    1    2    0    0  0.60087417331E-02  0.15977402919E-01  0.14061945322E-01  0.22116073058E-01  0.00000000000E+00 0.  1.
     999901    1    3    3    0    0 -0.82040062960E-01 -0.69393778246E-01  0.77386739938E-01  0.88990717264E+00  0.88000000000E+00 0.  1.
        -11    1    4    4    0    0  0.30695495694E-01  0.32064869725E-01 -0.50085838739E-01  0.66926987752E-01  0.51100000000E-03 0.  1.
         11    1    4    4    0    0  0.45335825533E-01  0.21351505601E-01 -0.41362846521E-01  0.64979766555E-01  0.51100000000E-03 0. -1.
</event>
<event>
 8    1  0.1132492E+005  0.1043930E+01  0.7957747E-01            NaN
         13   -1    0    0    0    0  0.00000000000E+00  0.00000000000E+00  0.74505805969E-08  0.10566000000E+00  0.10566000000E+00 0. -1.
     999900   -1    0    0    0    0 -0.00000000000E+00 -0.00000000000E+00 -0.74505805969E-08  0.93827000000E+00  0.93827000000E+00 0.  1.
     999902    2    1    2    0    0  0.22604220384E-01 -0.38920507355E-02 -0.10856421871E-01  0.10185536186E+01  0.10182374542E+01 0.  0.
     999903    2    3    3    0    0 -0.74951169326E-01 -0.85399178716E-01  0.53460139839E-01  0.12709577545E+00  0.19612548950E-01 0.  0.
         14    1    1    2    0    0 -0.22604220384E-01  0.38920507355E-02  0.10856421871E-01  0.25376381420E-01  0.00000000000E+00 0. -1.
     999901    1    3    3    0    0  0.97555389710E-01  0.81507127980E-01 -0.64316561710E-01  0.89145784313E+00  0.88000000000E+00 0.  1.
        -11    1    4    4    0    0 -0.62142259563E-01 -0.75292882587E-01  0.38467874247E-01  0.10493196397E+00  0.51100000000E-03 0. -1.
         11    1    4    4    0    0 -0.12808909763E-01 -0.10106296129E-01  0.14992265593E-01  0.22163811481E-01  0.51100000000E-03 0.  1.
</event>
<event>
 8    1  0.1132492E+005  0.1043930E+01  0.7957747E-01            NaN
         13   -1    0    0    0    0  0.00000000000E+00  0.00000000000E+00  0.74505805969E-08  0.10566000000E+00  0.10566000000E+00 0.  1.
     999900   -1    0    0    0    0 -0.00000000000E+00 -0.00000000000E+00 -0.74505805969E-08  0.93827000000E+00  0.93827000000E+00 0.  1.
     999902    2    1    2    0    0  0.16678735010E-01  0.10794944630E-02 -0.18237944349E-01  0.10191920105E+01  0.10188917441E+01 0.  0.
     999903    2    3    3    0    0 -0.12340535112E+00 -0.18827390742E-01  0.15068008260E-01  0.12726761812E+00  0.19663428545E-01 0.  0.
         14    1    1    2    0    0 -0.16678735010E-01 -0.10794944630E-02  0.18237944349E-01  0.24737989488E-01  0.00000000000E+00 0.  1.
     999901    1    3    3    0    0  0.14008408613E+00  0.19906885205E-01 -0.33305952609E-01  0.89192439239E+00  0.88000000000E+00 0.  1.
        -11    1    4    4    0    0 -0.66497790810E-01 -0.19891559591E-01  0.66531078642E-02  0.69729156677E-01  0.51100000000E-03 0. -1.
         11    1    4    4    0    0 -0.56907560308E-01  0.10641688489E-02  0.84149003956E-02  0.57538461443E-01  0.51100000000E-03 0.  1.
</event>
<event>
 8    1  0.1132492E+005  0.1043930E+01  0.7957747E-01            NaN
         13   -1    0    0    0    0  0.00000000000E+00  0.00000000000E+00  0.74505805969E-08  0.10566000000E+00  0.10566000000E+00 0.  1.
     999900   -1    0    0    0    0 -0.00000000000E+00 -0.00000000000E+00 -0.74505805969E-08  0.93827000000E+00  0.93827000000E+00 0.  1.
     999902    2    1    2    0    0  0.18782549564E-01  0.62105216339E-02 -0.12434337777E-01  0.10205640525E+01  0.10202965342E+01 0.  0.
     999903    2    3    3    0    0 -0.34217912318E-01  0.57826666152E-01  0.10855282446E+00  0.12921049258E+00  0.19921015350E-01 0.  0.
         14    1    1    2    0    0 -0.18782549564E-01 -0.62105216339E-02  0.12434337777E-01  0.23365947510E-01  0.00000000000E+00 0.  1.
     999901    1    3    3    0    0  0.53000461882E-01 -0.51616144519E-01 -0.12098716224E+00  0.89135355991E+00  0.88000000000E+00 0.  1.
        -11    1    4    4    0    0 -0.16429227227E-01  0.26506792938E-01  0.68944530809E-01  0.75671256290E-01  0.51100000000E-03 0.  1.
         11    1    4    4    0    0 -0.17788685091E-01  0.31319873215E-01  0.39608293655E-01  0.53539236292E-01  0.51100000000E-03 0. -1.
</event>
<event>
 8    1  0.1132492E+005  0.1043930E+01  0.7957747E-01            NaN
         13   -1    0    0    0    0  0.00000000000E+00  0.00000000000E+00  0.74505805969E-08  0.10566000000E+00  0.10566000000E+00 0.  1.
     999900   -1    0    0    0    0 -0.00000000000E+00 -0.00000000000E+00 -0.74505805969E-08  0.93827000000E+00  0.93827000000E+00 0. -1.
     999902    2    1    2    0    0 -0.13365764842E-01 -0.21566069249E-02  0.18283723426E-01  0.10211794140E+01  0.10209259554E+01 0.  0.
     999903    2    3    3    0    0  0.18727819916E-01  0.54075932392E-01 -0.11383057942E+00  0.12896515399E+00  0.19991809093E-01 0.  0.
         14    1    1    2    0    0  0.13365764842E-01  0.21566069249E-02 -0.18283723426E-01  0.22750586048E-01  0.00000000000E+00 0. -1.
     999901    1    3    3    0    0 -0.32093584757E-01 -0.56232539317E-01  0.13211430284E+00  0.89221425996E+00  0.88000000000E+00 0.  1.
        -11    1    4    4    0    0  0.13723411936E-03  0.39002674591E-02 -0.24648423839E-01  0.24960705884E-01  0.51100000000E-03 0. -1.
         11    1    4    4    0    0  0.18590585796E-01  0.50175664933E-01 -0.89182155578E-01  0.10400444811E+00  0.51100000000E-03 0.  1.
</event>
<event>
 8    1  0.1132492E+005  0.1043930E+01  0.7957747E-01            NaN
         13   -1    0    0    0    0  0.00000000000E+00  0.00000000000E+00  0.74505805969E-08  0.10566000000E+00  0.10566000000E+00 0. -1.
     999900   -1    0    0    0    0 -0.00000000000E+00 -0.00000000000E+00 -0.74505805969E-08  0.93827000000E+00  0.93827000000E+00 0. -1.
     999902    2    1    2    0    0  0.12396464784E-01 -0.11060445770E-01  0.20317392633E-01  0.10176849577E+01  0.10173464852E+01 0.  0.
     999903    2    3    3    0    0  0.55268162164E-01  0.29034848119E-01  0.11328528800E+00  0.13084300756E+00  0.19716591927E-01 0.  0.
         14    1    1    2    0    0 -0.12396464784E-01  0.11060445770E-01 -0.20317392633E-01  0.26245042259E-01  0.00000000000E+00 0.  1.
     999901    1    3    3    0    0 -0.42871697379E-01 -0.40095293888E-01 -0.92967895364E-01  0.88684195018E+00  0.88000000000E+00 0. -1.
        -11    1    4    4    0    0  0.35078317293E-01  0.73728904018E-02  0.61205610026E-01  0.70931203829E-01  0.51100000000E-03 0. -1.
         11    1    4    4    0    0  0.20189844870E-01  0.21661957717E-01  0.52079677971E-01  0.59911803734E-01  0.51100000000E-03 0.  1.
</event>
<event>
 8    1  0.1132492E+005  0.1043930E+01  0.7957747E-01            NaN
         13   -1    0    0    0    0  0.00000000000E+00  0.00000000000E+00  0.74505805969E-08  0.10566000000E+00  0.10566000000E+00 0. -1.
     999900   -1    0    0    0    0 -0.00000000000E+00 -0.00000000000E+00 -0.74505805969E-08  0.93827000000E+00  0.93827000000E+00 0.  1.
     999902    2    1    2    0    0 -0.13875633842E-01  0.17709253900E-01 -0.60010297273E-02  0.10206456008E+01  0.10203799680E+01 0.  0.
     999903    2    3    3    0    0 -0.64847928267E-01 -0.54691843507E-01 -0.98288457957E-01  0.13140037978E+00  0.20223434219E-01 0.  0.
         14    1    1    2    0    0  0.13875633842E-01 -0.17709253900E-01  0.60010297273E-02  0.23284399198E-01  0.00000000000E+00 0. -1.
     999901    1    3    3    0    0  0.50972294425E-01  0.72401097407E-01  0.92287428230E-01  0.88924522102E+00  0.88000000000E+00 0. -1.
        -11    1    4    4    0    0 -0.35117921534E-01 -0.18688667932E-01 -0.36824001227E-01  0.54210726884E-01  0.51100000000E-03 0.  1.
         11    1    4    4    0    0 -0.29730006733E-01 -0.36003175575E-01 -0.61464456730E-01  0.77189652895E-01  0.51100000000E-03 0. -1.
</event>
<event>
 8    1  0.1132492E+005  0.1043930E+01  0.7957747E-01            NaN
         13   -1    0    0    0    0  0.00000000000E+00  0.00000000000E+00  0.74505805969E-08  0.10566000000E+00  0.10566000000E+00 0.  1.
     999900   -1    0    0    0    0 -0.00000000000E+00 -0.00000000000E+00 -0.74505805969E-08  0.93827000000E+00  0.93827000000E+00 0.  1.
     999902    2    1    2    0    0 -0.32355937084E-02 -0.73896137716E-02  0.24598850178E-01  0.10180421865E+01  0.10177129824E+01 0.  0.
     999903    2    3    3    0    0 -0.74739886228E-01 -0.67229352866E-01  0.82057903190E-01  0.13125292122E+00  0.19697547369E-01 0.  0.
         14    1    1    2    0    0  0.32355937084E-02  0.73896137716E-02 -0.24598850178E-01  0.25887813512E-01  0.00000000000E+00 0. -1.
     999901    1    3    3    0    0  0.71504292520E-01  0.59839739094E-01 -0.57459053012E-01  0.88678926527E+00  0.88000000000E+00 0.  1.
        -11    1    4    4    0    0 -0.45126861146E-01 -0.35436214836E-01  0.35042815776E-01  0.67234061139E-01  0.51100000000E-03 0. -1.
         11    1    4    4    0    0 -0.29613025082E-01 -0.31793138030E-01  0.47015087414E-01  0.64018860079E-01  0.51100000000E-03 0.  1.
</event>
<event>
 8    1  0.1132492E+005  0.1043930E+01  0.7957747E-01            NaN
         13   -1    0    0    0    0  0.00000000000E+00  0.00000000000E+00  0.74505805969E-08  0.10566000000E+00  0.10566000000E+00 0.  1.
     999900   -1    0    0    0    0 -0.00000000000E+00 -0.00000000000E+00 -0.74505805969E-08  0.93827000000E+00  0.93827000000E+00 0. -1.
     999902    2    1    2    0    0 -0.17593547109E-01 -0.42021212436E-03  0.15225861698E-01  0.10206590666E+01  0.10203937445E+01 0.  0.
     999903    2    3    3    0    0 -0.20159664201E-01  0.12700082876E+00 -0.14709311785E-01  0.13097439140E+00  0.20057536813E-01 0.  0.
         14    1    1    2    0    0  0.17593547109E-01  0.42021212436E-03 -0.15225861698E-01  0.23270933427E-01  0.00000000000E+00 0.  1.
     999901    1    3    3    0    0  0.25661170919E-02 -0.12742104089E+00  0.29935173483E-01  0.88968467517E+00  0.88000000000E+00 0.  1.
        -11    1    4    4    0    0 -0.23826126718E-01  0.11250713490E+00 -0.10777902005E-01  0.11550741972E+00  0.51100000000E-03 0.  1.
         11    1    4    4    0    0  0.36664625165E-02  0.14493693863E-01 -0.39314097799E-02  0.15466971683E-01  0.51100000000E-03 0. -1.
</event>
<event>
 8    1  0.1132492E+005  0.1043930E+01  0.7957747E-01            NaN
         13   -1    0    0    0    0  0.00000000000E+00  0.00000000000E+00  0.74505805969E-08  0.10566000000E+00  0.10566000000E+00 0. -1.
     999900   -1    0    0    0    0 -0.00000000000E+00 -0.00000000000E+00 -0.74505805969E-08  0.93827000000E+00  0.93827000000E+00 0.  1.
     999902    2    1    2    0    0 -0.19230061157E-01  0.33845769053E-02 -0.11497356095E-01  0.10212707897E+01  0.10210193858E+01 0.  0.
     999903    2    3    3    0    0  0.10460095606E+00  0.30742007639E-01  0.65239929301E-01  0.12887448718E+00  0.21585968291E-01 0.  0.
         14    1    1    2    0    0  0.19230061157E-01 -0.33845769053E-02  0.11497356095E-01  0.22659210271E-01  0.00000000000E+00 0. -1.
     999901    1    3    3    0    0 -0.12383101722E+00 -0.27357430733E-01 -0.76737285396E-01  0.89239630255E+00  0.88000000000E+00 0.  1.
        -11    1    4    4    0    0  0.22265583952E-01  0.36072055490E-03  0.20908470498E-01  0.30550149060E-01  0.51100000000E-03 0. -1.
         11    1    4    4    0    0  0.82335372110E-01  0.30381287084E-01  0.44331458803E-01  0.98324338116E-01  0.51100000000E-03 0.  1.
</event>
<event>
 8    1  0.1132492E+005  0.1043930E+01  0.7957747E-01            NaN
         13   -1    0    0    0    0  0.00000000000E+00  0.00000000000E+00  0.74505805969E-08  0.10566000000E+00  0.10566000000E+00 0. -1.
     999900   -1    0    0    0    0 -0.00000000000E+00 -0.00000000000E+00 -0.74505805969E-08  0.93827000000E+00  0.93827000000E+00 0.  1.
     999902    2    1    2    0    0  0.81824974880E-02 -0.18663743486E-01  0.12751656906E-01  0.10198905878E+01  0.10196072370E+01 0.  0.
     999903    2    3    3    0    0  0.67797130319E-01 -0.10994658338E+00 -0.22307195278E-01  0.13246983953E+00  0.19129698062E-01 0.  0.
         14    1    1    2    0    0 -0.81824974880E-02  0.18663743486E-01 -0.12751656906E-01  0.24039412220E-01  0.00000000000E+00 0. -1.
     999901    1    3    3    0    0 -0.59614632831E-01  0.91282839893E-01  0.35058852184E-01  0.88742074825E+00  0.88000000000E+00 0. -1.
        -11    1    4    4    0    0  0.41279583737E-01 -0.60632821123E-01 -0.36263039981E-02  0.73442182924E-01  0.51100000000E-03 0.  1.
         11    1    4    4    0    0  0.26517546582E-01 -0.49313762256E-01 -0.18680891280E-01  0.59027656607E-01  0.51100000000E-03 0. -1.
</event>
<event>
 8    1  0.1132492E+005  0.1043930E+01  0.7957747E-01            NaN
         13   -1    0    0    0    0  0.00000000000E+00  0.00000000000E+00  0.74505805969E-08  0.10566000000E+00  0.10566000000E+00 0.  1.
     999900   -1    0    0    0    0 -0.00000000000E+00 -0.00000000000E+00 -0.74505805969E-08  0.93827000000E+00  0.93827000000E+00 0.  1.
     999902    2    1    2    0    0 -0.19569793435E-01  0.22711888250E-02 -0.84776599718E-02  0.10224822534E+01  0.10222572831E+01 0.  0.
     999903    2    3    3    0    0 -0.62731271299E-01  0.60397264863E-01  0.98558773449E-01  0.13304515507E+00  0.20103220175E-01 0.  0.
         14    1    1    2    0    0  0.19569793435E-01 -0.22711888250E-02  0.84776599718E-02  0.21447746557E-01  0.00000000000E+00 0.  1.
     999901    1    3    3    0    0  0.43161477864E-01 -0.58126076038E-01 -0.10703643342E+00  0.88943709838E+00  0.88000000000E+00 0.  1.
        -11    1    4    4    0    0 -0.27450210837E-01  0.25043700474E-01  0.27691421765E-01  0.46344114716E-01  0.51100000000E-03 0. -1.
         11    1    4    4    0    0 -0.35281060462E-01  0.35353564389E-01  0.70867351684E-01  0.86701040352E-01  0.51100000000E-03 0.  1.
</event>
<event>
 8    1  0.1132492E+005  0.1043930E+01  0.7957747E-01            NaN
         13   -1    0    0    0    0  0.00000000000E+00  0.00000000000E+00  0.74505805969E-08  0.10566000000E+00  0.10566000000E+00 0. -1.
     999900   -1    0    0    0    0 -0.00000000000E+00 -0.00000000000E+00 -0.74505805969E-08  0.93827000000E+00  0.93827000000E+00 0. -1.
     999902    2    1    2    0    0 -0.98899410714E-02  0.15749684805E-01 -0.13490526925E-01  0.10209548434E+01  0.10206962988E+01 0.  0.
     999903    2    3    3    0    0  0.98408321740E-01  0.82536009401E-01  0.92845691697E-02  0.13151252827E+00  0.26701146619E-01 0.  0.
         14    1    1    2    0    0  0.98899410714E-02 -0.15749684805E-01  0.13490526925E-01  0.22975156638E-01  0.00000000000E+00 0. -1.
     999901    1    3    3    0    0 -0.10829826281E+00 -0.66786324596E-01 -0.22775096094E-01  0.88944231510E+00  0.88000000000E+00 0.  1.
        -11    1    4    4    0    0  0.39280734806E-01  0.23662202125E-01  0.13967617042E-01  0.47939872582E-01  0.51100000000E-03 0.  1.
         11    1    4    4    0    0  0.59127586933E-01  0.58873807276E-01 -0.46830478724E-02  0.83572655684E-01  0.51100000000E-03 0. -1.
</event>
<event>
 8    1  0.1132492E+005  0.1043930E+01  0.7957747E-01            NaN
         13   -1    0    0    0    0  0.00000000000E+00  0.00000000000E+00  0.74505805969E-08  0.10566000000E+00  0.10566000000E+00 0. -1.
     999900   -1    0    0    0    0 -0.00000000000E+00 -0.00000000000E+00 -0.74505805969E-08  0.93827000000E+00  0.93827000000E+00 0.  1.
     999902    2    1    2    0    0  0.13085422847E-01 -0.14075688573E-01 -0.68347112710E-02  0.10235322899E+01  0.10233290194E+01 0.  0.
     999903    2    3    3    0    0 -0.71760219368E-01  0.72811322129E-02 -0.10955379095E+00  0.13324800600E+00  0.23461756578E-01 0.  0.
         14    1    1    2    0    0 -0.13085422847E-01  0.14075688573E-01  0.68347112710E-02  0.20397710118E-01  0.00000000000E+00 0. -1.
     999901    1    3    3    0    0  0.84845642216E-01 -0.21356820786E-01  0.10271907968E+00  0.89028428388E+00  0.88000000000E+00 0. -1.
        -11    1    4    4    0    0 -0.42208706122E-01 -0.41648689243E-02 -0.48309014048E-01  0.64287969053E-01  0.51100000000E-03 0.  1.
         11    1    4    4    0    0 -0.29551513247E-01  0.11446001137E-01 -0.61244776900E-01  0.68960036947E-01  0.51100000000E-03 0. -1.
</event>
<event>
 8    1  0.1132492E+005  0.1043930E+01  0.7957747E-01            NaN
         13   -1    0    0    0    0  0.00000000000E+00  0.00000000000E+00  0.74505805969E-08  0.10566000000E+00  0.10566000000E+00 0.  1.
     999900   -1    0    0    0    0 -0.00000000000E+00 -0.00000000000E+00 -0.74505805969E-08  0.93827000000E+00  0.93827000000E+00 0.  1.
     999902    2    1    2    0    0 -0.14716225478E-01  0.17547240588E-01  0.66421696450E-02  0.10200848461E+01  0.10198061100E+01 0.  0.
     999903    2    3    3    0    0  0.47399795693E-01  0.58710614810E-01 -0.10402619486E+00  0.13002849380E+00  0.19806136917E-01 0.  0.
         14    1    1    2    0    0  0.14716225478E-01 -0.17547240588E-01 -0.66421696450E-02  0.23845153851E-01  0.00000000000E+00 0. -1.
     999901    1    3    3    0    0 -0.62116021170E-01 -0.41163374222E-01  0.11066836450E+00  0.89005635235E+00  0.88000000000E+00 0. -1.
        -11    1    4    4    0    0  0.80211502766E-02  0.17193402860E-01 -0.39237606769E-01  0.43586728021E-01  0.51100000000E-03 0. -1.
         11    1    4    4    0    0  0.39378645416E-01  0.41517211950E-01 -0.64788588087E-01  0.86441765774E-01  0.51100000000E-03 0.  1.
</event>
<event>
 8    1  0.1132492E+005  0.1043930E+01  0.7957747E-01            NaN
         13   -1    0    0    0    0  0.00000000000E+00  0.00000000000E+00  0.74505805969E-08  0.10566000000E+00  0.10566000000E+00 0.  1.
     999900   -1    0    0    0    0 -0.00000000000E+00 -0.00000000000E+00 -0.74505805969E-08  0.93827000000E+00  0.93827000000E+00 0.  1.
     999902    2    1    2    0    0  0.35016505799E-02 -0.22405566441E-01 -0.59848314767E-02  0.10204760201E+01  0.10202064587E+01 0.  0.
     999903    2    3    3    0    0 -0.54232896153E-02 -0.86669046351E-01  0.97520246467E-01  0.13203764265E+00  0.19565401595E-01 0.  0.
         14    1    1    2    0    0 -0.35016505799E-02  0.22405566441E-01  0.59848314767E-02  0.23453979878E-01  0.00000000000E+00 0. -1.
     999901    1    3    3    0    0  0.89249401952E-02  0.64263479910E-01 -0.10350507794E+00  0.88843837747E+00  0.88000000000E+00 0.  1.
        -11    1    4    4    0    0  0.16476536067E-02 -0.16745581008E-01  0.30955061674E-01  0.35236432991E-01  0.51100000000E-03 0.  1.
         11    1    4    4    0    0 -0.70709432220E-02 -0.69923465343E-01  0.66565184793E-01  0.96801209657E-01  0.51100000000E-03 0. -1.
</event>
<event>
 8    1  0.1132492E+005  0.1043930E+01  0.7957747E-01            NaN
         13   -1    0    0    0    0  0.00000000000E+00  0.00000000000E+00  0.74505805969E-08  0.10566000000E+00  0.10566000000E+00 0.  1.
     999900   -1    0    0    0    0 -0.00000000000E+00 -0.00000000000E+00 -0.74505805969E-08  0.93827000000E+00  0.93827000000E+00 0. -1.
     999902    2    1    2    0    0  0.23121847107E-01  0.20225640780E-02  0.30290321821E-02  0.10205230434E+01  0.10202545744E+01 0.  0.
     999903    2    3    3    0    0  0.11224811369E+00  0.69028663028E-01 -0.27433473372E-02  0.13346801186E+00  0.21014016531E-01 0.  0.
         14    1    1    2    0    0 -0.23121847107E-01 -0.20225640780E-02 -0.30290321821E-02  0.23406956553E-01  0.00000000000E+00 0.  1.
     999901    1    3    3    0    0 -0.89126266579E-01 -0.67006098950E-01  0.57723795193E-02  0.88705503158E+00  0.88000000000E+00 0. -1.
        -11    1    4    4    0    0  0.29709767498E-01  0.90756048268E-02  0.34747930811E-02  0.31262952447E-01  0.51100000000E-03 0. -1.
         11    1    4    4    0    0  0.82538346189E-01  0.59953058201E-01 -0.62181404183E-02  0.10220505942E+00  0.51100000000E-03 0.  1.
</event>
<event>
 8    1  0.1132492E+005  0.1043930E+01  0.7957747E-01            NaN
         13   -1    0    0    0    0  0.00000000000E+00  0.00000000000E+00  0.74505805969E-08  0.10566000000E+00  0.10566000000E+00 0.  1.
     999900   -1    0    0    0    0 -0.00000000000E+00 -0.00000000000E+00 -0.74505805969E-08  0.93827000000E+00  0.93827000000E+00 0. -1.
     999902    2    1    2    0    0  0.46053910816E-03  0.15920089682E-01 -0.17443262783E-01  0.10203094842E+01  0.10200360360E+01 0.  0.
     999903    2    3    3    0    0 -0.87201063633E-01 -0.85139000048E-01 -0.39921555736E-01  0.12991475717E+00  0.20771102276E-01 0.  0.
         14    1    1    2    0    0 -0.46053910816E-03 -0.15920089682E-01  0.17443262783E-01  0.23620515834E-01  0.00000000000E+00 0.  1.
     999901    1    3    3    0    0  0.87661602741E-01  0.10105908973E+00  0.22478292953E-01  0.89039472700E+00  0.88000000000E+00 0. -1.
        -11    1    4    4    0    0 -0.23208715981E-01 -0.31525678902E-01 -0.51875204432E-02  0.39492840074E-01  0.51100000000E-03 0. -1.
         11    1    4    4    0    0 -0.63992347652E-01 -0.53613321145E-01 -0.34734035293E-01  0.90421917094E-01  0.51100000000E-03 0.  1.
</event>
<event>
 8    1  0.1132492E+005  0.1043930E+01  0.7957747E-01            NaN
         13   -1    0    0    0    0  0.00000000000E+00  0.00000000000E+00  0.74505805969E-08  0.10566000000E+00  0.10566000000E+00 0. -1.
     999900   -1    0    0    0    0 -0.00000000000E+00 -0.00000000000E+00 -0.74505805969E-08  0.93827000000E+00  0.93827000000E+00 0. -1.
     999902    2    1    2    0    0  0.19003753311E-01 -0.12694427655E-01 -0.71692380380E-02  0.10199781920E+01  0.10196969270E+01 0.  0.
     999903    2    3    3    0    0 -0.80358505459E-01  0.52146374182E-01 -0.83803757805E-01  0.12871502228E+00  0.19176897486E-01 0.  0.
         14    1    1    2    0    0 -0.19003753311E-01  0.12694427655E-01  0.71692380380E-02  0.23951808020E-01  0.00000000000E+00 0. -1.
     999901    1    3    3    0    0  0.99362258770E-01 -0.64840801837E-01  0.76634519767E-01  0.89126316970E+00  0.88000000000E+00 0.  1.
        -11    1    4    4    0    0 -0.15371536990E-01  0.10425449106E-01 -0.27301464205E-01  0.33024312366E-01  0.51100000000E-03 0.  1.
         11    1    4    4    0    0 -0.64986968469E-01  0.41720925076E-01 -0.56502293601E-01  0.95690709910E-01  0.51100000000E-03 0. -1.
</event>
<event>
 8    1  0.1132492E+005  0.1043930E+01  0.7957747E-01            NaN
         13   -1    0    0    0    0  0.00000000000E+00  0.00000000000E+00  0.74505805969E-08  0.10566000000E+00  0.10566000000E+00 0.  1.
     999900   -1    0    0    0    0 -0.00000000000E+00 -0.00000000000E+00 -0.74505805969E-08  0.93827000000E+00  0.93827000000E+00 0. -1.
     999902    2    1    2    0    0 -0.19289381539E-01  0.91764483944E-02  0.10894391646E-01  0.10199513592E+01  0.10196694562E+01 0.  0.
     999903    2    3    3    0    0  0.10187465100E+00 -0.45236863790E-01  0.60680501989E-01  0.12859273995E+00  0.20715962059E-01 0.  0.
         14    1    1    2    0    0  0.19289381539E-01 -0.91764483944E-02 -0.10894391646E-01  0.23978640801E-01  0.00000000000E+00 0. -1.
     999901    1    3    3    0    0 -0.12116403254E+00  0.54413312184E-01 -0.49786110343E-01  0.89135861925E+00  0.88000000000E+00 0.  1.
        -11    1    4    4    0    0  0.46311132799E-01 -0.97530082898E-02  0.22495380784E-01  0.52403678015E-01  0.51100000000E-03 0.  1.
         11    1    4    4    0    0  0.55563518203E-01 -0.35483855500E-01  0.38185121205E-01  0.76189061936E-01  0.51100000000E-03 0. -1.
</event>
<event>
 8    1  0.1132492E+005  0.1043930E+01  0.7957747E-01            NaN
         13   -1    0    0    0    0  0.00000000000E+00  0.00000000000E+00  0.74505805969E-08  0.10566000000E+00  0.10566000000E+00 0. -1.
     999900   -1    0    0    0    0 -0.00000000000E+00 -0.00000000000E+00 -0.74505805969E-08  0.93827000000E+00  0.93827000000E+00 0.  1.
     999902    2    1    2    0    0 -0.72524916144E-02  0.20829653576E-01  0.96385909866E-02  0.10198597790E+01  0.10195756928E+01 0.  0.
     999903    2    3    3    0    0 -0.74442127146E-01  0.49623662170E-01 -0.93440260045E-01  0.13083290000E+00  0.19545520824E-01 0.  0.
         14    1    1    2    0    0  0.72524916144E-02 -0.20829653576E-01 -0.96385909866E-02  0.24070220999E-01  0.00000000000E+00 0.  1.
     999901    1    3    3    0    0  0.67189635532E-01 -0.28794008593E-01  0.10307885103E+00  0.88902687900E+00  0.88000000000E+00 0. -1.
        -11    1    4    4    0    0 -0.20660308304E-01  0.46493594658E-02 -0.17493986079E-01  0.27472996789E-01  0.51100000000E-03 0.  1.
         11    1    4    4    0    0 -0.53781818843E-01  0.44974302704E-01 -0.75946273966E-01  0.10335990321E+00  0.51100000000E-03 0. -1.
</event>
<event>
 8    1  0.1132492E+005  0.1043930E+01  0.7957747E-01            NaN
         13   -1    0    0    0    0  0.00000000000E+00  0.00000000000E+00  0.74505805969E-08  0.10566000000E+00  0.10566000000E+00 0.  1.
     999900   -1    0    0    0    0 -0.00000000000E+00 -0.00000000000E+00 -0.74505805969E-08  0.93827000000E+00  0.93827000000E+00 0. -1.
     999902    2    1    2    0    0 -0.89531677877E-02 -0.21684472518E-01 -0.32678557795E-02  0.10202434122E+01  0.10199684140E+01 0.  0.
     999903    2    3    3    0    0  0.39219422307E-01 -0.11946196538E+00  0.37057777383E-01  0.13260204695E+00  0.20017485665E-01 0.  0.
         14    1    1    2    0    0  0.89531677877E-02  0.21684472518E-01  0.32678557795E-02  0.23686587834E-01  0.00000000000E+00 0. -1.
     999901    1    3    3    0    0 -0.48172590094E-01  0.97777492865E-01 -0.40325633163E-01  0.88764136521E+00  0.88000000000E+00 0. -1.
        -11    1    4    4    0    0  0.23335440264E-01 -0.62717606061E-01  0.29707049841E-01  0.73217558096E-01  0.51100000000E-03 0. -1.
         11    1    4    4    0    0  0.15883982043E-01 -0.56744359322E-01  0.73507275424E-02  0.59384488857E-01  0.51100000000E-03 0.  1.
</event>
<event>
 8    1  0.1132492E+005  0.1043930E+01  0.7957747E-01            NaN
         13   -1    0    0    0    0  0.00000000000E+00  0.00000000000E+00  0.74505805969E-08  0.10566000000E+00  0.10566000000E+00 0. -1.
     999900   -1    0    0    0    0 -0.00000000000E+00 -0.00000000000E+00 -0.74505805969E-08  0.93827000000E+00  0.93827000000E+00 0. -1.
     999902    2    1    2    0    0 -0.67545689527E-02  0.19840818843E-01  0.11172198966E-01  0.10201792037E+01  0.10199026951E+01 0.  0.
     999903    2    3    3    0    0  0.13338825597E-01  0.13052717487E+00  0.88120405089E-02  0.13301474080E+00  0.20000039133E-01 0.  0.
         14    1    1    2    0    0  0.67545689527E-02 -0.19840818843E-01 -0.11172198966E-01  0.23750796278E-01  0.00000000000E+00 0.  1.
     999901    1    3    3    0    0 -0.20093394550E-01 -0.11068635603E+00  0.23601584569E-02  0.88716446292E+00  0.88000000000E+00 0.  1.
        -11    1    4    4    0    0  0.17071093543E-01  0.71696178929E-01  0.70229088271E-02  0.74036117383E-01  0.51100000000E-03 0. -1.
         11    1    4    4    0    0 -0.37322679458E-02  0.58830995942E-01  0.17891316818E-02  0.58978623422E-01  0.51100000000E-03 0.  1.
</event>
<event>
 8    1  0.1132492E+005  0.1043930E+01  0.7957747E-01            NaN
         13   -1    0    0    0    0  0.00000000000E+00  0.00000000000E+00  0.74505805969E-08  0.10566000000E+00  0.10566000000E+00 0. -1.
     999900   -1    0    0    0    0 -0.00000000000E+00 -0.00000000000E+00 -0.74505805969E-08  0.93827000000E+00  0.93827000000E+00 0. -1.
     999902    2    1    2    0    0  0.18661682910E-01  0.11382242245E-02  0.14015359008E-01  0.10205636941E+01  0.10202961675E+01 0.  0.
     999903    2    3    3    0    0  0.14684513129E-01  0.10792298063E+00  0.72015859350E-01  0.13220404839E+00  0.20703181872E-01 0.  0.
         14    1    1    2    0    0 -0.18661682910E-01 -0.11382242245E-02 -0.14015359008E-01  0.23366305903E-01  0.00000000000E+00 0.  1.
     999901    1    3    3    0    0  0.39771697813E-02 -0.10678475640E+00 -0.58000500342E-01  0.88835964571E+00  0.88000000000E+00 0. -1.
        -11    1    4    4    0    0  0.24805197142E-02  0.65083532382E-01  0.52105461537E-01  0.83410187677E-01  0.51100000000E-03 0. -1.
         11    1    4    4    0    0  0.12203993415E-01  0.42839448246E-01  0.19910397813E-01  0.48793860713E-01  0.51100000000E-03 0.  1.
</event>
<event>
 8    1  0.1132492E+005  0.1043930E+01  0.7957747E-01            NaN
         13   -1    0    0    0    0  0.00000000000E+00  0.00000000000E+00  0.74505805969E-08  0.10566000000E+00  0.10566000000E+00 0. -1.
     999900   -1    0    0    0    0 -0.00000000000E+00 -0.00000000000E+00 -0.74505805969E-08  0.93827000000E+00  0.93827000000E+00 0. -1.
     999902    2    1    2    0    0 -0.91795326705E-02  0.24438908606E-01 -0.79349768291E-02  0.10166446939E+01  0.10162784784E+01 0.  0.
     999903    2    3    3    0    0  0.11542883741E+00 -0.17173015743E-02 -0.47847854667E-01  0.12658602667E+00  0.20195032060E-01 0.  0.
         14    1    1    2    0    0  0.91795326705E-02 -0.24438908606E-01  0.79349768291E-02  0.27285306140E-01  0.00000000000E+00 0. -1.
     999901    1    3    3    0    0 -0.12460837008E+00  0.26156210180E-01  0.39912877838E-01  0.89005866719E+00  0.88000000000E+00 0.  1.
        -11    1    4    4    0    0  0.57082802261E-01 -0.94915389399E-02 -0.18107108901E-01  0.60635502299E-01  0.51100000000E-03 0.  1.
         11    1    4    4    0    0  0.58346035153E-01  0.77742373655E-02 -0.29740745766E-01  0.65950524368E-01  0.51100000000E-03 0. -1.
</event>
<event>
 8    1  0.1132492E+005  0.1043930E+01  0.7957747E-01            NaN
         13   -1    0    0    0    0  0.00000000000E+00  0.00000000000E+00  0.74505805969E-08  0.10566000000E+00  0.10566000000E+00 0. -1.
     999900   -1    0    0    0    0 -0.00000000000E+00 -0.00000000000E+00 -0.74505805969E-08  0.93827000000E+00  0.93827000000E+00 0. -1.
     999902    2    1    2    0    0  0.10041276212E-01 -0.10161774391E-02 -0.20747088750E-01  0.10208583391E+01  0.10205975931E+01 0.  0.
     999903    2    3    3    0    0  0.59279845657E-01 -0.10156555401E+00  0.53314969028E-01  0.13067869306E+00  0.20118972004E-01 0.  0.
         14    1    1    2    0    0 -0.10041276212E-01  0.10161774391E-02  0.20747088750E-01  0.23071660889E-01  0.00000000000E+00 0. -1.
     999901    1    3    3    0    0 -0.49238569446E-01  0.10054937657E+00 -0.74062057778E-01  0.89017964606E+00  0.88000000000E+00 0.  1.
        -11    1    4    4    0    0  0.28363588535E-01 -0.31218455195E-01  0.23236961322E-01  0.48159138196E-01  0.51100000000E-03 0. -1.
         11    1    4    4    0    0  0.30916257123E-01 -0.70347098811E-01  0.30078007706E-01  0.82519554860E-01  0.51100000000E-03 0.  1.
</event>
<event>
 8    1  0.1132492E+005  0.1043930E+01  0.7957747E-01            NaN
         13   -1    0    0    0    0  0.00000000000E+00  0.00000000000E+00  0.74505805969E-08  0.10566000000E+00  0.10566000000E+00 0.  1.
     999900   -1    0    0    0    0 -0.00000000000E+00 -0.00000000000E+00 -0.74505805969E-08  0.93827000000E+00  0.93827000000E+00 0.  1.
     999902    2    1    2    0    0 -0.35145934702E-02 -0.83665427227E-02  0.21966227642E-01  0.10201630784E+01  0.10198861897E+01 0.  0.
     999903    2    3    3    0    0 -0.76739290762E-01 -0.10544265425E+00  0.29279092800E-02  0.13159789495E+00  0.17388537037E-01 0.  0.
         14    1    1    2    0    0  0.35145934702E-02  0.83665427227E-02 -0.21966227642E-01  0.23766921576E-01  0.00000000000E+00 0. -1.
     999901    1    3    3    0    0  0.73224697292E-01  0.97076111524E-01  0.19038318362E-01  0.88856518348E+00  0.88000000000E+00 0.  1.
        -11    1    4    4    0    0 -0.32768376711E-02 -0.73749261379E-02  0.40852954415E-02  0.90596887643E-02  0.51100000000E-03 0.  1.
         11    1    4    4    0    0 -0.73462453091E-01 -0.98067728109E-01 -0.11573861616E-02  0.12253820618E+00  0.51100000000E-03 0. -1.
</event>
<event>
 8    1  0.1132492E+005  0.1043930E+01  0.7957747E-01            NaN
         13   -1    0    0    0    0  0.00000000000E+00  0.00000000000E+00  0.74505805969E-08  0.10566000000E+00  0.10566000000E+00 0.  1.
     999900   -1    0    0    0    0 -0.00000000000E+00 -0.00000000000E+00 -0.74505805969E-08  0.93827000000E+00  0.93827000000E+00 0. -1.
     999902    2    1    2    0    0 -0.20412734802E-01 -0.14532392036E-01 -0.11430236368E-01  0.10163887498E+01  0.10160155364E+01 0.  0.
     999903    2    3    3    0    0 -0.12114470520E+00 -0.30915371753E-01  0.26758052911E-01  0.12966800607E+00  0.21587000562E-01 0.  0.
         14    1    1    2    0    0  0.20412734802E-01  0.14532392036E-01  0.11430236368E-01  0.27541250222E-01  0.00000000000E+00 0. -1.
     999901    1    3    3    0    0  0.10073197040E+00  0.16382979717E-01 -0.38188289279E-01  0.88672074371E+00  0.88000000000E+00 0.  1.
        -11    1    4    4    0    0 -0.83645978064E-01 -0.24399054049E-01  0.28181098713E-01  0.91577283922E-01  0.51100000000E-03 0. -1.
         11    1    4    4    0    0 -0.37498727137E-01 -0.65163177042E-02 -0.14230458018E-02  0.38090722147E-01  0.51100000000E-03 0.  1.
</event>
<event>
 8    1  0.1132492E+005  0.1043930E+01  0.7957747E-01            NaN
         13   -1    0    0    0    0  0.00000000000E+00  0.00000000000E+00  0.74505805969E-08  0.10566000000E+00  0.10566000000E+00 0. -1.
     999900   -1    0    0    0    0 -0.00000000000E+00 -0.00000000000E+00 -0.74505805969E-08  0.93827000000E+00  0.93827000000E+00 0.  1.
     999902    2    1    2    0    0 -0.20269359907E-01 -0.25372254988E-03 -0.12748063427E-01  0.10199837175E+01  0.10197025838E+01 0.  0.
     999903    2    3    3    0    0  0.11241627866E-01 -0.12511994594E+00  0.25549367207E-01  0.12978643074E+00  0.20257649717E-01 0.  0.
         14    1    1    2    0    0  0.20269359907E-01  0.25372254988E-03  0.12748063427E-01  0.23946282536E-01  0.00000000000E+00 0. -1.
     999901    1    3    3    0    0 -0.31510987773E-01  0.12486622339E+00 -0.38297430634E-01  0.89019728672E+00  0.88000000000E+00 0.  1.
        -11    1    4    4    0    0 -0.52972301760E-03 -0.80038413793E-01  0.22235597281E-01  0.83072926976E-01  0.51100000000E-03 0. -1.
         11    1    4    4    0    0  0.11771350884E-01 -0.45081532143E-01  0.33137699265E-02  0.46713503766E-01  0.51100000000E-03 0.  1.
</event>
<event>
 8    1  0.1132492E+005  0.1043930E+01  0.7957747E-01            NaN
         13   -1    0    0    0    0  0.00000000000E+00  0.00000000000E+00  0.74505805969E-08  0.10566000000E+00  0.10566000000E+00 0.  1.
     999900   -1    0    0    0    0 -0.00000000000E+00 -0.00000000000E+00 -0.74505805969E-08  0.93827000000E+00  0.93827000000E+00 0. -1.
     999902    2    1    2    0    0 -0.38527918202E-02 -0.22350449496E-01 -0.71544279287E-02  0.10201482331E+01  0.10198709943E+01 0.  0.
     999903    2    3    3    0    0  0.23532826793E-01  0.12000032107E+00  0.30009704602E-01  0.12751455307E+00  0.20137226289E-01 0.  0.
         14    1    1    2    0    0  0.38527918202E-02  0.22350449496E-01  0.71544279287E-02  0.23781766891E-01  0.00000000000E+00 0. -1.
     999901    1    3    3    0    0 -0.27385618613E-01 -0.14235077056E+00 -0.37164132531E-01  0.89263368004E+00  0.88000000000E+00 0. -1.
        -11    1    4    4    0    0 -0.15980727128E-02  0.32162579153E-01  0.12149204061E-01  0.34421644564E-01  0.51100000000E-03 0.  1.
         11    1    4    4    0    0  0.25130899506E-01  0.87837741912E-01  0.17860500541E-01  0.93092908510E-01  0.51100000000E-03 0. -1.
</event>
<event>
 8    1  0.1132492E+005  0.1043930E+01  0.7957747E-01            NaN
         13   -1    0    0    0    0  0.00000000000E+00  0.00000000000E+00  0.74505805969E-08  0.10566000000E+00  0.10566000000E+00 0.  1.
     999900   -1    0    0    0    0 -0.00000000000E+00 -0.00000000000E+00 -0.74505805969E-08  0.93827000000E+00  0.93827000000E+00 0. -1.
     999902    2    1    2    0    0 -0.74087168479E-02  0.36891944282E-02  0.24410507026E-01  0.10181545835E+01  0.10178282684E+01 0.  0.
     999903    2    3    3    0    0  0.12289696753E+00  0.19490116089E-01  0.23332048652E-01  0.12841844086E+00  0.21526314265E-01 0.  0.
         14    1    1    2    0    0  0.74087168479E-02 -0.36891944282E-02 -0.24410507026E-01  0.25775416469E-01  0.00000000000E+00 0. -1.
     999901    1    3    3    0    0 -0.13030568437E+00 -0.15800921661E-01  0.10784583739E-02  0.88973614267E+00  0.88000000000E+00 0. -1.
        -11    1    4    4    0    0  0.14599787322E-01  0.74496899164E-02  0.84301079959E-02  0.18438533334E-01  0.51100000000E-03 0.  1.
         11    1    4    4    0    0  0.10829718021E+00  0.12040426172E-01  0.14901940656E-01  0.10997990752E+00  0.51100000000E-03 0. -1.
</event>
<event>
 8    1  0.1132492E+005  0.1043930E+01  0.7957747E-01            NaN
         13   -1    0    0    0    0  0.00000000000E+00  0.00000000000E+00  0.74505805969E-08  0.10566000000E+00  0.10566000000E+00 0. -1.
     999900   -1    0    0    0    0 -0.00000000000E+00 -0.00000000000E+00 -0.74505805969E-08  0.93827000000E+00  0.93827000000E+00 0.  1.
     999902    2    1    2    0    0  0.48204940076E-02 -0.19338741397E-02  0.21675894966E-01  0.10216405080E+01  0.10213973302E+01 0.  0.
     999903    2    3    3    0    0  0.48582295359E-01 -0.70520329356E-01  0.10142315275E+00  0.13429681909E+00  0.20386844521E-01 0.  0.
         14    1    1    2    0    0 -0.48204940076E-02  0.19338741397E-02 -0.21675894966E-01  0.22289492014E-01  0.00000000000E+00 0.  1.
     999901    1    3    3    0    0 -0.43761801351E-01  0.68586455216E-01 -0.79747257785E-01  0.88734368889E+00  0.88000000000E+00 0.  1.
        -11    1    4    4    0    0  0.31020745102E-01 -0.28934661370E-01  0.56005087944E-01  0.70259036799E-01  0.51100000000E-03 0.  1.
         11    1    4    4    0    0  0.17561550257E-01 -0.41585667985E-01  0.45418064806E-01  0.64037782293E-01  0.51100000000E-03 0. -1.
</event>
<event>
 8    1  0.1132492E+005  0.1043930E+01  0.7957747E-01            NaN
         13   -1    0    0    0    0  0.00000000000E+00  0.00000000000E+00  0.74505805969E-08  0.10566000000E+00  0.10566000000E+00 0. -1.
     999900   -1    0    0    0    0 -0.00000000000E+00 -0.00000000000E+00 -0.74505805969E-08  0.93827000000E+00  0.93827000000E+00 0. -1.
     999902    2    1    2    0    0 -0.18089615003E-01  0.42220884130E-02 -0.14854907349E-01  0.10201449527E+01  0.10198676366E+01 0.  0.
     999903    2    3    3    0    0  0.88313481036E-01 -0.81292657022E-01  0.38968303601E-01  0.12799511746E+00  0.21364793204E-01 0.  0.
         14    1    1    2    0    0  0.18089615003E-01 -0.42220884130E-02  0.14854907349E-01  0.23785047275E-01  0.00000000000E+00 0. -1.
     999901    1    3    3    0    0 -0.10640309604E+00  0.85514745435E-01 -0.53823210951E-01  0.89214983527E+00  0.88000000000E+00 0. -1.
        -11    1    4    4    0    0  0.51276516275E-01 -0.35505242499E-01  0.26653465988E-01  0.67827514597E-01  0.51100000000E-03 0.  1.
         11    1    4    4    0    0  0.37036964761E-01 -0.45787414522E-01  0.12314837613E-01  0.60167602859E-01  0.51100000000E-03 0. -1.
</event>
<event>
 8    1  0.1132492E+005  0.1043930E+01  0.7957747E-01            NaN
         13   -1    0    0    0    0  0.00000000000E+00  0.00000000000E+00  0.74505805969E-08  0.10566000000E+00  0.10566000000E+00 0.  1.
     999900   -1    0    0    0    0 -0.00000000000E+00 -0.00000000000E+00 -0.74505805969E-08  0.93827000000E+00  0.93827000000E+00 0. -1.
     999902    2    1    2    0    0  0.17325919665E-01  0.10548874429E-01  0.13564102456E-01  0.10195281329E+01  0.10192360681E+01 0.  0.
     999903    2    3    3    0    0 -0.35195659535E-01  0.95326330320E-01 -0.76938189726E-01  0.12928299910E+00  0.21650984175E-01 0.  0.
         14    1    1    2    0    0 -0.17325919665E-01 -0.10548874429E-01 -0.13564102456E-01  0.24401867130E-01  0.00000000000E+00 0. -1.
     999901    1    3    3    0    0  0.52521579200E-01 -0.84777455891E-01  0.90502292183E-01  0.89024513377E+00  0.88000000000E+00 0.  1.
        -11    1    4    4    0    0 -0.15451021017E-01  0.21373612554E-01 -0.12336734070E-01  0.29120808584E-01  0.51100000000E-03 0.  1.
         11    1    4    4    0    0 -0.19744638518E-01  0.73952717766E-01 -0.64601455656E-01  0.10016219052E+00  0.51100000000E-03 0. -1.
</event>
<event>
 8    1  0.1132492E+005  0.1043930E+01  0.7957747E-01            NaN
         13   -1    0    0    0    0  0.00000000000E+00  0.00000000000E+00  0.74505805969E-08  0.10566000000E+00  0.10566000000E+00 0. -1.
     999900   -1    0    0    0    0 -0.00000000000E+00 -0.00000000000E+00 -0.74505805969E-08  0.93827000000E+00  0.93827000000E+00 0.  1.
     999902    2    1    2    0    0  0.67464435611E-02  0.22229108534E-01  0.24146737956E-02  0.10205745206E+01  0.10203072448E+01 0.  0.
     999903    2    3    3    0    0 -0.72220814515E-01 -0.69530169665E-01  0.78720564210E-01  0.12901511044E+00  0.19941939493E-01 0.  0.
         14    1    1    2    0    0 -0.67464435611E-02 -0.22229108534E-01 -0.24146737956E-02  0.23355479367E-01  0.00000000000E+00 0. -1.
     999901    1    3    3    0    0  0.78967258076E-01  0.91759278199E-01 -0.76305890414E-01  0.89155941019E+00  0.88000000000E+00 0.  1.
        -11    1    4    4    0    0 -0.15495310951E-01 -0.73402130545E-02  0.73781016380E-02  0.18672999061E-01  0.51100000000E-03 0. -1.
         11    1    4    4    0    0 -0.56725503563E-01 -0.62189956611E-01  0.71342462572E-01  0.11034211138E+00  0.51100000000E-03 0.  1.
</event>
<event>
 8    1  0.1132492E+005  0.1043930E+01  0.7957747E-01            NaN
         13   -1    0    0    0    0  0.00000000000E+00  0.00000000000E+00  0.74505805969E-08  0.10566000000E+00  0.10566000000E+00 0. -1.
     999900   -1    0    0    0    0 -0.00000000000E+00 -0.00000000000E+00 -0.74505805969E-08  0.93827000000E+00  0.93827000000E+00 0.  1.
     999902    2    1    2    0    0  0.26073862784E-01 -0.20059073970E-02  0.38884975078E-02  0.10174915735E+01  0.10171480284E+01 0.  0.
     999903    2    3    3    0    0  0.77981064828E-01  0.52747669674E-01 -0.86804053974E-01  0.12961914416E+00  0.20070267007E-01 0.  0.
         14    1    1    2    0    0 -0.26073862784E-01  0.20059073970E-02 -0.38884975078E-02  0.26438426538E-01  0.00000000000E+00 0.  1.
     999901    1    3    3    0    0 -0.51907202044E-01 -0.54753577071E-01  0.90692551482E-01  0.88787242931E+00  0.88000000000E+00 0. -1.
        -11    1    4    4    0    0  0.51750223627E-01  0.28610464890E-01 -0.42862892234E-01  0.73035149060E-01  0.51100000000E-03 0. -1.
         11    1    4    4    0    0  0.26230841201E-01  0.24137204784E-01 -0.43941161740E-01  0.56583995096E-01  0.51100000000E-03 0.  1.
</event>
<event>
 8    1  0.1132492E+005  0.1043930E+01  0.7957747E-01            NaN
         13   -1    0    0    0    0  0.00000000000E+00  0.00000000000E+00  0.74505805969E-08  0.10566000000E+00  0.10566000000E+00 0.  1.
     999900   -1    0    0    0    0 -0.00000000000E+00 -0.00000000000E+00 -0.74505805969E-08  0.93827000000E+00  0.93827000000E+00 0.  1.
     999902    2    1    2    0    0 -0.18131586805E-01  0.16273043337E-01  0.61397414942E-02  0.10188050561E+01  0.10184952035E+01 0.  0.
     999903    2    3    3    0    0 -0.41323404784E-02 -0.11659819520E+00 -0.46555236582E-01  0.12716190685E+00  0.19762214917E-01 0.  0.
         14    1    1    2    0    0  0.18131586805E-01 -0.16273043337E-01 -0.61397414942E-02  0.25124943883E-01  0.00000000000E+00 0. -1.
     999901    1    3    3    0    0 -0.13999246326E-01  0.13287123853E+00  0.52694978077E-01  0.89164314927E+00  0.88000000000E+00 0.  1.
        -11    1    4    4    0    0  0.67654705193E-03 -0.84518127991E-01 -0.42061118404E-01  0.94409588906E-01  0.51100000000E-03 0.  1.
         11    1    4    4    0    0 -0.48088875303E-02 -0.32080067206E-01 -0.44941181779E-02  0.32752317940E-01  0.51100000000E-03 0. -1.
</event>
<event>
 8    1  0.1132492E+005  0.1043930E+01  0.7957747E-01            NaN
         13   -1    0    0    0    0  0.00000000000E+00  0.00000000000E+00  0.74505805969E-08  0.10566000000E+00  0.10566000000E+00 0. -1.
     999900   -1    0    0    0    0 -0.00000000000E+00 -0.00000000000E+00 -0.74505805969E-08  0.93827000000E+00  0.93827000000E+00 0. -1.
     999902    2    1    2    0    0 -0.12139148379E-01 -0.84724543912E-02  0.17740161958E-01  0.10208247029E+01  0.10205631873E+01 0.  0.
     999903    2    3    3    0    0  0.51446780808E-01 -0.97383422201E-01 -0.66092456488E-01  0.13010800357E+00  0.20726254208E-01 0.  0.
         14    1    1    2    0    0  0.12139148379E-01  0.84724543912E-02 -0.17740161958E-01  0.23105297078E-01  0.00000000000E+00 0. -1.
     999901    1    3    3    0    0 -0.63585929186E-01  0.88910967810E-01  0.83832618446E-01  0.89071669935E+00  0.88000000000E+00 0.  1.
        -11    1    4    4    0    0  0.22617642534E-01 -0.23396131740E-01 -0.21958053808E-01  0.39260081281E-01  0.51100000000E-03 0. -1.
         11    1    4    4    0    0  0.28829138274E-01 -0.73987290462E-01 -0.44134402680E-01  0.90847922290E-01  0.51100000000E-03 0.  1.
</event>
<event>
 8    1  0.1132492E+005  0.1043930E+01  0.7957747E-01            NaN
         13   -1    0    0    0    0  0.00000000000E+00  0.00000000000E+00  0.74505805969E-08  0.10566000000E+00  0.10566000000E+00 0.  1.
     999900   -1    0    0    0    0 -0.00000000000E+00 -0.00000000000E+00 -0.74505805969E-08  0.93827000000E+00  0.93827000000E+00 0.  1.
     999902    2    1    2    0    0  0.16028489268E-01  0.31695502138E-03 -0.10540307366E-01  0.10247437808E+01  0.10245641538E+01 0.  0.
     999903    2    3    3    0    0 -0.11498680210E+00  0.60906413890E-01 -0.18878906632E-01  0.13294468830E+00  0.19655053359E-01 0.  0.
         14    1    1    2    0    0 -0.16028489268E-01 -0.31695502138E-03  0.10540307366E-01  0.19186219223E-01  0.00000000000E+00 0.  1.
     999901    1    3    3    0    0  0.13101529137E+00 -0.60589458869E-01  0.83385992654E-02  0.89179909247E+00  0.88000000000E+00 0. -1.
        -11    1    4    4    0    0 -0.67700711506E-01  0.46371957174E-01 -0.13789591728E-01  0.83211529920E-01  0.51100000000E-03 0.  1.
         11    1    4    4    0    0 -0.47286090594E-01  0.14534456716E-01 -0.50893149035E-02  0.49733158384E-01  0.51100000000E-03 0. -1.
</event>
<event>
 8    1  0.1132492E+005  0.1043930E+01  0.7957747E-01            NaN
         13   -1    0    0    0    0  0.00000000000E+00  0.00000000000E+00  0.74505805969E-08  0.10566000000E+00  0.10566000000E+00 0. -1.
     999900   -1    0    0    0    0 -0.00000000000E+00 -0.00000000000E+00 -0.74505805969E-08  0.93827000000E+00  0.93827000000E+00 0. -1.
     999902    2    1    2    0    0  0.13396682404E-02 -0.23052532465E-01 -0.60455162743E-02  0.10200603073E+01  0.10197809903E+01 0.  0.
     999903    2    3    3    0    0  0.82579882240E-01  0.48986464267E-01 -0.84885222017E-01  0.12988881333E+00  0.21130363910E-01 0.  0.
         14    1    1    2    0    0 -0.13396682404E-02  0.23052532465E-01  0.60455162743E-02  0.23869692731E-01  0.00000000000E+00 0. -1.
     999901    1    3    3    0    0 -0.81240214000E-01 -0.72038996732E-01  0.78839705743E-01  0.89017149394E+00  0.88000000000E+00 0.  1.
        -11    1    4    4    0    0  0.16706611152E-01  0.18897567996E-01 -0.28814189820E-01  0.38298140795E-01  0.51100000000E-03 0. -1.
         11    1    4    4    0    0  0.65873271088E-01  0.30088896272E-01 -0.56071032197E-01  0.91590672535E-01  0.51100000000E-03 0.  1.
</event>
<event>
 8    1  0.1132492E+005  0.1043930E+01  0.7957747E-01            NaN
         13   -1    0    0    0    0  0.00000000000E+00  0.00000000000E+00  0.74505805969E-08  0.10566000000E+00  0.10566000000E+00 0. -1.
     999900   -1    0    0    0    0 -0.00000000000E+00 -0.00000000000E+00 -0.74505805969E-08  0.93827000000E+00  0.93827000000E+00 0.  1.
     999902    2    1    2    0    0  0.73643733577E-02 -0.77365076094E-02  0.18708698074E-01  0.10223869517E+01  0.10221599562E+01 0.  0.
     999903    2    3    3    0    0  0.51964654228E-01  0.14218941115E-01 -0.11717270928E+00  0.13057139701E+00  0.20419166044E-01 0.  0.
         14    1    1    2    0    0 -0.73643733577E-02  0.77365076094E-02 -0.18708698074E-01  0.21543048266E-01  0.00000000000E+00 0.  1.
     999901    1    3    3    0    0 -0.44600280871E-01 -0.21955448725E-01  0.13588140735E+00  0.89181555472E+00  0.88000000000E+00 0. -1.
        -11    1    4    4    0    0  0.26190475799E-01  0.10547771049E-01 -0.38817082765E-01  0.48002328402E-01  0.51100000000E-03 0. -1.
         11    1    4    4    0    0  0.25774178430E-01  0.36711700668E-02 -0.78355626515E-01  0.82569068609E-01  0.51100000000E-03 0.  1.
</event>
<event>
 8    1  0.1132492E+005  0.1043930E+01  0.7957747E-01            NaN
         13   -1    0    0    0    0  0.00000000000E+00  0.00000000000E+00  0.74505805969E-08  0.10566000000E+00  0.10566000000E+00 0.  1.
     999900   -1    0    0    0    0 -0.00000000000E+00 -0.00000000000E+00 -0.74505805969E-08  0.93827000000E+00  0.93827000000E+00 0.  1.
     999902    2    1    2    0    0  0.31386897933E-03 -0.21915119465E-01  0.11223899208E-01  0.10193058881E+01  0.10190084134E+01 0.  0.
     999903    2    3    3    0    0  0.12176576538E+00 -0.40459606721E-01  0.15065692762E-01  0.13076257426E+00  0.20198869593E-01 0.  0.
         14    1    1    2    0    0 -0.31386897933E-03  0.21915119465E-01 -0.11223899208E-01  0.24624111930E-01  0.00000000000E+00 0. -1.
     999901    1    3    3    0    0 -0.12145189640E+00  0.18544487256E-01 -0.38417935535E-02  0.88854331381E+00  0.88000000000E+00 0. -1.
        -11    1    4    4    0    0  0.10943132725E+00 -0.29615194164E-01  0.14779855011E-01  0.11432838818E+00  0.51100000000E-03 0. -1.
         11    1    4    4    0    0  0.12334438132E-01 -0.10844412557E-01  0.28583775067E-03  0.16434186075E-01  0.51100000000E-03 0.  1.
</event>
<event>
 8    1  0.1132492E+005  0.1043930E+01  0.7957747E-01            NaN
         13   -1    0    0    0    0  0.00000000000E+00  0.00000000000E+00  0.74505805969E-08  0.10566000000E+00  0.10566000000E+00 0.  1.
     999900   -1    0    0    0    0 -0.00000000000E+00 -0.00000000000E+00 -0.74505805969E-08  0.93827000000E+00  0.93827000000E+00 0. -1.
     999902    2    1    2    0    0  0.23331760739E-01  0.67052676244E-02 -0.34163724648E-02  0.10194146319E+01  0.10191198106E+01 0.  0.
     999903    2    3    3    0    0  0.46936372275E-01  0.10980378542E+00  0.51321802410E-01  0.13139281354E+00  0.19241873989E-01 0.  0.
         14    1    1    2    0    0 -0.23331760739E-01 -0.67052676244E-02  0.34163724648E-02  0.24515368117E-01  0.00000000000E+00 0. -1.
     999901    1    3    3    0    0 -0.23604611536E-01 -0.10309851779E+00 -0.54738174875E-01  0.88802181834E+00  0.88000000000E+00 0.  1.
        -11    1    4    4    0    0  0.17230183641E-01  0.41442267259E-01  0.93439982443E-02  0.45846615667E-01  0.51100000000E-03 0. -1.
         11    1    4    4    0    0  0.29706188633E-01  0.68361518156E-01  0.41977804166E-01  0.85546197878E-01  0.51100000000E-03 0.  1.
</event>
<event>
 8    1  0.1132492E+005  0.1043930E+01  0.7957747E-01            NaN
         13   -1    0    0    0    0  0.00000000000E+00  0.00000000000E+00  0.74505805969E-08  0.10566000000E+00  0.10566000000E+00 0.  1.
     999900   -1    0    0    0    0 -0.00000000000E+00 -0.00000000000E+00 -0.74505805969E-08  0.93827000000E+00  0.93827000000E+00 0. -1.
     999902    2    1    2    0    0  0.14880693750E-01 -0.12177718638E-01 -0.12870312348E-01  0.10207917888E+01  0.10205295191E+01 0.  0.
     999903    2    3    3    0    0 -0.83097101739E-01 -0.20103624063E-01  0.94352707983E-01  0.12885051020E+00  0.19767054816E-01 0.  0.
         14    1    1    2    0    0 -0.14880693750E-01  0.12177718638E-01  0.12870312348E-01  0.23138211202E-01  0.00000000000E+00 0.  1.
     999901    1    3    3    0    0  0.97977795489E-01  0.79259054255E-02 -0.10722302033E+00  0.89194127860E+00  0.88000000000E+00 0. -1.
        -11    1    4    4    0    0 -0.62654391801E-01 -0.61001234707E-02  0.66706823552E-01  0.91721566426E-01  0.51100000000E-03 0. -1.
         11    1    4    4    0    0 -0.20442709938E-01 -0.14003500592E-01  0.27645884431E-01  0.37128943769E-01  0.51100000000E-03 0.  1.
</event>
<event>
 8    1  0.1132492E+005  0.1043930E+01  0.7957747E-01            NaN
         13   -1    0    0    0    0  0.00000000000E+00  0.00000000000E+00  0.74505805969E-08  0.10566000000E+00  0.10566000000E+00 0. -1.
     999900   -1    0    0    0    0 -0.00000000000E+00 -0.00000000000E+00 -0.74505805969E-08  0.93827000000E+00  0.93827000000E+00 0.  1.
     999902    2    1    2    0    0  0.18213612910E-01  0.13742113968E-01 -0.52263766449E-02  0.10205228130E+01  0.10202543386E+01 0.  0.
     999903    2    3    3    0    0  0.11304382026E+00 -0.43045056053E-01 -0.50281868358E-01  0.13246451070E+00  0.19667184851E-01 0.  0.
         14    1    1    2    0    0 -0.18213612910E-01 -0.13742113968E-01  0.52263766449E-02  0.23407187024E-01  0.00000000000E+00 0.  1.
     999901    1    3    3    0    0 -0.94830207351E-01  0.56787170021E-01  0.45055491713E-01  0.88805830227E+00  0.88000000000E+00 0. -1.
        -11    1    4    4    0    0  0.44340860465E-01 -0.10474947012E-01 -0.26919864932E-01  0.52922364560E-01  0.51100000000E-03 0. -1.
         11    1    4    4    0    0  0.68702959797E-01 -0.32570109041E-01 -0.23362003426E-01  0.79542146142E-01  0.51100000000E-03 0.  1.
</event>
<event>
 8    1  0.1132492E+005  0.1043930E+01  0.7957747E-01            NaN
         13   -1    0    0    0    0  0.00000000000E+00  0.00000000000E+00  0.74505805969E-08  0.10566000000E+00  0.10566000000E+00 0. -1.
     999900   -1    0    0    0    0 -0.00000000000E+00 -0.00000000000E+00 -0.74505805969E-08  0.93827000000E+00  0.93827000000E+00 0. -1.
     999902    2    1    2    0    0 -0.21822888947E-01  0.13514287971E-02 -0.10512203193E-01  0.10196695124E+01  0.10193808627E+01 0.  0.
     999903    2    3    3    0    0 -0.69080020424E-01  0.11030843891E+00 -0.50854088915E-02  0.13167496478E+00  0.19298550489E-01 0.  0.
         14    1    1    2    0    0  0.21822888947E-01 -0.13514287971E-02  0.10512203193E-01  0.24260487583E-01  0.00000000000E+00 0. -1.
     999901    1    3    3    0    0  0.47257131477E-01 -0.10895701011E+00 -0.54267943018E-02  0.88799454763E+00  0.88000000000E+00 0. -1.
        -11    1    4    4    0    0 -0.49266700212E-01  0.65662346469E-01 -0.94450605940E-02  0.82633055033E-01  0.51100000000E-03 0.  1.
         11    1    4    4    0    0 -0.19813320212E-01  0.44646092441E-01  0.43596517025E-02  0.49041909751E-01  0.51100000000E-03 0. -1.
</event>
<event>
 8    1  0.1132492E+005  0.1043930E+01  0.7957747E-01            NaN
         13   -1    0    0    0    0  0.00000000000E+00  0.00000000000E+00  0.74505805969E-08  0.10566000000E+00  0.10566000000E+00 0. -1.
     999900   -1    0    0    0    0 -0.00000000000E+00 -0.00000000000E+00 -0.74505805969E-08  0.93827000000E+00  0.93827000000E+00 0.  1.
     999902    2    1    2    0    0  0.45782590470E-03 -0.22417875754E-01 -0.16483984521E-02  0.10214469403E+01  0.10211994731E+01 0.  0.
     999903    2    3    3    0    0  0.69054435867E-02 -0.55719296384E-02 -0.12998534040E+00  0.13195510312E+00  0.20910020762E-01 0.  0.
         14    1    1    2    0    0 -0.45782590470E-03  0.22417875754E-01  0.16483984521E-02  0.22483059741E-01  0.00000000000E+00 0.  1.
     999901    1    3    3    0    0 -0.64476176820E-02 -0.16845946116E-01  0.12833694195E+00  0.88949183714E+00  0.88000000000E+00 0. -1.
        -11    1    4    4    0    0 -0.29971175746E-02 -0.98289977088E-02 -0.39083571279E-01  0.40415078555E-01  0.51100000000E-03 0. -1.
         11    1    4    4    0    0  0.99025611613E-02  0.42570680704E-02 -0.90901769122E-01  0.91540024561E-01  0.51100000000E-03 0.  1.
</event>
<event>
 8    1  0.1132492E+005  0.1043930E+01  0.7957747E-01            NaN
         13   -1    0    0    0    0  0.00000000000E+00  0.00000000000E+00  0.74505805969E-08  0.10566000000E+00  0.10566000000E+00 0.  1.
     999900   -1    0    0    0    0 -0.00000000000E+00 -0.00000000000E+00 -0.74505805969E-08  0.93827000000E+00  0.93827000000E+00 0. -1.
     999902    2    1    2    0    0 -0.18018820695E-01  0.14410029577E-01  0.63371422756E-02  0.10200033157E+01  0.10197226474E+01 0.  0.
     999903    2    3    3    0    0 -0.85242882181E-01  0.98628726875E-01  0.19746969872E-01  0.13332880553E+00  0.19815469683E-01 0.  0.
         14    1    1    2    0    0  0.18018820695E-01 -0.14410029577E-01 -0.63371422756E-02  0.23926684347E-01  0.00000000000E+00 0. -1.
     999901    1    3    3    0    0  0.67224061486E-01 -0.84218697298E-01 -0.13409827596E-01  0.88667451012E+00  0.88000000000E+00 0.  1.
        -11    1    4    4    0    0 -0.31750824673E-01  0.36726585294E-01 -0.22694349493E-02  0.48604201370E-01  0.51100000000E-03 0. -1.
         11    1    4    4    0    0 -0.53492057508E-01  0.61902141580E-01  0.22016404821E-01  0.84724604165E-01  0.51100000000E-03 0.  1.
</event>
<event>
 8    1  0.1132492E+005  0.1043930E+01  0.7957747E-01            NaN
         13   -1    0    0    0    0  0.00000000000E+00  0.00000000000E+00  0.74505805969E-08  0.10566000000E+00  0.10566000000E+00 0.  1.
     999900   -1    0    0    0    0 -0.00000000000E+00 -0.00000000000E+00 -0.74505805969E-08  0.93827000000E+00  0.93827000000E+00 0.  1.
     999902    2    1    2    0    0  0.20351616434E-02  0.18144687626E-01  0.14018043700E-01  0.10209109400E+01  0.10206513951E+01 0.  0.
     999903    2    3    3    0    0  0.88475890697E-01 -0.27481100156E-01  0.92005480947E-01  0.13207138618E+00  0.19865760062E-01 0.  0.
         14    1    1    2    0    0 -0.20351616434E-02 -0.18144687626E-01 -0.14018043700E-01  0.23019059953E-01  0.00000000000E+00 0.  1.
     999901    1    3    3    0    0 -0.86440729054E-01  0.45625787782E-01 -0.77987437247E-01  0.88883955387E+00  0.88000000000E+00 0.  1.
        -11    1    4    4    0    0  0.23228741183E-01  0.88134839554E-03  0.17918331671E-01  0.29354368036E-01  0.51100000000E-03 0.  1.
         11    1    4    4    0    0  0.65247149515E-01 -0.28362448552E-01  0.74087149275E-01  0.10271701814E+00  0.51100000000E-03 0. -1.
</event>
<event>
 8    1  0.1132492E+005  0.1043930E+01  0.7957747E-01            NaN
         13   -1    0    0    0    0  0.00000000000E+00  0.00000000000E+00  0.74505805969E-08  0.10566000000E+00  0.10566000000E+00 0. -1.
     999900   -1    0    0    0    0 -0.00000000000E+00 -0.00000000000E+00 -0.74505805969E-08  0.93827000000E+00  0.93827000000E+00 0. -1.
     999902    2    1    2    0    0 -0.13544225759E-01 -0.19411776233E-01 -0.10255738279E-02  0.10202379146E+01  0.10199627873E+01 0.  0.
     999903    2    3    3    0    0  0.63751773278E-01 -0.53960137007E-01  0.98400124206E-01  0.13060106167E+00  0.19951638621E-01 0.  0.
         14    1    1    2    0    0  0.13544225759E-01  0.19411776233E-01  0.10255738279E-02  0.23692085379E-01  0.00000000000E+00 0.  1.
     999901    1    3    3    0    0 -0.77295999037E-01  0.34548360774E-01 -0.99425698033E-01  0.88963685295E+00  0.88000000000E+00 0. -1.
        -11    1    4    4    0    0  0.39988929503E-01 -0.25197789330E-01  0.43611556597E-01  0.64313855892E-01  0.51100000000E-03 0.  1.
         11    1    4    4    0    0  0.23762843774E-01 -0.28762347677E-01  0.54788567609E-01  0.66287205777E-01  0.51100000000E-03 0. -1.
</event>
<event>
 8    1  0.1132492E+005  0.1043930E+01  0.7957747E-01            NaN
         13   -1    0    0    0    0  0.00000000000E+00  0.00000000000E+00  0.74505805969E-08  0.10566000000E+00  0.10566000000E+00 0.  1.
     999900   -1    0    0    0    0 -0.00000000000E+00 -0.00000000000E+00 -0.74505805969E-08  0.93827000000E+00  0.93827000000E+00 0.  1.
     999902    2    1    2    0    0 -0.20205325489E-01  0.92353992128E-02 -0.74040858806E-02  0.10205127358E+01  0.10202440275E+01 0.  0.
     999903    2    3    3    0    0 -0.45145496066E-01 -0.12061423679E+00 -0.55296367818E-02  0.13063271371E+00  0.21175907921E-01 0.  0.
         14    1    1    2    0    0  0.20205325489E-01 -0.92353992128E-02  0.74040858806E-02  0.23417264240E-01  0.00000000000E+00 0.  1.
     999901    1    3    3    0    0  0.24940170577E-01  0.12984963601E+00 -0.18744490988E-02  0.88988002205E+00  0.88000000000E+00 0.  1.
        -11    1    4    4    0    0 -0.31330882097E-01 -0.78067968704E-01  0.63054974014E-02  0.84357882435E-01  0.51100000000E-03 0.  1.
         11    1    4    4    0    0 -0.13814613970E-01 -0.42546268091E-01 -0.11835134183E-01  0.46274831278E-01  0.51100000000E-03 0. -1.
</event>
<event>
 8    1  0.1132492E+005  0.1043930E+01  0.7957747E-01            NaN
         13   -1    0    0    0    0  0.00000000000E+00  0.00000000000E+00  0.74505805969E-08  0.10566000000E+00  0.10566000000E+00 0.  1.
     999900   -1    0    0    0    0 -0.00000000000E+00 -0.00000000000E+00 -0.74505805969E-08  0.93827000000E+00  0.93827000000E+00 0. -1.
     999902    2    1    2    0    0 -0.21762564342E-01  0.29716508856E-02  0.85131314432E-02  0.10203734017E+01  0.10201014487E+01 0.  0.
     999903    2    3    3    0    0 -0.49883377401E-01  0.92038729456E-01  0.78598427751E-01  0.13265966781E+00  0.21480120047E-01 0.  0.
         14    1    1    2    0    0  0.21762564342E-01 -0.29716508856E-02 -0.85131314432E-02  0.23556598283E-01  0.00000000000E+00 0. -1.
     999901    1    3    3    0    0  0.28120813059E-01 -0.89067078570E-01 -0.70085296307E-01  0.88771373391E+00  0.88000000000E+00 0. -1.
        -11    1    4    4    0    0 -0.13072907331E-01  0.17098099625E-01  0.26902902579E-01  0.34456831036E-01  0.51100000000E-03 0. -1.
         11    1    4    4    0    0 -0.36810470070E-01  0.74940629831E-01  0.51695525172E-01  0.98202836772E-01  0.51100000000E-03 0.  1.
</event>
<event>
 8    1  0.1132492E+005  0.1043930E+01  0.7957747E-01            NaN
         13   -1    0    0    0    0  0.00000000000E+00  0.00000000000E+00  0.74505805969E-08  0.10566000000E+00  0.10566000000E+00 0.  1.
     999900   -1    0    0    0    0 -0.00000000000E+00 -0.00000000000E+00 -0.74505805969E-08  0.93827000000E+00  0.93827000000E+00 0.  1.
     999902    2    1    2    0    0 -0.24480682376E-01  0.20584122079E-02 -0.24055005971E-02  0.10192454440E+01  0.10189464892E+01 0.  0.
     999903    2    3    3    0    0  0.37105454548E-01  0.60961751663E-01  0.10513406270E+00  0.12861240325E+00  0.19870309672E-01 0.  0.
         14    1    1    2    0    0  0.24480682376E-01 -0.20584122079E-02  0.24055005971E-02  0.24684555972E-01  0.00000000000E+00 0.  1.
     999901    1    3    3    0    0 -0.61586136924E-01 -0.58903339455E-01 -0.10753956329E+00  0.89063304078E+00  0.88000000000E+00 0.  1.
        -11    1    4    4    0    0  0.10976299087E-01  0.17533633294E-01  0.47800632540E-01  0.52087129220E-01  0.51100000000E-03 0. -1.
         11    1    4    4    0    0  0.26129155461E-01  0.43428118369E-01  0.57333430156E-01  0.76525274025E-01  0.51100000000E-03 0.  1.
</event>
<event>
 8    1  0.1132492E+005  0.1043930E+01  0.7957747E-01            NaN
         13   -1    0    0    0    0  0.00000000000E+00  0.00000000000E+00  0.74505805969E-08  0.10566000000E+00  0.10566000000E+00 0.  1.
     999900   -1    0    0    0    0 -0.00000000000E+00 -0.00000000000E+00 -0.74505805969E-08  0.93827000000E+00  0.93827000000E+00 0. -1.
     999902    2    1    2    0    0 -0.16074877877E-01  0.43418370926E-02  0.18690916412E-01  0.10188979485E+01  0.10185904112E+01 0.  0.
     999903    2    3    3    0    0 -0.90240930560E-01 -0.29543966559E-01 -0.85022003458E-01  0.12906357016E+00  0.20307450875E-01 0.  0.
         14    1    1    2    0    0  0.16074877877E-01 -0.43418370926E-02 -0.18690916412E-01  0.25032051542E-01  0.00000000000E+00 0.  1.
     999901    1    3    3    0    0  0.74166052683E-01  0.33885803652E-01  0.10371291987E+00  0.88983437830E+00  0.88000000000E+00 0.  1.
        -11    1    4    4    0    0 -0.43699055430E-01 -0.12100264377E-01 -0.53816191317E-01  0.70373769348E-01  0.51100000000E-03 0. -1.
         11    1    4    4    0    0 -0.46541875130E-01 -0.17443702182E-01 -0.31205812141E-01  0.58689800808E-01  0.51100000000E-03 0.  1.
</event>
<event>
 8    1  0.1132492E+005  0.1043930E+01  0.7957747E-01            NaN
         13   -1    0    0    0    0  0.00000000000E+00  0.00000000000E+00  0.74505805969E-08  0.10566000000E+00  0.10566000000E+00 0.  1.
     999900   -1    0    0    0    0 -0.00000000000E+00 -0.00000000000E+00 -0.74505805969E-08  0.93827000000E+00  0.93827000000E+00 0. -1.
     999902    2    1    2    0    0 -0.15378096125E-01  0.15296045003E-01  0.96529297817E-02  0.10201890252E+01  0.10199127478E+01 0.  0.
     999903    2    3    3    0    0 -0.24034023209E-01  0.99216629573E-01 -0.80903293744E-01  0.13152822417E+00  0.18241627106E-01 0.  0.
         14    1    1    2    0    0  0.15378096125E-01 -0.15296045003E-01 -0.96529297817E-02  0.23740974844E-01  0.00000000000E+00 0. -1.
     999901    1    3    3    0    0  0.86559270841E-02 -0.83920584570E-01  0.90556223525E-01  0.88866080099E+00  0.88000000000E+00 0.  1.
        -11    1    4    4    0    0 -0.59225796422E-02  0.22105246131E-01 -0.91558945847E-02  0.24653810715E-01  0.51100000000E-03 0.  1.
         11    1    4    4    0    0 -0.18111443567E-01  0.77111383442E-01 -0.71747399159E-01  0.10687441346E+00  0.51100000000E-03 0. -1.
</event>
<event>
 8    1  0.1132492E+005  0.1043930E+01  0.7957747E-01            NaN
         13   -1    0    0    0    0  0.00000000000E+00  0.00000000000E+00  0.74505805969E-08  0.10566000000E+00  0.10566000000E+00 0.  1.
     999900   -1    0    0    0    0 -0.00000000000E+00 -0.00000000000E+00 -0.74505805969E-08  0.93827000000E+00  0.93827000000E+00 0. -1.
     999902    2    1    2    0    0 -0.11728210575E-01 -0.20104146570E-01  0.26545195427E-02  0.10205040719E+01  0.10202351624E+01 0.  0.
     999903    2    3    3    0    0  0.10519271437E+00 -0.26578841439E-01  0.69273649105E-01  0.13025099959E+00  0.19863093027E-01 0.  0.
         14    1    1    2    0    0  0.11728210575E-01  0.20104146570E-01 -0.26545195427E-02  0.23425928084E-01  0.00000000000E+00 0. -1.
     999901    1    3    3    0    0 -0.11692092495E+00  0.64746948690E-02 -0.66619129562E-01  0.89025307233E+00  0.88000000000E+00 0. -1.
        -11    1    4    4    0    0  0.41720429129E-01 -0.69603383606E-03  0.27529532578E-01  0.49992148931E-01  0.51100000000E-03 0.  1.
         11    1    4    4    0    0  0.63472285243E-01 -0.25882807602E-01  0.41744116528E-01  0.80258850658E-01  0.51100000000E-03 0. -1.
</event>
<event>
 8    1  0.1218469E+005  0.1043930E+01  0.7957747E-01            NaN
         13   -1    0    0    0    0  0.00000000000E+00  0.00000000000E+00  0.74505805969E-08  0.10566000000E+00  0.10566000000E+00 0.  1.
     999900   -1    0    0    0    0 -0.00000000000E+00 -0.00000000000E+00 -0.74505805969E-08  0.93827000000E+00  0.93827000000E+00 0. -1.
     999902    2    1    2    0    0  0.11073143927E-01  0.14500382002E-01  0.14543148927E-01  0.10205980739E+01  0.10203313431E+01 0.  0.
     999903    2    3    3    0    0 -0.11868614721E+00 -0.27913755508E-01  0.40147626812E-01  0.12970412849E+00  0.18594346504E-01 0.  0.
         14    1    1    2    0    0 -0.11073143927E-01 -0.14500382002E-01 -0.14543148927E-01  0.23331926096E-01  0.00000000000E+00 0. -1.
     999901    1    3    3    0    0  0.12975929113E+00  0.42414137510E-01 -0.25604477885E-01  0.89089394542E+00  0.88000000000E+00 0. -1.
        -11    1    4    4    0    0 -0.67098559899E-01 -0.12472325342E-01  0.31478413358E-01  0.75159345849E-01  0.51100000000E-03 0. -1.
         11    1    4    4    0    0 -0.51587587309E-01 -0.15441430166E-01  0.86692134544E-02  0.54544782636E-01  0.51100000000E-03 0.  1.
</event>
<event>
 8    1  0.1132492E+005  0.1043930E+01  0.7957747E-01            NaN
         13   -1    0    0    0    0  0.00000000000E+00  0.00000000000E+00  0.74505805969E-08  0.10566000000E+00  0.10566000000E+00 0. -1.
     999900   -1    0    0    0    0 -0.00000000000E+00 -0.00000000000E+00 -0.74505805969E-08  0.93827000000E+00  0.93827000000E+00 0.  1.
     999902    2    1    2    0    0  0.69830106247E-02  0.18265163464E-01 -0.13892421121E-01  0.10199429619E+01  0.10196608590E+01 0.  0.
     999903    2    3    3    0    0 -0.13635467947E-01  0.12245458120E+00 -0.46135511534E-01  0.13297048580E+00  0.19277298227E-01 0.  0.
         14    1    1    2    0    0 -0.69830106247E-02 -0.18265163464E-01  0.13892421121E-01  0.23987038132E-01  0.00000000000E+00 0. -1.
     999901    1    3    3    0    0  0.20618478572E-01 -0.10418941773E+00  0.32243090413E-01  0.88697247607E+00  0.88000000000E+00 0. -1.
        -11    1    4    4    0    0 -0.14840841099E-01  0.79044178038E-01 -0.37278639662E-01  0.88646436715E-01  0.51100000000E-03 0. -1.
         11    1    4    4    0    0  0.12053731523E-02  0.43410403158E-01 -0.88568718717E-02  0.44324049083E-01  0.51100000000E-03 0.  1.
</event>
<event>
 8    1  0.1132492E+005  0.1043930E+01  0.7957747E-01            NaN
         13   -1    0    0    0    0  0.00000000000E+00  0.00000000000E+00  0.74505805969E-08  0.10566000000E+00  0.10566000000E+00 0. -1.
     999900   -1    0    0    0    0 -0.00000000000E+00 -0.00000000000E+00 -0.74505805969E-08  0.93827000000E+00  0.93827000000E+00 0.  1.
     999902    2    1    2    0    0 -0.63113663073E-02 -0.14503241010E-01 -0.21245942781E-01  0.10174428818E+01  0.10170980535E+01 0.  0.
     999903    2    3    3    0    0  0.99007430096E-02  0.12407100290E+00  0.33018762772E-02  0.12611339786E+00  0.20051141162E-01 0.  0.
         14    1    1    2    0    0  0.63113663073E-02  0.14503241010E-01  0.21245942781E-01  0.26487118173E-01  0.00000000000E+00 0. -1.
     999901    1    3    3    0    0 -0.16212109317E-01 -0.13857424391E+00 -0.24547819059E-01  0.89132948396E+00  0.88000000000E+00 0.  1.
        -11    1    4    4    0    0  0.52120068946E-02  0.35290663466E-01 -0.77927869522E-02  0.36518277522E-01  0.51100000000E-03 0.  1.
         11    1    4    4    0    0  0.46887361150E-02  0.88780339430E-01  0.11094663229E-01  0.89595120341E-01  0.51100000000E-03 0. -1.
</event>
<event>
 8    1  0.1132492E+005  0.1043930E+01  0.7957747E-01            NaN
         13   -1    0    0    0    0  0.00000000000E+00  0.00000000000E+00  0.74505805969E-08  0.10566000000E+00  0.10566000000E+00 0. -1.
     999900   -1    0    0    0    0 -0.00000000000E+00 -0.00000000000E+00 -0.74505805969E-08  0.93827000000E+00  0.93827000000E+00 0.  1.
     999902    2    1    2    0    0  0.63478353021E-02 -0.22451000702E-01  0.27607260779E-02  0.10204360847E+01  0.10201655939E+01 0.  0.
     999903    2    3    3    0    0 -0.76587650860E-01  0.34740710263E-01  0.96708590460E-01  0.12971986288E+00  0.20052584458E-01 0.  0.
         14    1    1    2    0    0 -0.63478353021E-02  0.22451000702E-01 -0.27607260779E-02  0.23493915255E-01  0.00000000000E+00 0.  1.
     999901    1    3    3    0    0  0.82935486162E-01 -0.57191710965E-01 -0.93947864382E-01  0.89071622186E+00  0.88000000000E+00 0.  1.
        -11    1    4    4    0    0 -0.49148166246E-01  0.25899507850E-01  0.76347890269E-01  0.94422392586E-01  0.51100000000E-03 0.  1.
         11    1    4    4    0    0 -0.27439484614E-01  0.88412024137E-02  0.20360700191E-01  0.35297470295E-01  0.51100000000E-03 0. -1.
</event>
<event>
 8    1  0.1132492E+005  0.1043930E+01  0.7957747E-01            NaN
         13   -1    0    0    0    0  0.00000000000E+00  0.00000000000E+00  0.74505805969E-08  0.10566000000E+00  0.10566000000E+00 0. -1.
     999900   -1    0    0    0    0 -0.00000000000E+00 -0.00000000000E+00 -0.74505805969E-08  0.93827000000E+00  0.93827000000E+00 0. -1.
     999902    2    1    2    0    0 -0.14412108631E-01  0.19377204637E-01 -0.23532114473E-02  0.10196663948E+01  0.10193776700E+01 0.  0.
     999903    2    3    3    0    0  0.21001788356E-01  0.11888534467E+00  0.49034743868E-01  0.13186194784E+00  0.20208089700E-01 0.  0.
         14    1    1    2    0    0  0.14412108631E-01 -0.19377204637E-01  0.23532114473E-02  0.24263605232E-01  0.00000000000E+00 0. -1.
     999901    1    3    3    0    0 -0.35413896987E-01 -0.99508140038E-01 -0.51387955315E-01  0.88780444693E+00  0.88000000000E+00 0. -1.
        -11    1    4    4    0    0  0.36434261336E-02  0.74307523848E-01  0.33182850477E-01  0.81463153273E-01  0.51100000000E-03 0. -1.
         11    1    4    4    0    0  0.17358362222E-01  0.44577820827E-01  0.15851893391E-01  0.50398794567E-01  0.51100000000E-03 0.  1.
</event>
<event>
 8    1  0.1132492E+005  0.1043930E+01  0.7957747E-01            NaN
         13   -1    0    0    0    0  0.00000000000E+00  0.00000000000E+00  0.74505805969E-08  0.10566000000E+00  0.10566000000E+00 0.  1.
     999900   -1    0    0    0    0 -0.00000000000E+00 -0.00000000000E+00 -0.74505805969E-08  0.93827000000E+00  0.93827000000E+00 0. -1.
     999902    2    1    2    0    0 -0.44936914611E-02 -0.16213810360E-01 -0.17110682167E-01  0.10199329928E+01  0.10196506527E+01 0.  0.
     999903    2    3    3    0    0  0.79355503531E-01  0.95303701412E-01  0.26568446397E-01  0.12787093825E+00  0.16278914634E-01 0.  0.
         14    1    1    2    0    0  0.44936914611E-02  0.16213810360E-01  0.17110682167E-01  0.23997007179E-01  0.00000000000E+00 0.  1.
     999901    1    3    3    0    0 -0.83849194992E-01 -0.11151751177E+00 -0.43679128564E-01  0.89206205457E+00  0.88000000000E+00 0. -1.
        -11    1    4    4    0    0  0.61320500838E-01  0.79266001915E-01  0.26765950652E-01  0.10373032400E+00  0.51100000000E-03 0.  1.
         11    1    4    4    0    0  0.18035002692E-01  0.16037699496E-01 -0.19750425501E-03  0.24140614246E-01  0.51100000000E-03 0. -1.
</event>
<event>
 8    1  0.1132492E+005  0.1043930E+01  0.7957747E-01            NaN
         13   -1    0    0    0    0  0.00000000000E+00  0.00000000000E+00  0.74505805969E-08  0.10566000000E+00  0.10566000000E+00 0. -1.
     999900   -1    0    0    0    0 -0.00000000000E+00 -0.00000000000E+00 -0.74505805969E-08  0.93827000000E+00  0.93827000000E+00 0.  1.
     999902    2    1    2    0    0 -0.16134944778E-01  0.11704075276E-01 -0.15135713560E-01  0.10189017830E+01  0.10185943411E+01 0.  0.
     999903    2    3    3    0    0  0.38200946033E-01 -0.47531419634E-01 -0.11286265910E+00  0.12985072217E+00  0.20116711926E-01 0.  0.
         14    1    1    2    0    0  0.16134944778E-01 -0.11704075276E-01  0.15135713560E-01  0.25028216996E-01  0.00000000000E+00 0. -1.
     999901    1    3    3    0    0 -0.54335890810E-01  0.59235494910E-01  0.97726945539E-01  0.88905106083E+00  0.88000000000E+00 0.  1.
        -11    1    4    4    0    0  0.13804934558E-01 -0.32261213700E-01 -0.55381581728E-01  0.65564798811E-01  0.51100000000E-03 0.  1.
         11    1    4    4    0    0  0.24396011475E-01 -0.15270205934E-01 -0.57481077372E-01  0.64285923358E-01  0.51100000000E-03 0. -1.
</event>
<event>
 8    1  0.1132492E+005  0.1043930E+01  0.7957747E-01            NaN
         13   -1    0    0    0    0  0.00000000000E+00  0.00000000000E+00  0.74505805969E-08  0.10566000000E+00  0.10566000000E+00 0. -1.
     999900   -1    0    0    0    0 -0.00000000000E+00 -0.00000000000E+00 -0.74505805969E-08  0.93827000000E+00  0.93827000000E+00 0.  1.
     999902    2    1    2    0    0 -0.22404389706E-01 -0.59517758570E-02  0.82403376194E-02  0.10193274904E+01  0.10190305438E+01 0.  0.
     999903    2    3    3    0    0  0.81866778506E-01  0.22229808777E-01  0.94477462239E-01  0.12853934506E+00  0.20000963399E-01 0.  0.
         14    1    1    2    0    0  0.22404389706E-01  0.59517758570E-02 -0.82403376194E-02  0.24602509588E-01  0.00000000000E+00 0.  1.
     999901    1    3    3    0    0 -0.10427116821E+00 -0.28181584634E-01 -0.86237124620E-01  0.89078814535E+00  0.88000000000E+00 0.  1.
        -11    1    4    4    0    0  0.59415827138E-01  0.22943912769E-01  0.77859944245E-01  0.10059371594E+00  0.51100000000E-03 0.  1.
         11    1    4    4    0    0  0.22450951367E-01 -0.71410399218E-03  0.16617517993E-01  0.27945629123E-01  0.51100000000E-03 0. -1.
</event>
<event>
 8    1  0.1132492E+005  0.1043930E+01  0.7957747E-01            NaN
         13   -1    0    0    0    0  0.00000000000E+00  0.00000000000E+00  0.74505805969E-08  0.10566000000E+00  0.10566000000E+00 0.  1.
     999900   -1    0    0    0    0 -0.00000000000E+00 -0.00000000000E+00 -0.74505805969E-08  0.93827000000E+00  0.93827000000E+00 0. -1.
     999902    2    1    2    0    0 -0.61956714621E-02 -0.60283173085E-02 -0.23549101127E-01  0.10188444042E+01  0.10185355334E+01 0.  0.
     999903    2    3    3    0    0  0.70466281169E-01 -0.41697731745E-01  0.93454265409E-01  0.12708258065E+00  0.26684920196E-01 0.  0.
         14    1    1    2    0    0  0.61956714621E-02  0.60283173085E-02  0.23549101127E-01  0.25085595834E-01  0.00000000000E+00 0.  1.
     999901    1    3    3    0    0 -0.76661952631E-01  0.35669414436E-01 -0.11700336654E+00  0.89176182352E+00  0.88000000000E+00 0. -1.
        -11    1    4    4    0    0  0.68269404865E-01 -0.45069306171E-01  0.86685710282E-01  0.11919155795E+00  0.51100000000E-03 0. -1.
         11    1    4    4    0    0  0.21968763045E-02  0.33715744268E-02  0.67685551266E-02  0.78910226913E-02  0.51100000000E-03 0.  1.
</event>
<event>
 8    1  0.1132492E+005  0.1043930E+01  0.7957747E-01            NaN
         13   -1    0    0    0    0  0.00000000000E+00  0.00000000000E+00  0.74505805969E-08  0.10566000000E+00  0.10566000000E+00 0. -1.
     999900   -1    0    0    0    0 -0.00000000000E+00 -0.00000000000E+00 -0.74505805969E-08  0.93827000000E+00  0.93827000000E+00 0. -1.
     999902    2    1    2    0    0 -0.24334096443E-01 -0.48437380493E-02  0.42166833583E-02  0.10187627501E+01  0.10184518401E+01 0.  0.
     999903    2    3    3    0    0  0.55717558794E-01 -0.98682427879E-01 -0.56098046088E-01  0.12811588755E+00  0.20591792979E-01 0.  0.
         14    1    1    2    0    0  0.24334096443E-01  0.48437380493E-02 -0.42166833583E-02  0.25167249880E-01  0.00000000000E+00 0.  1.
     999901    1    3    3    0    0 -0.80051655237E-01  0.93838689830E-01  0.60314729446E-01  0.89064686257E+00  0.88000000000E+00 0.  1.
        -11    1    4    4    0    0  0.89020157153E-02 -0.11035705784E-01 -0.14817941827E-01  0.20514999560E-01  0.51100000000E-03 0. -1.
         11    1    4    4    0    0  0.46815543078E-01 -0.87646722095E-01 -0.41280104261E-01  0.10760088799E+00  0.51100000000E-03 0.  1.
</event>
<event>
 8    1  0.1132492E+005  0.1043930E+01  0.7957747E-01            NaN
         13   -1    0    0    0    0  0.00000000000E+00  0.00000000000E+00  0.74505805969E-08  0.10566000000E+00  0.10566000000E+00 0. -1.
     999900   -1    0    0    0    0 -0.00000000000E+00 -0.00000000000E+00 -0.74505805969E-08  0.93827000000E+00  0.93827000000E+00 0.  1.
     999902    2    1    2    0    0 -0.66528094947E-02  0.21347735022E-01 -0.70096035273E-02  0.10204966860E+01  0.10202276049E+01 0.  0.
     999903    2    3    3    0    0  0.36330279135E-01 -0.90273802395E-02  0.12243316711E+00  0.12947164457E+00  0.19278059110E-01 0.  0.
         14    1    1    2    0    0  0.66528094947E-02 -0.21347735022E-01  0.70096035273E-02  0.23433314029E-01  0.00000000000E+00 0. -1.
     999901    1    3    3    0    0 -0.42983088630E-01  0.30375115262E-01 -0.12944277064E+00  0.89102504140E+00  0.88000000000E+00 0.  1.
        -11    1    4    4    0    0  0.11537878962E-01 -0.12478679228E-01  0.53156628032E-01  0.55809751038E-01  0.51100000000E-03 0. -1.
         11    1    4    4    0    0  0.24792400173E-01  0.34512989889E-02  0.69276539078E-01  0.73661893531E-01  0.51100000000E-03 0.  1.
</event>
<event>
 8    1  0.1132492E+005  0.1043930E+01  0.7957747E-01            NaN
         13   -1    0    0    0    0  0.00000000000E+00  0.00000000000E+00  0.74505805969E-08  0.10566000000E+00  0.10566000000E+00 0.  1.
     999900   -1    0    0    0    0 -0.00000000000E+00 -0.00000000000E+00 -0.74505805969E-08  0.93827000000E+00  0.93827000000E+00 0. -1.
     999902    2    1    2    0    0 -0.12684167537E-01 -0.91310552859E-02 -0.18885494178E-01  0.10194162046E+01  0.10191214216E+01 0.  0.
     999903    2    3    3    0    0 -0.97961714743E-01 -0.47830497886E-01 -0.73548879965E-01  0.13276069498E+00  0.18212915861E-01 0.  0.
         14    1    1    2    0    0  0.12684167537E-01  0.91310552859E-02  0.18885494178E-01  0.24513795444E-01  0.00000000000E+00 0.  1.
     999901    1    3    3    0    0  0.85277547206E-01  0.38699442600E-01  0.54663385788E-01  0.88665550958E+00  0.88000000000E+00 0.  1.
        -11    1    4    4    0    0 -0.63640742959E-01 -0.30542239367E-01 -0.57760577348E-01  0.91211391648E-01  0.51100000000E-03 0. -1.
         11    1    4    4    0    0 -0.34320971784E-01 -0.17288258519E-01 -0.15788302617E-01  0.41549303332E-01  0.51100000000E-03 0.  1.
</event>
<event>
 8    1  0.1132492E+005  0.1043930E+01  0.7957747E-01            NaN
         13   -1    0    0    0    0  0.00000000000E+00  0.00000000000E+00  0.74505805969E-08  0.10566000000E+00  0.10566000000E+00 0. -1.
     999900   -1    0    0    0    0 -0.00000000000E+00 -0.00000000000E+00 -0.74505805969E-08  0.93827000000E+00  0.93827000000E+00 0.  1.
     999902    2    1    2    0    0  0.71896791146E-02 -0.13604898148E-01  0.19056205209E-01  0.10194366602E+01  0.10191423749E+01 0.  0.
     999903    2    3    3    0    0 -0.55675514742E-01 -0.39705167023E-01 -0.10629095662E+00  0.12795184952E+00  0.19941040736E-01 0.  0.
         14    1    1    2    0    0 -0.71896791146E-02  0.13604898148E-01 -0.19056205209E-01  0.24493339837E-01  0.00000000000E+00 0.  1.
     999901    1    3    3    0    0  0.62865193857E-01  0.26100268875E-01  0.12534716183E+00  0.89148481065E+00  0.88000000000E+00 0. -1.
        -11    1    4    4    0    0 -0.15550051570E-01 -0.22650290325E-01 -0.37102937459E-01  0.46170649170E-01  0.51100000000E-03 0.  1.
         11    1    4    4    0    0 -0.40125463173E-01 -0.17054876698E-01 -0.69188019160E-01  0.81781200348E-01  0.51100000000E-03 0. -1.
</event>
<event>
 8    1  0.1132492E+005  0.1043930E+01  0.7957747E-01            NaN
         13   -1    0    0    0    0  0.00000000000E+00  0.00000000000E+00  0.74505805969E-08  0.10566000000E+00  0.10566000000E+00 0.  1.
     999900   -1    0    0    0    0 -0.00000000000E+00 -0.00000000000E+00 -0.74505805969E-08  0.93827000000E+00  0.93827000000E+00 0.  1.
     999902    2    1    2    0    0 -0.57304745997E-02 -0.14918439430E-01 -0.17727744185E-01  0.10200622165E+01  0.10197829448E+01 0.  0.
     999903    2    3    3    0    0  0.62096096348E-01  0.11021115991E+00 -0.12334141129E-01  0.12861005779E+00  0.19646653071E-01 0.  0.
         14    1    1    2    0    0  0.57304745997E-02  0.14918439430E-01  0.17727744185E-01  0.23867783475E-01  0.00000000000E+00 0.  1.
     999901    1    3    3    0    0 -0.67826570948E-01 -0.12512959934E+00 -0.53936030556E-02  0.89145215873E+00  0.88000000000E+00 0. -1.
        -11    1    4    4    0    0  0.38017332792E-01  0.67375968642E-01 -0.17122738946E-01  0.79235648878E-01  0.51100000000E-03 0. -1.
         11    1    4    4    0    0  0.24078763556E-01  0.42835191269E-01  0.47885978165E-02  0.49374408913E-01  0.51100000000E-03 0.  1.
</event>
<event>
 8    1  0.1132492E+005  0.1043930E+01  0.7957747E-01            NaN
         13   -1    0    0    0    0  0.00000000000E+00  0.00000000000E+00  0.74505805969E-08  0.10566000000E+00  0.10566000000E+00 0.  1.
     999900   -1    0    0    0    0 -0.00000000000E+00 -0.00000000000E+00 -0.74505805969E-08  0.93827000000E+00  0.93827000000E+00 0. -1.
     999902    2    1    2    0    0  0.18916919895E-01  0.37261840897E-02  0.12914655446E-01  0.10207239096E+01  0.10204600810E+01 0.  0.
     999903    2    3    3    0    0  0.10580906614E-01  0.58725342691E-01  0.11699512856E+00  0.13284602304E+00  0.19989604078E-01 0.  0.
         14    1    1    2    0    0 -0.18916919895E-01 -0.37261840897E-02 -0.12914655446E-01  0.23206090396E-01  0.00000000000E+00 0.  1.
     999901    1    3    3    0    0  0.83360132807E-02 -0.54999158601E-01 -0.10408047312E+00  0.88787788656E+00  0.88000000000E+00 0. -1.
        -11    1    4    4    0    0  0.12763600493E-01  0.33179717543E-01  0.82742062084E-01  0.90057276845E-01  0.51100000000E-03 0. -1.
         11    1    4    4    0    0 -0.21826938796E-02  0.25545625148E-01  0.34253066480E-01  0.42788746196E-01  0.51100000000E-03 0.  1.
</event>
<event>
 8    1  0.1132492E+005  0.1043930E+01  0.7957747E-01            NaN
         13   -1    0    0    0    0  0.00000000000E+00  0.00000000000E+00  0.74505805969E-08  0.10566000000E+00  0.10566000000E+00 0.  1.
     999900   -1    0    0    0    0 -0.00000000000E+00 -0.00000000000E+00 -0.74505805969E-08  0.93827000000E+00  0.93827000000E+00 0.  1.
     999902    2    1    2    0    0  0.16909627031E-01 -0.34059501205E-02 -0.58984200360E-02  0.10257001525E+01  0.10255381394E+01 0.  0.
     999903    2    3    3    0    0  0.13778008885E-01 -0.11674145445E+00 -0.66149701095E-01  0.13638302092E+00  0.20153032633E-01 0.  0.
         14    1    1    2    0    0 -0.16909627031E-01  0.34059501205E-02  0.58984200360E-02  0.18229847544E-01  0.00000000000E+00 0.  1.
     999901    1    3    3    0    0  0.31316181460E-02  0.11333550433E+00  0.60251281059E-01  0.88931713154E+00  0.88000000000E+00 0. -1.
        -11    1    4    4    0    0  0.94789242178E-03 -0.80214204178E-01 -0.49282822062E-01  0.94150277340E-01  0.51100000000E-03 0. -1.
         11    1    4    4    0    0  0.12830116463E-01 -0.36527250273E-01 -0.16866879033E-01  0.42232743580E-01  0.51100000000E-03 0.  1.
</event>
<event>
 8    1  0.1132492E+005  0.1043930E+01  0.7957747E-01            NaN
         13   -1    0    0    0    0  0.00000000000E+00  0.00000000000E+00  0.74505805969E-08  0.10566000000E+00  0.10566000000E+00 0. -1.
     999900   -1    0    0    0    0 -0.00000000000E+00 -0.00000000000E+00 -0.74505805969E-08  0.93827000000E+00  0.93827000000E+00 0. -1.
     999902    2    1    2    0    0  0.22310425409E-01  0.43962550411E-02 -0.52354095062E-02  0.10205956551E+01  0.10203288683E+01 0.  0.
     999903    2    3    3    0    0 -0.76646575213E-01  0.31009833277E-02  0.10236679156E+00  0.12853489516E+00  0.12567643793E-01 0.  0.
         14    1    1    2    0    0 -0.22310425409E-01 -0.43962550411E-02  0.52354095062E-02  0.23334344923E-01  0.00000000000E+00 0.  1.
     999901    1    3    3    0    0  0.98957000621E-01  0.12952717134E-02 -0.10760220107E+00  0.89206075991E+00  0.88000000000E+00 0.  1.
        -11    1    4    4    0    0 -0.53794745388E-01 -0.26997065527E-02  0.65986320071E-01  0.85179919021E-01  0.51100000000E-03 0.  1.
         11    1    4    4    0    0 -0.22851829825E-01  0.58006898805E-02  0.36380471492E-01  0.43354976143E-01  0.51100000000E-03 0. -1.
</event>
<event>
 8    1  0.1132492E+005  0.1043930E+01  0.7957747E-01            NaN
         13   -1    0    0    0    0  0.00000000000E+00  0.00000000000E+00  0.74505805969E-08  0.10566000000E+00  0.10566000000E+00 0.  1.
     999900   -1    0    0    0    0 -0.00000000000E+00 -0.00000000000E+00 -0.74505805969E-08  0.93827000000E+00  0.93827000000E+00 0. -1.
     999902    2    1    2    0    0  0.21978286238E-01 -0.20936904331E-01 -0.89139132152E-02  0.10122936779E+01  0.10117992061E+01 0.  0.
     999903    2    3    3    0    0 -0.21789421438E-01  0.71729698889E-01  0.92337351921E-01  0.12057930080E+00  0.19830598380E-01 0.  0.
         14    1    1    2    0    0 -0.21978286238E-01  0.20936904331E-01  0.89139132152E-02  0.31636322128E-01  0.00000000000E+00 0.  1.
     999901    1    3    3    0    0  0.43767707676E-01 -0.92666603221E-01 -0.10125126514E+00  0.89171437707E+00  0.88000000000E+00 0. -1.
        -11    1    4    4    0    0 -0.12596864195E-01  0.30867217660E-01  0.26700091331E-01  0.42715595649E-01  0.51100000000E-03 0. -1.
         11    1    4    4    0    0 -0.91925572431E-02  0.40862481230E-01  0.65637260590E-01  0.77863705150E-01  0.51100000000E-03 0.  1.
</event>
<event>
 8    1  0.1132492E+005  0.1043930E+01  0.7957747E-01            NaN
         13   -1    0    0    0    0  0.00000000000E+00  0.00000000000E+00  0.74505805969E-08  0.10566000000E+00  0.10566000000E+00 0.  1.
     999900   -1    0    0    0    0 -0.00000000000E+00 -0.00000000000E+00 -0.74505805969E-08  0.93827000000E+00  0.93827000000E+00 0. -1.
     999902    2    1    2    0    0 -0.42086127746E-02  0.29844912390E-02  0.22869691276E-01  0.10204855467E+01  0.10202162069E+01 0.  0.
     999903    2    3    3    0    0 -0.54714766952E-01  0.92161332915E-01  0.75858591116E-01  0.13295458717E+00  0.20856159647E-01 0.  0.
         14    1    1    2    0    0  0.42086127746E-02 -0.29844912390E-02 -0.22869691276E-01  0.23444453257E-01  0.00000000000E+00 0. -1.
     999901    1    3    3    0    0  0.50506154178E-01 -0.89176841676E-01 -0.52988899839E-01  0.88753095958E+00  0.88000000000E+00 0. -1.
        -11    1    4    4    0    0 -0.30036525898E-01  0.66976595111E-01  0.57190579320E-01  0.93054181339E-01  0.51100000000E-03 0.  1.
         11    1    4    4    0    0 -0.24678241055E-01  0.25184737804E-01  0.18668011795E-01  0.39900405827E-01  0.51100000000E-03 0. -1.
</event>
<event>
 8    1  0.1132492E+005  0.1043930E+01  0.7957747E-01            NaN
         13   -1    0    0    0    0  0.00000000000E+00  0.00000000000E+00  0.74505805969E-08  0.10566000000E+00  0.10566000000E+00 0. -1.
     999900   -1    0    0    0    0 -0.00000000000E+00 -0.00000000000E+00 -0.74505805969E-08  0.93827000000E+00  0.93827000000E+00 0. -1.
     999902    2    1    2    0    0  0.10455929590E-01  0.12670953682E-01 -0.16972211374E-01  0.10203093419E+01  0.10200358904E+01 0.  0.
     999903    2    3    3    0    0 -0.52891550655E-01 -0.10562723372E+00 -0.50530453416E-01  0.12950435761E+00  0.16230319937E-01 0.  0.
         14    1    1    2    0    0 -0.10455929590E-01 -0.12670953682E-01  0.16972211374E-01  0.23620658114E-01  0.00000000000E+00 0. -1.
     999901    1    3    3    0    0  0.63347480245E-01  0.11829818740E+00  0.33558242042E-01  0.89080498427E+00  0.88000000000E+00 0. -1.
        -11    1    4    4    0    0 -0.30874988100E-01 -0.61777169353E-01 -0.38133699907E-01  0.78893115879E-01  0.51100000000E-03 0.  1.
         11    1    4    4    0    0 -0.22016562555E-01 -0.43850064363E-01 -0.12396753509E-01  0.50611241735E-01  0.51100000000E-03 0. -1.
</event>
<event>
 8    1  0.1132492E+005  0.1043930E+01  0.7957747E-01            NaN
         13   -1    0    0    0    0  0.00000000000E+00  0.00000000000E+00  0.74505805969E-08  0.10566000000E+00  0.10566000000E+00 0. -1.
     999900   -1    0    0    0    0 -0.00000000000E+00 -0.00000000000E+00 -0.74505805969E-08  0.93827000000E+00  0.93827000000E+00 0.  1.
     999902    2    1    2    0    0 -0.14510332777E-01 -0.14134889204E-01 -0.12582764815E-01  0.10200831801E+01  0.10198044045E+01 0.  0.
     999903    2    3    3    0    0  0.54643188334E-02 -0.12378579429E+00 -0.42937154032E-01  0.13253391573E+00  0.19205675556E-01 0.  0.
         14    1    1    2    0    0  0.14510332777E-01  0.14134889204E-01  0.12582764815E-01  0.23846819924E-01  0.00000000000E+00 0. -1.
     999901    1    3    3    0    0 -0.19974651610E-01  0.10965090509E+00  0.30354389216E-01  0.88754926434E+00  0.88000000000E+00 0. -1.
        -11    1    4    4    0    0 -0.13063862977E-02 -0.10617620681E+00 -0.39812796465E-01  0.11340376282E+00  0.51100000000E-03 0.  1.
         11    1    4    4    0    0  0.67707051311E-02 -0.17609587480E-01 -0.31243575662E-02  0.19130152911E-01  0.51100000000E-03 0. -1.
</event>
<event>
 7    1  0.1132492E+005  0.1043930E+01  0.7957747E-01            NaN
         13   -1    0    0    0    0  0.00000000000E+00  0.00000000000E+00  0.74505805969E-08  0.10566000000E+00  0.10566000000E+00 0.  1.
     999900   -1    0    0    0    0 -0.00000000000E+00 -0.00000000000E+00 -0.74505805969E-08  0.93827000000E+00  0.93827000000E+00 0.  1.
     999903    2    1    2    0    0  0.27170522947E-01 -0.10245310989E+00  0.53908055178E-01  0.12057055867E+00  0.19907389636E-01 0.  0.
         14    1    1    2    0    0 -0.12573115906E-01  0.35035498448E-01 -0.13965443493E-01  0.39756798250E-01  0.00000000000E+00 0. -1.
     999901    1    1    2    0    0 -0.14597407041E-01  0.67417611443E-01 -0.39942611685E-01  0.88360264308E+00  0.88000000000E+00 0.  1.
        -11    1    3    3    0    0  0.24003890465E-01 -0.55451248078E-01  0.34811176046E-01  0.69735979017E-01  0.51100000000E-03 0.  1.
         11    1    3    3    0    0  0.31666324820E-02 -0.47001861813E-01  0.19096879133E-01  0.50834579656E-01  0.51100000000E-03 0. -1.
</event>
<event>
 8    1  0.1132492E+005  0.1043930E+01  0.7957747E-01            NaN
         13   -1    0    0    0    0  0.00000000000E+00  0.00000000000E+00  0.74505805969E-08  0.10566000000E+00  0.10566000000E+00 0.  1.
     999900   -1    0    0    0    0 -0.00000000000E+00 -0.00000000000E+00 -0.74505805969E-08  0.93827000000E+00  0.93827000000E+00 0. -1.
     999902    2    1    2    0    0  0.10325602960E-01 -0.18702190924E-01 -0.43962843620E-02  0.10221190546E+01  0.10218863168E+01 0.  0.
     999903    2    3    3    0    0  0.11201666617E+00  0.36871100536E-01 -0.58093140614E-01  0.13289871330E+00  0.19494703291E-01 0.  0.
         14    1    1    2    0    0 -0.10325602960E-01  0.18702190924E-01  0.43962843620E-02  0.21810945373E-01  0.00000000000E+00 0.  1.
     999901    1    3    3    0    0 -0.10169106321E+00 -0.55573291460E-01  0.53696856252E-01  0.88922034133E+00  0.88000000000E+00 0.  1.
        -11    1    4    4    0    0  0.53963534344E-01  0.83137833448E-02 -0.22511780776E-01  0.59061183760E-01  0.51100000000E-03 0. -1.
         11    1    4    4    0    0  0.58053131822E-01  0.28557317191E-01 -0.35581359838E-01  0.73837529540E-01  0.51100000000E-03 0.  1.
</event>
<event>
 8    1  0.1132492E+005  0.1043930E+01  0.7957747E-01            NaN
         13   -1    0    0    0    0  0.00000000000E+00  0.00000000000E+00  0.74505805969E-08  0.10566000000E+00  0.10566000000E+00 0. -1.
     999900   -1    0    0    0    0 -0.00000000000E+00 -0.00000000000E+00 -0.74505805969E-08  0.93827000000E+00  0.93827000000E+00 0.  1.
     999902    2    1    2    0    0  0.12369129632E-01  0.76164054458E-02  0.18629682734E-01  0.10203064931E+01  0.10200329748E+01 0.  0.
     999903    2    3    3    0    0 -0.39997695385E-01 -0.10097191472E+00 -0.65091475648E-01  0.12815015029E+00  0.19758988358E-01 0.  0.
         14    1    1    2    0    0 -0.12369129632E-01 -0.76164054458E-02 -0.18629682734E-01  0.23623506906E-01  0.00000000000E+00 0. -1.
     999901    1    3    3    0    0  0.52366825017E-01  0.10858832016E+00  0.83721158382E-01  0.89215634280E+00  0.88000000000E+00 0.  1.
        -11    1    4    4    0    0 -0.34319270376E-01 -0.64089794112E-01 -0.47881642096E-01  0.87053011432E-01  0.51100000000E-03 0. -1.
         11    1    4    4    0    0 -0.56784250080E-02 -0.36882120603E-01 -0.17209833552E-01  0.41097138862E-01  0.51100000000E-03 0.  1.
</event>
<event>
 8    1  0.1132492E+005  0.1043930E+01  0.7957747E-01            NaN
         13   -1    0    0    0    0  0.00000000000E+00  0.00000000000E+00  0.74505805969E-08  0.10566000000E+00  0.10566000000E+00 0. -1.
     999900   -1    0    0    0    0 -0.00000000000E+00 -0.00000000000E+00 -0.74505805969E-08  0.93827000000E+00  0.93827000000E+00 0.  1.
     999902    2    1    2    0    0  0.19743751227E-01 -0.10471857154E-02 -0.12863641942E-01  0.10203421727E+01  0.10200694897E+01 0.  0.
     999903    2    3    3    0    0  0.11769720197E+00 -0.53088157942E-01  0.22332756667E-01  0.13268124211E+00  0.20846489456E-01 0.  0.
         14    1    1    2    0    0 -0.19743751227E-01  0.10471857154E-02  0.12863641942E-01  0.23587827252E-01  0.00000000000E+00 0. -1.
     999901    1    3    3    0    0 -0.97953450744E-01  0.52040972226E-01 -0.35196398609E-01  0.88766093064E+00  0.88000000000E+00 0. -1.
        -11    1    4    4    0    0  0.20799496417E-01 -0.16650949646E-01 -0.57098905911E-03  0.26654461630E-01  0.51100000000E-03 0. -1.
         11    1    4    4    0    0  0.96897705554E-01 -0.36437208296E-01  0.22903745726E-01  0.10602678048E+00  0.51100000000E-03 0.  1.
</event>
<event>
 8    1  0.1132492E+005  0.1043930E+01  0.7957747E-01            NaN
         13   -1    0    0    0    0  0.00000000000E+00  0.00000000000E+00  0.74505805969E-08  0.10566000000E+00  0.10566000000E+00 0.  1.
     999900   -1    0    0    0    0 -0.00000000000E+00 -0.00000000000E+00 -0.74505805969E-08  0.93827000000E+00  0.93827000000E+00 0.  1.
     999902    2    1    2    0    0  0.14590400937E-01  0.75384263337E-02 -0.17143932837E-01  0.10201892733E+01  0.10199130018E+01 0.  0.
     999903    2    3    3    0    0 -0.36788132536E-01  0.41689356147E-01 -0.11830269229E+00  0.13224832125E+00  0.20067943613E-01 0.  0.
         14    1    1    2    0    0 -0.14590400937E-01 -0.75384263337E-02  0.17143932837E-01  0.23740726700E-01  0.00000000000E+00 0.  1.
     999901    1    3    3    0    0  0.51378533473E-01 -0.34150929814E-01  0.10115875945E+00  0.88794095205E+00  0.88000000000E+00 0. -1.
        -11    1    4    4    0    0 -0.17709541584E-01  0.11591485279E-01 -0.62947749347E-01  0.66412880249E-01  0.51100000000E-03 0.  1.
         11    1    4    4    0    0 -0.19078590952E-01  0.30097870869E-01 -0.55354942938E-01  0.65835441004E-01  0.51100000000E-03 0. -1.
</event>
<event>
 8    1  0.1132492E+005  0.1043930E+01  0.7957747E-01            NaN
         13   -1    0    0    0    0  0.00000000000E+00  0.00000000000E+00  0.74505805969E-08  0.10566000000E+00  0.10566000000E+00 0.  1.
     999900   -1    0    0    0    0 -0.00000000000E+00 -0.00000000000E+00 -0.74505805969E-08  0.93827000000E+00  0.93827000000E+00 0. -1.
     999902    2    1    2    0    0 -0.33885690080E-02 -0.21391898470E-01 -0.80993236704E-02  0.10208065322E+01  0.10205446004E+01 0.  0.
     999903    2    3    3    0    0 -0.12982195246E+00 -0.47681768376E-02  0.23030191315E-03  0.13157589211E+00  0.20873128563E-01 0.  0.
         14    1    1    2    0    0  0.33885690080E-02  0.21391898470E-01  0.80993236704E-02  0.23123467819E-01  0.00000000000E+00 0.  1.
     999901    1    3    3    0    0  0.12643338345E+00 -0.16623721632E-01 -0.83296255835E-02  0.88923064007E+00  0.88000000000E+00 0.  1.
        -11    1    4    4    0    0 -0.23191301980E-01 -0.48671239333E-02  0.70437253819E-02  0.24726515548E-01  0.51100000000E-03 0. -1.
         11    1    4    4    0    0 -0.10663065048E+00  0.98947095694E-04 -0.68134234687E-02  0.10684937657E+00  0.51100000000E-03 0.  1.
</event>
<event>
 8    1  0.1132492E+005  0.1043930E+01  0.7957747E-01            NaN
         13   -1    0    0    0    0  0.00000000000E+00  0.00000000000E+00  0.74505805969E-08  0.10566000000E+00  0.10566000000E+00 0.  1.
     999900   -1    0    0    0    0 -0.00000000000E+00 -0.00000000000E+00 -0.74505805969E-08  0.93827000000E+00  0.93827000000E+00 0. -1.
     999902    2    1    2    0    0 -0.77881806318E-02 -0.17063162792E-01  0.16919429736E-01  0.10186698657E+01  0.10183566276E+01 0.  0.
     999903    2    3    3    0    0  0.10937012117E+00 -0.55812483091E-01 -0.32868787503E-01  0.12866624544E+00  0.19944644655E-01 0.  0.
         14    1    1    2    0    0  0.77881806318E-02  0.17063162792E-01 -0.16919429736E-01  0.25260134295E-01  0.00000000000E+00 0. -1.
     999901    1    3    3    0    0 -0.11715830180E+00  0.38749320300E-01  0.49788217240E-01  0.89000362026E+00  0.88000000000E+00 0.  1.
        -11    1    4    4    0    0  0.46771644012E-01 -0.30993597721E-01 -0.22844803289E-01  0.60583297546E-01  0.51100000000E-03 0.  1.
         11    1    4    4    0    0  0.62598477159E-01 -0.24818885371E-01 -0.10023984215E-01  0.68082947896E-01  0.51100000000E-03 0. -1.
</event>
<event>
 8    1  0.1132492E+005  0.1043930E+01  0.7957747E-01            NaN
         13   -1    0    0    0    0  0.00000000000E+00  0.00000000000E+00  0.74505805969E-08  0.10566000000E+00  0.10566000000E+00 0.  1.
     999900   -1    0    0    0    0 -0.00000000000E+00 -0.00000000000E+00 -0.74505805969E-08  0.93827000000E+00  0.93827000000E+00 0. -1.
     999902    2    1    2    0    0  0.13895459848E-01  0.14673336461E-03 -0.19232267400E-01  0.10202026857E+01  0.10199267299E+01 0.  0.
     999903    2    3    3    0    0 -0.90274063123E-01 -0.27479606818E-01 -0.86094488162E-01  0.13111041784E+00  0.29549035689E-01 0.  0.
         14    1    1    2    0    0 -0.13895459848E-01 -0.14673336461E-03  0.19232267400E-01  0.23727314311E-01  0.00000000000E+00 0.  1.
     999901    1    3    3    0    0  0.10416952297E+00  0.27626340183E-01  0.66862220762E-01  0.88909226785E+00  0.88000000000E+00 0.  1.
        -11    1    4    4    0    0 -0.77574323208E-01 -0.15695683605E-01 -0.58095026620E-01  0.98180565001E-01  0.51100000000E-03 0.  1.
         11    1    4    4    0    0 -0.12699739915E-01 -0.11783923213E-01 -0.27999461542E-01  0.32929852836E-01  0.51100000000E-03 0. -1.
</event>
<event>
 8    1  0.1132492E+005  0.1043930E+01  0.7957747E-01            NaN
         13   -1    0    0    0    0  0.00000000000E+00  0.00000000000E+00  0.74505805969E-08  0.10566000000E+00  0.10566000000E+00 0. -1.
     999900   -1    0    0    0    0 -0.00000000000E+00 -0.00000000000E+00 -0.74505805969E-08  0.93827000000E+00  0.93827000000E+00 0. -1.
     999902    2    1    2    0    0  0.11721416485E-01 -0.20759805016E-01 -0.73401789058E-03  0.10200783776E+01  0.10197994884E+01 0.  0.
     999903    2    3    3    0    0 -0.12265072307E+00  0.26336758236E-01 -0.21189963062E-01  0.12839883660E+00  0.17332685890E-01 0.  0.
         14    1    1    2    0    0 -0.11721416485E-01  0.20759805016E-01  0.73401789058E-03  0.23851622397E-01  0.00000000000E+00 0.  1.
     999901    1    3    3    0    0  0.13437213956E+00 -0.47096563251E-01  0.20455945172E-01  0.89167954101E+00  0.88000000000E+00 0.  1.
        -11    1    4    4    0    0 -0.51520679667E-01  0.24497635633E-02 -0.74763179465E-02  0.52120420431E-01  0.51100000000E-03 0. -1.
         11    1    4    4    0    0 -0.71130043404E-01  0.23886994672E-01 -0.13713645116E-01  0.76278416164E-01  0.51100000000E-03 0.  1.
</event>
<event>
 8    1  0.1132492E+005  0.1043930E+01  0.7957747E-01            NaN
         13   -1    0    0    0    0  0.00000000000E+00  0.00000000000E+00  0.74505805969E-08  0.10566000000E+00  0.10566000000E+00 0.  1.
     999900   -1    0    0    0    0 -0.00000000000E+00 -0.00000000000E+00 -0.74505805969E-08  0.93827000000E+00  0.93827000000E+00 0. -1.
     999902    2    1    2    0    0 -0.70062043661E-02 -0.80519449330E-02 -0.22886830958E-01  0.10186767280E+01  0.10183636621E+01 0.  0.
     999903    2    3    3    0    0 -0.97645336198E-02 -0.24900153453E-01 -0.12811216963E+00  0.13224351424E+00  0.18980392282E-01 0.  0.
         14    1    1    2    0    0  0.70062043661E-02  0.80519449330E-02  0.22886830958E-01  0.25253272028E-01  0.00000000000E+00 0.  1.
     999901    1    3    3    0    0  0.27583292537E-02  0.16848208520E-01  0.10522533868E+00  0.88643321373E+00  0.88000000000E+00 0.  1.
        -11    1    4    4    0    0  0.53637539815E-02 -0.80982012719E-02 -0.29141387877E-01  0.30721854258E-01  0.51100000000E-03 0.  1.
         11    1    4    4    0    0 -0.15128287601E-01 -0.16801952182E-01 -0.98970781756E-01  0.10152165998E+00  0.51100000000E-03 0. -1.
</event>
<event>
 8    1  0.1132492E+005  0.1043930E+01  0.7957747E-01            NaN
         13   -1    0    0    0    0  0.00000000000E+00  0.00000000000E+00  0.74505805969E-08  0.10566000000E+00  0.10566000000E+00 0.  1.
     999900   -1    0    0    0    0 -0.00000000000E+00 -0.00000000000E+00 -0.74505805969E-08  0.93827000000E+00  0.93827000000E+00 0.  1.
     999902    2    1    2    0    0  0.96811017866E-02  0.19615984452E-01 -0.10287302217E-01  0.10197568917E+01  0.10194703424E+01 0.  0.
     999903    2    3    3    0    0  0.10295957416E+00  0.36467333191E-01 -0.72304278036E-01  0.13249653158E+00  0.19921896381E-01 0.  0.
         14    1    1    2    0    0 -0.96811017866E-02 -0.19615984452E-01  0.10287302217E-01  0.24173108297E-01  0.00000000000E+00 0.  1.
     999901    1    3    3    0    0 -0.93278472377E-01 -0.16851348739E-01  0.62016975818E-01  0.88726036013E+00  0.88000000000E+00 0. -1.
        -11    1    4    4    0    0  0.68534282950E-01  0.26857555128E-01 -0.37525029934E-01  0.82623635840E-01  0.51100000000E-03 0.  1.
         11    1    4    4    0    0  0.34425291214E-01  0.96097780624E-02 -0.34779248101E-01  0.49872895736E-01  0.51100000000E-03 0. -1.
</event>
<event>
 8    1  0.1132492E+005  0.1043930E+01  0.7957747E-01            NaN
         13   -1    0    0    0    0  0.00000000000E+00  0.00000000000E+00  0.74505805969E-08  0.10566000000E+00  0.10566000000E+00 0.  1.
     999900   -1    0    0    0    0 -0.00000000000E+00 -0.00000000000E+00 -0.74505805969E-08  0.93827000000E+00  0.93827000000E+00 0.  1.
     999902    2    1    2    0    0  0.10091634544E-01  0.21596109963E-01  0.91864860053E-03  0.10200746658E+01  0.10197956888E+01 0.  0.
     999903    2    3    3    0    0 -0.70878886608E-02  0.65202182553E-01  0.11256913925E+00  0.13178278944E+00  0.19832541595E-01 0.  0.
         14    1    1    2    0    0 -0.10091634544E-01 -0.21596109963E-01 -0.91864860053E-03  0.23855334174E-01  0.00000000000E+00 0. -1.
     999901    1    3    3    0    0  0.17179523205E-01 -0.43606072590E-01 -0.11165049065E+00  0.88829187638E+00  0.88000000000E+00 0.  1.
        -11    1    4    4    0    0  0.47586280592E-02  0.38956194525E-01  0.57194715951E-01  0.69366607865E-01  0.51100000000E-03 0. -1.
         11    1    4    4    0    0 -0.11846516720E-01  0.26245988028E-01  0.55374423302E-01  0.62416181579E-01  0.51100000000E-03 0.  1.
</event>
<event>
 8    1  0.1132492E+005  0.1043930E+01  0.7957747E-01            NaN
         13   -1    0    0    0    0  0.00000000000E+00  0.00000000000E+00  0.74505805969E-08  0.10566000000E+00  0.10566000000E+00 0. -1.
     999900   -1    0    0    0    0 -0.00000000000E+00 -0.00000000000E+00 -0.74505805969E-08  0.93827000000E+00  0.93827000000E+00 0.  1.
     999902    2    1    2    0    0  0.58454760324E-02 -0.21388683652E-01  0.74904615474E-02  0.10205258894E+01  0.10202574864E+01 0.  0.
     999903    2    3    3    0    0 -0.15565289461E-01 -0.12701829707E+00  0.33106159752E-01  0.13358045698E+00  0.19281977270E-01 0.  0.
         14    1    1    2    0    0 -0.58454760324E-02  0.21388683652E-01 -0.74904615474E-02  0.23404110592E-01  0.00000000000E+00 0.  1.
     999901    1    3    3    0    0  0.21410765493E-01  0.10562961342E+00 -0.25615698205E-01  0.88694543243E+00  0.88000000000E+00 0.  1.
        -11    1    4    4    0    0  0.26076280860E-02 -0.51227901995E-01  0.16555870528E-01  0.53902278588E-01  0.51100000000E-03 0.  1.
         11    1    4    4    0    0 -0.18172917547E-01 -0.75790395073E-01  0.16550289224E-01  0.79678178392E-01  0.51100000000E-03 0. -1.
</event>
<event>
 8    1  0.1132492E+005  0.1043930E+01  0.7957747E-01            NaN
         13   -1    0    0    0    0  0.00000000000E+00  0.00000000000E+00  0.74505805969E-08  0.10566000000E+00  0.10566000000E+00 0.  1.
     999900   -1    0    0    0    0 -0.00000000000E+00 -0.00000000000E+00 -0.74505805969E-08  0.93827000000E+00  0.93827000000E+00 0.  1.
     999902    2    1    2    0    0 -0.23815670055E-01 -0.94043640452E-02 -0.66551026316E-02  0.10174740254E+01  0.10171300181E+01 0.  0.
     999903    2    3    3    0    0 -0.11160160188E+00  0.27350514736E-01 -0.59507309577E-01  0.13076626813E+00  0.18860773870E-01 0.  0.
         14    1    1    2    0    0  0.23815670055E-01  0.94043640452E-02  0.66551026316E-02  0.26455974643E-01  0.00000000000E+00 0.  1.
     999901    1    3    3    0    0  0.87785931821E-01 -0.36754878781E-01  0.52852206946E-01  0.88670775722E+00  0.88000000000E+00 0. -1.
        -11    1    4    4    0    0 -0.10023419413E+00  0.18281044958E-01 -0.51829344392E-01  0.11431374519E+00  0.51100000000E-03 0. -1.
         11    1    4    4    0    0 -0.11367407745E-01  0.90694697780E-02 -0.76779651854E-02  0.16452522946E-01  0.51100000000E-03 0.  1.
</event>
<event>
 8    1  0.1132492E+005  0.1043930E+01  0.7957747E-01            NaN
         13   -1    0    0    0    0  0.00000000000E+00  0.00000000000E+00  0.74505805969E-08  0.10566000000E+00  0.10566000000E+00 0. -1.
     999900   -1    0    0    0    0 -0.00000000000E+00 -0.00000000000E+00 -0.74505805969E-08  0.93827000000E+00  0.93827000000E+00 0. -1.
     999902    2    1    2    0    0  0.48667549154E-02 -0.27444594003E-02 -0.23170359010E-01  0.10200955103E+01  0.10198170264E+01 0.  0.
     999903    2    3    3    0    0 -0.25538725525E-01 -0.12259738944E+00 -0.36925369458E-01  0.13134446624E+00  0.14336648954E-01 0.  0.
         14    1    1    2    0    0 -0.48667549154E-02  0.27444594003E-02  0.23170359010E-01  0.23834489663E-01  0.00000000000E+00 0. -1.
     999901    1    3    3    0    0  0.30405480440E-01  0.11985293004E+00  0.13755010447E-01  0.88875104410E+00  0.88000000000E+00 0.  1.
        -11    1    4    4    0    0 -0.83680178240E-02 -0.30737206100E-01 -0.33167431077E-02  0.32032194226E-01  0.51100000000E-03 0. -1.
         11    1    4    4    0    0 -0.17170707700E-01 -0.91860183336E-01 -0.33608626350E-01  0.99312272009E-01  0.51100000000E-03 0.  1.
</event>
<event>
 8    1  0.1132492E+005  0.1043930E+01  0.7957747E-01            NaN
         13   -1    0    0    0    0  0.00000000000E+00  0.00000000000E+00  0.74505805969E-08  0.10566000000E+00  0.10566000000E+00 0. -1.
     999900   -1    0    0    0    0 -0.00000000000E+00 -0.00000000000E+00 -0.74505805969E-08  0.93827000000E+00  0.93827000000E+00 0. -1.
     999902    2    1    2    0    0  0.21659149474E-01  0.90379429167E-02 -0.25490505090E-02  0.10203227802E+01  0.10200496434E+01 0.  0.
     999903    2    3    3    0    0 -0.28073782833E-01  0.55562228559E-01  0.11273707597E+00  0.13019427000E+00  0.19120698717E-01 0.  0.
         14    1    1    2    0    0 -0.21659149474E-01 -0.90379429167E-02  0.25490505090E-02  0.23607219799E-01  0.00000000000E+00 0. -1.
     999901    1    3    3    0    0  0.49732932308E-01 -0.46524285642E-01 -0.11528612647E+00  0.89012851020E+00  0.88000000000E+00 0. -1.
        -11    1    4    4    0    0 -0.10212155814E-01  0.33925240272E-01  0.48218029424E-01  0.59836857675E-01  0.51100000000E-03 0.  1.
         11    1    4    4    0    0 -0.17861627019E-01  0.21636988287E-01  0.64519046542E-01  0.70357412328E-01  0.51100000000E-03 0. -1.
</event>
<event>
 8    1  0.1132492E+005  0.1043930E+01  0.7957747E-01            NaN
         13   -1    0    0    0    0  0.00000000000E+00  0.00000000000E+00  0.74505805969E-08  0.10566000000E+00  0.10566000000E+00 0. -1.
     999900   -1    0    0    0    0 -0.00000000000E+00 -0.00000000000E+00 -0.74505805969E-08  0.93827000000E+00  0.93827000000E+00 0. -1.
     999902    2    1    2    0    0  0.17436497448E-01 -0.16551441718E-01  0.45178957763E-02  0.10194679263E+01  0.10191744011E+01 0.  0.
     999903    2    3    3    0    0 -0.11472182357E+00  0.54417048469E-02 -0.51786093451E-01  0.12754883834E+00  0.19904716327E-01 0.  0.
         14    1    1    2    0    0 -0.17436497448E-01  0.16551441718E-01 -0.45178957763E-02  0.24462073674E-01  0.00000000000E+00 0.  1.
     999901    1    3    3    0    0  0.13215832102E+00 -0.21993146565E-01  0.56303989227E-01  0.89191908799E+00  0.88000000000E+00 0. -1.
        -11    1    4    4    0    0 -0.45411347680E-01  0.10375538848E-01 -0.15094616361E-01  0.48968876530E-01  0.51100000000E-03 0.  1.
         11    1    4    4    0    0 -0.69310475891E-01 -0.49338340007E-02 -0.36691477090E-01  0.78579961811E-01  0.51100000000E-03 0. -1.
</event>
<event>
 8    1  0.1132492E+005  0.1043930E+01  0.7957747E-01            NaN
         13   -1    0    0    0    0  0.00000000000E+00  0.00000000000E+00  0.74505805969E-08  0.10566000000E+00  0.10566000000E+00 0. -1.
     999900   -1    0    0    0    0 -0.00000000000E+00 -0.00000000000E+00 -0.74505805969E-08  0.93827000000E+00  0.93827000000E+00 0. -1.
     999902    2    1    2    0    0 -0.58402104922E-02 -0.12526213244E-01 -0.19495194986E-01  0.10200327888E+01  0.10197528198E+01 0.  0.
     999903    2    3    3    0    0  0.96391937797E-01 -0.29308794064E-01  0.77900221311E-01  0.12861878043E+00  0.17998197582E-01 0.  0.
         14    1    1    2    0    0  0.58402104922E-02  0.12526213244E-01  0.19495194986E-01  0.23897211226E-01  0.00000000000E+00 0. -1.
     999901    1    3    3    0    0 -0.10223214829E+00  0.16782580820E-01 -0.97395416297E-01  0.89141400835E+00  0.88000000000E+00 0.  1.
        -11    1    4    4    0    0  0.13226399632E-01  0.12755059665E-02  0.14415234891E-01  0.19611850516E-01  0.51100000000E-03 0.  1.
         11    1    4    4    0    0  0.83165538165E-01 -0.30584300031E-01  0.63484986420E-01  0.10900692991E+00  0.51100000000E-03 0. -1.
</event>
<event>
 8    1  0.1132492E+005  0.1043930E+01  0.7957747E-01            NaN
         13   -1    0    0    0    0  0.00000000000E+00  0.00000000000E+00  0.74505805969E-08  0.10566000000E+00  0.10566000000E+00 0.  1.
     999900   -1    0    0    0    0 -0.00000000000E+00 -0.00000000000E+00 -0.74505805969E-08  0.93827000000E+00  0.93827000000E+00 0.  1.
     999902    2    1    2    0    0 -0.16114135291E-01  0.13056443641E-01 -0.13156677985E-01  0.10193691724E+01  0.10190732434E+01 0.  0.
     999903    2    3    3    0    0 -0.99318536300E-01  0.59568957878E-01 -0.61962058117E-01  0.13287701143E+00  0.20108981226E-01 0.  0.
         14    1    1    2    0    0  0.16114135291E-01 -0.13056443641E-01  0.13156677985E-01  0.24560827599E-01  0.00000000000E+00 0.  1.
     999901    1    3    3    0    0  0.83204401009E-01 -0.46512514236E-01  0.48805380132E-01  0.88649216097E+00  0.88000000000E+00 0. -1.
        -11    1    4    4    0    0 -0.52460707437E-01  0.20829802525E-01 -0.34566976769E-01  0.66190206995E-01  0.51100000000E-03 0.  1.
         11    1    4    4    0    0 -0.46857828863E-01  0.38739155353E-01 -0.27395081348E-01  0.66686804438E-01  0.51100000000E-03 0. -1.
</event>
<event>
 8    1  0.1132492E+005  0.1043930E+01  0.7957747E-01            NaN
         13   -1    0    0    0    0  0.00000000000E+00  0.00000000000E+00  0.74505805969E-08  0.10566000000E+00  0.10566000000E+00 0.  1.
     999900   -1    0    0    0    0 -0.00000000000E+00 -0.00000000000E+00 -0.74505805969E-08  0.93827000000E+00  0.93827000000E+00 0.  1.
     999902    2    1    2    0    0 -0.52601686393E-02 -0.18972037968E-01 -0.13818735472E-01  0.10198766208E+01  0.10195929368E+01 0.  0.
     999903    2    3    3    0    0  0.48529393178E-02  0.99839820445E-01  0.75977773847E-01  0.12730620584E+00  0.21040607415E-01 0.  0.
         14    1    1    2    0    0  0.52601686393E-02  0.18972037968E-01  0.13818735472E-01  0.24053379156E-01  0.00000000000E+00 0. -1.
     999901    1    3    3    0    0 -0.10113107957E-01 -0.11881185841E+00 -0.89796509319E-01  0.89257041500E+00  0.88000000000E+00 0. -1.
        -11    1    4    4    0    0  0.58599150697E-02  0.39256071530E-01  0.18523069520E-01  0.43803458562E-01  0.51100000000E-03 0. -1.
         11    1    4    4    0    0 -0.10069757519E-02  0.60583748916E-01  0.57454704327E-01  0.83502747279E-01  0.51100000000E-03 0.  1.
</event>
<event>
 7    1  0.1132492E+005  0.1043930E+01  0.7957747E-01            NaN
         13   -1    0    0    0    0  0.00000000000E+00  0.00000000000E+00  0.74505805969E-08  0.10566000000E+00  0.10566000000E+00 0. -1.
     999900   -1    0    0    0    0 -0.00000000000E+00 -0.00000000000E+00 -0.74505805969E-08  0.93827000000E+00  0.93827000000E+00 0.  1.
     999903    2    1    2    0    0 -0.63302931226E-01 -0.40212045985E-01  0.27729896377E-01  0.82362416554E-01  0.19757296463E-01 0.  0.
         14    1    1    2    0    0 -0.59120158437E-01  0.17251439517E-01  0.34552754841E-01  0.70616557309E-01  0.00000000000E+00 0. -1.
     999901    1    1    2    0    0  0.12242308966E+00  0.22960606468E-01 -0.62282651218E-01  0.89095102614E+00  0.88000000000E+00 0.  1.
        -11    1    3    3    0    0 -0.34133482316E-01 -0.31071997095E-01  0.10768247462E-01  0.47400209841E-01  0.51100000000E-03 0. -1.
         11    1    3    3    0    0 -0.29169448909E-01 -0.91400488896E-02  0.16961648915E-01  0.34962206713E-01  0.51100000000E-03 0.  1.
</event>
<event>
 7    1  0.1132492E+005  0.1043930E+01  0.7957747E-01            NaN
         13   -1    0    0    0    0  0.00000000000E+00  0.00000000000E+00  0.74505805969E-08  0.10566000000E+00  0.10566000000E+00 0. -1.
     999900   -1    0    0    0    0 -0.00000000000E+00 -0.00000000000E+00 -0.74505805969E-08  0.93827000000E+00  0.93827000000E+00 0. -1.
     999902    2    1    2    0    0 -0.21561522160E-03 -0.11119495640E-01 -0.20504285118E-01  0.10206037191E+01  0.10203371188E+01 0.  0.
         14    1    1    2    0    0  0.21561522160E-03  0.11119495640E-01  0.20504285118E-01  0.23326280917E-01  0.00000000000E+00 0. -1.
     999901    1    3    3    0    0 -0.10896494189E+00  0.30454730671E-01 -0.60643289686E-01  0.88931347553E+00  0.88000000000E+00 0. -1.
        -11    1    3    3    0    0  0.81118546680E-01 -0.14757163557E-01  0.42402143008E-01  0.92715669357E-01  0.51100000000E-03 0. -1.
         11    1    3    3    0    0  0.27630779989E-01 -0.26817062754E-01 -0.22631384394E-02  0.38574574193E-01  0.51100000000E-03 0.  1.
</event>
<event>
 8    1  0.1132492E+005  0.1043930E+01  0.7957747E-01            NaN
         13   -1    0    0    0    0  0.00000000000E+00  0.00000000000E+00  0.74505805969E-08  0.10566000000E+00  0.10566000000E+00 0. -1.
     999900   -1    0    0    0    0 -0.00000000000E+00 -0.00000000000E+00 -0.74505805969E-08  0.93827000000E+00  0.93827000000E+00 0.  1.
     999902    2    1    2    0    0  0.25588504265E-01 -0.13172433948E-02 -0.61731394270E-02  0.10175744630E+01  0.10172330969E+01 0.  0.
     999903    2    3    3    0    0 -0.43908284968E-02 -0.12009540687E+00 -0.40495187638E-01  0.12842598523E+00  0.20277754668E-01 0.  0.
         14    1    1    2    0    0 -0.25588504265E-01  0.13172433948E-02  0.61731394270E-02  0.26355537010E-01  0.00000000000E+00 0.  1.
     999901    1    3    3    0    0  0.29979332762E-01  0.11877816347E+00  0.34322048211E-01  0.88914847776E+00  0.88000000000E+00 0. -1.
        -11    1    4    4    0    0 -0.59874175019E-02 -0.52552687496E-01 -0.27527179255E-01  0.59629194612E-01  0.51100000000E-03 0. -1.
         11    1    4    4    0    0  0.15965890052E-02 -0.67542719373E-01 -0.12968008383E-01  0.68796790617E-01  0.51100000000E-03 0.  1.
</event>
<event>
 8    1  0.1132492E+005  0.1043930E+01  0.7957747E-01            NaN
         13   -1    0    0    0    0  0.00000000000E+00  0.00000000000E+00  0.74505805969E-08  0.10566000000E+00  0.10566000000E+00 0. -1.
     999900   -1    0    0    0    0 -0.00000000000E+00 -0.00000000000E+00 -0.74505805969E-08  0.93827000000E+00  0.93827000000E+00 0.  1.
     999902    2    1    2    0    0  0.22067385302E-01  0.67655963026E-02 -0.10485663770E-02  0.10208249729E+01  0.10205634635E+01 0.  0.
     999903    2    3    3    0    0  0.10312992279E-01  0.83318455481E-02 -0.12935576881E+00  0.13144127778E+00  0.19186378518E-01 0.  0.
         14    1    1    2    0    0 -0.22067385302E-01 -0.67655963026E-02  0.10485663770E-02  0.23105027134E-01  0.00000000000E+00 0. -1.
     999901    1    3    3    0    0  0.11754393023E-01 -0.15662492455E-02  0.12830720243E+00  0.88938369509E+00  0.88000000000E+00 0. -1.
        -11    1    4    4    0    0 -0.51969421017E-02  0.51631904270E-02 -0.34576483644E-01  0.35347716826E-01  0.51100000000E-03 0. -1.
         11    1    4    4    0    0  0.15509934381E-01  0.31686551211E-02 -0.94779285162E-01  0.96093560953E-01  0.51100000000E-03 0.  1.
</event>
<event>
 8    1  0.1132492E+005  0.1043930E+01  0.7957747E-01            NaN
         13   -1    0    0    0    0  0.00000000000E+00  0.00000000000E+00  0.74505805969E-08  0.10566000000E+00  0.10566000000E+00 0. -1.
     999900   -1    0    0    0    0 -0.00000000000E+00 -0.00000000000E+00 -0.74505805969E-08  0.93827000000E+00  0.93827000000E+00 0. -1.
     999902    2    1    2    0    0 -0.41045251634E-02 -0.16149565555E-01 -0.15993700740E-01  0.10208333756E+01  0.10205720586E+01 0.  0.
     999903    2    3    3    0    0  0.49352344193E-01  0.11404287876E+00 -0.30365042252E-01  0.12953418629E+00  0.20387190950E-01 0.  0.
         14    1    1    2    0    0  0.41045251634E-02  0.16149565555E-01  0.15993700740E-01  0.23096624382E-01  0.00000000000E+00 0.  1.
     999901    1    3    3    0    0 -0.53456869357E-01 -0.13019244431E+00  0.14371341512E-01  0.89129918933E+00  0.88000000000E+00 0. -1.
        -11    1    4    4    0    0  0.16171698473E-01  0.54337716726E-01 -0.60034656412E-02  0.57012402257E-01  0.51100000000E-03 0. -1.
         11    1    4    4    0    0  0.33180645720E-01  0.59705162031E-01 -0.24361576611E-01  0.72521784034E-01  0.51100000000E-03 0.  1.
</event>
<event>
 8    1  0.1132492E+005  0.1043930E+01  0.7957747E-01            NaN
         13   -1    0    0    0    0  0.00000000000E+00  0.00000000000E+00  0.74505805969E-08  0.10566000000E+00  0.10566000000E+00 0.  1.
     999900   -1    0    0    0    0 -0.00000000000E+00 -0.00000000000E+00 -0.74505805969E-08  0.93827000000E+00  0.93827000000E+00 0. -1.
     999902    2    1    2    0    0 -0.11180932909E-01  0.18788077575E-01  0.38516824848E-02  0.10217299870E+01  0.10214887791E+01 0.  0.
     999903    2    3    3    0    0  0.11600342623E+00  0.34137206374E-01  0.50069935851E-01  0.13125394357E+00  0.99224730054E-02 0.  0.
         14    1    1    2    0    0  0.11180932909E-01 -0.18788077575E-01 -0.38516824848E-02  0.22200013010E-01  0.00000000000E+00 0. -1.
     999901    1    3    3    0    0 -0.12718435914E+00 -0.15349128798E-01 -0.46218253366E-01  0.89047604342E+00  0.88000000000E+00 0.  1.
        -11    1    4    4    0    0  0.58818633408E-01  0.13392781925E-01  0.21469076889E-01  0.64032652820E-01  0.51100000000E-03 0.  1.
         11    1    4    4    0    0  0.57184792820E-01  0.20744424448E-01  0.28600858962E-01  0.67221290748E-01  0.51100000000E-03 0. -1.
</event>
<event>
 8    1  0.1132492E+005  0.1043930E+01  0.7957747E-01            NaN
         13   -1    0    0    0    0  0.00000000000E+00  0.00000000000E+00  0.74505805969E-08  0.10566000000E+00  0.10566000000E+00 0. -1.
     999900   -1    0    0    0    0 -0.00000000000E+00 -0.00000000000E+00 -0.74505805969E-08  0.93827000000E+00  0.93827000000E+00 0.  1.
     999902    2    1    2    0    0  0.23441442685E-01 -0.24668504522E-02 -0.55504496100E-02  0.10197144249E+01  0.10194268558E+01 0.  0.
     999903    2    3    3    0    0 -0.88550810316E-02  0.91925526070E-01 -0.89348200127E-01  0.13012179388E+00  0.20490621567E-01 0.  0.
         14    1    1    2    0    0 -0.23441442685E-01  0.24668504522E-02  0.55504496100E-02  0.24215575095E-01  0.00000000000E+00 0. -1.
     999901    1    3    3    0    0  0.32296523717E-01 -0.94392376522E-01  0.83797750517E-01  0.88959263103E+00  0.88000000000E+00 0. -1.
        -11    1    4    4    0    0 -0.47502382303E-02  0.68333544125E-01 -0.77387720872E-01  0.10334969027E+00  0.51100000000E-03 0. -1.
         11    1    4    4    0    0 -0.41048428014E-02  0.23591981945E-01 -0.11960479255E-01  0.26772103607E-01  0.51100000000E-03 0.  1.
</event>
<event>
 8    1  0.1132492E+005  0.1043930E+01  0.7957747E-01            NaN
         13   -1    0    0    0    0  0.00000000000E+00  0.00000000000E+00  0.74505805969E-08  0.10566000000E+00  0.10566000000E+00 0.  1.
     999900   -1    0    0    0    0 -0.00000000000E+00 -0.00000000000E+00 -0.74505805969E-08  0.93827000000E+00  0.93827000000E+00 0. -1.
     999902    2    1    2    0    0  0.14081235939E-01  0.15613514240E-01  0.11363377636E-01  0.10200304313E+01  0.10197504064E+01 0.  0.
     999903    2    3    3    0    0  0.72242842740E-01 -0.60635790530E-01  0.89267307430E-01  0.13139903907E+00  0.20033169320E-01 0.  0.
         14    1    1    2    0    0 -0.14081235939E-01 -0.15613514240E-01 -0.11363377636E-01  0.23899568695E-01  0.00000000000E+00 0. -1.
     999901    1    3    3    0    0 -0.58161606801E-01  0.76249304770E-01 -0.77903929794E-01  0.88863139223E+00  0.88000000000E+00 0. -1.
        -11    1    4    4    0    0  0.45076393402E-01 -0.41418165918E-01  0.69803724152E-01  0.92844853043E-01  0.51100000000E-03 0. -1.
         11    1    4    4    0    0  0.27166449338E-01 -0.19217624612E-01  0.19463583278E-01  0.38554186029E-01  0.51100000000E-03 0.  1.
</event>
<event>
 8    1  0.1132492E+005  0.1043930E+01  0.7957747E-01            NaN
         13   -1    0    0    0    0  0.00000000000E+00  0.00000000000E+00  0.74505805969E-08  0.10566000000E+00  0.10566000000E+00 0.  1.
     999900   -1    0    0    0    0 -0.00000000000E+00 -0.00000000000E+00 -0.74505805969E-08  0.93827000000E+00  0.93827000000E+00 0.  1.
     999902    2    1    2    0    0  0.23006993602E-01  0.98995306689E-02  0.10888127784E-01  0.10166193100E+01  0.10162524035E+01 0.  0.
     999903    2    3    3    0    0  0.41599211365E-01 -0.95000365752E-01 -0.69998377649E-01  0.12651129093E+00  0.18702138413E-01 0.  0.
         14    1    1    2    0    0 -0.23006993602E-01 -0.98995306689E-02 -0.10888127784E-01  0.27310690007E-01  0.00000000000E+00 0.  1.
     999901    1    3    3    0    0 -0.18592217763E-01  0.10489989642E+00  0.80886505433E-01  0.89010801906E+00  0.88000000000E+00 0. -1.
        -11    1    4    4    0    0  0.36008603528E-01 -0.79845890112E-01 -0.50208519971E-01  0.10096109297E+00  0.51100000000E-03 0.  1.
         11    1    4    4    0    0  0.55906078366E-02 -0.15154475640E-01 -0.19789857678E-01  0.25550197961E-01  0.51100000000E-03 0. -1.
</event>
<event>
 8    1  0.1132492E+005  0.1043930E+01  0.7957747E-01            NaN
         13   -1    0    0    0    0  0.00000000000E+00  0.00000000000E+00  0.74505805969E-08  0.10566000000E+00  0.10566000000E+00 0. -1.
     999900   -1    0    0    0    0 -0.00000000000E+00 -0.00000000000E+00 -0.74505805969E-08  0.93827000000E+00  0.93827000000E+00 0.  1.
     999902    2    1    2    0    0 -0.19435502797E-01  0.22954455302E-02  0.12814159077E-01  0.10205374689E+01  0.10202693345E+01 0.  0.
     999903    2    3    3    0    0 -0.74112832780E-01 -0.57269922033E-01 -0.89228234593E-01  0.13095875200E+00  0.20395120111E-01 0.  0.
         14    1    1    2    0    0  0.19435502797E-01 -0.22954455302E-02 -0.12814159077E-01  0.23392531116E-01  0.00000000000E+00 0.  1.
     999901    1    3    3    0    0  0.54677329983E-01  0.59565367563E-01  0.10204239367E+00  0.88957871688E+00  0.88000000000E+00 0. -1.
        -11    1    4    4    0    0 -0.29258575717E-01 -0.11656228415E-01 -0.24058771902E-01  0.39636063632E-01  0.51100000000E-03 0. -1.
         11    1    4    4    0    0 -0.44854257063E-01 -0.45613693618E-01 -0.65169462692E-01  0.91322688368E-01  0.51100000000E-03 0.  1.
</event>
<event>
 8    1  0.1132492E+005  0.1043930E+01  0.7957747E-01            NaN
         13   -1    0    0    0    0  0.00000000000E+00  0.00000000000E+00  0.74505805969E-08  0.10566000000E+00  0.10566000000E+00 0.  1.
     999900   -1    0    0    0    0 -0.00000000000E+00 -0.00000000000E+00 -0.74505805969E-08  0.93827000000E+00  0.93827000000E+00 0. -1.
     999902    2    1    2    0    0  0.14574901901E-01  0.15074144329E-01  0.12408276822E-01  0.10195656218E+01  0.10192744646E+01 0.  0.
     999903    2    3    3    0    0 -0.12496673678E+00 -0.70321062658E-02  0.19578849253E-01  0.12826770730E+00  0.20078286231E-01 0.  0.
         14    1    1    2    0    0 -0.14574901901E-01 -0.15074144329E-01 -0.12408276822E-01  0.24364378227E-01  0.00000000000E+00 0.  1.
     999901    1    3    3    0    0  0.13954163868E+00  0.22106250595E-01 -0.71705724309E-02  0.89129791448E+00  0.88000000000E+00 0. -1.
        -11    1    4    4    0    0 -0.12430537296E+00 -0.50599068133E-02  0.18233888283E-01  0.12573847544E+00  0.51100000000E-03 0. -1.
         11    1    4    4    0    0 -0.66136382111E-03 -0.19721994525E-02  0.13449609702E-02  0.25292318588E-02  0.51100000000E-03 0.  1.
</event>
<event>
 8    1  0.1132492E+005  0.1043930E+01  0.7957747E-01            NaN
         13   -1    0    0    0    0  0.00000000000E+00  0.00000000000E+00  0.74505805969E-08  0.10566000000E+00  0.10566000000E+00 0.  1.
     999900   -1    0    0    0    0 -0.00000000000E+00 -0.00000000000E+00 -0.74505805969E-08  0.93827000000E+00  0.93827000000E+00 0. -1.
     999902    2    1    2    0    0  0.57373059051E-02 -0.16725424072E-02  0.22214008340E-01  0.10209261689E+01  0.10206669712E+01 0.  0.
     999903    2    3    3    0    0 -0.68395209238E-01 -0.35789050200E-01 -0.10088953042E+00  0.12861789980E+00  0.20127246191E-01 0.  0.
         14    1    1    2    0    0 -0.57373059051E-02  0.16725424072E-02 -0.22214008340E-01  0.23003831066E-01  0.00000000000E+00 0. -1.
     999901    1    3    3    0    0  0.74132515143E-01  0.34116507793E-01  0.12310353877E+00  0.89230826913E+00  0.88000000000E+00 0.  1.
        -11    1    4    4    0    0 -0.20079124707E-01 -0.78833137715E-03 -0.24588195385E-01  0.31758985951E-01  0.51100000000E-03 0.  1.
         11    1    4    4    0    0 -0.48316084531E-01 -0.35000718823E-01 -0.76301335040E-01  0.96858913851E-01  0.51100000000E-03 0. -1.
</event>
<event>
 8    1  0.1132492E+005  0.1043930E+01  0.7957747E-01            NaN
         13   -1    0    0    0    0  0.00000000000E+00  0.00000000000E+00  0.74505805969E-08  0.10566000000E+00  0.10566000000E+00 0. -1.
     999900   -1    0    0    0    0 -0.00000000000E+00 -0.00000000000E+00 -0.74505805969E-08  0.93827000000E+00  0.93827000000E+00 0.  1.
     999902    2    1    2    0    0  0.96396971216E-02 -0.10607881038E-01 -0.19297427040E-01  0.10198916641E+01  0.10196083390E+01 0.  0.
     999903    2    3    3    0    0  0.59834933591E-01  0.11211393312E+00 -0.16125105979E-01  0.12995331287E+00  0.21865296833E-01 0.  0.
         14    1    1    2    0    0 -0.96396971216E-02  0.10607881038E-01  0.19297427040E-01  0.24038335863E-01  0.00000000000E+00 0. -1.
     999901    1    3    3    0    0 -0.50195236469E-01 -0.12272181416E+00 -0.31723210611E-02  0.88993835127E+00  0.88000000000E+00 0. -1.
        -11    1    4    4    0    0  0.34645553421E-01  0.59719495040E-01 -0.19420460888E-01  0.71722715243E-01  0.51100000000E-03 0.  1.
         11    1    4    4    0    0  0.25189380170E-01  0.52394438080E-01  0.32953549092E-02  0.58230597627E-01  0.51100000000E-03 0. -1.
</event>
<event>
 8    1  0.1132492E+005  0.1043930E+01  0.7957747E-01            NaN
         13   -1    0    0    0    0  0.00000000000E+00  0.00000000000E+00  0.74505805969E-08  0.10566000000E+00  0.10566000000E+00 0.  1.
     999900   -1    0    0    0    0 -0.00000000000E+00 -0.00000000000E+00 -0.74505805969E-08  0.93827000000E+00  0.93827000000E+00 0.  1.
     999902    2    1    2    0    0  0.22510313144E-01 -0.76955529895E-02  0.24399281698E-02  0.10200157996E+01  0.10197354276E+01 0.  0.
     999903    2    3    3    0    0  0.88500950464E-01 -0.54902388850E-01  0.80104067813E-01  0.13287715867E+00  0.19823901738E-01 0.  0.
         14    1    1    2    0    0 -0.22510313144E-01  0.76955529895E-02 -0.24399281698E-02  0.23914200449E-01  0.00000000000E+00 0.  1.
     999901    1    3    3    0    0 -0.65990637320E-01  0.47206835860E-01 -0.77664139644E-01  0.88713864089E+00  0.88000000000E+00 0. -1.
        -11    1    4    4    0    0  0.73696929836E-01 -0.41178677366E-01  0.72562998614E-01  0.11132192428E+00  0.51100000000E-03 0. -1.
         11    1    4    4    0    0  0.14804020628E-01 -0.13723711484E-01  0.75410691993E-02  0.21555234383E-01  0.51100000000E-03 0.  1.
</event>
<event>
 8    1  0.1132492E+005  0.1043930E+01  0.7957747E-01            NaN
         13   -1    0    0    0    0  0.00000000000E+00  0.00000000000E+00  0.74505805969E-08  0.10566000000E+00  0.10566000000E+00 0. -1.
     999900   -1    0    0    0    0 -0.00000000000E+00 -0.00000000000E+00 -0.74505805969E-08  0.93827000000E+00  0.93827000000E+00 0. -1.
     999902    2    1    2    0    0  0.14071713731E-01  0.43342651040E-02  0.18540718171E-01  0.10202539106E+01  0.10199791590E+01 0.  0.
     999903    2    3    3    0    0  0.13625800887E-01 -0.11950239105E+00  0.47907355684E-01  0.13109806614E+00  0.20618057637E-01 0.  0.
         14    1    1    2    0    0 -0.14071713731E-01 -0.43342651040E-02 -0.18540718171E-01  0.23676089449E-01  0.00000000000E+00 0.  1.
     999901    1    3    3    0    0  0.44591284338E-03  0.12383665616E+00 -0.29366637513E-01  0.88915584441E+00  0.88000000000E+00 0. -1.
        -11    1    4    4    0    0  0.12417748560E-01 -0.72042783488E-01  0.38762868970E-01  0.82747714553E-01  0.51100000000E-03 0.  1.
         11    1    4    4    0    0  0.12080523269E-02 -0.47459607564E-01  0.91444867143E-02  0.48350351589E-01  0.51100000000E-03 0. -1.
</event>
<event>
 8    1  0.1132492E+005  0.1043930E+01  0.7957747E-01            NaN
         13   -1    0    0    0    0  0.00000000000E+00  0.00000000000E+00  0.74505805969E-08  0.10566000000E+00  0.10566000000E+00 0. -1.
     999900   -1    0    0    0    0 -0.00000000000E+00 -0.00000000000E+00 -0.74505805969E-08  0.93827000000E+00  0.93827000000E+00 0.  1.
     999902    2    1    2    0    0  0.16431446996E-01 -0.20494224217E-01  0.44792572008E-04  0.10176620027E+01  0.10173229301E+01 0.  0.
     999903    2    3    3    0    0  0.83309865450E-02 -0.16488635927E-01  0.12520839558E+00  0.12875953913E+00  0.23676911544E-01 0.  0.
         14    1    1    2    0    0 -0.16431446996E-01  0.20494224217E-01 -0.44792572008E-04  0.26267997316E-01  0.00000000000E+00 0. -1.
     999901    1    3    3    0    0  0.81004604508E-02 -0.40055882894E-02 -0.12516360301E+00  0.88890246356E+00  0.88000000000E+00 0.  1.
        -11    1    4    4    0    0 -0.72841014588E-02 -0.87773446836E-03  0.43570667768E-01  0.44187020296E-01  0.51100000000E-03 0. -1.
         11    1    4    4    0    0  0.15615088004E-01 -0.15610901459E-01  0.81637727816E-01  0.84572518832E-01  0.51100000000E-03 0.  1.
</event>
<event>
 8    1  0.1132492E+005  0.1043930E+01  0.7957747E-01            NaN
         13   -1    0    0    0    0  0.00000000000E+00  0.00000000000E+00  0.74505805969E-08  0.10566000000E+00  0.10566000000E+00 0.  1.
     999900   -1    0    0    0    0 -0.00000000000E+00 -0.00000000000E+00 -0.74505805969E-08  0.93827000000E+00  0.93827000000E+00 0. -1.
     999902    2    1    2    0    0  0.10727504960E-01 -0.78305079968E-03  0.22145431248E-01  0.10193106447E+01  0.10190132863E+01 0.  0.
     999903    2    3    3    0    0 -0.60790385193E-01  0.72530948563E-01 -0.82617048792E-01  0.12719802380E+00  0.19938682883E-01 0.  0.
         14    1    1    2    0    0 -0.10727504960E-01  0.78305079968E-03 -0.22145431248E-01  0.24619355321E-01  0.00000000000E+00 0. -1.
     999901    1    3    3    0    0  0.71517890153E-01 -0.73313999363E-01  0.10476248004E+00  0.89211262088E+00  0.88000000000E+00 0.  1.
        -11    1    4    4    0    0 -0.19064944150E-01  0.26846115156E-01 -0.41191398516E-01  0.52736879194E-01  0.51100000000E-03 0.  1.
         11    1    4    4    0    0 -0.41725441043E-01  0.45684833407E-01 -0.41425650276E-01  0.74461144602E-01  0.51100000000E-03 0. -1.
</event>
<event>
 8    1  0.1132492E+005  0.1043930E+01  0.7957747E-01            NaN
         13   -1    0    0    0    0  0.00000000000E+00  0.00000000000E+00  0.74505805969E-08  0.10566000000E+00  0.10566000000E+00 0. -1.
     999900   -1    0    0    0    0 -0.00000000000E+00 -0.00000000000E+00 -0.74505805969E-08  0.93827000000E+00  0.93827000000E+00 0.  1.
     999902    2    1    2    0    0  0.15139266689E-01 -0.95647431712E-02  0.13451747756E-01  0.10215328746E+01  0.10212873164E+01 0.  0.
     999903    2    3    3    0    0 -0.12064905945E+00 -0.44393371681E-01  0.81640646016E-02  0.13042151094E+00  0.20399793359E-01 0.  0.
         14    1    1    2    0    0 -0.15139266689E-01  0.95647431712E-02 -0.13451747756E-01  0.22397125385E-01  0.00000000000E+00 0.  1.
     999901    1    3    3    0    0  0.13578832614E+00  0.34828628510E-01  0.52876831544E-02  0.89111136368E+00  0.88000000000E+00 0. -1.
        -11    1    4    4    0    0 -0.50119133946E-01 -0.27183610784E-01  0.95189609592E-02  0.57807854323E-01  0.51100000000E-03 0. -1.
         11    1    4    4    0    0 -0.70529925506E-01 -0.17209760897E-01 -0.13548963576E-02  0.72613656616E-01  0.51100000000E-03 0.  1.
</event>
<event>
 8    1  0.1132492E+005  0.1043930E+01  0.7957747E-01            NaN
         13   -1    0    0    0    0  0.00000000000E+00  0.00000000000E+00  0.74505805969E-08  0.10566000000E+00  0.10566000000E+00 0. -1.
     999900   -1    0    0    0    0 -0.00000000000E+00 -0.00000000000E+00 -0.74505805969E-08  0.93827000000E+00  0.93827000000E+00 0.  1.
     999902    2    1    2    0    0  0.16807645262E-01 -0.11445290441E-01 -0.97154702853E-02  0.10213937631E+01  0.10211451108E+01 0.  0.
     999903    2    3    3    0    0 -0.46220848671E-01 -0.35605215501E-01  0.11455125389E+00  0.13010339973E+00  0.20020155617E-01 0.  0.
         14    1    1    2    0    0 -0.16807645262E-01  0.11445290441E-01  0.97154702853E-02  0.22536236940E-01  0.00000000000E+00 0.  1.
     999901    1    3    3    0    0  0.63028493934E-01  0.24159925060E-01 -0.12426672418E+00  0.89129036333E+00  0.88000000000E+00 0.  1.
        -11    1    4    4    0    0 -0.29457083120E-01 -0.29947459846E-01  0.64122280480E-01  0.76658320306E-01  0.51100000000E-03 0. -1.
         11    1    4    4    0    0 -0.16763765551E-01 -0.56577556544E-02  0.50428973410E-01  0.53445079424E-01  0.51100000000E-03 0.  1.
</event>
<event>
 8    1  0.1132492E+005  0.1043930E+01  0.7957747E-01            NaN
         13   -1    0    0    0    0  0.00000000000E+00  0.00000000000E+00  0.74505805969E-08  0.10566000000E+00  0.10566000000E+00 0.  1.
     999900   -1    0    0    0    0 -0.00000000000E+00 -0.00000000000E+00 -0.74505805969E-08  0.93827000000E+00  0.93827000000E+00 0. -1.
     999902    2    1    2    0    0  0.97175344032E-02 -0.13772698380E-01 -0.16612780805E-01  0.10202635220E+01  0.10199889961E+01 0.  0.
     999903    2    3    3    0    0  0.10471541957E+00  0.65378071888E-01 -0.42362811477E-01  0.13124580186E+00  0.13829003216E-01 0.  0.
         14    1    1    2    0    0 -0.97175344032E-02  0.13772698380E-01  0.16612780805E-01  0.23666478015E-01  0.00000000000E+00 0.  1.
     999901    1    3    3    0    0 -0.94997885166E-01 -0.79150770269E-01  0.25750030672E-01  0.88901772013E+00  0.88000000000E+00 0. -1.
        -11    1    4    4    0    0  0.15204348541E-01  0.12144117928E-01 -0.20627681083E-02  0.19574676193E-01  0.51100000000E-03 0.  1.
         11    1    4    4    0    0  0.89511071028E-01  0.53233953960E-01 -0.40300043368E-01  0.11167112567E+00  0.51100000000E-03 0. -1.
</event>
<event>
 8    1  0.1132492E+005  0.1043930E+01  0.7957747E-01            NaN
         13   -1    0    0    0    0  0.00000000000E+00  0.00000000000E+00  0.74505805969E-08  0.10566000000E+00  0.10566000000E+00 0. -1.
     999900   -1    0    0    0    0 -0.00000000000E+00 -0.00000000000E+00 -0.74505805969E-08  0.93827000000E+00  0.93827000000E+00 0.  1.
     999902    2    1    2    0    0  0.11971947657E-01 -0.18804155794E-01  0.68622502757E-02  0.10206058862E+01  0.10203393360E+01 0.  0.
     999903    2    3    3    0    0  0.28037236113E-01 -0.10735663301E+00  0.71664093120E-01  0.13364539466E+00  0.20342468147E-01 0.  0.
         14    1    1    2    0    0 -0.11971947657E-01  0.18804155794E-01 -0.68622502757E-02  0.23324113802E-01  0.00000000000E+00 0. -1.
     999901    1    3    3    0    0 -0.16065288456E-01  0.88552477219E-01 -0.64801842844E-01  0.88696049154E+00  0.88000000000E+00 0.  1.
        -11    1    4    4    0    0  0.18542300262E-01 -0.95330415669E-01  0.58069128697E-01  0.11315471656E+00  0.51100000000E-03 0. -1.
         11    1    4    4    0    0  0.94949358511E-02 -0.12026217344E-01  0.13594964422E-01  0.20490678101E-01  0.51100000000E-03 0.  1.
</event>
<event>
 8    1  0.1132492E+005  0.1043930E+01  0.7957747E-01            NaN
         13   -1    0    0    0    0  0.00000000000E+00  0.00000000000E+00  0.74505805969E-08  0.10566000000E+00  0.10566000000E+00 0.  1.
     999900   -1    0    0    0    0 -0.00000000000E+00 -0.00000000000E+00 -0.74505805969E-08  0.93827000000E+00  0.93827000000E+00 0. -1.
     999902    2    1    2    0    0  0.83783040092E-02 -0.21645725200E-01  0.11302050606E-02  0.10206918684E+01  0.10204273024E+01 0.  0.
     999903    2    3    3    0    0 -0.63682207289E-01 -0.11440386019E+00  0.91634266528E-02  0.13285104845E+00  0.20536940727E-01 0.  0.
         14    1    1    2    0    0 -0.83783040092E-02  0.21645725200E-01 -0.11302050606E-02  0.23238131615E-01  0.00000000000E+00 0. -1.
     999901    1    3    3    0    0  0.72060511299E-01  0.92758134990E-01 -0.80332215922E-02  0.88784081994E+00  0.88000000000E+00 0.  1.
        -11    1    4    4    0    0 -0.96549121502E-02 -0.66706973141E-02 -0.15738942829E-02  0.11851320412E-01  0.51100000000E-03 0.  1.
         11    1    4    4    0    0 -0.54027295139E-01 -0.10773316288E+00  0.10737320936E-01  0.12099972804E+00  0.51100000000E-03 0. -1.
</event>
<event>
 8    1  0.1132492E+005  0.1043930E+01  0.7957747E-01            NaN
         13   -1    0    0    0    0  0.00000000000E+00  0.00000000000E+00  0.74505805969E-08  0.10566000000E+00  0.10566000000E+00 0. -1.
     999900   -1    0    0    0    0 -0.00000000000E+00 -0.00000000000E+00 -0.74505805969E-08  0.93827000000E+00  0.93827000000E+00 0.  1.
     999902    2    1    2    0    0  0.11109375705E-01 -0.74613206589E-02 -0.19513936680E-01  0.10202681476E+01  0.10199937302E+01 0.  0.
     999903    2    3    3    0    0  0.58781959702E-01 -0.77434532544E-01  0.84236047913E-01  0.13013726680E+00  0.19712199889E-01 0.  0.
         14    1    1    2    0    0 -0.11109375705E-01  0.74613206589E-02  0.19513936680E-01  0.23661852406E-01  0.00000000000E+00 0. -1.
     999901    1    3    3    0    0 -0.47672583998E-01  0.69973211886E-01 -0.10374998459E+00  0.89013088080E+00  0.88000000000E+00 0.  1.
        -11    1    4    4    0    0  0.46402987613E-01 -0.49615316373E-01  0.50227766753E-01  0.84486724118E-01  0.51100000000E-03 0. -1.
         11    1    4    4    0    0  0.12378972089E-01 -0.27819216171E-01  0.34008281160E-01  0.45650542678E-01  0.51100000000E-03 0.  1.
</event>
<event>
 8    1  0.1132492E+005  0.1043930E+01  0.7957747E-01            NaN
         13   -1    0    0    0    0  0.00000000000E+00  0.00000000000E+00  0.74505805969E-08  0.10566000000E+00  0.10566000000E+00 0. -1.
     999900   -1    0    0    0    0 -0.00000000000E+00 -0.00000000000E+00 -0.74505805969E-08  0.93827000000E+00  0.93827000000E+00 0.  1.
     999902    2    1    2    0    0 -0.15314677993E-01 -0.16268270389E-01 -0.49359163257E-02  0.10210485828E+01  0.10207921675E+01 0.  0.
     999903    2    3    3    0    0  0.10142419969E+00  0.50189336426E-01  0.58006234108E-01  0.12863259606E+00  0.19385143810E-01 0.  0.
         14    1    1    2    0    0  0.15314677993E-01  0.16268270389E-01  0.49359163257E-02  0.22881417208E-01  0.00000000000E+00 0.  1.
     999901    1    3    3    0    0 -0.11673887769E+00 -0.66457606816E-01 -0.62942150433E-01  0.89241598673E+00  0.88000000000E+00 0.  1.
        -11    1    4    4    0    0  0.31009538739E-01  0.62484536710E-02  0.12894408476E-01  0.34163746238E-01  0.51100000000E-03 0. -1.
         11    1    4    4    0    0  0.70414660954E-01  0.43940882756E-01  0.45111825632E-01  0.94468849826E-01  0.51100000000E-03 0.  1.
</event>
<event>
 8    1  0.1132492E+005  0.1043930E+01  0.7957747E-01            NaN
         13   -1    0    0    0    0  0.00000000000E+00  0.00000000000E+00  0.74505805969E-08  0.10566000000E+00  0.10566000000E+00 0.  1.
     999900   -1    0    0    0    0 -0.00000000000E+00 -0.00000000000E+00 -0.74505805969E-08  0.93827000000E+00  0.93827000000E+00 0. -1.
     999902    2    1    2    0    0  0.12781584055E-01 -0.10554545568E-01  0.16720735339E-01  0.10203853549E+01  0.10201136810E+01 0.  0.
     999903    2    3    3    0    0 -0.34815947506E-01 -0.47420705135E-01  0.11721672161E+00  0.13262182670E+00  0.19695573516E-01 0.  0.
         14    1    1    2    0    0 -0.12781584055E-01  0.10554545568E-01 -0.16720735339E-01  0.23544645111E-01  0.00000000000E+00 0. -1.
     999901    1    3    3    0    0  0.47597531562E-01  0.36866159567E-01 -0.10049598627E+00  0.88776352819E+00  0.88000000000E+00 0. -1.
        -11    1    4    4    0    0 -0.32563836486E-01 -0.29867675545E-01  0.79481312652E-01  0.90939659506E-01  0.51100000000E-03 0. -1.
         11    1    4    4    0    0 -0.22521110206E-02 -0.17553029590E-01  0.37735408954E-01  0.41682167192E-01  0.51100000000E-03 0.  1.
</event>
<event>
 8    1  0.1132492E+005  0.1043930E+01  0.7957747E-01            NaN
         13   -1    0    0    0    0  0.00000000000E+00  0.00000000000E+00  0.74505805969E-08  0.10566000000E+00  0.10566000000E+00 0. -1.
     999900   -1    0    0    0    0 -0.00000000000E+00 -0.00000000000E+00 -0.74505805969E-08  0.93827000000E+00  0.93827000000E+00 0. -1.
     999902    2    1    2    0    0  0.87550310071E-02  0.13669381771E-01 -0.17703634570E-01  0.10199108151E+01  0.10196279466E+01 0.  0.
     999903    2    3    3    0    0  0.42191908530E-02 -0.11962890202E+00  0.40570875424E-01  0.12795514086E+00  0.19941072462E-01 0.  0.
         14    1    1    2    0    0 -0.87550310071E-02 -0.13669381771E-01  0.17703634570E-01  0.24019184893E-01  0.00000000000E+00 0. -1.
     999901    1    3    3    0    0  0.45358401540E-02  0.13329828379E+00 -0.58274509994E-01  0.89195567425E+00  0.88000000000E+00 0.  1.
        -11    1    4    4    0    0  0.26399125981E-02 -0.44940800804E-01  0.25507996685E-01  0.51745180755E-01  0.51100000000E-03 0.  1.
         11    1    4    4    0    0  0.15792782549E-02 -0.74688101212E-01  0.15062878739E-01  0.76209960106E-01  0.51100000000E-03 0. -1.
</event>
<event>
 8    1  0.1132492E+005  0.1043930E+01  0.7957747E-01            NaN
         13   -1    0    0    0    0  0.00000000000E+00  0.00000000000E+00  0.74505805969E-08  0.10566000000E+00  0.10566000000E+00 0.  1.
     999900   -1    0    0    0    0 -0.00000000000E+00 -0.00000000000E+00 -0.74505805969E-08  0.93827000000E+00  0.93827000000E+00 0. -1.
     999902    2    1    2    0    0 -0.10372312048E-01  0.20917763645E-01  0.15162460419E-02  0.10205326349E+01  0.10202643883E+01 0.  0.
     999903    2    3    3    0    0  0.43898257663E-01  0.11808756602E+00 -0.36023291698E-01  0.13272833091E+00  0.21151879508E-01 0.  0.
         14    1    1    2    0    0  0.10372312048E-01 -0.20917763645E-01 -0.15162460419E-02  0.23397365133E-01  0.00000000000E+00 0. -1.
     999901    1    3    3    0    0 -0.54270569711E-01 -0.97169802376E-01  0.37539537740E-01  0.88780430396E+00  0.88000000000E+00 0.  1.
        -11    1    4    4    0    0  0.25552664643E-01  0.52332290327E-01 -0.25800377230E-01  0.63698727361E-01  0.51100000000E-03 0. -1.
         11    1    4    4    0    0  0.18345593020E-01  0.65755275694E-01 -0.10222914468E-01  0.69029603549E-01  0.51100000000E-03 0.  1.
</event>
<event>
 8    1  0.1132492E+005  0.1043930E+01  0.7957747E-01            NaN
         13   -1    0    0    0    0  0.00000000000E+00  0.00000000000E+00  0.74505805969E-08  0.10566000000E+00  0.10566000000E+00 0. -1.
     999900   -1    0    0    0    0 -0.00000000000E+00 -0.00000000000E+00 -0.74505805969E-08  0.93827000000E+00  0.93827000000E+00 0. -1.
     999902    2    1    2    0    0  0.15795262296E-01 -0.75975849419E-02 -0.17614284630E-01  0.10190809229E+01  0.10187779203E+01 0.  0.
     999903    2    3    3    0    0  0.16049365276E-01  0.12300685127E+00 -0.30053042674E-01  0.12935495050E+00  0.21005957718E-01 0.  0.
         14    1    1    2    0    0 -0.15795262296E-01  0.75975849419E-02  0.17614284630E-01  0.24849077065E-01  0.00000000000E+00 0.  1.
     999901    1    3    3    0    0 -0.25410297971E-03 -0.13060443621E+00  0.12438758044E-01  0.88972597244E+00  0.88000000000E+00 0. -1.
        -11    1    4    4    0    0  0.11697039332E-01  0.67369843328E-01 -0.61943035884E-02  0.68659646352E-01  0.51100000000E-03 0.  1.
         11    1    4    4    0    0  0.43523259438E-02  0.55637007941E-01 -0.23858739085E-01  0.60695304147E-01  0.51100000000E-03 0. -1.
</event>
<event>
 8    1  0.1132492E+005  0.1043930E+01  0.7957747E-01            NaN
         13   -1    0    0    0    0  0.00000000000E+00  0.00000000000E+00  0.74505805969E-08  0.10566000000E+00  0.10566000000E+00 0.  1.
     999900   -1    0    0    0    0 -0.00000000000E+00 -0.00000000000E+00 -0.74505805969E-08  0.93827000000E+00  0.93827000000E+00 0.  1.
     999902    2    1    2    0    0 -0.14508077415E-01 -0.19280510218E-01  0.11410483431E-02  0.10197737508E+01  0.10194876058E+01 0.  0.
     999903    2    3    3    0    0 -0.84301292593E-01  0.66929613280E-02 -0.98029678453E-01  0.13107776950E+00  0.20495368628E-01 0.  0.
         14    1    1    2    0    0  0.14508077415E-01  0.19280510218E-01 -0.11410483431E-02  0.24156249209E-01  0.00000000000E+00 0.  1.
     999901    1    3    3    0    0  0.69793215177E-01 -0.25973471546E-01  0.99170726796E-01  0.88869598129E+00  0.88000000000E+00 0. -1.
        -11    1    4    4    0    0 -0.25369508754E-01  0.14282182665E-02 -0.16353147028E-01  0.30221487729E-01  0.51100000000E-03 0.  1.
         11    1    4    4    0    0 -0.58931783839E-01  0.52647430615E-02 -0.81676531425E-01  0.10085628177E+00  0.51100000000E-03 0. -1.
</event>
<event>
 8    1  0.1132492E+005  0.1043930E+01  0.7957747E-01            NaN
         13   -1    0    0    0    0  0.00000000000E+00  0.00000000000E+00  0.74505805969E-08  0.10566000000E+00  0.10566000000E+00 0. -1.
     999900   -1    0    0    0    0 -0.00000000000E+00 -0.00000000000E+00 -0.74505805969E-08  0.93827000000E+00  0.93827000000E+00 0.  1.
     999902    2    1    2    0    0 -0.86524841914E-02  0.45984689871E-02 -0.22175778593E-01  0.10196858965E+01  0.10193976412E+01 0.  0.
     999903    2    3    3    0    0 -0.12925310848E+00 -0.99259892223E-02  0.50634932283E-02  0.13092414640E+00  0.17623899469E-01 0.  0.
         14    1    1    2    0    0  0.86524841914E-02 -0.45984689871E-02  0.22175778593E-01  0.24244103529E-01  0.00000000000E+00 0. -1.
     999901    1    3    3    0    0  0.12060062429E+00  0.14524458209E-01 -0.27239271821E-01  0.88876175007E+00  0.88000000000E+00 0.  1.
        -11    1    4    4    0    0 -0.32246911110E-01  0.48313807338E-02  0.33865280235E-02  0.32786204553E-01  0.51100000000E-03 0. -1.
         11    1    4    4    0    0 -0.97006197370E-01 -0.14757369956E-01  0.16769652047E-02  0.98137941845E-01  0.51100000000E-03 0.  1.
</event>
<event>
 8    1  0.1132492E+005  0.1043930E+01  0.7957747E-01            NaN
         13   -1    0    0    0    0  0.00000000000E+00  0.00000000000E+00  0.74505805969E-08  0.10566000000E+00  0.10566000000E+00 0.  1.
     999900   -1    0    0    0    0 -0.00000000000E+00 -0.00000000000E+00 -0.74505805969E-08  0.93827000000E+00  0.93827000000E+00 0.  1.
     999902    2    1    2    0    0  0.20911809757E-01 -0.10294697448E-01  0.39261677165E-02  0.10202931775E+01  0.10200193473E+01 0.  0.
     999903    2    3    3    0    0  0.29524278028E-01 -0.69234106317E-01 -0.10695635939E+00  0.13133706876E+00  0.12029893856E-01 0.  0.
         14    1    1    2    0    0 -0.20911809757E-01  0.10294697448E-01 -0.39261677165E-02  0.23636822455E-01  0.00000000000E+00 0.  1.
     999901    1    3    3    0    0 -0.86124682714E-02  0.58939408869E-01  0.11088252711E+00  0.88895610878E+00  0.88000000000E+00 0. -1.
        -11    1    4    4    0    0  0.31175612084E-02 -0.19764084643E-01 -0.31566103953E-01  0.37376707579E-01  0.51100000000E-03 0. -1.
         11    1    4    4    0    0  0.26406716820E-01 -0.49470021674E-01 -0.75390255436E-01  0.93960361181E-01  0.51100000000E-03 0.  1.
</event>
<event>
 8    1  0.1132492E+005  0.1043930E+01  0.7957747E-01            NaN
         13   -1    0    0    0    0  0.00000000000E+00  0.00000000000E+00  0.74505805969E-08  0.10566000000E+00  0.10566000000E+00 0.  1.
     999900   -1    0    0    0    0 -0.00000000000E+00 -0.00000000000E+00 -0.74505805969E-08  0.93827000000E+00  0.93827000000E+00 0. -1.
     999902    2    1    2    0    0 -0.10208958044E-02  0.19152715812E-01 -0.13236593287E-01  0.10206260056E+01  0.10203599204E+01 0.  0.
     999903    2    3    3    0    0  0.40531919636E-01 -0.12024814594E+00 -0.30692375193E-02  0.12862678375E+00  0.20808079399E-01 0.  0.
         14    1    1    2    0    0  0.10208958044E-02 -0.19152715812E-01  0.13236593287E-01  0.23303994358E-01  0.00000000000E+00 0.  1.
     999901    1    3    3    0    0 -0.41552815441E-01  0.13940086175E+00 -0.10167355768E-01  0.89199922189E+00  0.88000000000E+00 0. -1.
        -11    1    4    4    0    0  0.40788993092E-01 -0.98198028467E-01  0.16204168650E-03  0.10633382402E+00  0.51100000000E-03 0.  1.
         11    1    4    4    0    0 -0.25707345615E-03 -0.22050117473E-01 -0.32312792058E-02  0.22292959732E-01  0.51100000000E-03 0. -1.
</event>
<event>
 8    1  0.1132492E+005  0.1043930E+01  0.7957747E-01            NaN
         13   -1    0    0    0    0  0.00000000000E+00  0.00000000000E+00  0.74505805969E-08  0.10566000000E+00  0.10566000000E+00 0.  1.
     999900   -1    0    0    0    0 -0.00000000000E+00 -0.00000000000E+00 -0.74505805969E-08  0.93827000000E+00  0.93827000000E+00 0. -1.
     999902    2    1    2    0    0  0.23452585832E-01 -0.39097084903E-03 -0.69195388921E-02  0.10194748030E+01  0.10191814448E+01 0.  0.
     999903    2    3    3    0    0 -0.56469848975E-01  0.77397314074E-01 -0.83868568352E-01  0.12910422513E+00  0.21325480520E-01 0.  0.
         14    1    1    2    0    0 -0.23452585832E-01  0.39097084903E-03  0.69195388921E-02  0.24455196971E-01  0.00000000000E+00 0.  1.
     999901    1    3    3    0    0  0.79922434807E-01 -0.77788284923E-01  0.76949029460E-01  0.89037057790E+00  0.88000000000E+00 0. -1.
        -11    1    4    4    0    0 -0.41382571149E-01  0.66235836533E-01 -0.75218197687E-01  0.10843312050E+00  0.51100000000E-03 0.  1.
         11    1    4    4    0    0 -0.15087277826E-01  0.11161477541E-01 -0.86503706654E-02  0.20671104633E-01  0.51100000000E-03 0. -1.
</event>
<event>
 8    1  0.1132492E+005  0.1043930E+01  0.7957747E-01            NaN
         13   -1    0    0    0    0  0.00000000000E+00  0.00000000000E+00  0.74505805969E-08  0.10566000000E+00  0.10566000000E+00 0.  1.
     999900   -1    0    0    0    0 -0.00000000000E+00 -0.00000000000E+00 -0.74505805969E-08  0.93827000000E+00  0.93827000000E+00 0.  1.
     999902    2    1    2    0    0 -0.81919004461E-02 -0.22438345402E-01 -0.53701998726E-03  0.10200370101E+01  0.10197571412E+01 0.  0.
     999903    2    3    3    0    0  0.10883323666E+00  0.58616627353E-01 -0.27437826898E-01  0.12819148268E+00  0.19990984992E-01 0.  0.
         14    1    1    2    0    0  0.81919004461E-02  0.22438345402E-01  0.53701998726E-03  0.23892989929E-01  0.00000000000E+00 0. -1.
     999901    1    3    3    0    0 -0.11702513711E+00 -0.81054972755E-01  0.26900806910E-01  0.89184552740E+00  0.88000000000E+00 0. -1.
        -11    1    4    4    0    0  0.95646801388E-01  0.50065847946E-01 -0.30471658185E-01  0.11217701556E+00  0.51100000000E-03 0. -1.
         11    1    4    4    0    0  0.13186435274E-01  0.85507794069E-02  0.30338312875E-02  0.16014467115E-01  0.51100000000E-03 0.  1.
</event>
<event>
 8    1  0.1132492E+005  0.1043930E+01  0.7957747E-01            NaN
         13   -1    0    0    0    0  0.00000000000E+00  0.00000000000E+00  0.74505805969E-08  0.10566000000E+00  0.10566000000E+00 0. -1.
     999900   -1    0    0    0    0 -0.00000000000E+00 -0.00000000000E+00 -0.74505805969E-08  0.93827000000E+00  0.93827000000E+00 0.  1.
     999902    2    1    2    0    0  0.21738899238E-01  0.65590847256E-02  0.30907330040E-02  0.10210137620E+01  0.10207565568E+01 0.  0.
     999903    2    3    3    0    0 -0.27807912749E-01 -0.29002586649E-02 -0.12558759465E+00  0.13022620162E+00  0.20122826552E-01 0.  0.
         14    1    1    2    0    0 -0.21738899238E-01 -0.65590847256E-02 -0.30907330040E-02  0.22916237977E-01  0.00000000000E+00 0.  1.
     999901    1    3    3    0    0  0.49546811987E-01  0.94593433905E-02  0.12867832765E+00  0.89078756040E+00  0.88000000000E+00 0. -1.
        -11    1    4    4    0    0  0.19903542255E-02 -0.26375359265E-02 -0.27725165992E-01  0.27926046193E-01  0.51100000000E-03 0.  1.
         11    1    4    4    0    0 -0.29798266975E-01 -0.26272273837E-03 -0.97862428654E-01  0.10230015543E+00  0.51100000000E-03 0. -1.
</event>
<event>
 8    1  0.1132492E+005  0.1043930E+01  0.7957747E-01            NaN
         13   -1    0    0    0    0  0.00000000000E+00  0.00000000000E+00  0.74505805969E-08  0.10566000000E+00  0.10566000000E+00 0.  1.
     999900   -1    0    0    0    0 -0.00000000000E+00 -0.00000000000E+00 -0.74505805969E-08  0.93827000000E+00  0.93827000000E+00 0.  1.
     999902    2    1    2    0    0 -0.14224476761E-01 -0.38260467352E-02  0.18639575214E-01  0.10201727245E+01  0.10198960632E+01 0.  0.
     999903    2    3    3    0    0  0.90864759843E-01  0.80979054369E-01  0.40314565202E-01  0.12960803963E+00  0.18946449344E-01 0.  0.
         14    1    1    2    0    0  0.14224476761E-01  0.38260467352E-02 -0.18639575214E-01  0.23757275452E-01  0.00000000000E+00 0.  1.
     999901    1    3    3    0    0 -0.10508923660E+00 -0.84805101104E-01 -0.21674989988E-01  0.89056468491E+00  0.88000000000E+00 0.  1.
        -11    1    4    4    0    0  0.76784927341E-01  0.68019999183E-01  0.40955271568E-01  0.11045469997E+00  0.51100000000E-03 0.  1.
         11    1    4    4    0    0  0.14079832502E-01  0.12959055186E-01 -0.64070636668E-03  0.19153339663E-01  0.51100000000E-03 0. -1.
</event>
<event>
 8    1  0.1132492E+005  0.1043930E+01  0.7957747E-01            NaN
         13   -1    0    0    0    0  0.00000000000E+00  0.00000000000E+00  0.74505805969E-08  0.10566000000E+00  0.10566000000E+00 0. -1.
     999900   -1    0    0    0    0 -0.00000000000E+00 -0.00000000000E+00 -0.74505805969E-08  0.93827000000E+00  0.93827000000E+00 0.  1.
     999902    2    1    2    0    0 -0.85267450245E-02 -0.77887813934E-02 -0.20753437421E-01  0.10201797229E+01  0.10199032265E+01 0.  0.
     999903    2    3    3    0    0  0.41382818700E-01  0.37988940850E-01  0.11273552602E+00  0.12753989199E+00  0.20035665992E-01 0.  0.
         14    1    1    2    0    0  0.85267450245E-02  0.77887813934E-02  0.20753437421E-01  0.23750277074E-01  0.00000000000E+00 0. -1.
     999901    1    3    3    0    0 -0.49909563725E-01 -0.45777722243E-01 -0.13348896344E+00  0.89263983093E+00  0.88000000000E+00 0.  1.
        -11    1    4    4    0    0  0.76049977861E-02 -0.13926292206E-02  0.13966701940E-01  0.15972015889E-01  0.51100000000E-03 0.  1.
         11    1    4    4    0    0  0.33777820914E-01  0.39381570070E-01  0.98768824082E-01  0.11156787610E+00  0.51100000000E-03 0. -1.
</event>
<event>
 8    1  0.1132492E+005  0.1043930E+01  0.7957747E-01            NaN
         13   -1    0    0    0    0  0.00000000000E+00  0.00000000000E+00  0.74505805969E-08  0.10566000000E+00  0.10566000000E+00 0. -1.
     999900   -1    0    0    0    0 -0.00000000000E+00 -0.00000000000E+00 -0.74505805969E-08  0.93827000000E+00  0.93827000000E+00 0. -1.
     999902    2    1    2    0    0  0.12036768232E-01  0.19334140593E-01 -0.96866448002E-02  0.10191807804E+01  0.10188802380E+01 0.  0.
     999903    2    3    3    0    0 -0.43665025725E-02  0.12036436616E+00  0.48097740499E-01  0.13136592982E+00  0.20903776981E-01 0.  0.
         14    1    1    2    0    0 -0.12036768232E-01 -0.19334140593E-01  0.96866448002E-02  0.24749219572E-01  0.00000000000E+00 0.  1.
     999901    1    3    3    0    0  0.16403270805E-01 -0.10103022556E+00 -0.57784385300E-01  0.88781485061E+00  0.88000000000E+00 0. -1.
        -11    1    4    4    0    0 -0.86819258125E-02  0.10315886909E+00  0.34895605297E-01  0.10924784894E+00  0.51100000000E-03 0. -1.
         11    1    4    4    0    0  0.43154232400E-02  0.17205497062E-01  0.13202135203E-01  0.22118080880E-01  0.51100000000E-03 0.  1.
</event>
<event>
 8    1  0.1132492E+005  0.1043930E+01  0.7957747E-01            NaN
         13   -1    0    0    0    0  0.00000000000E+00  0.00000000000E+00  0.74505805969E-08  0.10566000000E+00  0.10566000000E+00 0. -1.
     999900   -1    0    0    0    0 -0.00000000000E+00 -0.00000000000E+00 -0.74505805969E-08  0.93827000000E+00  0.93827000000E+00 0.  1.
     999902    2    1    2    0    0  0.64936549411E-02 -0.32273708189E-02  0.22270797435E-01  0.10205083883E+01  0.10202395791E+01 0.  0.
     999903    2    3    3    0    0  0.16128178820E-01 -0.96105448890E-01 -0.83420820765E-01  0.12927896799E+00  0.16051254469E-01 0.  0.
         14    1    1    2    0    0 -0.64936549411E-02  0.32273708189E-02 -0.22270797435E-01  0.23421611714E-01  0.00000000000E+00 0.  1.
     999901    1    3    3    0    0 -0.96345238785E-02  0.92878078071E-01  0.10569161820E+00  0.89122942029E+00  0.88000000000E+00 0. -1.
        -11    1    4    4    0    0  0.68255114637E-03 -0.11897559978E-01 -0.42305400758E-02  0.12656081536E-01  0.51100000000E-03 0. -1.
         11    1    4    4    0    0  0.15445627673E-01 -0.84207888912E-01 -0.79190280689E-01  0.11662288646E+00  0.51100000000E-03 0.  1.
</event>
<event>
 8    1  0.1132492E+005  0.1043930E+01  0.7957747E-01            NaN
         13   -1    0    0    0    0  0.00000000000E+00  0.00000000000E+00  0.74505805969E-08  0.10566000000E+00  0.10566000000E+00 0. -1.
     999900   -1    0    0    0    0 -0.00000000000E+00 -0.00000000000E+00 -0.74505805969E-08  0.93827000000E+00  0.93827000000E+00 0.  1.
     999902    2    1    2    0    0  0.10446789821E-01  0.32369561581E-02 -0.20248165168E-01  0.10209169277E+01  0.10206575194E+01 0.  0.
     999903    2    3    3    0    0 -0.79786695833E-01 -0.10048504736E+00 -0.98103665423E-02  0.13018167885E+00  0.19694279417E-01 0.  0.
         14    1    1    2    0    0 -0.10446789821E-01 -0.32369561581E-02  0.20248165168E-01  0.23013072272E-01  0.00000000000E+00 0. -1.
     999901    1    3    3    0    0  0.90233485653E-01  0.10372200352E+00 -0.10437798625E-01  0.89073524887E+00  0.88000000000E+00 0.  1.
        -11    1    4    4    0    0 -0.73342698381E-01 -0.82929941375E-01 -0.47975596929E-02  0.11081427833E+00  0.51100000000E-03 0.  1.
         11    1    4    4    0    0 -0.64439974520E-02 -0.17555105989E-01 -0.50128068494E-02  0.19367400521E-01  0.51100000000E-03 0. -1.
</event>
<event>
 8    1  0.1132492E+005  0.1043930E+01  0.7957747E-01            NaN
         13   -1    0    0    0    0  0.00000000000E+00  0.00000000000E+00  0.74505805969E-08  0.10566000000E+00  0.10566000000E+00 0.  1.
     999900   -1    0    0    0    0 -0.00000000000E+00 -0.00000000000E+00 -0.74505805969E-08  0.93827000000E+00  0.93827000000E+00 0.  1.
     999902    2    1    2    0    0 -0.95232458309E-02 -0.22139711926E-01  0.35368901157E-02  0.10195708406E+01  0.10192798096E+01 0.  0.
     999903    2    3    3    0    0  0.77958257118E-01 -0.46788388168E-01  0.91533318348E-01  0.13052419278E+00  0.19788214014E-01 0.  0.
         14    1    1    2    0    0  0.95232458309E-02  0.22139711926E-01 -0.35368901157E-02  0.24359159407E-01  0.00000000000E+00 0. -1.
     999901    1    3    3    0    0 -0.87481502949E-01  0.24648676242E-01 -0.87996428233E-01  0.88904664781E+00  0.88000000000E+00 0.  1.
        -11    1    4    4    0    0  0.19566505194E-01 -0.13211796890E-01  0.36829142403E-01  0.43749817757E-01  0.51100000000E-03 0. -1.
         11    1    4    4    0    0  0.58391751924E-01 -0.33576591278E-01  0.54704175945E-01  0.86774375027E-01  0.51100000000E-03 0.  1.
</event>
<event>
 8    1  0.1132492E+005  0.1043930E+01  0.7957747E-01            NaN
         13   -1    0    0    0    0  0.00000000000E+00  0.00000000000E+00  0.74505805969E-08  0.10566000000E+00  0.10566000000E+00 0. -1.
     999900   -1    0    0    0    0 -0.00000000000E+00 -0.00000000000E+00 -0.74505805969E-08  0.93827000000E+00  0.93827000000E+00 0.  1.
     999902    2    1    2    0    0 -0.19332453929E-01  0.14043713788E-01  0.33946523245E-02  0.10197951013E+01  0.10195094680E+01 0.  0.
     999903    2    3    3    0    0 -0.13023334466E+00  0.10114141343E-01 -0.13164487237E-01  0.13267129131E+00  0.19114075905E-01 0.  0.
         14    1    1    2    0    0  0.19332453929E-01 -0.14043713788E-01 -0.33946523245E-02  0.24134898721E-01  0.00000000000E+00 0.  1.
     999901    1    3    3    0    0  0.11090089073E+00  0.39295724443E-02  0.16559139562E-01  0.88712380997E+00  0.88000000000E+00 0. -1.
        -11    1    4    4    0    0 -0.48830349940E-01  0.13091860419E-01 -0.50419282725E-02  0.50808287181E-01  0.51100000000E-03 0. -1.
         11    1    4    4    0    0 -0.81402994721E-01 -0.29777190761E-02 -0.81225589648E-02  0.81863004133E-01  0.51100000000E-03 0.  1.
</event>
<event>
 8    1  0.1132492E+005  0.1043930E+01  0.7957747E-01            NaN
         13   -1    0    0    0    0  0.00000000000E+00  0.00000000000E+00  0.74505805969E-08  0.10566000000E+00  0.10566000000E+00 0.  1.
     999900   -1    0    0    0    0 -0.00000000000E+00 -0.00000000000E+00 -0.74505805969E-08  0.93827000000E+00  0.93827000000E+00 0.  1.
     999902    2    1    2    0    0 -0.12251102511E-01  0.99648790403E-02  0.15437298765E-01  0.10218461027E+01  0.10216074388E+01 0.  0.
     999903    2    3    3    0    0 -0.93554022340E-01  0.17976478713E-01  0.93197409639E-01  0.13464771150E+00  0.19202608278E-01 0.  0.
         14    1    1    2    0    0  0.12251102511E-01 -0.99648790403E-02 -0.15437298765E-01  0.22083897305E-01  0.00000000000E+00 0.  1.
     999901    1    3    3    0    0  0.81302919829E-01 -0.80115996731E-02 -0.77760110874E-01  0.88719839120E+00  0.88000000000E+00 0.  1.
        -11    1    4    4    0    0 -0.60682841757E-01  0.18647666462E-01  0.69403556693E-01  0.94059861528E-01  0.51100000000E-03 0.  1.
         11    1    4    4    0    0 -0.32871180584E-01 -0.67118774880E-03  0.23793852947E-01  0.40587849968E-01  0.51100000000E-03 0. -1.
</event>
<event>
 8    1  0.1132492E+005  0.1043930E+01  0.7957747E-01            NaN
         13   -1    0    0    0    0  0.00000000000E+00  0.00000000000E+00  0.74505805969E-08  0.10566000000E+00  0.10566000000E+00 0.  1.
     999900   -1    0    0    0    0 -0.00000000000E+00 -0.00000000000E+00 -0.74505805969E-08  0.93827000000E+00  0.93827000000E+00 0. -1.
     999902    2    1    2    0    0 -0.16929525276E-01 -0.26285188171E-02 -0.16436349230E-01  0.10201882327E+01  0.10199119367E+01 0.  0.
     999903    2    3    3    0    0 -0.62826650904E-01  0.52949197542E-01  0.98488633813E-01  0.12979327518E+00  0.19886621322E-01 0.  0.
         14    1    1    2    0    0  0.16929525276E-01  0.26285188171E-02  0.16436349230E-01  0.23741767273E-01  0.00000000000E+00 0.  1.
     999901    1    3    3    0    0  0.45897125628E-01 -0.55577716359E-01 -0.11492498304E+00  0.89039495755E+00  0.88000000000E+00 0. -1.
        -11    1    4    4    0    0 -0.30112561268E-01  0.36674168609E-01  0.48313646001E-01  0.67721713654E-01  0.51100000000E-03 0. -1.
         11    1    4    4    0    0 -0.32714089635E-01  0.16275028934E-01  0.50174987812E-01  0.62071561527E-01  0.51100000000E-03 0.  1.
</event>
<event>
 8    1  0.1132492E+005  0.1043930E+01  0.7957747E-01            NaN
         13   -1    0    0    0    0  0.00000000000E+00  0.00000000000E+00  0.74505805969E-08  0.10566000000E+00  0.10566000000E+00 0.  1.
     999900   -1    0    0    0    0 -0.00000000000E+00 -0.00000000000E+00 -0.74505805969E-08  0.93827000000E+00  0.93827000000E+00 0.  1.
     999902    2    1    2    0    0 -0.18597882410E-01  0.15842796727E-01  0.60138124082E-02  0.10187696865E+01  0.10184589499E+01 0.  0.
     999903    2    3    3    0    0  0.73196210880E-01 -0.89349092990E-02 -0.10139618620E+00  0.12715486037E+00  0.21205047755E-01 0.  0.
         14    1    1    2    0    0  0.18597882410E-01 -0.15842796727E-01 -0.60138124082E-02  0.25160313550E-01  0.00000000000E+00 0.  1.
     999901    1    3    3    0    0 -0.91794093290E-01  0.24777706026E-01  0.10740999860E+00  0.89161482608E+00  0.88000000000E+00 0. -1.
        -11    1    4    4    0    0  0.60892723881E-01  0.72421533767E-03 -0.77028315256E-01  0.98194046569E-01  0.51100000000E-03 0. -1.
         11    1    4    4    0    0  0.12303487000E-01 -0.96591246367E-02 -0.24367870940E-01  0.28960813805E-01  0.51100000000E-03 0.  1.
</event>
<event>
 8    1  0.1132492E+005  0.1043930E+01  0.7957747E-01            NaN
         13   -1    0    0    0    0  0.00000000000E+00  0.00000000000E+00  0.74505805969E-08  0.10566000000E+00  0.10566000000E+00 0. -1.
     999900   -1    0    0    0    0 -0.00000000000E+00 -0.00000000000E+00 -0.74505805969E-08  0.93827000000E+00  0.93827000000E+00 0. -1.
     999902    2    1    2    0    0  0.55371268110E-02  0.93007005129E-02  0.21223498346E-01  0.10201056493E+01  0.10198274050E+01 0.  0.
     999903    2    3    3    0    0 -0.30431001902E-01  0.17358660104E-01  0.12667340080E+00  0.13304402862E+00  0.20668674890E-01 0.  0.
         14    1    1    2    0    0 -0.55371268110E-02 -0.93007005129E-02 -0.21223498346E-01  0.23824350682E-01  0.00000000000E+00 0.  1.
     999901    1    3    3    0    0  0.35968128713E-01 -0.80579595907E-02 -0.10544990246E+00  0.88706162070E+00  0.88000000000E+00 0. -1.
        -11    1    4    4    0    0 -0.24014058023E-01  0.22036816843E-01  0.97494008658E-01  0.10279902297E+00  0.51100000000E-03 0.  1.
         11    1    4    4    0    0 -0.64169438784E-02 -0.46781567397E-02  0.29179392146E-01  0.30245005641E-01  0.51100000000E-03 0. -1.
</event>
<event>
 8    1  0.1132492E+005  0.1043930E+01  0.7957747E-01            NaN
         13   -1    0    0    0    0  0.00000000000E+00  0.00000000000E+00  0.74505805969E-08  0.10566000000E+00  0.10566000000E+00 0. -1.
     999900   -1    0    0    0    0 -0.00000000000E+00 -0.00000000000E+00 -0.74505805969E-08  0.93827000000E+00  0.93827000000E+00 0.  1.
     999902    2    1    2    0    0  0.16799244602E-01 -0.13893707294E-01 -0.96535936396E-02  0.10200879868E+01  0.10198093250E+01 0.  0.
     999903    2    3    3    0    0  0.93999367251E-02  0.81160494409E-01 -0.99354509536E-01  0.13040472560E+00  0.21417031291E-01 0.  0.
         14    1    1    2    0    0 -0.16799244602E-01  0.13893707294E-01  0.96535936396E-02  0.23842013165E-01  0.00000000000E+00 0. -1.
     999901    1    3    3    0    0  0.73993078768E-02 -0.95054201703E-01  0.89700915896E-01  0.88968326124E+00  0.88000000000E+00 0. -1.
        -11    1    4    4    0    0  0.19957785778E-02  0.52256052564E-01 -0.77165940223E-01  0.93217603558E-01  0.51100000000E-03 0. -1.
         11    1    4    4    0    0  0.74041581473E-02  0.28904441845E-01 -0.22188569313E-01  0.37187122037E-01  0.51100000000E-03 0.  1.
</event>
<event>
 8    1  0.1132492E+005  0.1043930E+01  0.7957747E-01            NaN
         13   -1    0    0    0    0  0.00000000000E+00  0.00000000000E+00  0.74505805969E-08  0.10566000000E+00  0.10566000000E+00 0.  1.
     999900   -1    0    0    0    0 -0.00000000000E+00 -0.00000000000E+00 -0.74505805969E-08  0.93827000000E+00  0.93827000000E+00 0. -1.
     999902    2    1    2    0    0 -0.17801392230E-01  0.10659416731E-01  0.12343278975E-01  0.10197873144E+01  0.10195014946E+01 0.  0.
     999903    2    3    3    0    0  0.50911558612E-01 -0.10787746832E+00 -0.40909183090E-01  0.12759434907E+00  0.19422195615E-01 0.  0.
         14    1    1    2    0    0  0.17801392230E-01 -0.10659416731E-01 -0.12343278975E-01  0.24142685564E-01  0.00000000000E+00 0. -1.
     999901    1    3    3    0    0 -0.68712950842E-01  0.11853688505E+00  0.53252462064E-01  0.89219296537E+00  0.88000000000E+00 0.  1.
        -11    1    4    4    0    0  0.40756363018E-01 -0.72950858262E-01 -0.21161234313E-01  0.86203061467E-01  0.51100000000E-03 0.  1.
         11    1    4    4    0    0  0.10155195594E-01 -0.34926610057E-01 -0.19747948776E-01  0.41391287604E-01  0.51100000000E-03 0. -1.
</event>
<event>
 8    1  0.1132492E+005  0.1043930E+01  0.7957747E-01            NaN
         13   -1    0    0    0    0  0.00000000000E+00  0.00000000000E+00  0.74505805969E-08  0.10566000000E+00  0.10566000000E+00 0. -1.
     999900   -1    0    0    0    0 -0.00000000000E+00 -0.00000000000E+00 -0.74505805969E-08  0.93827000000E+00  0.93827000000E+00 0.  1.
     999902    2    1    2    0    0  0.20423295026E-01  0.11729460708E-02 -0.11608143886E-01  0.10204090352E+01  0.10201379138E+01 0.  0.
     999903    2    3    3    0    0 -0.74505155655E-01  0.10950793682E-01  0.10146676868E+00  0.12805655273E+00  0.20785510601E-01 0.  0.
         14    1    1    2    0    0 -0.20423295026E-01 -0.11729460708E-02  0.11608143886E-01  0.23520964833E-01  0.00000000000E+00 0. -1.
     999901    1    3    3    0    0  0.94928450680E-01 -0.97778476111E-02 -0.11307491256E+00  0.89235248243E+00  0.88000000000E+00 0.  1.
        -11    1    4    4    0    0 -0.52198100039E-01  0.31487081646E-04  0.78190921262E-01  0.94014487862E-01  0.51100000000E-03 0.  1.
         11    1    4    4    0    0 -0.22307055616E-01  0.10919306600E-01  0.23275847416E-01  0.34042064872E-01  0.51100000000E-03 0. -1.
</event>
<event>
 8    1  0.1132492E+005  0.1043930E+01  0.7957747E-01            NaN
         13   -1    0    0    0    0  0.00000000000E+00  0.00000000000E+00  0.74505805969E-08  0.10566000000E+00  0.10566000000E+00 0. -1.
     999900   -1    0    0    0    0 -0.00000000000E+00 -0.00000000000E+00 -0.74505805969E-08  0.93827000000E+00  0.93827000000E+00 0. -1.
     999902    2    1    2    0    0  0.23212827509E-01 -0.42480227160E-02 -0.15289325488E-02  0.10202821948E+01  0.10200081070E+01 0.  0.
     999903    2    3    3    0    0  0.50051227132E-01 -0.12049930033E+00  0.62597889500E-02  0.13219699422E+00  0.20289248531E-01 0.  0.
         14    1    1    2    0    0 -0.23212827509E-01  0.42480227160E-02  0.15289325488E-02  0.23647805240E-01  0.00000000000E+00 0. -1.
     999901    1    3    3    0    0 -0.26838399623E-01  0.11625127761E+00 -0.77887214988E-02  0.88808520054E+00  0.88000000000E+00 0. -1.
        -11    1    4    4    0    0  0.70585765149E-02 -0.21466668001E-01  0.86642253689E-02  0.24206843242E-01  0.51100000000E-03 0.  1.
         11    1    4    4    0    0  0.42992650617E-01 -0.99032632325E-01 -0.24044364188E-02  0.10799015098E+00  0.51100000000E-03 0. -1.
</event>
<event>
 8    1  0.1132492E+005  0.1043930E+01  0.7957747E-01            NaN
         13   -1    0    0    0    0  0.00000000000E+00  0.00000000000E+00  0.74505805969E-08  0.10566000000E+00  0.10566000000E+00 0.  1.
     999900   -1    0    0    0    0 -0.00000000000E+00 -0.00000000000E+00 -0.74505805969E-08  0.93827000000E+00  0.93827000000E+00 0.  1.
     999902    2    1    2    0    0  0.36223167262E-02 -0.19481641842E-01  0.11558820424E-01  0.10209896016E+01  0.10207318476E+01 0.  0.
     999903    2    3    3    0    0 -0.90306538707E-01  0.71259794519E-01  0.58637631321E-01  0.13010630255E+00  0.16001528331E-01 0.  0.
         14    1    1    2    0    0 -0.36223167262E-02  0.19481641842E-01 -0.11558820424E-01  0.22940398360E-01  0.00000000000E+00 0.  1.
     999901    1    3    3    0    0  0.93928855434E-01 -0.90741436361E-01 -0.47078810897E-01  0.89088329909E+00  0.88000000000E+00 0.  1.
        -11    1    4    4    0    0 -0.37946583632E-01  0.36981213943E-01  0.20494280265E-01  0.56813995095E-01  0.51100000000E-03 0. -1.
         11    1    4    4    0    0 -0.52359955075E-01  0.34278580576E-01  0.38143351056E-01  0.73292307458E-01  0.51100000000E-03 0.  1.
</event>
<event>
 8    1  0.1132492E+005  0.1043930E+01  0.7957747E-01            NaN
         13   -1    0    0    0    0  0.00000000000E+00  0.00000000000E+00  0.74505805969E-08  0.10566000000E+00  0.10566000000E+00 0.  1.
     999900   -1    0    0    0    0 -0.00000000000E+00 -0.00000000000E+00 -0.74505805969E-08  0.93827000000E+00  0.93827000000E+00 0. -1.
     999902    2    1    2    0    0  0.66757815795E-02 -0.18087846493E-01  0.13951413074E-01  0.10201312988E+01  0.10198536604E+01 0.  0.
     999903    2    3    3    0    0 -0.95710038483E-01  0.69551787165E-01  0.47582565089E-01  0.12923589761E+00  0.20975084414E-01 0.  0.
         14    1    1    2    0    0 -0.66757815795E-02  0.18087846493E-01 -0.13951413074E-01  0.23798701166E-01  0.00000000000E+00 0. -1.
     999901    1    3    3    0    0  0.10238582006E+00 -0.87639633658E-01 -0.33631152015E-01  0.89089540122E+00  0.88000000000E+00 0.  1.
        -11    1    4    4    0    0 -0.83105507063E-01  0.53779712110E-01  0.33077041632E-01  0.10437018033E+00  0.51100000000E-03 0.  1.
         11    1    4    4    0    0 -0.12604531420E-01  0.15772075055E-01  0.14505523457E-01  0.24865717275E-01  0.51100000000E-03 0. -1.
</event>
<event>
 8    1  0.1132492E+005  0.1043930E+01  0.7957747E-01            NaN
         13   -1    0    0    0    0  0.00000000000E+00  0.00000000000E+00  0.74505805969E-08  0.10566000000E+00  0.10566000000E+00 0.  1.
     999900   -1    0    0    0    0 -0.00000000000E+00 -0.00000000000E+00 -0.74505805969E-08  0.93827000000E+00  0.93827000000E+00 0.  1.
     999902    2    1    2    0    0  0.15754584777E-01 -0.18648947514E-01 -0.33811285314E-03  0.10195147485E+01  0.10192223594E+01 0.  0.
     999903    2    3    3    0    0 -0.33305780640E-01 -0.56630536134E-01  0.11078286508E+00  0.13035931088E+00  0.20110049518E-01 0.  0.
         14    1    1    2    0    0 -0.15754584777E-01  0.18648947514E-01  0.33811285314E-03  0.24415251487E-01  0.00000000000E+00 0. -1.
     999901    1    3    3    0    0  0.49060365417E-01  0.37981588620E-01 -0.11112097793E+00  0.88915543763E+00  0.88000000000E+00 0.  1.
        -11    1    4    4    0    0 -0.27375297869E-01 -0.30875209963E-01  0.56321172310E-01  0.69821351284E-01  0.51100000000E-03 0. -1.
         11    1    4    4    0    0 -0.59304827713E-02 -0.25755326171E-01  0.54461692770E-01  0.60537959600E-01  0.51100000000E-03 0.  1.
</event>
<event>
 8    1  0.1659082E+005  0.1043930E+01  0.7957747E-01            NaN
         13   -1    0    0    0    0  0.00000000000E+00  0.00000000000E+00  0.74505805969E-08  0.10566000000E+00  0.10566000000E+00 0. -1.
     999900   -1    0    0    0    0 -0.00000000000E+00 -0.00000000000E+00 -0.74505805969E-08  0.93827000000E+00  0.93827000000E+00 0. -1.
     999902    2    1    2    0    0  0.15078079188E-01  0.80193745718E-02  0.16787059880E-01  0.10199828870E+01  0.10197017336E+01 0.  0.
     999903    2    3    3    0    0  0.86483225176E-01 -0.36054591979E-02  0.99632950232E-01  0.13313607208E+00  0.17496895238E-01 0.  0.
         14    1    1    2    0    0 -0.15078079188E-01 -0.80193745718E-02 -0.16787059880E-01  0.23947112977E-01  0.00000000000E+00 0.  1.
     999901    1    3    3    0    0 -0.71405145988E-01  0.11624833770E-01 -0.82845890352E-01  0.88684681495E+00  0.88000000000E+00 0. -1.
        -11    1    4    4    0    0  0.33196678324E-01 -0.15860020917E-02  0.51524506411E-01  0.61315338508E-01  0.51100000000E-03 0.  1.
         11    1    4    4    0    0  0.53286546852E-01 -0.20194571062E-02  0.48108443821E-01  0.71820733568E-01  0.51100000000E-03 0. -1.
</event>
<event>
 8    1  0.1132492E+005  0.1043930E+01  0.7957747E-01            NaN
         13   -1    0    0    0    0  0.00000000000E+00  0.00000000000E+00  0.74505805969E-08  0.10566000000E+00  0.10566000000E+00 0.  1.
     999900   -1    0    0    0    0 -0.00000000000E+00 -0.00000000000E+00 -0.74505805969E-08  0.93827000000E+00  0.93827000000E+00 0.  1.
     999902    2    1    2    0    0 -0.45845706053E-02  0.16653914607E-01 -0.16043413102E-01  0.10203553894E+01  0.10200830155E+01 0.  0.
     999903    2    3    3    0    0  0.61361727063E-01  0.16219311477E-01  0.10928203372E+00  0.12903301752E+00  0.26050510603E-01 0.  0.
         14    1    1    2    0    0  0.45845706053E-02 -0.16653914607E-01  0.16043413102E-01  0.23574610566E-01  0.00000000000E+00 0.  1.
     999901    1    3    3    0    0 -0.65946297668E-01  0.43460313023E-03 -0.12532544682E+00  0.89132237192E+00  0.88000000000E+00 0.  1.
        -11    1    4    4    0    0  0.76419251165E-02  0.12164329205E-01  0.17967158230E-01  0.23009776626E-01  0.51100000000E-03 0.  1.
         11    1    4    4    0    0  0.53719801946E-01  0.40549822713E-02  0.91314875491E-01  0.10602324089E+00  0.51100000000E-03 0. -1.
</event>
<event>
 8    1  0.1132492E+005  0.1043930E+01  0.7957747E-01            NaN
         13   -1    0    0    0    0  0.00000000000E+00  0.00000000000E+00  0.74505805969E-08  0.10566000000E+00  0.10566000000E+00 0. -1.
     999900   -1    0    0    0    0 -0.00000000000E+00 -0.00000000000E+00 -0.74505805969E-08  0.93827000000E+00  0.93827000000E+00 0. -1.
     999902    2    1    2    0    0 -0.20154289239E-02  0.15276952658E-01  0.18906468398E-01  0.10195393915E+01  0.10192475995E+01 0.  0.
     999903    2    3    3    0    0 -0.11552178699E-01  0.12918510456E+00 -0.11482684414E-01  0.13162637927E+00  0.19271938224E-01 0.  0.
         14    1    1    2    0    0  0.20154289239E-02 -0.15276952658E-01 -0.18906468398E-01  0.24390608512E-01  0.00000000000E+00 0. -1.
     999901    1    3    3    0    0  0.95367497751E-02 -0.11390815191E+00  0.30389152812E-01  0.88791301222E+00  0.88000000000E+00 0. -1.
        -11    1    4    4    0    0  0.30720769050E-02  0.56133358989E-01  0.15560768622E-03  0.56219898458E-01  0.51100000000E-03 0.  1.
         11    1    4    4    0    0 -0.14624255604E-01  0.73051745576E-01 -0.11638292100E-01  0.75406480807E-01  0.51100000000E-03 0. -1.
</event>
<event>
 8    1  0.1132492E+005  0.1043930E+01  0.7957747E-01            NaN
         13   -1    0    0    0    0  0.00000000000E+00  0.00000000000E+00  0.74505805969E-08  0.10566000000E+00  0.10566000000E+00 0.  1.
     999900   -1    0    0    0    0 -0.00000000000E+00 -0.00000000000E+00 -0.74505805969E-08  0.93827000000E+00  0.93827000000E+00 0.  1.
     999902    2    1    2    0    0  0.14866350290E-01 -0.17235452581E-01 -0.28370043557E-02  0.10209927423E+01  0.10207350597E+01 0.  0.
     999903    2    3    3    0    0  0.30576751955E-01 -0.11862574487E+00 -0.50280946741E-01  0.13376236875E+00  0.18899539251E-01 0.  0.
         14    1    1    2    0    0 -0.14866350290E-01  0.17235452581E-01  0.28370043557E-02  0.22937257690E-01  0.00000000000E+00 0.  1.
     999901    1    3    3    0    0 -0.15710401665E-01  0.10139029229E+00  0.47443942385E-01  0.88723037356E+00  0.88000000000E+00 0. -1.
        -11    1    4    4    0    0  0.16228694934E-01 -0.75819637454E-01 -0.22446550909E-01  0.80722343447E-01  0.51100000000E-03 0. -1.
         11    1    4    4    0    0  0.14348057020E-01 -0.42806107415E-01 -0.27834395832E-01  0.53040025307E-01  0.51100000000E-03 0.  1.
</event>
<event>
 8    1  0.1132492E+005  0.1043930E+01  0.7957747E-01            NaN
         13   -1    0    0    0    0  0.00000000000E+00  0.00000000000E+00  0.74505805969E-08  0.10566000000E+00  0.10566000000E+00 0.  1.
     999900   -1    0    0    0    0 -0.00000000000E+00 -0.00000000000E+00 -0.74505805969E-08  0.93827000000E+00  0.93827000000E+00 0.  1.
     999902    2    1    2    0    0  0.12511169055E-01 -0.10676497691E-01  0.17215380637E-01  0.10201206261E+01  0.10198427357E+01 0.  0.
     999903    2    3    3    0    0  0.25800962141E-02 -0.12794270555E+00  0.26462815568E-01  0.13223802985E+00  0.20263838014E-01 0.  0.
         14    1    1    2    0    0 -0.12511169055E-01  0.10676497691E-01 -0.17215380637E-01  0.23809373879E-01  0.00000000000E+00 0. -1.
     999901    1    3    3    0    0  0.99310728409E-02  0.11726620786E+00 -0.92474349314E-02  0.88788259627E+00  0.88000000000E+00 0. -1.
        -11    1    4    4    0    0 -0.17892971836E-03 -0.87925812422E-01  0.27444004351E-01  0.92110884274E-01  0.51100000000E-03 0.  1.
         11    1    4    4    0    0  0.27590259324E-02 -0.40016893124E-01 -0.98118878271E-03  0.40127145573E-01  0.51100000000E-03 0. -1.
</event>
<event>
 8    1  0.1132492E+005  0.1043930E+01  0.7957747E-01            NaN
         13   -1    0    0    0    0  0.00000000000E+00  0.00000000000E+00  0.74505805969E-08  0.10566000000E+00  0.10566000000E+00 0.  1.
     999900   -1    0    0    0    0 -0.00000000000E+00 -0.00000000000E+00 -0.74505805969E-08  0.93827000000E+00  0.93827000000E+00 0.  1.
     999902    2    1    2    0    0 -0.29964537773E-02 -0.21341405467E-01 -0.83501746257E-02  0.10208181040E+01  0.10205564373E+01 0.  0.
     999903    2    3    3    0    0 -0.29945793534E-01 -0.12408165534E+00 -0.35672016902E-01  0.13401017158E+00  0.19829915618E-01 0.  0.
         14    1    1    2    0    0  0.29964537773E-02  0.21341405467E-01  0.83501746257E-02  0.23111896045E-01  0.00000000000E+00 0.  1.
     999901    1    3    3    0    0  0.26949339757E-01  0.10274024988E+00  0.27321842276E-01  0.88680793238E+00  0.88000000000E+00 0. -1.
        -11    1    4    4    0    0 -0.49948452996E-02 -0.15305910958E-01  0.19762306198E-02  0.16229171214E-01  0.51100000000E-03 0.  1.
         11    1    4    4    0    0 -0.24950948235E-01 -0.10877574439E+00 -0.37648247522E-01  0.11778100037E+00  0.51100000000E-03 0. -1.
</event>
<event>
 8    1  0.1132492E+005  0.1043930E+01  0.7957747E-01            NaN
         13   -1    0    0    0    0  0.00000000000E+00  0.00000000000E+00  0.74505805969E-08  0.10566000000E+00  0.10566000000E+00 0. -1.
     999900   -1    0    0    0    0 -0.00000000000E+00 -0.00000000000E+00 -0.74505805969E-08  0.93827000000E+00  0.93827000000E+00 0. -1.
     999902    2    1    2    0    0 -0.10099192751E-01  0.23166262124E-01 -0.50044083007E-02  0.10181673624E+01  0.10178413748E+01 0.  0.
     999903    2    3    3    0    0 -0.11823403827E+00 -0.41733880042E-01 -0.22649737720E-01  0.12900116254E+00  0.20181297528E-01 0.  0.
         14    1    1    2    0    0  0.10099192751E-01 -0.23166262124E-01  0.50044083007E-02  0.25762637626E-01  0.00000000000E+00 0. -1.
     999901    1    3    3    0    0  0.10813484552E+00  0.64900142166E-01  0.17645329420E-01  0.88916619983E+00  0.88000000000E+00 0. -1.
        -11    1    4    4    0    0 -0.53119321660E-01 -0.82144281358E-02 -0.89429075014E-02  0.54491979949E-01  0.51100000000E-03 0. -1.
         11    1    4    4    0    0 -0.65114716611E-01 -0.33519451906E-01 -0.13706830219E-01  0.74509182595E-01  0.51100000000E-03 0.  1.
</event>
<event>
 8    1  0.1132492E+005  0.1043930E+01  0.7957747E-01            NaN
         13   -1    0    0    0    0  0.00000000000E+00  0.00000000000E+00  0.74505805969E-08  0.10566000000E+00  0.10566000000E+00 0.  1.
     999900   -1    0    0    0    0 -0.00000000000E+00 -0.00000000000E+00 -0.74505805969E-08  0.93827000000E+00  0.93827000000E+00 0.  1.
     999902    2    1    2    0    0  0.20425381045E-01 -0.12292961214E-01 -0.47717919277E-02  0.10196177997E+01  0.10193279032E+01 0.  0.
     999903    2    3    3    0    0 -0.21801044863E-01 -0.18275459765E-02 -0.12671084413E+00  0.13014507474E+00  0.20086736358E-01 0.  0.
         14    1    1    2    0    0 -0.20425381045E-01  0.12292961214E-01  0.47717919277E-02  0.24312200321E-01  0.00000000000E+00 0. -1.
     999901    1    3    3    0    0  0.42226425908E-01 -0.10465415237E-01  0.12193905220E+00  0.88947272494E+00  0.88000000000E+00 0. -1.
        -11    1    4    4    0    0 -0.15020246950E-02 -0.78323003458E-02 -0.24730132477E-01  0.25989258940E-01  0.51100000000E-03 0.  1.
         11    1    4    4    0    0 -0.20299020168E-01  0.60047543693E-02 -0.10198071165E+00  0.10415581580E+00  0.51100000000E-03 0. -1.
</event>
<event>
 8    1  0.1132492E+005  0.1043930E+01  0.7957747E-01            NaN
         13   -1    0    0    0    0  0.00000000000E+00  0.00000000000E+00  0.74505805969E-08  0.10566000000E+00  0.10566000000E+00 0. -1.
     999900   -1    0    0    0    0 -0.00000000000E+00 -0.00000000000E+00 -0.74505805969E-08  0.93827000000E+00  0.93827000000E+00 0. -1.
     999902    2    1    2    0    0 -0.95540551814E-02  0.17316689331E-01 -0.12759321059E-01  0.10203939006E+01  0.10201224262E+01 0.  0.
     999903    2    3    3    0    0 -0.11219765218E+00 -0.45845453389E-01 -0.47555483605E-01  0.13149799153E+00  0.18441231113E-01 0.  0.
         14    1    1    2    0    0  0.95540551814E-02 -0.17316689331E-01  0.12759321059E-01  0.23536099373E-01  0.00000000000E+00 0. -1.
     999901    1    3    3    0    0  0.10264359700E+00  0.63162142720E-01  0.34796162546E-01  0.88889590909E+00  0.88000000000E+00 0.  1.
        -11    1    4    4    0    0 -0.71762281208E-01 -0.35974396365E-01 -0.24593391234E-01  0.83958788768E-01  0.51100000000E-03 0.  1.
         11    1    4    4    0    0 -0.40435370972E-01 -0.98710570243E-02 -0.22962092371E-01  0.47539202764E-01  0.51100000000E-03 0. -1.
</event>
<event>
 8    1  0.1132492E+005  0.1043930E+01  0.7957747E-01            NaN
         13   -1    0    0    0    0  0.00000000000E+00  0.00000000000E+00  0.74505805969E-08  0.10566000000E+00  0.10566000000E+00 0. -1.
     999900   -1    0    0    0    0 -0.00000000000E+00 -0.00000000000E+00 -0.74505805969E-08  0.93827000000E+00  0.93827000000E+00 0. -1.
     999902    2    1    2    0    0 -0.15915756334E-01 -0.92976818271E-03  0.14140956400E-01  0.10226193825E+01  0.10223973098E+01 0.  0.
     999903    2    3    3    0    0 -0.19804893354E-01 -0.12785204617E+00  0.25816418210E-01  0.13342834208E+00  0.19956340076E-01 0.  0.
         14    1    1    2    0    0  0.15915756334E-01  0.92976818271E-03 -0.14140956400E-01  0.21310617458E-01  0.00000000000E+00 0.  1.
     999901    1    3    3    0    0  0.38891370203E-02  0.12692227799E+00 -0.11675461810E-01  0.88919104047E+00  0.88000000000E+00 0. -1.
        -11    1    4    4    0    0 -0.92655850377E-04 -0.11702431988E-01  0.82190646735E-02  0.14309774444E-01  0.51100000000E-03 0. -1.
         11    1    4    4    0    0 -0.19712237504E-01 -0.11614961418E+00  0.17597353537E-01  0.11911856763E+00  0.51100000000E-03 0.  1.
</event>
<event>
 8    1  0.1132492E+005  0.1043930E+01  0.7957747E-01            NaN
         13   -1    0    0    0    0  0.00000000000E+00  0.00000000000E+00  0.74505805969E-08  0.10566000000E+00  0.10566000000E+00 0.  1.
     999900   -1    0    0    0    0 -0.00000000000E+00 -0.00000000000E+00 -0.74505805969E-08  0.93827000000E+00  0.93827000000E+00 0. -1.
     999902    2    1    2    0    0  0.61467672639E-02 -0.20745222861E-01  0.94541015821E-02  0.10203179892E+01  0.10200447402E+01 0.  0.
     999903    2    3    3    0    0  0.25396433727E-01 -0.63959018708E-01 -0.10955254787E+00  0.13104830879E+00  0.20884529465E-01 0.  0.
         14    1    1    2    0    0 -0.61467672639E-02  0.20745222861E-01 -0.94541015821E-02  0.23612010843E-01  0.00000000000E+00 0. -1.
     999901    1    3    3    0    0 -0.19249666463E-01  0.43213795848E-01  0.11900664945E+00  0.88926968037E+00  0.88000000000E+00 0.  1.
        -11    1    4    4    0    0  0.65535826298E-03 -0.26922356722E-01 -0.48443580291E-01  0.55428191188E-01  0.51100000000E-03 0.  1.
         11    1    4    4    0    0  0.24741075464E-01 -0.37036661987E-01 -0.61108967579E-01  0.75620117600E-01  0.51100000000E-03 0. -1.
</event>
<event>
 8    1  0.1132492E+005  0.1043930E+01  0.7957747E-01            NaN
         13   -1    0    0    0    0  0.00000000000E+00  0.00000000000E+00  0.74505805969E-08  0.10566000000E+00  0.10566000000E+00 0.  1.
     999900   -1    0    0    0    0 -0.00000000000E+00 -0.00000000000E+00 -0.74505805969E-08  0.93827000000E+00  0.93827000000E+00 0. -1.
     999902    2    1    2    0    0 -0.19667118519E-01 -0.13067387924E-01  0.30825176616E-02  0.10201171024E+01  0.10198391287E+01 0.  0.
     999903    2    3    3    0    0 -0.26728857788E-01  0.11027937171E+00 -0.58610651846E-01  0.12934758200E+00  0.20484550173E-01 0.  0.
         14    1    1    2    0    0  0.19667118519E-01  0.13067387924E-01 -0.30825176616E-02  0.23812897622E-01  0.00000000000E+00 0. -1.
     999901    1    3    3    0    0  0.70617392692E-02 -0.12334675963E+00  0.61693169508E-01  0.89076952038E+00  0.88000000000E+00 0.  1.
        -11    1    4    4    0    0 -0.16443263301E-01  0.37948178574E-01 -0.13620489772E-01  0.43545654521E-01  0.51100000000E-03 0.  1.
         11    1    4    4    0    0 -0.10285594487E-01  0.72331193136E-01 -0.44990162074E-01  0.85801927477E-01  0.51100000000E-03 0. -1.
</event>
<event>
 8    1  0.1132492E+005  0.1043930E+01  0.7957747E-01            NaN
         13   -1    0    0    0    0  0.00000000000E+00  0.00000000000E+00  0.74505805969E-08  0.10566000000E+00  0.10566000000E+00 0.  1.
     999900   -1    0    0    0    0 -0.00000000000E+00 -0.00000000000E+00 -0.74505805969E-08  0.93827000000E+00  0.93827000000E+00 0.  1.
     999902    2    1    2    0    0 -0.18421864553E-01  0.56568903819E-02 -0.14073712256E-01  0.10200671653E+01  0.10197880108E+01 0.  0.
     999903    2    3    3    0    0 -0.72253059093E-01  0.58238130940E-02  0.10598982304E+00  0.13028456385E+00  0.22040953739E-01 0.  0.
         14    1    1    2    0    0  0.18421864553E-01 -0.56568903819E-02  0.14073712256E-01  0.23862834682E-01  0.00000000000E+00 0.  1.
     999901    1    3    3    0    0  0.53831194540E-01 -0.16692271210E-03 -0.12006353530E+00  0.88978260147E+00  0.88000000000E+00 0.  1.
        -11    1    4    4    0    0 -0.33538672492E-01  0.78756466648E-02  0.33385662351E-01  0.47976368501E-01  0.51100000000E-03 0. -1.
         11    1    4    4    0    0 -0.38714386601E-01 -0.20518335709E-02  0.72604160691E-01  0.82308195348E-01  0.51100000000E-03 0.  1.
</event>
<event>
 8    1  0.1132492E+005  0.1043930E+01  0.7957747E-01            NaN
         13   -1    0    0    0    0  0.00000000000E+00  0.00000000000E+00  0.74505805969E-08  0.10566000000E+00  0.10566000000E+00 0. -1.
     999900   -1    0    0    0    0 -0.00000000000E+00 -0.00000000000E+00 -0.74505805969E-08  0.93827000000E+00  0.93827000000E+00 0. -1.
     999902    2    1    2    0    0  0.17527681533E-01 -0.73916234774E-02  0.14312250794E-01  0.10201246174E+01  0.10198468212E+01 0.  0.
     999903    2    3    3    0    0  0.10861935578E+00  0.47991074672E-02  0.74271705176E-01  0.13330927969E+00  0.20829833901E-01 0.  0.
         14    1    1    2    0    0 -0.17527681533E-01  0.73916234774E-02 -0.14312250794E-01  0.23805382592E-01  0.00000000000E+00 0.  1.
     999901    1    3    3    0    0 -0.91091674245E-01 -0.12190730945E-01 -0.59959454382E-01  0.88681533772E+00  0.88000000000E+00 0. -1.
        -11    1    4    4    0    0  0.59820562008E-01  0.11977544634E-01  0.35656517591E-01  0.70665476593E-01  0.51100000000E-03 0.  1.
         11    1    4    4    0    0  0.48798793769E-01 -0.71784371665E-02  0.38615187585E-01  0.62643803099E-01  0.51100000000E-03 0. -1.
</event>
<event>
 8    1  0.1132492E+005  0.1043930E+01  0.7957747E-01            NaN
         13   -1    0    0    0    0  0.00000000000E+00  0.00000000000E+00  0.74505805969E-08  0.10566000000E+00  0.10566000000E+00 0. -1.
     999900   -1    0    0    0    0 -0.00000000000E+00 -0.00000000000E+00 -0.74505805969E-08  0.93827000000E+00  0.93827000000E+00 0. -1.
     999902    2    1    2    0    0  0.77162926406E-02  0.21642329207E-01 -0.91518867284E-02  0.10191976605E+01  0.10188975329E+01 0.  0.
     999903    2    3    3    0    0 -0.72771671430E-01  0.93271153140E-01  0.51545683072E-01  0.13055082642E+00  0.19782231011E-01 0.  0.
         14    1    1    2    0    0 -0.77162926406E-02 -0.21642329207E-01  0.91518867284E-02  0.24732339483E-01  0.00000000000E+00 0.  1.
     999901    1    3    3    0    0  0.80487964071E-01 -0.71628823933E-01 -0.60697569801E-01  0.88864683410E+00  0.88000000000E+00 0.  1.
        -11    1    4    4    0    0 -0.40391121925E-01  0.36796352649E-01  0.19761662222E-01  0.58105066159E-01  0.51100000000E-03 0.  1.
         11    1    4    4    0    0 -0.32380549505E-01  0.56474800491E-01  0.31784020851E-01  0.72445760257E-01  0.51100000000E-03 0. -1.
</event>
<event>
 8    1  0.1132492E+005  0.1043930E+01  0.7957747E-01            NaN
         13   -1    0    0    0    0  0.00000000000E+00  0.00000000000E+00  0.74505805969E-08  0.10566000000E+00  0.10566000000E+00 0.  1.
     999900   -1    0    0    0    0 -0.00000000000E+00 -0.00000000000E+00 -0.74505805969E-08  0.93827000000E+00  0.93827000000E+00 0.  1.
     999902    2    1    2    0    0 -0.20831330854E-01 -0.16432835799E-03 -0.11286145985E-01  0.10202372070E+01  0.10199620631E+01 0.  0.
     999903    2    3    3    0    0 -0.61655182895E-01 -0.35310295548E-01 -0.11065740098E+00  0.13300754551E+00  0.19944127537E-01 0.  0.
         14    1    1    2    0    0  0.20831330854E-01  0.16432835799E-03  0.11286145985E-01  0.23692793000E-01  0.00000000000E+00 0.  1.
     999901    1    3    3    0    0  0.40823852041E-01  0.35145967190E-01  0.99371254990E-01  0.88722966149E+00  0.88000000000E+00 0.  1.
        -11    1    4    4    0    0 -0.31381824141E-01 -0.29279358986E-01 -0.64775046740E-01  0.77705646836E-01  0.51100000000E-03 0.  1.
         11    1    4    4    0    0 -0.30273358754E-01 -0.60309365619E-02 -0.45882354235E-01  0.55301898677E-01  0.51100000000E-03 0. -1.
</event>
<event>
 8    1  0.1132492E+005  0.1043930E+01  0.7957747E-01            NaN
         13   -1    0    0    0    0  0.00000000000E+00  0.00000000000E+00  0.74505805969E-08  0.10566000000E+00  0.10566000000E+00 0.  1.
     999900   -1    0    0    0    0 -0.00000000000E+00 -0.00000000000E+00 -0.74505805969E-08  0.93827000000E+00  0.93827000000E+00 0.  1.
     999902    2    1    2    0    0 -0.66582613978E-03 -0.22711655285E-01 -0.78061372317E-02  0.10199050465E+01  0.10196220405E+01 0.  0.
     999903    2    3    3    0    0 -0.93598354965E-01 -0.41028159081E-01 -0.80753981254E-01  0.13182096428E+00  0.20287908823E-01 0.  0.
         14    1    1    2    0    0  0.66582613978E-03  0.22711655285E-01  0.78061372317E-02  0.24024953459E-01  0.00000000000E+00 0.  1.
     999901    1    3    3    0    0  0.92932528826E-01  0.18316503796E-01  0.72947844023E-01  0.88808408227E+00  0.88000000000E+00 0. -1.
        -11    1    4    4    0    0 -0.79663155131E-01 -0.29218305173E-01 -0.58694095775E-01  0.10317550893E+00  0.51100000000E-03 0.  1.
         11    1    4    4    0    0 -0.13935199834E-01 -0.11809853908E-01 -0.22059885480E-01  0.28645455348E-01  0.51100000000E-03 0. -1.
</event>
<event>
 8    1  0.1132492E+005  0.1043930E+01  0.7957747E-01            NaN
         13   -1    0    0    0    0  0.00000000000E+00  0.00000000000E+00  0.74505805969E-08  0.10566000000E+00  0.10566000000E+00 0.  1.
     999900   -1    0    0    0    0 -0.00000000000E+00 -0.00000000000E+00 -0.74505805969E-08  0.93827000000E+00  0.93827000000E+00 0.  1.
     999902    2    1    2    0    0  0.17677651384E-01 -0.77583335811E-03 -0.15083184332E-01  0.10206791134E+01  0.10204142536E+01 0.  0.
     999903    2    3    3    0    0 -0.60148267496E-01 -0.56950840192E-01 -0.10005344959E+00  0.13139150473E+00  0.19794505750E-01 0.  0.
         14    1    1    2    0    0 -0.17677651384E-01  0.77583335811E-03  0.15083184332E-01  0.23250886552E-01  0.00000000000E+00 0. -1.
     999901    1    3    3    0    0  0.77825918880E-01  0.56175006834E-01  0.84970265263E-01  0.88928760872E+00  0.88000000000E+00 0. -1.
        -11    1    4    4    0    0 -0.42417230008E-01 -0.27999321875E-01 -0.53788932733E-01  0.74004687909E-01  0.51100000000E-03 0.  1.
         11    1    4    4    0    0 -0.17731037487E-01 -0.28951518317E-01 -0.46264516862E-01  0.57386816820E-01  0.51100000000E-03 0. -1.
</event>
<event>
 8    1  0.1132492E+005  0.1043930E+01  0.7957747E-01            NaN
         13   -1    0    0    0    0  0.00000000000E+00  0.00000000000E+00  0.74505805969E-08  0.10566000000E+00  0.10566000000E+00 0. -1.
     999900   -1    0    0    0    0 -0.00000000000E+00 -0.00000000000E+00 -0.74505805969E-08  0.93827000000E+00  0.93827000000E+00 0.  1.
     999902    2    1    2    0    0  0.19147201468E-01 -0.12132933252E-01  0.96251682168E-02  0.10193034441E+01  0.10190059096E+01 0.  0.
     999903    2    3    3    0    0  0.73636202168E-01 -0.73914513629E-01  0.79298390094E-01  0.13271426485E+00  0.20956999537E-01 0.  0.
         14    1    1    2    0    0 -0.19147201468E-01  0.12132933252E-01 -0.96251682168E-02  0.24626555922E-01  0.00000000000E+00 0.  1.
     999901    1    3    3    0    0 -0.54489000700E-01  0.61781580377E-01 -0.69673221877E-01  0.88658917922E+00  0.88000000000E+00 0.  1.
        -11    1    4    4    0    0  0.38021643220E-01 -0.36446047255E-01  0.27041551063E-01  0.59206978631E-01  0.51100000000E-03 0.  1.
         11    1    4    4    0    0  0.35614558948E-01 -0.37468466374E-01  0.52256839030E-01  0.73507286223E-01  0.51100000000E-03 0. -1.
</event>
<event>
 8    1  0.1132492E+005  0.1043930E+01  0.7957747E-01            NaN
         13   -1    0    0    0    0  0.00000000000E+00  0.00000000000E+00  0.74505805969E-08  0.10566000000E+00  0.10566000000E+00 0. -1.
     999900   -1    0    0    0    0 -0.00000000000E+00 -0.00000000000E+00 -0.74505805969E-08  0.93827000000E+00  0.93827000000E+00 0.  1.
     999902    2    1    2    0    0 -0.21199478557E-01  0.48883082380E-03  0.48588273482E-02  0.10221753442E+01  0.10219438190E+01 0.  0.
     999903    2    3    3    0    0 -0.12692825205E+00  0.32244438036E-01 -0.25044341303E-01  0.13477397409E+00  0.19655027543E-01 0.  0.
         14    1    1    2    0    0  0.21199478557E-01 -0.48883082380E-03 -0.48588273482E-02  0.21754655820E-01  0.00000000000E+00 0.  1.
     999901    1    3    3    0    0  0.10572877350E+00 -0.31755607213E-01  0.29903168652E-01  0.88740137009E+00  0.88000000000E+00 0.  1.
        -11    1    4    4    0    0 -0.10405905820E+00  0.25167104495E-01 -0.12631226883E-01  0.10780296728E+00  0.51100000000E-03 0.  1.
         11    1    4    4    0    0 -0.22869193859E-01  0.70773335410E-02 -0.12413114420E-01  0.26971006812E-01  0.51100000000E-03 0. -1.
</event>
<event>
 8    1  0.1132492E+005  0.1043930E+01  0.7957747E-01            NaN
         13   -1    0    0    0    0  0.00000000000E+00  0.00000000000E+00  0.74505805969E-08  0.10566000000E+00  0.10566000000E+00 0. -1.
     999900   -1    0    0    0    0 -0.00000000000E+00 -0.00000000000E+00 -0.74505805969E-08  0.93827000000E+00  0.93827000000E+00 0.  1.
     999902    2    1    2    0    0  0.11274372405E-01  0.17253688540E-01 -0.11343088509E-01  0.10204041228E+01  0.10201328869E+01 0.  0.
     999903    2    3    3    0    0  0.97215103222E-01 -0.80946810475E-01 -0.25889067948E-01  0.13066217552E+00  0.19979936242E-01 0.  0.
         14    1    1    2    0    0 -0.11274372405E-01 -0.17253688540E-01  0.11343088509E-01  0.23525877206E-01  0.00000000000E+00 0. -1.
     999901    1    3    3    0    0 -0.85940730816E-01  0.98200499015E-01  0.14545979439E-01  0.88974194727E+00  0.88000000000E+00 0. -1.
        -11    1    4    4    0    0  0.34049023117E-01 -0.36852621665E-01 -0.17634447948E-01  0.53185398130E-01  0.51100000000E-03 0.  1.
         11    1    4    4    0    0  0.63166080104E-01 -0.44094188810E-01 -0.82546200000E-02  0.77476777391E-01  0.51100000000E-03 0. -1.
</event>
<event>
 8    1  0.1132492E+005  0.1043930E+01  0.7957747E-01            NaN
         13   -1    0    0    0    0  0.00000000000E+00  0.00000000000E+00  0.74505805969E-08  0.10566000000E+00  0.10566000000E+00 0. -1.
     999900   -1    0    0    0    0 -0.00000000000E+00 -0.00000000000E+00 -0.74505805969E-08  0.93827000000E+00  0.93827000000E+00 0. -1.
     999902    2    1    2    0    0  0.14752557231E-01  0.18503395590E-01  0.24084269740E-02  0.10201431525E+01  0.10198657939E+01 0.  0.
     999903    2    3    3    0    0 -0.10011834682E+00  0.30723612615E-01 -0.73223933315E-01  0.12937667793E+00  0.20222676421E-01 0.  0.
         14    1    1    2    0    0 -0.14752557231E-01 -0.18503395590E-01 -0.24084269740E-02  0.23786847494E-01  0.00000000000E+00 0.  1.
     999901    1    3    3    0    0  0.11487090405E+00 -0.12220217026E-01  0.75632360289E-01  0.89076647457E+00  0.88000000000E+00 0.  1.
        -11    1    4    4    0    0 -0.12702825177E-01 -0.12888213101E-02 -0.14413444565E-01  0.19262173633E-01  0.51100000000E-03 0. -1.
         11    1    4    4    0    0 -0.87415521639E-01  0.32012433926E-01 -0.58810488750E-01  0.11011450430E+00  0.51100000000E-03 0.  1.
</event>
<event>
 8    1  0.1132492E+005  0.1043930E+01  0.7957747E-01            NaN
         13   -1    0    0    0    0  0.00000000000E+00  0.00000000000E+00  0.74505805969E-08  0.10566000000E+00  0.10566000000E+00 0.  1.
     999900   -1    0    0    0    0 -0.00000000000E+00 -0.00000000000E+00 -0.74505805969E-08  0.93827000000E+00  0.93827000000E+00 0.  1.
     999902    2    1    2    0    0 -0.23865552021E-02  0.21772191297E-01  0.97781008081E-02  0.10199438537E+01  0.10196617721E+01 0.  0.
     999903    2    3    3    0    0  0.10738482260E+00  0.69282726643E-01  0.25173643659E-01  0.13171864064E+00  0.19608457861E-01 0.  0.
         14    1    1    2    0    0  0.23865552021E-02 -0.21772191297E-01 -0.97781008081E-02  0.23986146314E-01  0.00000000000E+00 0.  1.
     999901    1    3    3    0    0 -0.10977137781E+00 -0.47510535346E-01 -0.15395542851E-01  0.88822521305E+00  0.88000000000E+00 0.  1.
        -11    1    4    4    0    0  0.46684061989E-01  0.36956383533E-01  0.36495269062E-02  0.59655310704E-01  0.51100000000E-03 0.  1.
         11    1    4    4    0    0  0.60700760614E-01  0.32326343111E-01  0.21524116753E-01  0.72063329933E-01  0.51100000000E-03 0. -1.
</event>
<event>
 8    1  0.1132492E+005  0.1043930E+01  0.7957747E-01            NaN
         13   -1    0    0    0    0  0.00000000000E+00  0.00000000000E+00  0.74505805969E-08  0.10566000000E+00  0.10566000000E+00 0.  1.
     999900   -1    0    0    0    0 -0.00000000000E+00 -0.00000000000E+00 -0.74505805969E-08  0.93827000000E+00  0.93827000000E+00 0. -1.
     999902    2    1    2    0    0  0.10610003445E-01 -0.11289297689E-01  0.10546269968E-01  0.10251884892E+01  0.10250171678E+01 0.  0.
     999903    2    3    3    0    0 -0.52179764640E-01  0.12039605297E+00  0.11514152489E-01  0.13317698519E+00  0.19636605322E-01 0.  0.
         14    1    1    2    0    0 -0.10610003445E-01  0.11289297689E-01 -0.10546269968E-01  0.18741510762E-01  0.00000000000E+00 0. -1.
     999901    1    3    3    0    0  0.62789768085E-01 -0.13168535066E+00 -0.96788252090E-03  0.89201150405E+00  0.88000000000E+00 0.  1.
        -11    1    4    4    0    0 -0.31552451134E-01  0.54990815856E-01 -0.12612901126E-02  0.63414501298E-01  0.51100000000E-03 0.  1.
         11    1    4    4    0    0 -0.20627313506E-01  0.65405237113E-01  0.12775442601E-01  0.69762483893E-01  0.51100000000E-03 0. -1.
</event>
<event>
 8    1  0.1132492E+005  0.1043930E+01  0.7957747E-01            NaN
         13   -1    0    0    0    0  0.00000000000E+00  0.00000000000E+00  0.74505805969E-08  0.10566000000E+00  0.10566000000E+00 0. -1.
     999900   -1    0    0    0    0 -0.00000000000E+00 -0.00000000000E+00 -0.74505805969E-08  0.93827000000E+00  0.93827000000E+00 0. -1.
     999902    2    1    2    0    0 -0.97312684586E-02  0.47992753496E-02 -0.21873137084E-01  0.10195135147E+01  0.10192210957E+01 0.  0.
     999903    2    3    3    0    0  0.75272554082E-01  0.98528917274E-01  0.29010856111E-01  0.12900799735E+00  0.20676766453E-01 0.  0.
         14    1    1    2    0    0  0.97312684586E-02 -0.47992753496E-02  0.21873137084E-01  0.24416485325E-01  0.00000000000E+00 0. -1.
     999901    1    3    3    0    0 -0.85003822541E-01 -0.93729641924E-01 -0.50883993196E-01  0.89050551732E+00  0.88000000000E+00 0. -1.
        -11    1    4    4    0    0  0.64419432843E-01  0.69803416684E-01  0.21452486969E-01  0.97379929281E-01  0.51100000000E-03 0. -1.
         11    1    4    4    0    0  0.10853121240E-01  0.28725500590E-01  0.75583691426E-02  0.31628068070E-01  0.51100000000E-03 0.  1.
</event>
<event>
 8    1  0.1132492E+005  0.1043930E+01  0.7957747E-01            NaN
         13   -1    0    0    0    0  0.00000000000E+00  0.00000000000E+00  0.74505805969E-08  0.10566000000E+00  0.10566000000E+00 0. -1.
     999900   -1    0    0    0    0 -0.00000000000E+00 -0.00000000000E+00 -0.74505805969E-08  0.93827000000E+00  0.93827000000E+00 0.  1.
     999902    2    1    2    0    0  0.16564694134E-01  0.10629828335E-02  0.14502345657E-01  0.10218882883E+01  0.10216505453E+01 0.  0.
     999903    2    3    3    0    0  0.11466006376E+00  0.10523184889E-01  0.67295109524E-01  0.13481485681E+00  0.19716648064E-01 0.  0.
         14    1    1    2    0    0 -0.16564694134E-01 -0.10629828335E-02 -0.14502345657E-01  0.22041711680E-01  0.00000000000E+00 0. -1.
     999901    1    3    3    0    0 -0.98095369625E-01 -0.94602020559E-02 -0.52792763867E-01  0.88707343150E+00  0.88000000000E+00 0.  1.
        -11    1    4    4    0    0  0.26790078207E-01  0.13104065962E-02  0.25735733884E-01  0.37175456626E-01  0.51100000000E-03 0. -1.
         11    1    4    4    0    0  0.87869985552E-01  0.92127782932E-02  0.41559375640E-01  0.97639400189E-01  0.51100000000E-03 0.  1.
</event>
<event>
 8    1  0.1132492E+005  0.1043930E+01  0.7957747E-01            NaN
         13   -1    0    0    0    0  0.00000000000E+00  0.00000000000E+00  0.74505805969E-08  0.10566000000E+00  0.10566000000E+00 0. -1.
     999900   -1    0    0    0    0 -0.00000000000E+00 -0.00000000000E+00 -0.74505805969E-08  0.93827000000E+00  0.93827000000E+00 0. -1.
     999902    2    1    2    0    0 -0.15628932914E-01 -0.18011516243E-01 -0.31020840629E-02  0.10198821064E+01  0.10195985532E+01 0.  0.
     999903    2    3    3    0    0 -0.64022197695E-01  0.10753807385E+00  0.26505755375E-01  0.12916260408E+00  0.17808540092E-01 0.  0.
         14    1    1    2    0    0  0.15628932914E-01  0.18011516243E-01  0.31020840629E-02  0.24047893607E-01  0.00000000000E+00 0.  1.
     999901    1    3    3    0    0  0.48393264780E-01 -0.12554959009E+00 -0.29607839438E-01  0.89071950231E+00  0.88000000000E+00 0. -1.
        -11    1    4    4    0    0 -0.14636549854E-01  0.12458870223E-01  0.52703620417E-02  0.19937148139E-01  0.51100000000E-03 0. -1.
         11    1    4    4    0    0 -0.49385647841E-01  0.95079203623E-01  0.21235393333E-01  0.10922545594E+00  0.51100000000E-03 0.  1.
</event>
<event>
 8    1  0.1132492E+005  0.1043930E+01  0.7957747E-01            NaN
         13   -1    0    0    0    0  0.00000000000E+00  0.00000000000E+00  0.74505805969E-08  0.10566000000E+00  0.10566000000E+00 0.  1.
     999900   -1    0    0    0    0 -0.00000000000E+00 -0.00000000000E+00 -0.74505805969E-08  0.93827000000E+00  0.93827000000E+00 0. -1.
     999902    2    1    2    0    0  0.23776252369E-01  0.15831830301E-02 -0.26426320515E-02  0.10199550099E+01  0.10196731938E+01 0.  0.
     999903    2    3    3    0    0  0.47763471607E-01  0.11269975720E+00 -0.44281361843E-01  0.13166673263E+00  0.19816785363E-01 0.  0.
         14    1    1    2    0    0 -0.23776252369E-01 -0.15831830301E-02  0.26426320515E-02  0.23974990081E-01  0.00000000000E+00 0. -1.
     999901    1    3    3    0    0 -0.23987219238E-01 -0.11111657417E+00  0.41638729792E-01  0.88828827728E+00  0.88000000000E+00 0. -1.
        -11    1    4    4    0    0  0.18578336536E-01  0.40226547015E-01 -0.26174139722E-01  0.51465293008E-01  0.51100000000E-03 0.  1.
         11    1    4    4    0    0  0.29185135071E-01  0.72473210189E-01 -0.18107222121E-01  0.80201439627E-01  0.51100000000E-03 0. -1.
</event>
<event>
 8    1  0.1132492E+005  0.1043930E+01  0.7957747E-01            NaN
         13   -1    0    0    0    0  0.00000000000E+00  0.00000000000E+00  0.74505805969E-08  0.10566000000E+00  0.10566000000E+00 0. -1.
     999900   -1    0    0    0    0 -0.00000000000E+00 -0.00000000000E+00 -0.74505805969E-08  0.93827000000E+00  0.93827000000E+00 0. -1.
     999902    2    1    2    0    0  0.58476361735E-02  0.22600765400E-01  0.93898390911E-02  0.10187673586E+01  0.10184565638E+01 0.  0.
     999903    2    3    3    0    0  0.29252041602E-01  0.36099967032E-01  0.12185342756E+00  0.13119873961E+00  0.14351373105E-01 0.  0.
         14    1    1    2    0    0 -0.58476361735E-02 -0.22600765400E-01 -0.93898390911E-02  0.25162641428E-01  0.00000000000E+00 0. -1.
     999901    1    3    3    0    0 -0.23404405428E-01 -0.13499201632E-01 -0.11246358847E+00  0.88756861896E+00  0.88000000000E+00 0. -1.
        -11    1    4    4    0    0  0.42202182683E-02  0.62116535948E-02  0.37807589487E-01  0.38549576216E-01  0.51100000000E-03 0. -1.
         11    1    4    4    0    0  0.25031823333E-01  0.29888313437E-01  0.84045838070E-01  0.92649163393E-01  0.51100000000E-03 0.  1.
</event>
<event>
 8    1  0.1132492E+005  0.1043930E+01  0.7957747E-01            NaN
         13   -1    0    0    0    0  0.00000000000E+00  0.00000000000E+00  0.74505805969E-08  0.10566000000E+00  0.10566000000E+00 0.  1.
     999900   -1    0    0    0    0 -0.00000000000E+00 -0.00000000000E+00 -0.74505805969E-08  0.93827000000E+00  0.93827000000E+00 0.  1.
     999902    2    1    2    0    0 -0.16719080023E-01  0.80178773506E-02 -0.12096999982E-01  0.10217906368E+01  0.10215507594E+01 0.  0.
     999903    2    3    3    0    0  0.54627898811E-01 -0.92014120388E-01 -0.73140567731E-01  0.13115990012E+00  0.20064173875E-01 0.  0.
         14    1    1    2    0    0  0.16719080023E-01 -0.80178773506E-02  0.12096999982E-01  0.22139363193E-01  0.00000000000E+00 0.  1.
     999901    1    3    3    0    0 -0.71346978834E-01  0.10003199774E+00  0.61043567749E-01  0.89063073668E+00  0.88000000000E+00 0. -1.
        -11    1    4    4    0    0  0.17634691368E-01 -0.49291851195E-01 -0.34592070191E-01  0.62749831673E-01  0.51100000000E-03 0.  1.
         11    1    4    4    0    0  0.36993207443E-01 -0.42722269193E-01 -0.38548497541E-01  0.68410068451E-01  0.51100000000E-03 0. -1.
</event>
<event>
 8    1  0.1132492E+005  0.1043930E+01  0.7957747E-01            NaN
         13   -1    0    0    0    0  0.00000000000E+00  0.00000000000E+00  0.74505805969E-08  0.10566000000E+00  0.10566000000E+00 0. -1.
     999900   -1    0    0    0    0 -0.00000000000E+00 -0.00000000000E+00 -0.74505805969E-08  0.93827000000E+00  0.93827000000E+00 0.  1.
     999902    2    1    2    0    0  0.31537282012E-02  0.99130225314E-02  0.21050211982E-01  0.10204496797E+01  0.10201795055E+01 0.  0.
     999903    2    3    3    0    0 -0.66395309070E-01  0.25208574334E-01  0.11087848219E+00  0.13301509584E+00  0.18845917920E-01 0.  0.
         14    1    1    2    0    0 -0.31537282012E-02 -0.99130225314E-02 -0.21050211982E-01  0.23480320308E-01  0.00000000000E+00 0.  1.
     999901    1    3    3    0    0  0.69549037271E-01 -0.15295551803E-01 -0.89828270207E-01  0.88743458385E+00  0.88000000000E+00 0.  1.
        -11    1    4    4    0    0 -0.24537284504E-01  0.18547332544E-01  0.40516337245E-01  0.50871569467E-01  0.51100000000E-03 0.  1.
         11    1    4    4    0    0 -0.41858024566E-01  0.66612417902E-02  0.70362144944E-01  0.82143526372E-01  0.51100000000E-03 0. -1.
</event>
<event>
 8    1  0.1132492E+005  0.1043930E+01  0.7957747E-01            NaN
         13   -1    0    0    0    0  0.00000000000E+00  0.00000000000E+00  0.74505805969E-08  0.10566000000E+00  0.10566000000E+00 0. -1.
     999900   -1    0    0    0    0 -0.00000000000E+00 -0.00000000000E+00 -0.74505805969E-08  0.93827000000E+00  0.93827000000E+00 0. -1.
     999902    2    1    2    0    0 -0.10032464579E-01  0.24872827559E-02  0.21364947079E-01  0.10201961026E+01  0.10199199919E+01 0.  0.
     999903    2    3    3    0    0  0.68660220731E-01 -0.98897492201E-01 -0.40766389898E-01  0.12871883743E+00  0.20290408832E-01 0.  0.
         14    1    1    2    0    0  0.10032464579E-01 -0.24872827559E-02 -0.21364947079E-01  0.23733897377E-01  0.00000000000E+00 0.  1.
     999901    1    3    3    0    0 -0.78692685309E-01  0.10138477496E+00  0.62131336977E-01  0.89147726519E+00  0.88000000000E+00 0. -1.
        -11    1    4    4    0    0  0.31990779586E-01 -0.57786742793E-01 -0.14222364536E-01  0.67566666302E-01  0.51100000000E-03 0. -1.
         11    1    4    4    0    0  0.36669441144E-01 -0.41110749408E-01 -0.26544025361E-01  0.61152171131E-01  0.51100000000E-03 0.  1.
</event>
<event>
 8    1  0.1132492E+005  0.1043930E+01  0.7957747E-01            NaN
         13   -1    0    0    0    0  0.00000000000E+00  0.00000000000E+00  0.74505805969E-08  0.10566000000E+00  0.10566000000E+00 0. -1.
     999900   -1    0    0    0    0 -0.00000000000E+00 -0.00000000000E+00 -0.74505805969E-08  0.93827000000E+00  0.93827000000E+00 0. -1.
     999902    2    1    2    0    0 -0.20442423278E-01 -0.10887880599E-01 -0.57930886134E-02  0.10200553589E+01  0.10197759247E+01 0.  0.
     999903    2    3    3    0    0 -0.44999382466E-01  0.77630340321E-01 -0.93183200746E-01  0.13096843883E+00  0.20450156689E-01 0.  0.
         14    1    1    2    0    0  0.20442423278E-01  0.10887880599E-01  0.57930886134E-02  0.23874641130E-01  0.00000000000E+00 0.  1.
     999901    1    3    3    0    0  0.24556959188E-01 -0.88518220920E-01  0.87390112133E-01  0.88908692004E+00  0.88000000000E+00 0.  1.
        -11    1    4    4    0    0 -0.77966675016E-02  0.32190751874E-01 -0.37547465508E-01  0.50071007753E-01  0.51100000000E-03 0.  1.
         11    1    4    4    0    0 -0.37202714965E-01  0.45439588447E-01 -0.55635735238E-01  0.80897431081E-01  0.51100000000E-03 0. -1.
</event>
<event>
 8    1  0.1132492E+005  0.1043930E+01  0.7957747E-01            NaN
         13   -1    0    0    0    0  0.00000000000E+00  0.00000000000E+00  0.74505805969E-08  0.10566000000E+00  0.10566000000E+00 0.  1.
     999900   -1    0    0    0    0 -0.00000000000E+00 -0.00000000000E+00 -0.74505805969E-08  0.93827000000E+00  0.93827000000E+00 0.  1.
     999902    2    1    2    0    0 -0.13479411861E-01  0.56954927255E-02  0.18460902242E-01  0.10203728760E+01  0.10201009106E+01 0.  0.
     999903    2    3    3    0    0  0.66675391326E-01 -0.10451294939E+00  0.31858753729E-01  0.12978307385E+00  0.21449980686E-01 0.  0.
         14    1    1    2    0    0  0.13479411861E-01 -0.56954927255E-02 -0.18460902242E-01  0.23557124041E-01  0.00000000000E+00 0. -1.
     999901    1    3    3    0    0 -0.80154803186E-01  0.11020844212E+00 -0.13397851487E-01  0.89058980210E+00  0.88000000000E+00 0. -1.
        -11    1    4    4    0    0  0.47243958499E-01 -0.56209229296E-01  0.23153007909E-01  0.76992155243E-01  0.51100000000E-03 0. -1.
         11    1    4    4    0    0  0.19431432826E-01 -0.48303720094E-01  0.87057458202E-02  0.52790918612E-01  0.51100000000E-03 0.  1.
</event>
<event>
 8    1  0.1132492E+005  0.1043930E+01  0.7957747E-01            NaN
         13   -1    0    0    0    0  0.00000000000E+00  0.00000000000E+00  0.74505805969E-08  0.10566000000E+00  0.10566000000E+00 0.  1.
     999900   -1    0    0    0    0 -0.00000000000E+00 -0.00000000000E+00 -0.74505805969E-08  0.93827000000E+00  0.93827000000E+00 0.  1.
     999902    2    1    2    0    0  0.11756411677E-01  0.77229281522E-02  0.22260386610E-01  0.10175978591E+01  0.10172571067E+01 0.  0.
     999903    2    3    3    0    0  0.49529407662E-01 -0.40800395659E-01 -0.10671581346E+00  0.12607322543E+00  0.19706821595E-01 0.  0.
         14    1    1    2    0    0 -0.11756411677E-01 -0.77229281522E-02 -0.22260386610E-01  0.26332140946E-01  0.00000000000E+00 0.  1.
     999901    1    3    3    0    0 -0.37772995985E-01  0.48523323812E-01  0.12897620007E+00  0.89152463363E+00  0.88000000000E+00 0. -1.
        -11    1    4    4    0    0  0.20730686460E-01 -0.28508998261E-01 -0.64563886108E-01  0.73561408723E-01  0.51100000000E-03 0. -1.
         11    1    4    4    0    0  0.28798721202E-01 -0.12291397398E-01 -0.42151927353E-01  0.52511816703E-01  0.51100000000E-03 0.  1.
</event>
<event>
 8    1  0.1132492E+005  0.1043930E+01  0.7957747E-01            NaN
         13   -1    0    0    0    0  0.00000000000E+00  0.00000000000E+00  0.74505805969E-08  0.10566000000E+00  0.10566000000E+00 0.  1.
     999900   -1    0    0    0    0 -0.00000000000E+00 -0.00000000000E+00 -0.74505805969E-08  0.93827000000E+00  0.93827000000E+00 0. -1.
     999902    2    1    2    0    0 -0.78151551104E-02  0.20500918165E-01 -0.90903827809E-02  0.10201813294E+01  0.10199048708E+01 0.  0.
     999903    2    3    3    0    0 -0.11912765941E+00  0.27119606326E-01  0.44240410199E-01  0.13154278979E+00  0.20479730654E-01 0.  0.
         14    1    1    2    0    0  0.78151551104E-02 -0.20500918165E-01  0.90903827809E-02  0.23748670576E-01  0.00000000000E+00 0.  1.
     999901    1    3    3    0    0  0.11131250430E+00 -0.66186881608E-02 -0.53330792980E-01  0.88863853964E+00  0.88000000000E+00 0. -1.
        -11    1    4    4    0    0 -0.95083503965E-01  0.13184915426E-01  0.32190115782E-01  0.10124810811E+00  0.51100000000E-03 0. -1.
         11    1    4    4    0    0 -0.24044155443E-01  0.13934690899E-01  0.12050294417E-01  0.30294681678E-01  0.51100000000E-03 0.  1.
</event>
<event>
 8    1  0.1132492E+005  0.1043930E+01  0.7957747E-01            NaN
         13   -1    0    0    0    0  0.00000000000E+00  0.00000000000E+00  0.74505805969E-08  0.10566000000E+00  0.10566000000E+00 0.  1.
     999900   -1    0    0    0    0 -0.00000000000E+00 -0.00000000000E+00 -0.74505805969E-08  0.93827000000E+00  0.93827000000E+00 0.  1.
     999902    2    1    2    0    0 -0.63749051514E-02  0.22745763264E-01 -0.50320548616E-02  0.10197777591E+01  0.10194917103E+01 0.  0.
     999903    2    3    3    0    0 -0.69805971088E-01  0.25123497745E-01 -0.10732557633E+00  0.13158120529E+00  0.17051994414E-01 0.  0.
         14    1    1    2    0    0  0.63749051514E-02 -0.22745763264E-01  0.50320548616E-02  0.24152240855E-01  0.00000000000E+00 0. -1.
     999901    1    3    3    0    0  0.63431065937E-01 -0.23777344809E-02  0.10229352146E+00  0.88819655386E+00  0.88000000000E+00 0. -1.
        -11    1    4    4    0    0 -0.44500476402E-01  0.19301573953E-01 -0.56220036707E-01  0.74254944653E-01  0.51100000000E-03 0.  1.
         11    1    4    4    0    0 -0.25305494686E-01  0.58219237922E-02 -0.51105539619E-01  0.57326260637E-01  0.51100000000E-03 0. -1.
</event>
<event>
 8    1  0.1132492E+005  0.1043930E+01  0.7957747E-01            NaN
         13   -1    0    0    0    0  0.00000000000E+00  0.00000000000E+00  0.74505805969E-08  0.10566000000E+00  0.10566000000E+00 0. -1.
     999900   -1    0    0    0    0 -0.00000000000E+00 -0.00000000000E+00 -0.74505805969E-08  0.93827000000E+00  0.93827000000E+00 0. -1.
     999902    2    1    2    0    0  0.17008199867E-01  0.71488514429E-02 -0.17778288640E-01  0.10183086713E+01  0.10179862953E+01 0.  0.
     999903    2    3    3    0    0 -0.22199737209E-01  0.15923349436E-01  0.12173372548E+00  0.12641301804E+00  0.20365898451E-01 0.  0.
         14    1    1    2    0    0 -0.17008199867E-01 -0.71488514429E-02  0.17778288640E-01  0.25621328744E-01  0.00000000000E+00 0. -1.
     999901    1    3    3    0    0  0.39207937076E-01 -0.87744979935E-02 -0.13951201412E+00  0.89189565322E+00  0.88000000000E+00 0. -1.
        -11    1    4    4    0    0 -0.13390000194E-01  0.87022115827E-02  0.10471896977E+00  0.10593084698E+00  0.51100000000E-03 0. -1.
         11    1    4    4    0    0 -0.88097370145E-02  0.72211378537E-02  0.17014755718E-01  0.20482171059E-01  0.51100000000E-03 0.  1.
</event>
<event>
 8    1  0.1132492E+005  0.1043930E+01  0.7957747E-01            NaN
         13   -1    0    0    0    0  0.00000000000E+00  0.00000000000E+00  0.74505805969E-08  0.10566000000E+00  0.10566000000E+00 0.  1.
     999900   -1    0    0    0    0 -0.00000000000E+00 -0.00000000000E+00 -0.74505805969E-08  0.93827000000E+00  0.93827000000E+00 0. -1.
     999902    2    1    2    0    0  0.22568374966E-01  0.33395454268E-02 -0.56413263220E-02  0.10204287516E+01  0.10201580899E+01 0.  0.
     999903    2    3    3    0    0 -0.81835201027E-01  0.40166524563E-01  0.88389043011E-01  0.12852178147E+00  0.19871476138E-01 0.  0.
         14    1    1    2    0    0 -0.22568374966E-01 -0.33395454268E-02  0.56413263220E-02  0.23501248369E-01  0.00000000000E+00 0. -1.
     999901    1    3    3    0    0  0.10440357599E+00 -0.36826979137E-01 -0.94030369333E-01  0.89190697017E+00  0.88000000000E+00 0. -1.
        -11    1    4    4    0    0 -0.17668957088E-01  0.18041266051E-01  0.20607613257E-01  0.32597763274E-01  0.51100000000E-03 0. -1.
         11    1    4    4    0    0 -0.64166243939E-01  0.22125258513E-01  0.67781429754E-01  0.95924018192E-01  0.51100000000E-03 0.  1.
</event>
<event>
 8    1  0.1132492E+005  0.1043930E+01  0.7957747E-01            NaN
         13   -1    0    0    0    0  0.00000000000E+00  0.00000000000E+00  0.74505805969E-08  0.10566000000E+00  0.10566000000E+00 0. -1.
     999900   -1    0    0    0    0 -0.00000000000E+00 -0.00000000000E+00 -0.74505805969E-08  0.93827000000E+00  0.93827000000E+00 0.  1.
     999902    2    1    2    0    0 -0.15639006284E-01 -0.93501487877E-02  0.11158288753E-01  0.10225638771E+01  0.10223406338E+01 0.  0.
     999903    2    3    3    0    0  0.88874895064E-01  0.83445427557E-02 -0.92886706493E-01  0.13011689340E+00  0.18278056179E-01 0.  0.
         14    1    1    2    0    0  0.15639006284E-01  0.93501487877E-02 -0.11158288753E-01  0.21366122900E-01  0.00000000000E+00 0. -1.
     999901    1    3    3    0    0 -0.10451390135E+00 -0.17694691543E-01  0.10404499525E+00  0.89244698370E+00  0.88000000000E+00 0. -1.
        -11    1    4    4    0    0  0.61097083585E-01  0.13731087268E-01 -0.59961498150E-01  0.86700857906E-01  0.51100000000E-03 0. -1.
         11    1    4    4    0    0  0.27777811479E-01 -0.53865445127E-02 -0.32925208343E-01  0.43416035492E-01  0.51100000000E-03 0.  1.
</event>
<event>
 8    1  0.1132492E+005  0.1043930E+01  0.7957747E-01            NaN
         13   -1    0    0    0    0  0.00000000000E+00  0.00000000000E+00  0.74505805969E-08  0.10566000000E+00  0.10566000000E+00 0.  1.
     999900   -1    0    0    0    0 -0.00000000000E+00 -0.00000000000E+00 -0.74505805969E-08  0.93827000000E+00  0.93827000000E+00 0. -1.
     999902    2    1    2    0    0  0.62800212074E-02  0.23428861897E-01 -0.20381718926E-02  0.10195885871E+01  0.10192979852E+01 0.  0.
     999903    2    3    3    0    0 -0.18294646508E-01  0.39560041672E-01  0.12154044840E+00  0.13046778282E+00  0.18710178188E-01 0.  0.
         14    1    1    2    0    0 -0.62800212074E-02 -0.23428861897E-01  0.20381718926E-02  0.24341412876E-01  0.00000000000E+00 0.  1.
     999901    1    3    3    0    0  0.24574667716E-01 -0.16131179775E-01 -0.12357862030E+00  0.88912080431E+00  0.88000000000E+00 0. -1.
        -11    1    4    4    0    0 -0.87223466922E-02  0.24512210948E-01  0.94910942924E-01  0.98413799973E-01  0.51100000000E-03 0. -1.
         11    1    4    4    0    0 -0.95722998161E-02  0.15047830723E-01  0.26629505479E-01  0.32053982846E-01  0.51100000000E-03 0.  1.
</event>
<event>
 8    1  0.1132492E+005  0.1043930E+01  0.7957747E-01            NaN
         13   -1    0    0    0    0  0.00000000000E+00  0.00000000000E+00  0.74505805969E-08  0.10566000000E+00  0.10566000000E+00 0.  1.
     999900   -1    0    0    0    0 -0.00000000000E+00 -0.00000000000E+00 -0.74505805969E-08  0.93827000000E+00  0.93827000000E+00 0. -1.
     999902    2    1    2    0    0 -0.65476224711E-02  0.15396734370E-01 -0.16990879175E-01  0.10200842296E+01  0.10198054789E+01 0.  0.
     999903    2    3    3    0    0 -0.67316547142E-01 -0.44494170352E-01  0.98786320971E-01  0.12840932096E+00  0.14797560109E-01 0.  0.
         14    1    1    2    0    0  0.65476224711E-02 -0.15396734370E-01  0.16990879175E-01  0.23845770367E-01  0.00000000000E+00 0.  1.
     999901    1    3    3    0    0  0.60768924671E-01  0.59890904722E-01 -0.11577720015E+00  0.89167490867E+00  0.88000000000E+00 0. -1.
        -11    1    4    4    0    0 -0.44053656484E-01 -0.35329344508E-01  0.75106314914E-01  0.93968648463E-01  0.51100000000E-03 0.  1.
         11    1    4    4    0    0 -0.23262890658E-01 -0.91648258445E-02  0.23680006057E-01  0.34440672502E-01  0.51100000000E-03 0. -1.
</event>
<event>
 8    1  0.1132492E+005  0.1043930E+01  0.7957747E-01            NaN
         13   -1    0    0    0    0  0.00000000000E+00  0.00000000000E+00  0.74505805969E-08  0.10566000000E+00  0.10566000000E+00 0.  1.
     999900   -1    0    0    0    0 -0.00000000000E+00 -0.00000000000E+00 -0.74505805969E-08  0.93827000000E+00  0.93827000000E+00 0.  1.
     999902    2    1    2    0    0 -0.11741469778E-01 -0.20269263282E-01 -0.40428342981E-02  0.10201592269E+01  0.10198822474E+01 0.  0.
     999903    2    3    3    0    0  0.83153930161E-01 -0.85231824020E-01  0.50379516805E-01  0.13100959742E+00  0.21127682706E-01 0.  0.
         14    1    1    2    0    0  0.11741469778E-01  0.20269263282E-01  0.40428342981E-02  0.23770773141E-01  0.00000000000E+00 0.  1.
     999901    1    3    3    0    0 -0.94895399939E-01  0.64962560737E-01 -0.54422351103E-01  0.88914962944E+00  0.88000000000E+00 0. -1.
        -11    1    4    4    0    0  0.76500757806E-01 -0.67908331355E-01  0.44304077443E-01  0.11147654377E+00  0.51100000000E-03 0.  1.
         11    1    4    4    0    0  0.66531723550E-02 -0.17323492665E-01  0.60754393621E-02  0.19533053651E-01  0.51100000000E-03 0. -1.
</event>
<event>
 8    1  0.1132492E+005  0.1043930E+01  0.7957747E-01            NaN
         13   -1    0    0    0    0  0.00000000000E+00  0.00000000000E+00  0.74505805969E-08  0.10566000000E+00  0.10566000000E+00 0.  1.
     999900   -1    0    0    0    0 -0.00000000000E+00 -0.00000000000E+00 -0.74505805969E-08  0.93827000000E+00  0.93827000000E+00 0.  1.
     999902    2    1    2    0    0 -0.22569161341E-01  0.18565385617E-03  0.65878956233E-02  0.10204182608E+01  0.10201473546E+01 0.  0.
     999903    2    3    3    0    0  0.26295801108E-01  0.96012090684E-01  0.82242249585E-01  0.13064633957E+00  0.19871781836E-01 0.  0.
         14    1    1    2    0    0  0.22569161341E-01 -0.18565385617E-03 -0.65878956233E-02  0.23511739190E-01  0.00000000000E+00 0. -1.
     999901    1    3    3    0    0 -0.48864962449E-01 -0.95826436828E-01 -0.75654353961E-01  0.88977192124E+00  0.88000000000E+00 0.  1.
        -11    1    4    4    0    0 -0.59516336968E-03  0.32479133730E-01  0.27866832203E-01  0.42802684557E-01  0.51100000000E-03 0. -1.
         11    1    4    4    0    0  0.26890964478E-01  0.63532956954E-01  0.54375417382E-01  0.87843655014E-01  0.51100000000E-03 0.  1.
</event>
<event>
 8    1  0.1132492E+005  0.1043930E+01  0.7957747E-01            NaN
         13   -1    0    0    0    0  0.00000000000E+00  0.00000000000E+00  0.74505805969E-08  0.10566000000E+00  0.10566000000E+00 0. -1.
     999900   -1    0    0    0    0 -0.00000000000E+00 -0.00000000000E+00 -0.74505805969E-08  0.93827000000E+00  0.93827000000E+00 0.  1.
     999902    2    1    2    0    0 -0.13709500272E-02 -0.19304271606E-02 -0.24723569348E-01  0.10190933147E+01  0.10187906180E+01 0.  0.
     999903    2    3    3    0    0 -0.71815503158E-01 -0.58227542074E-01  0.85751933544E-01  0.12761328864E+00  0.19591941727E-01 0.  0.
         14    1    1    2    0    0  0.13709500272E-02  0.19304271606E-02  0.24723569348E-01  0.24836685252E-01  0.00000000000E+00 0. -1.
     999901    1    3    3    0    0  0.70444553131E-01  0.56297114913E-01 -0.11047550289E+00  0.89148002611E+00  0.88000000000E+00 0.  1.
        -11    1    4    4    0    0 -0.25909698874E-01 -0.21617996804E-01  0.19069636982E-01  0.38762900526E-01  0.51100000000E-03 0. -1.
         11    1    4    4    0    0 -0.45905804284E-01 -0.36609545270E-01  0.66682296563E-01  0.88850388112E-01  0.51100000000E-03 0.  1.
</event>
<event>
 8    1  0.1132492E+005  0.1043930E+01  0.7957747E-01            NaN
         13   -1    0    0    0    0  0.00000000000E+00  0.00000000000E+00  0.74505805969E-08  0.10566000000E+00  0.10566000000E+00 0. -1.
     999900   -1    0    0    0    0 -0.00000000000E+00 -0.00000000000E+00 -0.74505805969E-08  0.93827000000E+00  0.93827000000E+00 0. -1.
     999902    2    1    2    0    0 -0.91225150073E-02 -0.22166121327E-01  0.23688479217E-02  0.10198433096E+01  0.10195588298E+01 0.  0.
     999903    2    3    3    0    0 -0.53549549702E-01  0.11087548451E+00 -0.29315916700E-01  0.12817198303E+00  0.20191753810E-01 0.  0.
         14    1    1    2    0    0  0.91225150073E-02  0.22166121327E-01 -0.23688479217E-02  0.24086690416E-01  0.00000000000E+00 0.  1.
     999901    1    3    3    0    0  0.44427034695E-01 -0.13304160584E+00  0.31684764622E-01  0.89167132656E+00  0.88000000000E+00 0.  1.
        -11    1    4    4    0    0 -0.47300973552E-01  0.10789888152E+00 -0.28226844435E-01  0.12114688028E+00  0.51100000000E-03 0. -1.
         11    1    4    4    0    0 -0.62485761505E-02  0.29766029896E-02 -0.10890722650E-02  0.70251027512E-02  0.51100000000E-03 0.  1.
</event>
<event>
 8    1  0.1201052E+005  0.1043930E+01  0.7957747E-01            NaN
         13   -1    0    0    0    0  0.00000000000E+00  0.00000000000E+00  0.74505805969E-08  0.10566000000E+00  0.10566000000E+00 0. -1.
     999900   -1    0    0    0    0 -0.00000000000E+00 -0.00000000000E+00 -0.74505805969E-08  0.93827000000E+00  0.93827000000E+00 0.  1.
     999902    2    1    2    0    0  0.15815031899E-02 -0.87772159681E-02 -0.26673610217E-01  0.10158048839E+01  0.10154154519E+01 0.  0.
     999903    2    3    3    0    0  0.17391208680E-02 -0.21142400194E-01  0.12009381155E+00  0.12356410996E+00  0.19888189188E-01 0.  0.
         14    1    1    2    0    0 -0.15815031899E-02  0.87772159681E-02  0.26673610217E-01  0.28125116080E-01  0.00000000000E+00 0. -1.
     999901    1    3    3    0    0 -0.15761767806E-03  0.12365184226E-01 -0.14676742177E+00  0.89224077396E+00  0.88000000000E+00 0.  1.
        -11    1    4    4    0    0 -0.72851675969E-02 -0.16161026483E-02  0.35202968474E-01  0.35988825558E-01  0.51100000000E-03 0. -1.
         11    1    4    4    0    0  0.90242884649E-02 -0.19526297546E-01  0.84890843080E-01  0.87575284402E-01  0.51100000000E-03 0.  1.
</event>
<event>
 8    1  0.1132492E+005  0.1043930E+01  0.7957747E-01            NaN
         13   -1    0    0    0    0  0.00000000000E+00  0.00000000000E+00  0.74505805969E-08  0.10566000000E+00  0.10566000000E+00 0. -1.
     999900   -1    0    0    0    0 -0.00000000000E+00 -0.00000000000E+00 -0.74505805969E-08  0.93827000000E+00  0.93827000000E+00 0. -1.
     999902    2    1    2    0    0  0.57169335488E-02 -0.54120818867E-02 -0.22490153556E-01  0.10201018451E+01  0.10198235109E+01 0.  0.
     999903    2    3    3    0    0 -0.91749688116E-01  0.86278744138E-01  0.19522392885E-01  0.12899466636E+00  0.19911633956E-01 0.  0.
         14    1    1    2    0    0 -0.57169335488E-02  0.54120818867E-02  0.22490153556E-01  0.23828154912E-01  0.00000000000E+00 0. -1.
     999901    1    3    3    0    0  0.97466621664E-01 -0.91690826025E-01 -0.42012546441E-01  0.89110717872E+00  0.88000000000E+00 0.  1.
        -11    1    4    4    0    0 -0.41339498497E-01  0.45485772770E-01  0.70904667996E-03  0.61470916121E-01  0.51100000000E-03 0. -1.
         11    1    4    4    0    0 -0.50410189619E-01  0.40792971368E-01  0.18813346205E-01  0.67523750243E-01  0.51100000000E-03 0.  1.
</event>
<event>
 8    1  0.1132492E+005  0.1043930E+01  0.7957747E-01            NaN
         13   -1    0    0    0    0  0.00000000000E+00  0.00000000000E+00  0.74505805969E-08  0.10566000000E+00  0.10566000000E+00 0. -1.
     999900   -1    0    0    0    0 -0.00000000000E+00 -0.00000000000E+00 -0.74505805969E-08  0.93827000000E+00  0.93827000000E+00 0.  1.
     999902    2    1    2    0    0 -0.22086913964E-01  0.39526538070E-02 -0.11866866634E-03  0.10214918779E+01  0.10212454099E+01 0.  0.
     999903    2    3    3    0    0 -0.71718617075E-01  0.57687955563E-01  0.94411390281E-01  0.13341152082E+00  0.20338707445E-01 0.  0.
         14    1    1    2    0    0  0.22086913964E-01 -0.39526538070E-02  0.11866866634E-03  0.22438122088E-01  0.00000000000E+00 0.  1.
     999901    1    3    3    0    0  0.49631703111E-01 -0.53735301756E-01 -0.94530058948E-01  0.88808035709E+00  0.88000000000E+00 0.  1.
        -11    1    4    4    0    0 -0.29980508482E-01  0.26898965058E-01  0.27602257887E-01  0.48831659520E-01  0.51100000000E-03 0. -1.
         11    1    4    4    0    0 -0.41738108592E-01  0.30788990505E-01  0.66809132395E-01  0.84579861300E-01  0.51100000000E-03 0.  1.
</event>
<event>
 8    1  0.1132492E+005  0.1043930E+01  0.7957747E-01            NaN
         13   -1    0    0    0    0  0.00000000000E+00  0.00000000000E+00  0.74505805969E-08  0.10566000000E+00  0.10566000000E+00 0.  1.
     999900   -1    0    0    0    0 -0.00000000000E+00 -0.00000000000E+00 -0.74505805969E-08  0.93827000000E+00  0.93827000000E+00 0. -1.
     999902    2    1    2    0    0 -0.58804209516E-02  0.24541411043E-01 -0.56602566616E-02  0.10180669238E+01  0.10177383566E+01 0.  0.
     999903    2    3    3    0    0 -0.95831699327E-01 -0.33758556731E-01 -0.76522828826E-01  0.12873480198E+00  0.19838123892E-01 0.  0.
         14    1    1    2    0    0  0.58804209516E-02 -0.24541411043E-01  0.56602566616E-02  0.25863076229E-01  0.00000000000E+00 0. -1.
     999901    1    3    3    0    0  0.89951278375E-01  0.58299967775E-01  0.70862572164E-01  0.88933212180E+00  0.88000000000E+00 0.  1.
        -11    1    4    4    0    0 -0.69657258989E-01 -0.32300443145E-01 -0.62472628835E-01  0.98987589282E-01  0.51100000000E-03 0. -1.
         11    1    4    4    0    0 -0.26174440338E-01 -0.14581135859E-02 -0.14050199990E-01  0.29747212693E-01  0.51100000000E-03 0.  1.
</event>
<event>
 8    1  0.1132492E+005  0.1043930E+01  0.7957747E-01            NaN
         13   -1    0    0    0    0  0.00000000000E+00  0.00000000000E+00  0.74505805969E-08  0.10566000000E+00  0.10566000000E+00 0.  1.
     999900   -1    0    0    0    0 -0.00000000000E+00 -0.00000000000E+00 -0.74505805969E-08  0.93827000000E+00  0.93827000000E+00 0. -1.
     999902    2    1    2    0    0  0.13058032250E-01  0.18569793462E-01 -0.55209819589E-02  0.10205669806E+01  0.10202995301E+01 0.  0.
     999903    2    3    3    0    0  0.11397668197E+00  0.54560955415E-01 -0.38011378908E-01  0.13347309405E+00  0.20065393568E-01 0.  0.
         14    1    1    2    0    0 -0.13058032250E-01 -0.18569793462E-01  0.55209819589E-02  0.23363019437E-01  0.00000000000E+00 0. -1.
     999901    1    3    3    0    0 -0.10091864972E+00 -0.35991161954E-01  0.32490396949E-01  0.88709388652E+00  0.88000000000E+00 0. -1.
        -11    1    4    4    0    0  0.75831546876E-01  0.44527218132E-01 -0.20402930417E-01  0.90275341854E-01  0.51100000000E-03 0. -1.
         11    1    4    4    0    0  0.38145135095E-01  0.10033737283E-01 -0.17608448491E-01  0.43197752193E-01  0.51100000000E-03 0.  1.
</event>
<event>
 8    1  0.1132492E+005  0.1043930E+01  0.7957747E-01            NaN
         13   -1    0    0    0    0  0.00000000000E+00  0.00000000000E+00  0.74505805969E-08  0.10566000000E+00  0.10566000000E+00 0. -1.
     999900   -1    0    0    0    0 -0.00000000000E+00 -0.00000000000E+00 -0.74505805969E-08  0.93827000000E+00  0.93827000000E+00 0. -1.
     999902    2    1    2    0    0 -0.24602380804E-02  0.22554843060E-01  0.74875469055E-02  0.10200378030E+01  0.10197579529E+01 0.  0.
     999903    2    3    3    0    0 -0.60776845194E-01 -0.10013694838E+00  0.49356096869E-01  0.12863044508E+00  0.19711259737E-01 0.  0.
         14    1    1    2    0    0  0.24602380804E-02 -0.22554843060E-01 -0.74875469055E-02  0.23892196960E-01  0.00000000000E+00 0.  1.
     999901    1    3    3    0    0  0.58316607114E-01  0.12269179144E+00 -0.41868549964E-01  0.89140735796E+00  0.88000000000E+00 0. -1.
        -11    1    4    4    0    0 -0.11213350539E-01 -0.22425725136E-01  0.19419330418E-01  0.31717879707E-01  0.51100000000E-03 0.  1.
         11    1    4    4    0    0 -0.49563494655E-01 -0.77711223244E-01  0.29936766451E-01  0.96912565372E-01  0.51100000000E-03 0. -1.
</event>
<event>
 8    1  0.1132492E+005  0.1043930E+01  0.7957747E-01            NaN
         13   -1    0    0    0    0  0.00000000000E+00  0.00000000000E+00  0.74505805969E-08  0.10566000000E+00  0.10566000000E+00 0. -1.
     999900   -1    0    0    0    0 -0.00000000000E+00 -0.00000000000E+00 -0.74505805969E-08  0.93827000000E+00  0.93827000000E+00 0.  1.
     999902    2    1    2    0    0  0.87281960274E-02 -0.61514626659E-02  0.22552143953E-01  0.10189776234E+01  0.10186720650E+01 0.  0.
     999903    2    3    3    0    0 -0.11303378054E+00  0.55418225509E-01 -0.10038184472E-01  0.12786655576E+00  0.20031866479E-01 0.  0.
         14    1    1    2    0    0 -0.87281960274E-02  0.61514626659E-02 -0.22552143953E-01  0.24952376554E-01  0.00000000000E+00 0.  1.
     999901    1    3    3    0    0  0.12176197656E+00 -0.61569688175E-01  0.32590328425E-01  0.89111106768E+00  0.88000000000E+00 0. -1.
        -11    1    4    4    0    0 -0.44512628412E-01  0.31470210523E-01  0.49898250299E-03  0.54518422052E-01  0.51100000000E-03 0.  1.
         11    1    4    4    0    0 -0.68521152124E-01  0.23948014986E-01 -0.10537166975E-01  0.73348133712E-01  0.51100000000E-03 0. -1.
</event>
<event>
 8    1  0.1132492E+005  0.1043930E+01  0.7957747E-01            NaN
         13   -1    0    0    0    0  0.00000000000E+00  0.00000000000E+00  0.74505805969E-08  0.10566000000E+00  0.10566000000E+00 0.  1.
     999900   -1    0    0    0    0 -0.00000000000E+00 -0.00000000000E+00 -0.74505805969E-08  0.93827000000E+00  0.93827000000E+00 0.  1.
     999902    2    1    2    0    0  0.21912159467E-01  0.73387639051E-02  0.63826239126E-02  0.10199563045E+01  0.10196745191E+01 0.  0.
     999903    2    3    3    0    0  0.11981739225E+00  0.17462706662E-02 -0.52885019316E-01  0.13252779238E+00  0.20187459891E-01 0.  0.
         14    1    1    2    0    0 -0.21912159467E-01 -0.73387639051E-02 -0.63826239126E-02  0.23973695505E-01  0.00000000000E+00 0.  1.
     999901    1    3    3    0    0 -0.97905232784E-01  0.55924932389E-02  0.59267643229E-01  0.88742851212E+00  0.88000000000E+00 0. -1.
        -11    1    4    4    0    0  0.84893528405E-01 -0.71150835598E-02 -0.32916547275E-01  0.91330694646E-01  0.51100000000E-03 0. -1.
         11    1    4    4    0    0  0.34923863847E-01  0.88613542260E-02 -0.19968472041E-01  0.41197097730E-01  0.51100000000E-03 0.  1.
</event>
<event>
 8    1  0.1132492E+005  0.1043930E+01  0.7957747E-01            NaN
         13   -1    0    0    0    0  0.00000000000E+00  0.00000000000E+00  0.74505805969E-08  0.10566000000E+00  0.10566000000E+00 0. -1.
     999900   -1    0    0    0    0 -0.00000000000E+00 -0.00000000000E+00 -0.74505805969E-08  0.93827000000E+00  0.93827000000E+00 0. -1.
     999902    2    1    2    0    0  0.48198107202E-02 -0.26393155878E-01  0.32673103328E-02  0.10169021520E+01  0.10165429072E+01 0.  0.
     999903    2    3    3    0    0 -0.78729721692E-01  0.86314898578E-01  0.38982953138E-01  0.12507299958E+00  0.21793434657E-01 0.  0.
         14    1    1    2    0    0 -0.48198107202E-02  0.26393155878E-01 -0.32673103328E-02  0.27027848035E-01  0.00000000000E+00 0. -1.
     999901    1    3    3    0    0  0.83549532412E-01 -0.11270805446E+00 -0.35715642806E-01  0.89182915239E+00  0.88000000000E+00 0.  1.
        -11    1    4    4    0    0 -0.16159721962E-01  0.24622804928E-01  0.13620330715E-02  0.29487885503E-01  0.51100000000E-03 0.  1.
         11    1    4    4    0    0 -0.62569999730E-01  0.61692093650E-01  0.37620920067E-01  0.95585114075E-01  0.51100000000E-03 0. -1.
</event>
<event>
 8    1  0.1132492E+005  0.1043930E+01  0.7957747E-01            NaN
         13   -1    0    0    0    0  0.00000000000E+00  0.00000000000E+00  0.74505805969E-08  0.10566000000E+00  0.10566000000E+00 0.  1.
     999900   -1    0    0    0    0 -0.00000000000E+00 -0.00000000000E+00 -0.74505805969E-08  0.93827000000E+00  0.93827000000E+00 0. -1.
     999902    2    1    2    0    0 -0.18624138705E-01  0.11929015015E-01  0.54517660533E-02  0.10211510252E+01  0.10208969265E+01 0.  0.
     999903    2    3    3    0    0 -0.40151297559E-01  0.62557589500E-01 -0.10749484153E+00  0.13222830226E+00  0.20089904481E-01 0.  0.
         14    1    1    2    0    0  0.18624138705E-01 -0.11929015015E-01 -0.54517660533E-02  0.22778974841E-01  0.00000000000E+00 0. -1.
     999901    1    3    3    0    0  0.21527158855E-01 -0.50628574485E-01  0.11294660759E+00  0.88892272290E+00  0.88000000000E+00 0.  1.
        -11    1    4    4    0    0 -0.32565540839E-01  0.36352778341E-01 -0.78307835214E-01  0.92273599259E-01  0.51100000000E-03 0. -1.
         11    1    4    4    0    0 -0.75857567204E-02  0.26204811159E-01 -0.29187006320E-01  0.39954703000E-01  0.51100000000E-03 0.  1.
</event>
<event>
 8    1  0.1132492E+005  0.1043930E+01  0.7957747E-01            NaN
         13   -1    0    0    0    0  0.00000000000E+00  0.00000000000E+00  0.74505805969E-08  0.10566000000E+00  0.10566000000E+00 0. -1.
     999900   -1    0    0    0    0 -0.00000000000E+00 -0.00000000000E+00 -0.74505805969E-08  0.93827000000E+00  0.93827000000E+00 0.  1.
     999902    2    1    2    0    0  0.80826952669E-02 -0.17658217582E-01  0.13475206892E-01  0.10202926606E+01  0.10200188182E+01 0.  0.
     999903    2    3    3    0    0 -0.60530387500E-01  0.37445592921E-01 -0.10442867717E+00  0.12807883485E+00  0.20802381621E-01 0.  0.
         14    1    1    2    0    0 -0.80826952669E-02  0.17658217582E-01 -0.13475206892E-01  0.23637339354E-01  0.00000000000E+00 0.  1.
     999901    1    3    3    0    0  0.68613082767E-01 -0.55103810503E-01  0.11790388406E+00  0.89221382579E+00  0.88000000000E+00 0. -1.
        -11    1    4    4    0    0 -0.49323471838E-01  0.19861463978E-01 -0.71634518801E-01  0.89213496907E-01  0.51100000000E-03 0.  1.
         11    1    4    4    0    0 -0.11206915662E-01  0.17584128943E-01 -0.32794158372E-01  0.38865337946E-01  0.51100000000E-03 0. -1.
</event>
<event>
 8    1  0.1132492E+005  0.1043930E+01  0.7957747E-01            NaN
         13   -1    0    0    0    0  0.00000000000E+00  0.00000000000E+00  0.74505805969E-08  0.10566000000E+00  0.10566000000E+00 0.  1.
     999900   -1    0    0    0    0 -0.00000000000E+00 -0.00000000000E+00 -0.74505805969E-08  0.93827000000E+00  0.93827000000E+00 0. -1.
     999902    2    1    2    0    0 -0.19182016567E-01  0.22438568399E-02  0.12753274851E-01  0.10207863038E+01  0.10205239083E+01 0.  0.
     999903    2    3    3    0    0 -0.99784598060E-01  0.22727257678E-01  0.84156384565E-01  0.13398601632E+00  0.19911334810E-01 0.  0.
         14    1    1    2    0    0  0.19182016567E-01 -0.22438568399E-02 -0.12753274851E-01  0.23143696172E-01  0.00000000000E+00 0. -1.
     999901    1    3    3    0    0  0.80602581493E-01 -0.20483400838E-01 -0.71403109713E-01  0.88680028751E+00  0.88000000000E+00 0. -1.
        -11    1    4    4    0    0 -0.75043216193E-01  0.81222681345E-02  0.62613362322E-01  0.98072166279E-01  0.51100000000E-03 0. -1.
         11    1    4    4    0    0 -0.24741381867E-01  0.14604989543E-01  0.21543022242E-01  0.35913850038E-01  0.51100000000E-03 0.  1.
</event>
<event>
 8    1  0.1132492E+005  0.1043930E+01  0.7957747E-01            NaN
         13   -1    0    0    0    0  0.00000000000E+00  0.00000000000E+00  0.74505805969E-08  0.10566000000E+00  0.10566000000E+00 0. -1.
     999900   -1    0    0    0    0 -0.00000000000E+00 -0.00000000000E+00 -0.74505805969E-08  0.93827000000E+00  0.93827000000E+00 0.  1.
     999902    2    1    2    0    0 -0.16426185402E-01 -0.82343980181E-02 -0.14946014671E-01  0.10202443877E+01  0.10199694124E+01 0.  0.
     999903    2    3    3    0    0 -0.12943767494E+00 -0.22591386244E-02  0.18957052773E-01  0.13234984523E+00  0.19947337697E-01 0.  0.
         14    1    1    2    0    0  0.16426185402E-01  0.82343980181E-02  0.14946014671E-01  0.23685612344E-01  0.00000000000E+00 0. -1.
     999901    1    3    3    0    0  0.11301148954E+00 -0.59752593937E-02 -0.33903067443E-01  0.88789454243E+00  0.88000000000E+00 0. -1.
        -11    1    4    4    0    0 -0.11186281919E+00  0.46640306503E-02  0.18262762950E-01  0.11344087945E+00  0.51100000000E-03 0.  1.
         11    1    4    4    0    0 -0.17574855745E-01 -0.69231692747E-02  0.69428982226E-03  0.18908965773E-01  0.51100000000E-03 0. -1.
</event>
<event>
 8    1  0.1132492E+005  0.1043930E+01  0.7957747E-01            NaN
         13   -1    0    0    0    0  0.00000000000E+00  0.00000000000E+00  0.74505805969E-08  0.10566000000E+00  0.10566000000E+00 0. -1.
     999900   -1    0    0    0    0 -0.00000000000E+00 -0.00000000000E+00 -0.74505805969E-08  0.93827000000E+00  0.93827000000E+00 0.  1.
     999902    2    1    2    0    0  0.13114660685E-01  0.10347585570E-01 -0.18766020084E-01  0.10188057018E+01  0.10184958653E+01 0.  0.
     999903    2    3    3    0    0  0.47461008758E-01 -0.97313317559E-01 -0.69400409576E-01  0.13013569378E+00  0.19911123024E-01 0.  0.
         14    1    1    2    0    0 -0.13114660685E-01 -0.10347585570E-01  0.18766020084E-01  0.25124298236E-01  0.00000000000E+00 0. -1.
     999901    1    3    3    0    0 -0.34346348073E-01  0.10766090313E+00  0.50634389492E-01  0.88867000798E+00  0.88000000000E+00 0.  1.
        -11    1    4    4    0    0  0.28282767007E-01 -0.65371545994E-01 -0.34751410000E-01  0.79254498630E-01  0.51100000000E-03 0.  1.
         11    1    4    4    0    0  0.19178241751E-01 -0.31941771565E-01 -0.34648999577E-01  0.50881195151E-01  0.51100000000E-03 0. -1.
</event>
<event>
 8    1  0.1132492E+005  0.1043930E+01  0.7957747E-01            NaN
         13   -1    0    0    0    0  0.00000000000E+00  0.00000000000E+00  0.74505805969E-08  0.10566000000E+00  0.10566000000E+00 0. -1.
     999900   -1    0    0    0    0 -0.00000000000E+00 -0.00000000000E+00 -0.74505805969E-08  0.93827000000E+00  0.93827000000E+00 0.  1.
     999902    2    1    2    0    0  0.19951536647E-02 -0.22352362579E-01  0.39296261241E-02  0.10211473155E+01  0.10208931331E+01 0.  0.
     999903    2    3    3    0    0 -0.13035371974E-01  0.68181791719E-01 -0.10774244346E+00  0.12935529888E+00  0.17483751935E-01 0.  0.
         14    1    1    2    0    0 -0.19951536647E-02  0.22352362579E-01 -0.39296261241E-02  0.22782684488E-01  0.00000000000E+00 0.  1.
     999901    1    3    3    0    0  0.15030525639E-01 -0.90534154298E-01  0.11167206959E+00  0.89179201663E+00  0.88000000000E+00 0. -1.
        -11    1    4    4    0    0 -0.46711782496E-03  0.46558001888E-01 -0.69336310152E-01  0.83520361381E-01  0.51100000000E-03 0.  1.
         11    1    4    4    0    0 -0.12568254149E-01  0.21623789832E-01 -0.38406133310E-01  0.45834937503E-01  0.51100000000E-03 0. -1.
</event>
<event>
 8    1  0.1132492E+005  0.1043930E+01  0.7957747E-01            NaN
         13   -1    0    0    0    0  0.00000000000E+00  0.00000000000E+00  0.74505805969E-08  0.10566000000E+00  0.10566000000E+00 0. -1.
     999900   -1    0    0    0    0 -0.00000000000E+00 -0.00000000000E+00 -0.74505805969E-08  0.93827000000E+00  0.93827000000E+00 0.  1.
     999902    2    1    2    0    0  0.67067793751E-02  0.10478027900E-01  0.20196227377E-01  0.10202095962E+01  0.10199338030E+01 0.  0.
     999903    2    3    3    0    0  0.12533556089E+00  0.12425580901E-01  0.30047725363E-01  0.13219291119E+00  0.26621459092E-01 0.  0.
         14    1    1    2    0    0 -0.67067793751E-02 -0.10478027900E-01 -0.20196227377E-01  0.23720403844E-01  0.00000000000E+00 0.  1.
     999901    1    3    3    0    0 -0.11862878152E+00 -0.19475530010E-02 -0.98514979861E-02  0.88801668497E+00  0.88000000000E+00 0.  1.
        -11    1    4    4    0    0  0.10700488210E-01  0.75055003643E-02  0.80577937005E-02  0.15363012204E-01  0.51100000000E-03 0.  1.
         11    1    4    4    0    0  0.11463507268E+00  0.49200805365E-02  0.21989931662E-01  0.11682989899E+00  0.51100000000E-03 0. -1.
</event>
<event>
 8    1  0.1132492E+005  0.1043930E+01  0.7957747E-01            NaN
         13   -1    0    0    0    0  0.00000000000E+00  0.00000000000E+00  0.74505805969E-08  0.10566000000E+00  0.10566000000E+00 0. -1.
     999900   -1    0    0    0    0 -0.00000000000E+00 -0.00000000000E+00 -0.74505805969E-08  0.93827000000E+00  0.93827000000E+00 0.  1.
     999902    2    1    2    0    0 -0.13020486522E-02 -0.21162292240E-01  0.11244456740E-01  0.10199305052E+01  0.10196481058E+01 0.  0.
     999903    2    3    3    0    0 -0.20826025964E-01 -0.12373934204E+00 -0.37125036716E-01  0.13243805749E+00  0.20406435129E-01 0.  0.
         14    1    1    2    0    0  0.13020486522E-02  0.21162292240E-01 -0.11244456740E-01  0.23999494806E-01  0.00000000000E+00 0.  1.
     999901    1    3    3    0    0  0.19523977312E-01  0.10257704980E+00  0.48369493456E-01  0.88749244770E+00  0.88000000000E+00 0. -1.
        -11    1    4    4    0    0 -0.21536972283E-01 -0.91095237134E-01 -0.20636789703E-01  0.95855733338E-01  0.51100000000E-03 0. -1.
         11    1    4    4    0    0  0.71094631889E-03 -0.32644104906E-01 -0.16488247013E-01  0.36582324152E-01  0.51100000000E-03 0.  1.
</event>
<event>
 8    1  0.1132492E+005  0.1043930E+01  0.7957747E-01            NaN
         13   -1    0    0    0    0  0.00000000000E+00  0.00000000000E+00  0.74505805969E-08  0.10566000000E+00  0.10566000000E+00 0.  1.
     999900   -1    0    0    0    0 -0.00000000000E+00 -0.00000000000E+00 -0.74505805969E-08  0.93827000000E+00  0.93827000000E+00 0. -1.
     999902    2    1    2    0    0  0.76447886585E-02 -0.26694564156E-01 -0.12140861840E-01  0.10136241742E+01  0.10131710238E+01 0.  0.
     999903    2    3    3    0    0 -0.47063523641E-01  0.10994431441E+00 -0.38774495445E-02  0.12136217989E+00  0.20273543428E-01 0.  0.
         14    1    1    2    0    0 -0.76447886585E-02  0.26694564156E-01  0.12140861840E-01  0.30305825765E-01  0.00000000000E+00 0.  1.
     999901    1    3    3    0    0  0.54708312299E-01 -0.13663887857E+00 -0.82634122960E-02  0.89226199435E+00  0.88000000000E+00 0. -1.
        -11    1    4    4    0    0 -0.25868154378E-01  0.83381126503E-01 -0.34985484778E-02  0.87373191714E-01  0.51100000000E-03 0. -1.
         11    1    4    4    0    0 -0.21195369263E-01  0.26563187911E-01 -0.37890106668E-03  0.33988988175E-01  0.51100000000E-03 0.  1.
</event>
<event>
 8    1  0.1132492E+005  0.1043930E+01  0.7957747E-01            NaN
         13   -1    0    0    0    0  0.00000000000E+00  0.00000000000E+00  0.74505805969E-08  0.10566000000E+00  0.10566000000E+00 0.  1.
     999900   -1    0    0    0    0 -0.00000000000E+00 -0.00000000000E+00 -0.74505805969E-08  0.93827000000E+00  0.93827000000E+00 0.  1.
     999902    2    1    2    0    0 -0.19656194113E-01 -0.11013449573E-01 -0.47378227535E-02  0.10209059039E+01  0.10206462441E+01 0.  0.
     999903    2    3    3    0    0  0.65293316069E-01 -0.80406577982E-01 -0.78073572130E-01  0.13106886390E+00  0.18844880289E-01 0.  0.
         14    1    1    2    0    0  0.19656194113E-01  0.11013449573E-01  0.47378227535E-02  0.23024096138E-01  0.00000000000E+00 0. -1.
     999901    1    3    3    0    0 -0.84949510182E-01  0.69393128408E-01  0.73335749376E-01  0.88983703996E+00  0.88000000000E+00 0. -1.
        -11    1    4    4    0    0  0.41169620659E-01 -0.37095729497E-01 -0.45970965803E-01  0.72004316745E-01  0.51100000000E-03 0.  1.
         11    1    4    4    0    0  0.24123695411E-01 -0.43310848484E-01 -0.32102606327E-01  0.59064547156E-01  0.51100000000E-03 0. -1.
</event>
<event>
 8    1  0.1132492E+005  0.1043930E+01  0.7957747E-01            NaN
         13   -1    0    0    0    0  0.00000000000E+00  0.00000000000E+00  0.74505805969E-08  0.10566000000E+00  0.10566000000E+00 0.  1.
     999900   -1    0    0    0    0 -0.00000000000E+00 -0.00000000000E+00 -0.74505805969E-08  0.93827000000E+00  0.93827000000E+00 0. -1.
     999902    2    1    2    0    0 -0.64715076614E-02  0.13061411582E-01 -0.17603907661E-01  0.10210744001E+01  0.10208185696E+01 0.  0.
     999903    2    3    3    0    0  0.41818898059E-01 -0.11978330974E+00 -0.18039305889E-01  0.12979449293E+00  0.20599327943E-01 0.  0.
         14    1    1    2    0    0  0.64715076614E-02 -0.13061411582E-01  0.17603907661E-01  0.22855599946E-01  0.00000000000E+00 0.  1.
     999901    1    3    3    0    0 -0.48290405720E-01  0.13284472132E+00  0.43539822753E-03  0.89127990712E+00  0.88000000000E+00 0. -1.
        -11    1    4    4    0    0  0.21332542554E-01 -0.67292371655E-01  0.10906428554E-03  0.70594714185E-01  0.51100000000E-03 0. -1.
         11    1    4    4    0    0  0.20486355505E-01 -0.52490938084E-01 -0.18148370174E-01  0.59199778748E-01  0.51100000000E-03 0.  1.
</event>
<event>
 8    1  0.1132492E+005  0.1043930E+01  0.7957747E-01            NaN
         13   -1    0    0    0    0  0.00000000000E+00  0.00000000000E+00  0.74505805969E-08  0.10566000000E+00  0.10566000000E+00 0. -1.
     999900   -1    0    0    0    0 -0.00000000000E+00 -0.00000000000E+00 -0.74505805969E-08  0.93827000000E+00  0.93827000000E+00 0. -1.
     999902    2    1    2    0    0  0.11732115112E-01  0.12790191822E-02  0.60598977635E-02  0.10306634716E+01  0.10305780858E+01 0.  0.
     999903    2    3    3    0    0  0.43225088889E-01  0.23430519762E-02  0.13268885825E+00  0.14104117354E+00  0.20307174316E-01 0.  0.
         14    1    1    2    0    0 -0.11732115112E-01 -0.12790191822E-02 -0.60598977635E-02  0.13266528407E-01  0.00000000000E+00 0.  1.
     999901    1    3    3    0    0 -0.31492973777E-01 -0.10640327940E-02 -0.12662896048E+00  0.88962229805E+00  0.88000000000E+00 0. -1.
        -11    1    4    4    0    0  0.39357258102E-01  0.73499061690E-03  0.91143894860E-01  0.99282448941E-01  0.51100000000E-03 0.  1.
         11    1    4    4    0    0  0.38678307873E-02  0.16080613593E-02  0.41544963385E-01  0.41758724597E-01  0.51100000000E-03 0. -1.
</event>
<event>
 8    1  0.1132492E+005  0.1043930E+01  0.7957747E-01            NaN
         13   -1    0    0    0    0  0.00000000000E+00  0.00000000000E+00  0.74505805969E-08  0.10566000000E+00  0.10566000000E+00 0.  1.
     999900   -1    0    0    0    0 -0.00000000000E+00 -0.00000000000E+00 -0.74505805969E-08  0.93827000000E+00  0.93827000000E+00 0.  1.
     999902    2    1    2    0    0  0.11096873184E-01  0.48922195624E-02 -0.20187292160E-01  0.10203800282E+01  0.10201082299E+01 0.  0.
     999903    2    3    3    0    0  0.30794293774E-01 -0.12087500400E+00  0.29885976781E-01  0.12981126884E+00  0.19968444812E-01 0.  0.
         14    1    1    2    0    0 -0.11096873184E-01 -0.48922195624E-02  0.20187292160E-01  0.23549971793E-01  0.00000000000E+00 0.  1.
     999901    1    3    3    0    0 -0.19697420590E-01  0.12576722356E+00 -0.50073268941E-01  0.89056875937E+00  0.88000000000E+00 0.  1.
        -11    1    4    4    0    0  0.62076219539E-02 -0.64719308868E-01  0.15072959512E-01  0.66742630605E-01  0.51100000000E-03 0.  1.
         11    1    4    4    0    0  0.24586671820E-01 -0.56155695133E-01  0.14813017269E-01  0.63068638233E-01  0.51100000000E-03 0. -1.
</event>
<event>
 8    1  0.1132492E+005  0.1043930E+01  0.7957747E-01            NaN
         13   -1    0    0    0    0  0.00000000000E+00  0.00000000000E+00  0.74505805969E-08  0.10566000000E+00  0.10566000000E+00 0. -1.
     999900   -1    0    0    0    0 -0.00000000000E+00 -0.00000000000E+00 -0.74505805969E-08  0.93827000000E+00  0.93827000000E+00 0.  1.
     999902    2    1    2    0    0 -0.38391737607E-02  0.21386165795E-01  0.73407953926E-02  0.10209954274E+01  0.10207378058E+01 0.  0.
     999903    2    3    3    0    0  0.62955073137E-01  0.11552383132E+00  0.77093422528E-02  0.13345753678E+00  0.21032910582E-01 0.  0.
         14    1    1    2    0    0  0.38391737607E-02 -0.21386165795E-01 -0.73407953926E-02  0.22934572583E-01  0.00000000000E+00 0.  1.
     999901    1    3    3    0    0 -0.66794246898E-01 -0.94137665530E-01 -0.36854686012E-03  0.88753789064E+00  0.88000000000E+00 0. -1.
        -11    1    4    4    0    0  0.15769645553E-01  0.18824547540E-01  0.80833242419E-02  0.25858201073E-01  0.51100000000E-03 0. -1.
         11    1    4    4    0    0  0.47185427584E-01  0.96699283785E-01 -0.37398198918E-03  0.10759933571E+00  0.51100000000E-03 0.  1.
</event>
<event>
 8    1  0.1132492E+005  0.1043930E+01  0.7957747E-01            NaN
         13   -1    0    0    0    0  0.00000000000E+00  0.00000000000E+00  0.74505805969E-08  0.10566000000E+00  0.10566000000E+00 0.  1.
     999900   -1    0    0    0    0 -0.00000000000E+00 -0.00000000000E+00 -0.74505805969E-08  0.93827000000E+00  0.93827000000E+00 0. -1.
     999902    2    1    2    0    0 -0.63077128042E-02  0.17706401833E-02  0.23018768402E-01  0.10199970498E+01  0.10197162328E+01 0.  0.
     999903    2    3    3    0    0  0.10839938141E+00 -0.44580834732E-01 -0.48488674733E-01  0.12847055488E+00  0.20387623138E-01 0.  0.
         14    1    1    2    0    0  0.63077128042E-02 -0.17706401833E-02 -0.23018768402E-01  0.23932950220E-01  0.00000000000E+00 0. -1.
     999901    1    3    3    0    0 -0.11470709422E+00  0.46351474915E-01  0.71507443136E-01  0.89152649490E+00  0.88000000000E+00 0.  1.
        -11    1    4    4    0    0  0.39338680050E-01 -0.23363835872E-01 -0.10934110931E-01  0.47044834760E-01  0.51100000000E-03 0. -1.
         11    1    4    4    0    0  0.69060701361E-01 -0.21216998859E-01 -0.37554563803E-01  0.81425720117E-01  0.51100000000E-03 0.  1.
</event>
<event>
 8    1  0.1132492E+005  0.1043930E+01  0.7957747E-01            NaN
         13   -1    0    0    0    0  0.00000000000E+00  0.00000000000E+00  0.74505805969E-08  0.10566000000E+00  0.10566000000E+00 0.  1.
     999900   -1    0    0    0    0 -0.00000000000E+00 -0.00000000000E+00 -0.74505805969E-08  0.93827000000E+00  0.93827000000E+00 0.  1.
     999902    2    1    2    0    0  0.90160058767E-02  0.14189494047E-01  0.14695513414E-01  0.10216009110E+01  0.10213568588E+01 0.  0.
     999903    2    3    3    0    0 -0.73920734209E-01  0.48093383524E-01  0.97956757267E-01  0.13314133882E+00  0.18810670494E-01 0.  0.
         14    1    1    2    0    0 -0.90160058767E-02 -0.14189494047E-01 -0.14695513414E-01  0.22329089049E-01  0.00000000000E+00 0. -1.
     999901    1    3    3    0    0  0.82936740086E-01 -0.33903889478E-01 -0.83261243854E-01  0.88845957213E+00  0.88000000000E+00 0.  1.
        -11    1    4    4    0    0 -0.51944416303E-01  0.24088265807E-01  0.56607879796E-01  0.80518197388E-01  0.51100000000E-03 0.  1.
         11    1    4    4    0    0 -0.21976317906E-01  0.24005117717E-01  0.41348877471E-01  0.52623141435E-01  0.51100000000E-03 0. -1.
</event>
<event>
 8    1  0.1132492E+005  0.1043930E+01  0.7957747E-01            NaN
         13   -1    0    0    0    0  0.00000000000E+00  0.00000000000E+00  0.74505805969E-08  0.10566000000E+00  0.10566000000E+00 0. -1.
     999900   -1    0    0    0    0 -0.00000000000E+00 -0.00000000000E+00 -0.74505805969E-08  0.93827000000E+00  0.93827000000E+00 0. -1.
     999902    2    1    2    0    0 -0.23452422063E-01  0.13843138233E-02  0.33267181621E-02  0.10202023899E+01  0.10199264272E+01 0.  0.
     999903    2    3    3    0    0  0.63670047495E-01  0.95740783786E-01  0.55857209582E-01  0.12933038979E+00  0.19650680216E-01 0.  0.
         14    1    1    2    0    0  0.23452422063E-01 -0.13843138233E-02 -0.33267181621E-02  0.23727610059E-01  0.00000000000E+00 0. -1.
     999901    1    3    3    0    0 -0.87122469557E-01 -0.94356469962E-01 -0.52530491420E-01  0.89087200015E+00  0.88000000000E+00 0. -1.
        -11    1    4    4    0    0  0.41947186758E-01  0.55578276983E-01  0.43199287182E-01  0.81944803883E-01  0.51100000000E-03 0. -1.
         11    1    4    4    0    0  0.21722860736E-01  0.40162506803E-01  0.12657922400E-01  0.47385585907E-01  0.51100000000E-03 0.  1.
</event>
<event>
 8    1  0.1132492E+005  0.1043930E+01  0.7957747E-01            NaN
         13   -1    0    0    0    0  0.00000000000E+00  0.00000000000E+00  0.74505805969E-08  0.10566000000E+00  0.10566000000E+00 0.  1.
     999900   -1    0    0    0    0 -0.00000000000E+00 -0.00000000000E+00 -0.74505805969E-08  0.93827000000E+00  0.93827000000E+00 0.  1.
     999902    2    1    2    0    0 -0.49255608548E-02 -0.17128545822E-01 -0.16290709366E-01  0.10197838731E+01  0.10194979708E+01 0.  0.
     999903    2    3    3    0    0  0.47136893213E-02  0.14477897347E-01 -0.12949511783E+00  0.13191726124E+00  0.20033718898E-01 0.  0.
         14    1    1    2    0    0  0.49255608548E-02  0.17128545822E-01  0.16290709366E-01  0.24146126882E-01  0.00000000000E+00 0.  1.
     999901    1    3    3    0    0 -0.96392501761E-02 -0.31606443169E-01  0.11320440846E+00  0.88786661188E+00  0.88000000000E+00 0. -1.
        -11    1    4    4    0    0  0.10468379721E-01  0.28956628688E-02 -0.38492922394E-01  0.39999225403E-01  0.51100000000E-03 0.  1.
         11    1    4    4    0    0 -0.57546903993E-02  0.11582234478E-01 -0.91002195435E-01  0.91918035836E-01  0.51100000000E-03 0. -1.
</event>
<event>
 8    1  0.1132492E+005  0.1043930E+01  0.7957747E-01            NaN
         13   -1    0    0    0    0  0.00000000000E+00  0.00000000000E+00  0.74505805969E-08  0.10566000000E+00  0.10566000000E+00 0.  1.
     999900   -1    0    0    0    0 -0.00000000000E+00 -0.00000000000E+00 -0.74505805969E-08  0.93827000000E+00  0.93827000000E+00 0.  1.
     999902    2    1    2    0    0  0.21735232010E-01  0.25194157603E-02  0.12488522723E-01  0.10187361324E+01  0.10184245561E+01 0.  0.
     999903    2    3    3    0    0 -0.93291994467E-01 -0.72511498999E-01  0.43533431451E-01  0.12754328716E+00  0.20268614320E-01 0.  0.
         14    1    1    2    0    0 -0.21735232010E-01 -0.25194157603E-02 -0.12488522723E-01  0.25193867629E-01  0.00000000000E+00 0. -1.
     999901    1    3    3    0    0  0.11502722648E+00  0.75030914759E-01 -0.31044908728E-01  0.89119284521E+00  0.88000000000E+00 0. -1.
        -11    1    4    4    0    0 -0.66114760630E-01 -0.39106776304E-01  0.27682080994E-01  0.81652068285E-01  0.51100000000E-03 0.  1.
         11    1    4    4    0    0 -0.27177233837E-01 -0.33404722694E-01  0.15851350457E-01  0.45891218873E-01  0.51100000000E-03 0. -1.
</event>
<event>
 8    1  0.1132492E+005  0.1043930E+01  0.7957747E-01            NaN
         13   -1    0    0    0    0  0.00000000000E+00  0.00000000000E+00  0.74505805969E-08  0.10566000000E+00  0.10566000000E+00 0. -1.
     999900   -1    0    0    0    0 -0.00000000000E+00 -0.00000000000E+00 -0.74505805969E-08  0.93827000000E+00  0.93827000000E+00 0.  1.
     999902    2    1    2    0    0 -0.22589485448E-01 -0.34324822947E-02 -0.44955331139E-02  0.10206431667E+01  0.10203774778E+01 0.  0.
     999903    2    3    3    0    0  0.19731179926E-01 -0.71641760645E-01  0.10532592272E+00  0.13019142935E+00  0.18286523761E-01 0.  0.
         14    1    1    2    0    0  0.22589485448E-01  0.34324822947E-02  0.44955331139E-02  0.23286833308E-01  0.00000000000E+00 0.  1.
     999901    1    3    3    0    0 -0.42320665375E-01  0.68209278351E-01 -0.10982145583E+00  0.89045173734E+00  0.88000000000E+00 0.  1.
        -11    1    4    4    0    0  0.10425192092E-01 -0.40298578050E-01  0.43246295205E-01  0.60026354153E-01  0.51100000000E-03 0.  1.
         11    1    4    4    0    0  0.93059878345E-02 -0.31343182595E-01  0.62079627511E-01  0.70165075199E-01  0.51100000000E-03 0. -1.
</event>
<event>
 8    1  0.1132492E+005  0.1043930E+01  0.7957747E-01            NaN
         13   -1    0    0    0    0  0.00000000000E+00  0.00000000000E+00  0.74505805969E-08  0.10566000000E+00  0.10566000000E+00 0. -1.
     999900   -1    0    0    0    0 -0.00000000000E+00 -0.00000000000E+00 -0.74505805969E-08  0.93827000000E+00  0.93827000000E+00 0. -1.
     999902    2    1    2    0    0  0.67397454835E-02  0.15220351508E-01 -0.15712136719E-01  0.10210399474E+01  0.10207833363E+01 0.  0.
     999903    2    3    3    0    0  0.12153116831E+00 -0.45798163199E-01 -0.28637872441E-02  0.13139653005E+00  0.19737026316E-01 0.  0.
         14    1    1    2    0    0 -0.67397454835E-02 -0.15220351508E-01  0.15712136719E-01  0.22890052632E-01  0.00000000000E+00 0.  1.
     999901    1    3    3    0    0 -0.11479142283E+00  0.61018514707E-01 -0.12848349475E-01  0.88964341732E+00  0.88000000000E+00 0.  1.
        -11    1    4    4    0    0  0.41386731421E-01 -0.25125337268E-01 -0.43482772893E-02  0.48613915157E-01  0.51100000000E-03 0.  1.
         11    1    4    4    0    0  0.80144436893E-01 -0.20672825931E-01  0.14844900452E-02  0.82782614893E-01  0.51100000000E-03 0. -1.
</event>
<event>
 8    1  0.1132492E+005  0.1043930E+01  0.7957747E-01            NaN
         13   -1    0    0    0    0  0.00000000000E+00  0.00000000000E+00  0.74505805969E-08  0.10566000000E+00  0.10566000000E+00 0.  1.
     999900   -1    0    0    0    0 -0.00000000000E+00 -0.00000000000E+00 -0.74505805969E-08  0.93827000000E+00  0.93827000000E+00 0. -1.
     999902    2    1    2    0    0 -0.15899364929E-01  0.11401067970E-01 -0.13195889619E-01  0.10203311513E+01  0.10200582104E+01 0.  0.
     999903    2    3    3    0    0 -0.60752419014E-01 -0.93721685732E-01  0.62990482642E-01  0.12967580096E+00  0.19323603692E-01 0.  0.
         14    1    1    2    0    0  0.15899364929E-01 -0.11401067970E-01  0.13195889619E-01  0.23598848676E-01  0.00000000000E+00 0. -1.
     999901    1    3    3    0    0  0.44853054085E-01  0.10512275370E+00 -0.76186372261E-01  0.89065535036E+00  0.88000000000E+00 0. -1.
        -11    1    4    4    0    0 -0.21408503386E-01 -0.32249557670E-01  0.32619003165E-01  0.50622312033E-01  0.51100000000E-03 0.  1.
         11    1    4    4    0    0 -0.39343915628E-01 -0.61472128062E-01  0.30371479476E-01  0.79053488930E-01  0.51100000000E-03 0. -1.
</event>
<event>
 8    1  0.1132492E+005  0.1043930E+01  0.7957747E-01            NaN
         13   -1    0    0    0    0  0.00000000000E+00  0.00000000000E+00  0.74505805969E-08  0.10566000000E+00  0.10566000000E+00 0. -1.
     999900   -1    0    0    0    0 -0.00000000000E+00 -0.00000000000E+00 -0.74505805969E-08  0.93827000000E+00  0.93827000000E+00 0. -1.
     999902    2    1    2    0    0  0.33934250323E-02 -0.23375706919E-01  0.18796323963E-03  0.10203085196E+01  0.10200350488E+01 0.  0.
     999903    2    3    3    0    0  0.31888043226E-01  0.81325790390E-01 -0.92527968952E-01  0.12880945009E+00  0.19992946531E-01 0.  0.
         14    1    1    2    0    0 -0.33934250323E-02  0.23375706919E-01 -0.18796323963E-03  0.23621480427E-01  0.00000000000E+00 0. -1.
     999901    1    3    3    0    0 -0.28494618193E-01 -0.10470149731E+00  0.92715932192E-01  0.89149906948E+00  0.88000000000E+00 0.  1.
        -11    1    4    4    0    0  0.65795657661E-02  0.41376702427E-01 -0.37280979257E-01  0.56084353654E-01  0.51100000000E-03 0. -1.
         11    1    4    4    0    0  0.25308477459E-01  0.39949087963E-01 -0.55246989695E-01  0.72725096437E-01  0.51100000000E-03 0.  1.
</event>
<event>
 8    1  0.1132492E+005  0.1043930E+01  0.7957747E-01            NaN
         13   -1    0    0    0    0  0.00000000000E+00  0.00000000000E+00  0.74505805969E-08  0.10566000000E+00  0.10566000000E+00 0. -1.
     999900   -1    0    0    0    0 -0.00000000000E+00 -0.00000000000E+00 -0.74505805969E-08  0.93827000000E+00  0.93827000000E+00 0. -1.
     999902    2    1    2    0    0  0.65845549997E-02 -0.10371089641E-01  0.19422147040E-01  0.10209487977E+01  0.10206901155E+01 0.  0.
     999903    2    3    3    0    0 -0.35296698541E-01  0.98155277856E-01  0.77313576959E-01  0.13140766343E+00  0.20255106223E-01 0.  0.
         14    1    1    2    0    0 -0.65845549997E-02  0.10371089641E-01 -0.19422147040E-01  0.22981202330E-01  0.00000000000E+00 0.  1.
     999901    1    3    3    0    0  0.41881253541E-01 -0.10852636750E+00 -0.57891429919E-01  0.88954113424E+00  0.88000000000E+00 0. -1.
        -11    1    4    4    0    0 -0.17377655156E-01  0.42647513701E-01  0.22074117910E-01  0.51071725309E-01  0.51100000000E-03 0. -1.
         11    1    4    4    0    0 -0.17919043386E-01  0.55507764155E-01  0.55239459049E-01  0.80335938124E-01  0.51100000000E-03 0.  1.
</event>
<event>
 8    1  0.1132492E+005  0.1043930E+01  0.7957747E-01            NaN
         13   -1    0    0    0    0  0.00000000000E+00  0.00000000000E+00  0.74505805969E-08  0.10566000000E+00  0.10566000000E+00 0. -1.
     999900   -1    0    0    0    0 -0.00000000000E+00 -0.00000000000E+00 -0.74505805969E-08  0.93827000000E+00  0.93827000000E+00 0. -1.
     999902    2    1    2    0    0  0.17647261600E-01  0.16209765955E-02 -0.16128445922E-01  0.10199679430E+01  0.10196864345E+01 0.  0.
     999903    2    3    3    0    0 -0.73681762521E-01  0.67182534649E-01  0.77534567114E-01  0.12788494881E+00  0.20011395358E-01 0.  0.
         14    1    1    2    0    0 -0.17647261600E-01 -0.16209765955E-02  0.16128445922E-01  0.23962056985E-01  0.00000000000E+00 0. -1.
     999901    1    3    3    0    0  0.91329024121E-01 -0.65561558054E-01 -0.93663013035E-01  0.89208299421E+00  0.88000000000E+00 0. -1.
        -11    1    4    4    0    0 -0.15654557165E-01  0.15982921840E-01  0.28637580596E-01  0.36344065457E-01  0.51100000000E-03 0.  1.
         11    1    4    4    0    0 -0.58027205356E-01  0.51199612809E-01  0.48896986518E-01  0.91540883351E-01  0.51100000000E-03 0. -1.
</event>
<event>
 8    1  0.1132492E+005  0.1043930E+01  0.7957747E-01            NaN
         13   -1    0    0    0    0  0.00000000000E+00  0.00000000000E+00  0.74505805969E-08  0.10566000000E+00  0.10566000000E+00 0.  1.
     999900   -1    0    0    0    0 -0.00000000000E+00 -0.00000000000E+00 -0.74505805969E-08  0.93827000000E+00  0.93827000000E+00 0. -1.
     999902    2    1    2    0    0 -0.16436359492E-01 -0.38359110099E-02  0.16338394632E-01  0.10204393366E+01  0.10201689215E+01 0.  0.
     999903    2    3    3    0    0 -0.10223613861E+00  0.76618690913E-01  0.29890222967E-01  0.13251017441E+00  0.18516723735E-01 0.  0.
         14    1    1    2    0    0  0.16436359492E-01  0.38359110099E-02 -0.16338394632E-01  0.23490663375E-01  0.00000000000E+00 0. -1.
     999901    1    3    3    0    0  0.85799779115E-01 -0.80454601923E-01 -0.13551828335E-01  0.88792916222E+00  0.88000000000E+00 0. -1.
        -11    1    4    4    0    0 -0.27019560021E-01  0.24702179271E-01  0.16423842714E-01  0.40128020322E-01  0.51100000000E-03 0.  1.
         11    1    4    4    0    0 -0.75216578586E-01  0.51916511642E-01  0.13466380253E-01  0.92382154085E-01  0.51100000000E-03 0. -1.
</event>
<event>
 8    1  0.1132492E+005  0.1043930E+01  0.7957747E-01            NaN
         13   -1    0    0    0    0  0.00000000000E+00  0.00000000000E+00  0.74505805969E-08  0.10566000000E+00  0.10566000000E+00 0.  1.
     999900   -1    0    0    0    0 -0.00000000000E+00 -0.00000000000E+00 -0.74505805969E-08  0.93827000000E+00  0.93827000000E+00 0.  1.
     999902    2    1    2    0    0 -0.16842430630E-01 -0.14480347506E-01  0.51752017161E-02  0.10211236271E+01  0.10208689099E+01 0.  0.
     999903    2    3    3    0    0  0.11838585161E+00 -0.48214623397E-01 -0.11173008456E-01  0.13000525465E+00  0.20896658811E-01 0.  0.
         14    1    1    2    0    0  0.16842430630E-01  0.14480347506E-01 -0.51752017161E-02  0.22806372930E-01  0.00000000000E+00 0.  1.
     999901    1    3    3    0    0 -0.13522828223E+00  0.33734275890E-01  0.16348210172E-01  0.89111837242E+00  0.88000000000E+00 0. -1.
        -11    1    4    4    0    0  0.69761890804E-01 -0.28928356493E-01  0.37187688731E-02  0.75615220563E-01  0.51100000000E-03 0. -1.
         11    1    4    4    0    0  0.48623960801E-01 -0.19286266904E-01 -0.14891777329E-01  0.54390034088E-01  0.51100000000E-03 0.  1.
</event>
<event>
 8    1  0.1132492E+005  0.1043930E+01  0.7957747E-01            NaN
         13   -1    0    0    0    0  0.00000000000E+00  0.00000000000E+00  0.74505805969E-08  0.10566000000E+00  0.10566000000E+00 0.  1.
     999900   -1    0    0    0    0 -0.00000000000E+00 -0.00000000000E+00 -0.74505805969E-08  0.93827000000E+00  0.93827000000E+00 0. -1.
     999902    2    1    2    0    0 -0.10390273019E-01 -0.17076805731E-01  0.12284338463E-01  0.10204676890E+01  0.10201979338E+01 0.  0.
     999903    2    3    3    0    0  0.10985404767E+00 -0.67583448596E-01  0.75706347902E-02  0.13084314084E+00  0.20668301332E-01 0.  0.
         14    1    1    2    0    0  0.10390273019E-01  0.17076805731E-01 -0.12284338463E-01  0.23462311029E-01  0.00000000000E+00 0. -1.
     999901    1    3    3    0    0 -0.12024432069E+00  0.50506642866E-01  0.47137036727E-02  0.88962454813E+00  0.88000000000E+00 0.  1.
        -11    1    4    4    0    0  0.63213495760E-01 -0.47305522373E-01  0.11687890827E-01  0.79816203907E-01  0.51100000000E-03 0.  1.
         11    1    4    4    0    0  0.46640551912E-01 -0.20277926223E-01 -0.41172560364E-02  0.51026936934E-01  0.51100000000E-03 0. -1.
</event>
<event>
 8    1  0.1132492E+005  0.1043930E+01  0.7957747E-01            NaN
         13   -1    0    0    0    0  0.00000000000E+00  0.00000000000E+00  0.74505805969E-08  0.10566000000E+00  0.10566000000E+00 0. -1.
     999900   -1    0    0    0    0 -0.00000000000E+00 -0.00000000000E+00 -0.74505805969E-08  0.93827000000E+00  0.93827000000E+00 0. -1.
     999902    2    1    2    0    0 -0.94113682884E-02  0.20249587214E-01 -0.12030763084E-01  0.10185654796E+01  0.10182496144E+01 0.  0.
     999903    2    3    3    0    0 -0.56199056386E-01  0.66647387145E-01 -0.97223973911E-01  0.13199922331E+00  0.19263584813E-01 0.  0.
         14    1    1    2    0    0  0.94113682884E-02 -0.20249587214E-01  0.12030763084E-01  0.25364520413E-01  0.00000000000E+00 0. -1.
     999901    1    3    3    0    0  0.46787688098E-01 -0.46397799931E-01  0.85193210827E-01  0.88656625628E+00  0.88000000000E+00 0.  1.
        -11    1    4    4    0    0 -0.40268964946E-01  0.58370572599E-01 -0.82385237001E-01  0.10870281358E+00  0.51100000000E-03 0.  1.
         11    1    4    4    0    0 -0.15930091440E-01  0.82768145454E-02 -0.14838736910E-01  0.23296409732E-01  0.51100000000E-03 0. -1.
</event>
<event>
 8    1  0.1132492E+005  0.1043930E+01  0.7957747E-01            NaN
         13   -1    0    0    0    0  0.00000000000E+00  0.00000000000E+00  0.74505805969E-08  0.10566000000E+00  0.10566000000E+00 0. -1.
     999900   -1    0    0    0    0 -0.00000000000E+00 -0.00000000000E+00 -0.74505805969E-08  0.93827000000E+00  0.93827000000E+00 0. -1.
     999902    2    1    2    0    0 -0.21831281386E-01  0.70598439320E-02 -0.63476982685E-02  0.10201237085E+01  0.10198458908E+01 0.  0.
     999903    2    3    3    0    0  0.83857153805E-01  0.85732417725E-01 -0.44560654521E-01  0.12949491417E+00  0.20030256406E-01 0.  0.
         14    1    1    2    0    0  0.21831281386E-01 -0.70598439320E-02  0.63476982685E-02  0.23806291534E-01  0.00000000000E+00 0.  1.
     999901    1    3    3    0    0 -0.10568843519E+00 -0.78672573793E-01  0.38212956253E-01  0.89062879429E+00  0.88000000000E+00 0.  1.
        -11    1    4    4    0    0  0.32761280031E-01  0.37713907922E-01 -0.28654943672E-01  0.57593465236E-01  0.51100000000E-03 0.  1.
         11    1    4    4    0    0  0.51095873774E-01  0.48018509803E-01 -0.15905710849E-01  0.71901448936E-01  0.51100000000E-03 0. -1.
</event>
<event>
 8    1  0.1132492E+005  0.1043930E+01  0.7957747E-01            NaN
         13   -1    0    0    0    0  0.00000000000E+00  0.00000000000E+00  0.74505805969E-08  0.10566000000E+00  0.10566000000E+00 0.  1.
     999900   -1    0    0    0    0 -0.00000000000E+00 -0.00000000000E+00 -0.74505805969E-08  0.93827000000E+00  0.93827000000E+00 0. -1.
     999902    2    1    2    0    0 -0.10232228284E-01  0.20751681365E-01  0.20940692562E-02  0.10206982136E+01  0.10204337937E+01 0.  0.
     999903    2    3    3    0    0  0.52736149867E-01  0.11305345031E+00 -0.40594988527E-01  0.13260644530E+00  0.19347664276E-01 0.  0.
         14    1    1    2    0    0  0.10232228284E-01 -0.20751681365E-01 -0.20940692562E-02  0.23231786439E-01  0.00000000000E+00 0.  1.
     999901    1    3    3    0    0 -0.62968378151E-01 -0.92301768941E-01  0.42689057783E-01  0.88809176826E+00  0.88000000000E+00 0. -1.
        -11    1    4    4    0    0  0.24396170027E-01  0.58452936177E-01 -0.30358895272E-01  0.70241316210E-01  0.51100000000E-03 0.  1.
         11    1    4    4    0    0  0.28339979840E-01  0.54600514129E-01 -0.10236093255E-01  0.62365129091E-01  0.51100000000E-03 0. -1.
</event>
<event>
 8    1  0.1132492E+005  0.1043930E+01  0.7957747E-01            NaN
         13   -1    0    0    0    0  0.00000000000E+00  0.00000000000E+00  0.74505805969E-08  0.10566000000E+00  0.10566000000E+00 0. -1.
     999900   -1    0    0    0    0 -0.00000000000E+00 -0.00000000000E+00 -0.74505805969E-08  0.93827000000E+00  0.93827000000E+00 0.  1.
     999902    2    1    2    0    0 -0.11904951742E-01 -0.14026522108E-01 -0.14157418316E-01  0.10207157007E+01  0.10204516833E+01 0.  0.
     999903    2    3    3    0    0 -0.55843919124E-01 -0.98884312909E-01 -0.68596511105E-01  0.13387011531E+00  0.17862692800E-01 0.  0.
         14    1    1    2    0    0  0.11904951742E-01  0.14026522108E-01  0.14157418316E-01  0.23214299296E-01  0.00000000000E+00 0. -1.
     999901    1    3    3    0    0  0.43938967382E-01  0.84857790801E-01  0.54439092789E-01  0.88684558540E+00  0.88000000000E+00 0.  1.
        -11    1    4    4    0    0 -0.38047167323E-01 -0.49521602598E-01 -0.35689853675E-01  0.71930541785E-01  0.51100000000E-03 0.  1.
         11    1    4    4    0    0 -0.17796751801E-01 -0.49362710311E-01 -0.32906657430E-01  0.61939573522E-01  0.51100000000E-03 0. -1.
</event>
<event>
 8    1  0.1132492E+005  0.1043930E+01  0.7957747E-01            NaN
         13   -1    0    0    0    0  0.00000000000E+00  0.00000000000E+00  0.74505805969E-08  0.10566000000E+00  0.10566000000E+00 0. -1.
     999900   -1    0    0    0    0 -0.00000000000E+00 -0.00000000000E+00 -0.74505805969E-08  0.93827000000E+00  0.93827000000E+00 0.  1.
     999902    2    1    2    0    0 -0.16874728836E-01  0.81187292181E-02  0.11762134624E-01  0.10218162475E+01  0.10215769309E+01 0.  0.
     999903    2    3    3    0    0  0.12352371670E+00  0.29242592827E-01  0.22289017937E-01  0.13037429407E+00  0.19682947175E-01 0.  0.
         14    1    1    2    0    0  0.16874728836E-01 -0.81187292181E-02 -0.11762134624E-01  0.22113752470E-01  0.00000000000E+00 0.  1.
     999901    1    3    3    0    0 -0.14039844554E+00 -0.21123863609E-01 -0.10526883313E-01  0.89144195346E+00  0.88000000000E+00 0. -1.
        -11    1    4    4    0    0  0.96948034009E-01  0.17263991611E-01  0.23331207206E-01  0.10120065739E+00  0.51100000000E-03 0.  1.
         11    1    4    4    0    0  0.26575682693E-01  0.11978601216E-01 -0.10421892692E-02  0.29173636680E-01  0.51100000000E-03 0. -1.
</event>
<event>
 8    1  0.1132492E+005  0.1043930E+01  0.7957747E-01            NaN
         13   -1    0    0    0    0  0.00000000000E+00  0.00000000000E+00  0.74505805969E-08  0.10566000000E+00  0.10566000000E+00 0.  1.
     999900   -1    0    0    0    0 -0.00000000000E+00 -0.00000000000E+00 -0.74505805969E-08  0.93827000000E+00  0.93827000000E+00 0.  1.
     999902    2    1    2    0    0  0.24507417999E-03  0.34043905377E-02 -0.23442154141E-01  0.10202406664E+01  0.10199656037E+01 0.  0.
     999903    2    3    3    0    0  0.15165775697E-03 -0.72667418866E-01  0.10357098986E+00  0.12787343948E+00  0.18549658159E-01 0.  0.
         14    1    1    2    0    0 -0.24507417999E-03 -0.34043905377E-02  0.23442154141E-01  0.23689333614E-01  0.00000000000E+00 0.  1.
     999901    1    3    3    0    0  0.93416423020E-04  0.76071809404E-01 -0.12701314400E+00  0.89236722691E+00  0.88000000000E+00 0.  1.
        -11    1    4    4    0    0 -0.33741624069E-02 -0.61889208257E-01  0.76093927679E-01  0.98143802765E-01  0.51100000000E-03 0.  1.
         11    1    4    4    0    0  0.35258201639E-02 -0.10778210609E-01  0.27477062184E-01  0.29729636712E-01  0.51100000000E-03 0. -1.
</event>
<event>
 8    1  0.1132492E+005  0.1043930E+01  0.7957747E-01            NaN
         13   -1    0    0    0    0  0.00000000000E+00  0.00000000000E+00  0.74505805969E-08  0.10566000000E+00  0.10566000000E+00 0.  1.
     999900   -1    0    0    0    0 -0.00000000000E+00 -0.00000000000E+00 -0.74505805969E-08  0.93827000000E+00  0.93827000000E+00 0. -1.
     999902    2    1    2    0    0  0.24598233994E-02 -0.70898500981E-02 -0.22569948662E-01  0.10201451458E+01  0.10198678342E+01 0.  0.
     999903    2    3    3    0    0 -0.69865981600E-02 -0.12112673951E+00 -0.48800386817E-01  0.13234917663E+00  0.20355029425E-01 0.  0.
         14    1    1    2    0    0 -0.24598233994E-02  0.70898500981E-02  0.22569948662E-01  0.23784854176E-01  0.00000000000E+00 0.  1.
     999901    1    3    3    0    0  0.94464215594E-02  0.11403688941E+00  0.26230438155E-01  0.88779596919E+00  0.88000000000E+00 0.  1.
        -11    1    4    4    0    0  0.40047445176E-02 -0.76666198811E-01 -0.35989449086E-01  0.84789419064E-01  0.51100000000E-03 0. -1.
         11    1    4    4    0    0 -0.10991342678E-01 -0.44460540702E-01 -0.12810937731E-01  0.47559757568E-01  0.51100000000E-03 0.  1.
</event>
<event>
 8    1  0.1132492E+005  0.1043930E+01  0.7957747E-01            NaN
         13   -1    0    0    0    0  0.00000000000E+00  0.00000000000E+00  0.74505805969E-08  0.10566000000E+00  0.10566000000E+00 0.  1.
     999900   -1    0    0    0    0 -0.00000000000E+00 -0.00000000000E+00 -0.74505805969E-08  0.93827000000E+00  0.93827000000E+00 0.  1.
     999902    2    1    2    0    0 -0.34697436689E-02 -0.21066761319E-01 -0.56832815042E-02  0.10218359455E+01  0.10215970597E+01 0.  0.
     999903    2    3    3    0    0  0.14021511940E-01 -0.13065529012E+00  0.19039400941E-01  0.13452157020E+00  0.21590424423E-01 0.  0.
         14    1    1    2    0    0  0.34697436689E-02  0.21066761319E-01  0.56832815042E-02  0.22094054455E-01  0.00000000000E+00 0.  1.
     999901    1    3    3    0    0 -0.17491255609E-01  0.10958852880E+00 -0.24722682445E-01  0.88731437535E+00  0.88000000000E+00 0. -1.
        -11    1    4    4    0    0  0.10232164140E-01 -0.86734051517E-01  0.22829839440E-01  0.90271565653E-01  0.51100000000E-03 0.  1.
         11    1    4    4    0    0  0.37893478004E-02 -0.43921238605E-01 -0.37904384995E-02  0.44250004546E-01  0.51100000000E-03 0. -1.
</event>
<event>
 8    1  0.1132492E+005  0.1043930E+01  0.7957747E-01            NaN
         13   -1    0    0    0    0  0.00000000000E+00  0.00000000000E+00  0.74505805969E-08  0.10566000000E+00  0.10566000000E+00 0.  1.
     999900   -1    0    0    0    0 -0.00000000000E+00 -0.00000000000E+00 -0.74505805969E-08  0.93827000000E+00  0.93827000000E+00 0.  1.
     999902    2    1    2    0    0 -0.23719096127E-01 -0.18117699215E-02 -0.20934230517E-02  0.10200498733E+01  0.10197703092E+01 0.  0.
     999903    2    3    3    0    0  0.10949516207E+00 -0.25188253249E-01 -0.58193759802E-01  0.12795136621E+00  0.19010518580E-01 0.  0.
         14    1    1    2    0    0  0.23719096127E-01  0.18117699215E-02  0.20934230517E-02  0.23880126704E-01  0.00000000000E+00 0.  1.
     999901    1    3    3    0    0 -0.13321425820E+00  0.23376483327E-01  0.56100336750E-01  0.89209850709E+00  0.88000000000E+00 0. -1.
        -11    1    4    4    0    0  0.60009207673E-01 -0.22880548031E-01 -0.36446512133E-01  0.73846014458E-01  0.51100000000E-03 0. -1.
         11    1    4    4    0    0  0.49485954398E-01 -0.23077052172E-02 -0.21747247668E-01  0.54105351752E-01  0.51100000000E-03 0.  1.
</event>
<event>
 8    1  0.1132492E+005  0.1043930E+01  0.7957747E-01            NaN
         13   -1    0    0    0    0  0.00000000000E+00  0.00000000000E+00  0.74505805969E-08  0.10566000000E+00  0.10566000000E+00 0. -1.
     999900   -1    0    0    0    0 -0.00000000000E+00 -0.00000000000E+00 -0.74505805969E-08  0.93827000000E+00  0.93827000000E+00 0. -1.
     999902    2    1    2    0    0 -0.23276333132E-01  0.15562998129E-02 -0.45570701750E-02  0.10201607627E+01  0.10198838194E+01 0.  0.
     999903    2    3    3    0    0  0.11944544308E+00  0.36939843543E-01 -0.20627509987E-01  0.12781567272E+00  0.16720828709E-01 0.  0.
         14    1    1    2    0    0  0.23276333132E-01 -0.15562998129E-02  0.45570701750E-02  0.23769237299E-01  0.00000000000E+00 0. -1.
     999901    1    3    3    0    0 -0.14272177621E+00 -0.35383543730E-01  0.16070439812E-01  0.89234508998E+00  0.88000000000E+00 0.  1.
        -11    1    4    4    0    0  0.68514577787E-01  0.23413419392E-01 -0.19980755698E-01  0.75112763870E-01  0.51100000000E-03 0.  1.
         11    1    4    4    0    0  0.50930865290E-01  0.13526424152E-01 -0.64675428839E-03  0.52702908853E-01  0.51100000000E-03 0. -1.
</event>
<event>
 8    1  0.1132492E+005  0.1043930E+01  0.7957747E-01            NaN
         13   -1    0    0    0    0  0.00000000000E+00  0.00000000000E+00  0.74505805969E-08  0.10566000000E+00  0.10566000000E+00 0. -1.
     999900   -1    0    0    0    0 -0.00000000000E+00 -0.00000000000E+00 -0.74505805969E-08  0.93827000000E+00  0.93827000000E+00 0. -1.
     999902    2    1    2    0    0  0.97432534832E-02  0.21942538039E-01 -0.17142138297E-02  0.10198604239E+01  0.10195763531E+01 0.  0.
     999903    2    3    3    0    0 -0.63292478360E-01 -0.10163560726E+00 -0.38911281164E-01  0.12745390335E+00  0.19866433953E-01 0.  0.
         14    1    1    2    0    0 -0.97432534832E-02 -0.21942538039E-01  0.17142138297E-02  0.24069576088E-01  0.00000000000E+00 0. -1.
     999901    1    3    3    0    0  0.73035731843E-01  0.12357814530E+00  0.37197067334E-01  0.89240652056E+00  0.88000000000E+00 0.  1.
        -11    1    4    4    0    0 -0.48126129182E-01 -0.60899202837E-01 -0.29041696882E-01  0.82876525597E-01  0.51100000000E-03 0.  1.
         11    1    4    4    0    0 -0.15166349177E-01 -0.40736404421E-01 -0.98695842818E-02  0.44577377754E-01  0.51100000000E-03 0. -1.
</event>
<event>
 7    1  0.1132492E+005  0.1043930E+01  0.7957747E-01            NaN
         13   -1    0    0    0    0  0.00000000000E+00  0.00000000000E+00  0.74505805969E-08  0.10566000000E+00  0.10566000000E+00 0.  1.
     999900   -1    0    0    0    0 -0.00000000000E+00 -0.00000000000E+00 -0.74505805969E-08  0.93827000000E+00  0.93827000000E+00 0.  1.
     999903    2    1    2    0    0 -0.24496633655E-01  0.21823846301E-01 -0.10983226249E+00  0.11579237021E+00  0.16382362114E-01 0.  0.
         14    1    1    2    0    0 -0.50566804149E-02 -0.40178933939E-01  0.10719918644E-01  0.41890731732E-01  0.00000000000E+00 0.  1.
     999901    1    1    2    0    0  0.29553314070E-01  0.18355087639E-01  0.99112343842E-01  0.88624689806E+00  0.88000000000E+00 0. -1.
        -11    1    3    3    0    0 -0.83542771223E-02 -0.77467624655E-03 -0.18295201948E-01  0.20133792609E-01  0.51100000000E-03 0. -1.
         11    1    3    3    0    0 -0.16142356532E-01  0.22598522547E-01 -0.91537060538E-01  0.95658577601E-01  0.51100000000E-03 0.  1.
</event>
<event>
 7    1  0.1132492E+005  0.1043930E+01  0.7957747E-01            NaN
         13   -1    0    0    0    0  0.00000000000E+00  0.00000000000E+00  0.74505805969E-08  0.10566000000E+00  0.10566000000E+00 0.  1.
     999900   -1    0    0    0    0 -0.00000000000E+00 -0.00000000000E+00 -0.74505805969E-08  0.93827000000E+00  0.93827000000E+00 0. -1.
     999903    2    1    2    0    0 -0.27780879602E-01  0.41635450502E-01 -0.71788859689E-01  0.89543442172E-01  0.18949924820E-01 0.  0.
         14    1    1    2    0    0 -0.60707905520E-01 -0.14804447801E-01  0.27959618183E-01  0.68457006334E-01  0.00000000000E+00 0. -1.
     999901    1    1    2    0    0  0.88488785122E-01 -0.26831002701E-01  0.43829241505E-01  0.88592955149E+00  0.88000000000E+00 0.  1.
        -11    1    3    3    0    0 -0.86549798978E-02  0.25060416453E-01 -0.47830136691E-01  0.54689269942E-01  0.51100000000E-03 0.  1.
         11    1    3    3    0    0 -0.19125899705E-01  0.16575034048E-01 -0.23958722997E-01  0.34854172231E-01  0.51100000000E-03 0. -1.
</event>
<event>
 8    1  0.1132492E+005  0.1043930E+01  0.7957747E-01            NaN
         13   -1    0    0    0    0  0.00000000000E+00  0.00000000000E+00  0.74505805969E-08  0.10566000000E+00  0.10566000000E+00 0. -1.
     999900   -1    0    0    0    0 -0.00000000000E+00 -0.00000000000E+00 -0.74505805969E-08  0.93827000000E+00  0.93827000000E+00 0.  1.
     999902    2    1    2    0    0 -0.15165721814E-01  0.18269639561E-01 -0.13605064508E-02  0.10201470266E+01  0.10198697593E+01 0.  0.
     999903    2    3    3    0    0  0.16940434862E-01 -0.87037219315E-01 -0.90930211315E-01  0.12877557096E+00  0.21269425660E-01 0.  0.
         14    1    1    2    0    0  0.15165721814E-01 -0.18269639561E-01  0.13605064508E-02  0.23782973440E-01  0.00000000000E+00 0. -1.
     999901    1    3    3    0    0 -0.32106156676E-01  0.10530685888E+00  0.89569704864E-01  0.89137145560E+00  0.88000000000E+00 0.  1.
        -11    1    4    4    0    0 -0.19485754406E-02 -0.45032186857E-01 -0.47086782627E-01  0.65185282223E-01  0.51100000000E-03 0.  1.
         11    1    4    4    0    0  0.18889010303E-01 -0.42005032459E-01 -0.43843428687E-01  0.63590288740E-01  0.51100000000E-03 0. -1.
</event>
<event>
 8    1  0.1132492E+005  0.1043930E+01  0.7957747E-01            NaN
         13   -1    0    0    0    0  0.00000000000E+00  0.00000000000E+00  0.74505805969E-08  0.10566000000E+00  0.10566000000E+00 0. -1.
     999900   -1    0    0    0    0 -0.00000000000E+00 -0.00000000000E+00 -0.74505805969E-08  0.93827000000E+00  0.93827000000E+00 0. -1.
     999902    2    1    2    0    0  0.16251468006E-01  0.17624564258E-01 -0.38929991677E-03  0.10199531980E+01  0.10196713388E+01 0.  0.
     999903    2    3    3    0    0 -0.32768746499E-02  0.16732453981E-01  0.12773581341E+00  0.13045997340E+00  0.20313879653E-01 0.  0.
         14    1    1    2    0    0 -0.16251468006E-01 -0.17624564258E-01  0.38929991677E-03  0.23976801957E-01  0.00000000000E+00 0. -1.
     999901    1    3    3    0    0  0.19528342656E-01  0.89211027697E-03 -0.12812511333E+00  0.88949322465E+00  0.88000000000E+00 0. -1.
        -11    1    4    4    0    0  0.84774371885E-02  0.63531836972E-02  0.43398576940E-01  0.44675804254E-01  0.51100000000E-03 0. -1.
         11    1    4    4    0    0 -0.11754311838E-01  0.10379270284E-01  0.84337236473E-01  0.85784169142E-01  0.51100000000E-03 0.  1.
</event>
<event>
 8    1  0.1132492E+005  0.1043930E+01  0.7957747E-01            NaN
         13   -1    0    0    0    0  0.00000000000E+00  0.00000000000E+00  0.74505805969E-08  0.10566000000E+00  0.10566000000E+00 0. -1.
     999900   -1    0    0    0    0 -0.00000000000E+00 -0.00000000000E+00 -0.74505805969E-08  0.93827000000E+00  0.93827000000E+00 0. -1.
     999902    2    1    2    0    0 -0.62835238332E-02 -0.70090412332E-02  0.21844217257E-01  0.10201438873E+01  0.10198665460E+01 0.  0.
     999903    2    3    3    0    0  0.10562582162E+00  0.70400916192E-01  0.16818849746E-01  0.12967139617E+00  0.20462015621E-01 0.  0.
         14    1    1    2    0    0  0.62835238332E-02  0.70090412332E-02 -0.21844217257E-01  0.23786112720E-01  0.00000000000E+00 0.  1.
     999901    1    3    3    0    0 -0.11190934546E+00 -0.77409957425E-01  0.50253675106E-02  0.89047249111E+00  0.88000000000E+00 0.  1.
        -11    1    4    4    0    0  0.49908993731E-01  0.32661142687E-01  0.18189998135E-01  0.62360204057E-01  0.51100000000E-03 0. -1.
         11    1    4    4    0    0  0.55716827891E-01  0.37739773505E-01 -0.13711483892E-02  0.67311192111E-01  0.51100000000E-03 0.  1.
</event>
<event>
 8    1  0.1132492E+005  0.1043930E+01  0.7957747E-01            NaN
         13   -1    0    0    0    0  0.00000000000E+00  0.00000000000E+00  0.74505805969E-08  0.10566000000E+00  0.10566000000E+00 0.  1.
     999900   -1    0    0    0    0 -0.00000000000E+00 -0.00000000000E+00 -0.74505805969E-08  0.93827000000E+00  0.93827000000E+00 0.  1.
     999902    2    1    2    0    0 -0.15567384903E-01  0.16632964283E-01 -0.53418399393E-02  0.10205305507E+01  0.10202622558E+01 0.  0.
     999903    2    3    3    0    0 -0.10883001596E+00  0.74593887230E-01  0.65108289595E-02  0.13362702004E+00  0.20138748854E-01 0.  0.
         14    1    1    2    0    0  0.15567384903E-01 -0.16632964283E-01  0.53418399393E-02  0.23399449299E-01  0.00000000000E+00 0.  1.
     999901    1    3    3    0    0  0.93262631055E-01 -0.57960922947E-01 -0.11852668899E-01  0.88690353066E+00  0.88000000000E+00 0. -1.
        -11    1    4    4    0    0 -0.70433609320E-01  0.49420948209E-01  0.13777617908E-01  0.87140159054E-01  0.51100000000E-03 0. -1.
         11    1    4    4    0    0 -0.38396406638E-01  0.25172939021E-01 -0.72667889490E-02  0.46486860985E-01  0.51100000000E-03 0.  1.
</event>
<event>
 8    1  0.1132492E+005  0.1043930E+01  0.7957747E-01            NaN
         13   -1    0    0    0    0  0.00000000000E+00  0.00000000000E+00  0.74505805969E-08  0.10566000000E+00  0.10566000000E+00 0. -1.
     999900   -1    0    0    0    0 -0.00000000000E+00 -0.00000000000E+00 -0.74505805969E-08  0.93827000000E+00  0.93827000000E+00 0. -1.
     999902    2    1    2    0    0 -0.16959983164E-01 -0.11673876346E-02 -0.15809972803E-01  0.10207145081E+01  0.10204504633E+01 0.  0.
     999903    2    3    3    0    0  0.23163492607E-01  0.93772927357E-01 -0.87459936943E-01  0.13180659722E+00  0.19845130511E-01 0.  0.
         14    1    1    2    0    0  0.16959983164E-01  0.11673876346E-02  0.15809972803E-01  0.23215491872E-01  0.00000000000E+00 0. -1.
     999901    1    3    3    0    0 -0.40123475771E-01 -0.94940314992E-01  0.71649964140E-01  0.88890791091E+00  0.88000000000E+00 0.  1.
        -11    1    4    4    0    0  0.13958729976E-01  0.29047285112E-01 -0.20366687496E-01  0.38126814651E-01  0.51100000000E-03 0.  1.
         11    1    4    4    0    0  0.92047626309E-02  0.64725642245E-01 -0.67093249448E-01  0.93679782566E-01  0.51100000000E-03 0. -1.
</event>
<event>
 8    1  0.1132492E+005  0.1043930E+01  0.7957747E-01            NaN
         13   -1    0    0    0    0  0.00000000000E+00  0.00000000000E+00  0.74505805969E-08  0.10566000000E+00  0.10566000000E+00 0. -1.
     999900   -1    0    0    0    0 -0.00000000000E+00 -0.00000000000E+00 -0.74505805969E-08  0.93827000000E+00  0.93827000000E+00 0. -1.
     999902    2    1    2    0    0  0.10932649469E-01  0.93414217934E-02 -0.18463745154E-01  0.10205271183E+01  0.10202587438E+01 0.  0.
     999903    2    3    3    0    0 -0.44526843544E-01 -0.86303290697E-01 -0.85699204931E-01  0.13106420542E+00  0.20064257628E-01 0.  0.
         14    1    1    2    0    0 -0.10932649469E-01 -0.93414217934E-02  0.18463745154E-01  0.23402881674E-01  0.00000000000E+00 0. -1.
     999901    1    3    3    0    0  0.55459493012E-01  0.95644712490E-01  0.67235459777E-01  0.88946291291E+00  0.88000000000E+00 0.  1.
        -11    1    4    4    0    0 -0.15632269747E-02 -0.10293769617E-01 -0.17097191543E-01  0.20024496278E-01  0.51100000000E-03 0.  1.
         11    1    4    4    0    0 -0.42963616569E-01 -0.76009521080E-01 -0.68602013388E-01  0.11103970914E+00  0.51100000000E-03 0. -1.
</event>
<event>
 8    1  0.1132492E+005  0.1043930E+01  0.7957747E-01            NaN
         13   -1    0    0    0    0  0.00000000000E+00  0.00000000000E+00  0.74505805969E-08  0.10566000000E+00  0.10566000000E+00 0.  1.
     999900   -1    0    0    0    0 -0.00000000000E+00 -0.00000000000E+00 -0.74505805969E-08  0.93827000000E+00  0.93827000000E+00 0.  1.
     999902    2    1    2    0    0 -0.69693106334E-02 -0.17979429818E-01 -0.13828624813E-01  0.10202010714E+01  0.10199250777E+01 0.  0.
     999903    2    3    3    0    0  0.88498257569E-01  0.51661130383E-03  0.91350107392E-01  0.12861892387E+00  0.19125296808E-01 0.  0.
         14    1    1    2    0    0  0.69693106334E-02  0.17979429818E-01  0.13828624813E-01  0.23728928579E-01  0.00000000000E+00 0.  1.
     999901    1    3    3    0    0 -0.95467568203E-01 -0.18496041122E-01 -0.10517873220E+00  0.89158214755E+00  0.88000000000E+00 0.  1.
        -11    1    4    4    0    0  0.30889467759E-01  0.68555993283E-02  0.23700647290E-01  0.39536568687E-01  0.51100000000E-03 0.  1.
         11    1    4    4    0    0  0.57608789810E-01 -0.63389880245E-02  0.67649460103E-01  0.89082355187E-01  0.51100000000E-03 0. -1.
</event>
<event>
 8    1  0.1132492E+005  0.1043930E+01  0.7957747E-01            NaN
         13   -1    0    0    0    0  0.00000000000E+00  0.00000000000E+00  0.74505805969E-08  0.10566000000E+00  0.10566000000E+00 0. -1.
     999900   -1    0    0    0    0 -0.00000000000E+00 -0.00000000000E+00 -0.74505805969E-08  0.93827000000E+00  0.93827000000E+00 0.  1.
     999902    2    1    2    0    0  0.36256902832E-03  0.15325234689E-01 -0.17858113276E-01  0.10203947820E+01  0.10201233282E+01 0.  0.
     999903    2    3    3    0    0 -0.83683726449E-01 -0.94044317953E-01 -0.20792659572E-01  0.12964560837E+00  0.22985849273E-01 0.  0.
         14    1    1    2    0    0 -0.36256902832E-03 -0.15325234689E-01  0.17858113276E-01  0.23535217958E-01  0.00000000000E+00 0. -1.
     999901    1    3    3    0    0  0.84046295478E-01  0.10936955264E+00  0.29345462962E-02  0.89074917367E+00  0.88000000000E+00 0.  1.
        -11    1    4    4    0    0 -0.29388629104E-01 -0.28203563916E-01  0.35774298169E-02  0.40892440172E-01  0.51100000000E-03 0.  1.
         11    1    4    4    0    0 -0.54295097346E-01 -0.65840754037E-01 -0.24370089389E-01  0.88753168201E-01  0.51100000000E-03 0. -1.
</event>
<event>
 8    1  0.1132492E+005  0.1043930E+01  0.7957747E-01            NaN
         13   -1    0    0    0    0  0.00000000000E+00  0.00000000000E+00  0.74505805969E-08  0.10566000000E+00  0.10566000000E+00 0. -1.
     999900   -1    0    0    0    0 -0.00000000000E+00 -0.00000000000E+00 -0.74505805969E-08  0.93827000000E+00  0.93827000000E+00 0. -1.
     999902    2    1    2    0    0  0.16396587544E-01 -0.18595580103E-02 -0.21473813999E-01  0.10168480738E+01  0.10164873705E+01 0.  0.
     999903    2    3    3    0    0  0.12182082544E+00 -0.16994309599E-01  0.32897520581E-01  0.12876048090E+00  0.19180576381E-01 0.  0.
         14    1    1    2    0    0 -0.16396587544E-01  0.18595580103E-02  0.21473813999E-01  0.27081926201E-01  0.00000000000E+00 0. -1.
     999901    1    3    3    0    0 -0.10542423790E+00  0.15134751589E-01 -0.54371334580E-01  0.88808759290E+00  0.88000000000E+00 0.  1.
        -11    1    4    4    0    0  0.78651132472E-01 -0.15624367653E-01  0.13129209723E-01  0.81257361344E-01  0.51100000000E-03 0.  1.
         11    1    4    4    0    0  0.43169692970E-01 -0.13699419460E-02  0.19768310858E-01  0.47503119553E-01  0.51100000000E-03 0. -1.
</event>
<event>
 8    1  0.1132492E+005  0.1043930E+01  0.7957747E-01            NaN
         13   -1    0    0    0    0  0.00000000000E+00  0.00000000000E+00  0.74505805969E-08  0.10566000000E+00  0.10566000000E+00 0. -1.
     999900   -1    0    0    0    0 -0.00000000000E+00 -0.00000000000E+00 -0.74505805969E-08  0.93827000000E+00  0.93827000000E+00 0. -1.
     999902    2    1    2    0    0 -0.77678512186E-03  0.15246257278E-01  0.18539909943E-01  0.10199137551E+01  0.10196309567E+01 0.  0.
     999903    2    3    3    0    0  0.57017739178E-01 -0.56606102229E-01  0.10168853145E+00  0.13119745516E+00  0.20419143481E-01 0.  0.
         14    1    1    2    0    0  0.77678512186E-03 -0.15246257278E-01 -0.18539909943E-01  0.24016244852E-01  0.00000000000E+00 0.  1.
     999901    1    3    3    0    0 -0.57794524300E-01  0.71852359507E-01 -0.83148621511E-01  0.88871629999E+00  0.88000000000E+00 0. -1.
        -11    1    4    4    0    0  0.60530962849E-02 -0.83931221727E-02  0.44132993735E-02  0.11261563249E-01  0.51100000000E-03 0.  1.
         11    1    4    4    0    0  0.50964642893E-01 -0.48212980057E-01  0.97275232080E-01  0.11993589191E+00  0.51100000000E-03 0. -1.
</event>
<event>
 8    1  0.1132492E+005  0.1043930E+01  0.7957747E-01            NaN
         13   -1    0    0    0    0  0.00000000000E+00  0.00000000000E+00  0.74505805969E-08  0.10566000000E+00  0.10566000000E+00 0. -1.
     999900   -1    0    0    0    0 -0.00000000000E+00 -0.00000000000E+00 -0.74505805969E-08  0.93827000000E+00  0.93827000000E+00 0. -1.
     999902    2    1    2    0    0  0.21124507058E-01 -0.61778869284E-02  0.85617160135E-02  0.10203140294E+01  0.10200406877E+01 0.  0.
     999903    2    3    3    0    0  0.32269085237E-01  0.17202381262E-01  0.12585587855E+00  0.13215370655E+00  0.16961255992E-01 0.  0.
         14    1    1    2    0    0 -0.21124507058E-01  0.61778869284E-02 -0.85617160135E-02  0.23615970580E-01  0.00000000000E+00 0.  1.
     999901    1    3    3    0    0 -0.11144578179E-01 -0.23380268191E-01 -0.11729416254E+00  0.88816032287E+00  0.88000000000E+00 0. -1.
        -11    1    4    4    0    0  0.82081411685E-02  0.16617083898E-02  0.56415694774E-01  0.57036186707E-01  0.51100000000E-03 0. -1.
         11    1    4    4    0    0  0.24060944068E-01  0.15540672873E-01  0.69440183777E-01  0.75117519839E-01  0.51100000000E-03 0.  1.
</event>
<event>
 8    1  0.1132492E+005  0.1043930E+01  0.7957747E-01            NaN
         13   -1    0    0    0    0  0.00000000000E+00  0.00000000000E+00  0.74505805969E-08  0.10566000000E+00  0.10566000000E+00 0.  1.
     999900   -1    0    0    0    0 -0.00000000000E+00 -0.00000000000E+00 -0.74505805969E-08  0.93827000000E+00  0.93827000000E+00 0. -1.
     999902    2    1    2    0    0 -0.85958678007E-02  0.20174793703E-01  0.89074407051E-02  0.10202603202E+01  0.10199857191E+01 0.  0.
     999903    2    3    3    0    0  0.11736580826E+00 -0.47197242911E-01  0.11913109866E-01  0.12873669781E+00  0.20709961063E-01 0.  0.
         14    1    1    2    0    0  0.85958678007E-02 -0.20174793703E-01 -0.89074407051E-02  0.23669679848E-01  0.00000000000E+00 0.  1.
     999901    1    3    3    0    0 -0.12596167606E+00  0.67372036615E-01 -0.30056691608E-02  0.89152362235E+00  0.88000000000E+00 0. -1.
        -11    1    4    4    0    0  0.77307274505E-01 -0.32914972757E-01 -0.18170716777E-02  0.84043875407E-01  0.51100000000E-03 0. -1.
         11    1    4    4    0    0  0.40058533759E-01 -0.14282270155E-01  0.13730181544E-01  0.44692822398E-01  0.51100000000E-03 0.  1.
</event>
<event>
 8    1  0.1132492E+005  0.1043930E+01  0.7957747E-01            NaN
         13   -1    0    0    0    0  0.00000000000E+00  0.00000000000E+00  0.74505805969E-08  0.10566000000E+00  0.10566000000E+00 0.  1.
     999900   -1    0    0    0    0 -0.00000000000E+00 -0.00000000000E+00 -0.74505805969E-08  0.93827000000E+00  0.93827000000E+00 0. -1.
     999902    2    1    2    0    0  0.71016017034E-04 -0.19546102020E-01 -0.13439224488E-01  0.10202093781E+01  0.10199335798E+01 0.  0.
     999903    2    3    3    0    0  0.10438296121E-01 -0.87034638761E-02 -0.13008931065E+00  0.13238491017E+00  0.20440826411E-01 0.  0.
         14    1    1    2    0    0 -0.71016017034E-04  0.19546102020E-01  0.13439224488E-01  0.23720621878E-01  0.00000000000E+00 0.  1.
     999901    1    3    3    0    0 -0.10367280104E-01 -0.10842638144E-01  0.11665008616E+00  0.88782446796E+00  0.88000000000E+00 0.  1.
        -11    1    4    4    0    0  0.14619093134E-01  0.98099867371E-04 -0.85281134825E-01  0.86526646680E-01  0.51100000000E-03 0. -1.
         11    1    4    4    0    0 -0.41807970131E-02 -0.88015637435E-02 -0.44808175827E-01  0.45858263486E-01  0.51100000000E-03 0.  1.
</event>
<event>
 8    1  0.1132492E+005  0.1043930E+01  0.7957747E-01            NaN
         13   -1    0    0    0    0  0.00000000000E+00  0.00000000000E+00  0.74505805969E-08  0.10566000000E+00  0.10566000000E+00 0.  1.
     999900   -1    0    0    0    0 -0.00000000000E+00 -0.00000000000E+00 -0.74505805969E-08  0.93827000000E+00  0.93827000000E+00 0.  1.
     999902    2    1    2    0    0  0.25617685570E-02 -0.20743520004E-01 -0.82426443991E-02  0.10214623017E+01  0.10212151763E+01 0.  0.
     999903    2    3    3    0    0 -0.78768687746E-01 -0.94397930175E-01 -0.48741745225E-01  0.13372371831E+00  0.19768655031E-01 0.  0.
         14    1    1    2    0    0 -0.25617685570E-02  0.20743520004E-01  0.82426443991E-02  0.22467698302E-01  0.00000000000E+00 0.  1.
     999901    1    3    3    0    0  0.81330456303E-01  0.73654410171E-01  0.40499100826E-01  0.88773858338E+00  0.88000000000E+00 0. -1.
        -11    1    4    4    0    0 -0.62252580693E-01 -0.83992954473E-01 -0.36809346468E-01  0.11083947543E+00  0.51100000000E-03 0. -1.
         11    1    4    4    0    0 -0.16516107053E-01 -0.10404975702E-01 -0.11932398757E-01  0.22884242889E-01  0.51100000000E-03 0.  1.
</event>
<event>
 8    1  0.1132492E+005  0.1043930E+01  0.7957747E-01            NaN
         13   -1    0    0    0    0  0.00000000000E+00  0.00000000000E+00  0.74505805969E-08  0.10566000000E+00  0.10566000000E+00 0. -1.
     999900   -1    0    0    0    0 -0.00000000000E+00 -0.00000000000E+00 -0.74505805969E-08  0.93827000000E+00  0.93827000000E+00 0.  1.
     999902    2    1    2    0    0  0.10521962006E-01  0.20292365579E-01  0.55531491597E-02  0.10204070484E+01  0.10201358808E+01 0.  0.
     999903    2    3    3    0    0  0.21866603721E-01  0.73911551979E-01  0.10636693251E+00  0.13295725437E+00  0.20558241309E-01 0.  0.
         14    1    1    2    0    0 -0.10521962006E-01 -0.20292365579E-01 -0.55531491597E-02  0.23522951576E-01  0.00000000000E+00 0.  1.
     999901    1    3    3    0    0 -0.11344641715E-01 -0.53619186400E-01 -0.10081378335E+00  0.88744979405E+00  0.88000000000E+00 0.  1.
        -11    1    4    4    0    0  0.20933874554E-01  0.59451236164E-01  0.72208329659E-01  0.95848738012E-01  0.51100000000E-03 0.  1.
         11    1    4    4    0    0  0.93272916723E-03  0.14460315815E-01  0.34158602848E-01  0.37108516363E-01  0.51100000000E-03 0. -1.
</event>
<event>
 8    1  0.1132492E+005  0.1043930E+01  0.7957747E-01            NaN
         13   -1    0    0    0    0  0.00000000000E+00  0.00000000000E+00  0.74505805969E-08  0.10566000000E+00  0.10566000000E+00 0.  1.
     999900   -1    0    0    0    0 -0.00000000000E+00 -0.00000000000E+00 -0.74505805969E-08  0.93827000000E+00  0.93827000000E+00 0. -1.
     999902    2    1    2    0    0  0.22081308554E-01 -0.90327506209E-02  0.28763339106E-02  0.10198998509E+01  0.10196167210E+01 0.  0.
     999903    2    3    3    0    0 -0.39157379098E-01  0.10938692147E+00  0.50958635161E-01  0.12856080016E+00  0.20791775105E-01 0.  0.
         14    1    1    2    0    0 -0.22081308554E-01  0.90327506209E-02 -0.28763339106E-02  0.24030149146E-01  0.00000000000E+00 0. -1.
     999901    1    3    3    0    0  0.61238687652E-01 -0.11841967209E+00 -0.48082301251E-01  0.89133905070E+00  0.88000000000E+00 0. -1.
        -11    1    4    4    0    0 -0.19248505724E-01  0.45931877947E-01  0.11107068023E-01  0.51028134058E-01  0.51100000000E-03 0. -1.
         11    1    4    4    0    0 -0.19908873374E-01  0.63455043527E-01  0.39851567138E-01  0.77532666099E-01  0.51100000000E-03 0.  1.
</event>
<event>
 8    1  0.1132492E+005  0.1043930E+01  0.7957747E-01            NaN
         13   -1    0    0    0    0  0.00000000000E+00  0.00000000000E+00  0.74505805969E-08  0.10566000000E+00  0.10566000000E+00 0. -1.
     999900   -1    0    0    0    0 -0.00000000000E+00 -0.00000000000E+00 -0.74505805969E-08  0.93827000000E+00  0.93827000000E+00 0. -1.
     999902    2    1    2    0    0  0.17180174135E-01 -0.61182328080E-02  0.13841963001E-01  0.10210347801E+01  0.10207780518E+01 0.  0.
     999903    2    3    3    0    0 -0.94396623156E-01  0.72229813440E-02  0.87860165799E-01  0.13080668344E+00  0.20690233790E-01 0.  0.
         14    1    1    2    0    0 -0.17180174135E-01  0.61182328080E-02 -0.13841963001E-01  0.22895219932E-01  0.00000000000E+00 0.  1.
     999901    1    3    3    0    0  0.11157679729E+00 -0.13341214152E-01 -0.74018202799E-01  0.89022809663E+00  0.88000000000E+00 0. -1.
        -11    1    4    4    0    0 -0.62129362299E-01  0.14175568492E-01  0.54187495512E-01  0.83651360973E-01  0.51100000000E-03 0.  1.
         11    1    4    4    0    0 -0.32267260857E-01 -0.69525871476E-02  0.33672670287E-01  0.47155322462E-01  0.51100000000E-03 0. -1.
</event>
<event>
 8    1  0.1132492E+005  0.1043930E+01  0.7957747E-01            NaN
         13   -1    0    0    0    0  0.00000000000E+00  0.00000000000E+00  0.74505805969E-08  0.10566000000E+00  0.10566000000E+00 0. -1.
     999900   -1    0    0    0    0 -0.00000000000E+00 -0.00000000000E+00 -0.74505805969E-08  0.93827000000E+00  0.93827000000E+00 0. -1.
     999902    2    1    2    0    0  0.12384155243E-01 -0.12931846497E-01  0.53933048848E-02  0.10252300617E+01  0.10250595064E+01 0.  0.
     999903    2    3    3    0    0 -0.91293718050E-01  0.87778031909E-01 -0.33554740440E-01  0.13258873885E+00  0.20355029425E-01 0.  0.
         14    1    1    2    0    0 -0.12384155243E-01  0.12931846497E-01 -0.53933048848E-02  0.18699938302E-01  0.00000000000E+00 0. -1.
     999901    1    3    3    0    0  0.10367787329E+00 -0.10070987841E+00  0.38948045325E-01  0.89264132285E+00  0.88000000000E+00 0.  1.
        -11    1    4    4    0    0 -0.62291214320E-01  0.57347054409E-01 -0.32009372237E-01  0.90519285585E-01  0.51100000000E-03 0.  1.
         11    1    4    4    0    0 -0.29002503730E-01  0.30430977500E-01 -0.15453682038E-02  0.42069453267E-01  0.51100000000E-03 0. -1.
</event>
<event>
 8    1  0.1132492E+005  0.1043930E+01  0.7957747E-01            NaN
         13   -1    0    0    0    0  0.00000000000E+00  0.00000000000E+00  0.74505805969E-08  0.10566000000E+00  0.10566000000E+00 0.  1.
     999900   -1    0    0    0    0 -0.00000000000E+00 -0.00000000000E+00 -0.74505805969E-08  0.93827000000E+00  0.93827000000E+00 0.  1.
     999902    2    1    2    0    0 -0.10970886951E-01  0.17954146285E-01  0.10605239303E-01  0.10203676820E+01  0.10200955953E+01 0.  0.
     999903    2    3    3    0    0 -0.69117057543E-01  0.10865456699E+00  0.28703835946E-01  0.13361230272E+00  0.21103427857E-01 0.  0.
         14    1    1    2    0    0  0.10970886951E-01 -0.17954146285E-01 -0.10605239303E-01  0.23562318010E-01  0.00000000000E+00 0. -1.
     999901    1    3    3    0    0  0.58146170592E-01 -0.90700420707E-01 -0.18098596643E-01  0.88675537927E+00  0.88000000000E+00 0.  1.
        -11    1    4    4    0    0 -0.26008435054E-01  0.60516368405E-01  0.14737788293E-01  0.67499133800E-01  0.51100000000E-03 0.  1.
         11    1    4    4    0    0 -0.43108622489E-01  0.48138198587E-01  0.13966047653E-01  0.66113168916E-01  0.51100000000E-03 0. -1.
</event>
<event>
 8    1  0.1132492E+005  0.1043930E+01  0.7957747E-01            NaN
         13   -1    0    0    0    0  0.00000000000E+00  0.00000000000E+00  0.74505805969E-08  0.10566000000E+00  0.10566000000E+00 0. -1.
     999900   -1    0    0    0    0 -0.00000000000E+00 -0.00000000000E+00 -0.74505805969E-08  0.93827000000E+00  0.93827000000E+00 0.  1.
     999902    2    1    2    0    0 -0.68044223949E-02  0.96454807738E-02 -0.20473421194E-01  0.10202974707E+01  0.10200237411E+01 0.  0.
     999903    2    3    3    0    0 -0.16586930511E-02  0.12941995163E+00  0.11451273712E-01  0.13159527735E+00  0.20830511524E-01 0.  0.
         14    1    1    2    0    0  0.68044223949E-02 -0.96454807738E-02  0.20473421194E-01  0.23632529252E-01  0.00000000000E+00 0. -1.
     999901    1    3    3    0    0 -0.51457293438E-02 -0.11977447085E+00 -0.31924694906E-01  0.88870219339E+00  0.88000000000E+00 0.  1.
        -11    1    4    4    0    0  0.93444574788E-02  0.55501078470E-01  0.26954124143E-02  0.56349045831E-01  0.51100000000E-03 0. -1.
         11    1    4    4    0    0 -0.11003150530E-01  0.73918873157E-01  0.87558612980E-02  0.75246231523E-01  0.51100000000E-03 0.  1.
</event>
<event>
 8    1  0.1132492E+005  0.1043930E+01  0.7957747E-01            NaN
         13   -1    0    0    0    0  0.00000000000E+00  0.00000000000E+00  0.74505805969E-08  0.10566000000E+00  0.10566000000E+00 0. -1.
     999900   -1    0    0    0    0 -0.00000000000E+00 -0.00000000000E+00 -0.74505805969E-08  0.93827000000E+00  0.93827000000E+00 0.  1.
     999902    2    1    2    0    0  0.94080414951E-02 -0.20419929798E-01  0.54920363157E-03  0.10214403045E+01  0.10211926896E+01 0.  0.
     999903    2    3    3    0    0  0.11910847933E-01  0.83459902690E-01  0.97057044119E-01  0.13008681297E+00  0.19876756284E-01 0.  0.
         14    1    1    2    0    0 -0.94080414951E-02  0.20419929798E-01 -0.54920363157E-03  0.22489695470E-01  0.00000000000E+00 0. -1.
     999901    1    3    3    0    0 -0.25028064379E-02 -0.10387983249E+00 -0.96507840487E-01  0.89135349156E+00  0.88000000000E+00 0.  1.
        -11    1    4    4    0    0 -0.74113985067E-03  0.23092049989E-01  0.39268391915E-01  0.45563799068E-01  0.51100000000E-03 0.  1.
         11    1    4    4    0    0  0.12651987784E-01  0.60367852702E-01  0.57788652204E-01  0.84523013903E-01  0.51100000000E-03 0. -1.
</event>
<event>
 8    1  0.1132492E+005  0.1043930E+01  0.7957747E-01            NaN
         13   -1    0    0    0    0  0.00000000000E+00  0.00000000000E+00  0.74505805969E-08  0.10566000000E+00  0.10566000000E+00 0.  1.
     999900   -1    0    0    0    0 -0.00000000000E+00 -0.00000000000E+00 -0.74505805969E-08  0.93827000000E+00  0.93827000000E+00 0. -1.
     999902    2    1    2    0    0 -0.87137993022E-02  0.73447417282E-02  0.20374113247E-01  0.10205851929E+01  0.10203181640E+01 0.  0.
     999903    2    3    3    0    0  0.90141157334E-01  0.47670252019E-01 -0.76460031618E-01  0.12885916945E+00  0.18991259656E-01 0.  0.
         14    1    1    2    0    0  0.87137993022E-02 -0.73447417282E-02 -0.20374113247E-01  0.23344807130E-01  0.00000000000E+00 0. -1.
     999901    1    3    3    0    0 -0.98854956636E-01 -0.40325510291E-01  0.96834144865E-01  0.89172602342E+00  0.88000000000E+00 0.  1.
        -11    1    4    4    0    0  0.70655028604E-01  0.45420579941E-01 -0.64201661083E-01  0.10572263975E+00  0.51100000000E-03 0.  1.
         11    1    4    4    0    0  0.19486128731E-01  0.22496720787E-02 -0.12258370536E-01  0.23136529700E-01  0.51100000000E-03 0. -1.
</event>
<event>
 8    1  0.1132492E+005  0.1043930E+01  0.7957747E-01            NaN
         13   -1    0    0    0    0  0.00000000000E+00  0.00000000000E+00  0.74505805969E-08  0.10566000000E+00  0.10566000000E+00 0. -1.
     999900   -1    0    0    0    0 -0.00000000000E+00 -0.00000000000E+00 -0.74505805969E-08  0.93827000000E+00  0.93827000000E+00 0.  1.
     999902    2    1    2    0    0 -0.16959174858E-01  0.39023405472E-02 -0.12169777359E-01  0.10226945260E+01  0.10224740330E+01 0.  0.
     999903    2    3    3    0    0  0.32913947177E-01 -0.76642613727E-01  0.98706219841E-01  0.13069211308E+00  0.19495959281E-01 0.  0.
         14    1    1    2    0    0  0.16959174858E-01 -0.39023405472E-02  0.12169777359E-01  0.21235473967E-01  0.00000000000E+00 0.  1.
     999901    1    3    3    0    0 -0.49873122035E-01  0.80544954274E-01 -0.11087599720E+00  0.89200241295E+00  0.88000000000E+00 0.  1.
        -11    1    4    4    0    0  0.51786459815E-02 -0.34688864066E-01  0.45872896097E-01  0.57747029202E-01  0.51100000000E-03 0. -1.
         11    1    4    4    0    0  0.27735301195E-01 -0.41953749660E-01  0.52833323745E-01  0.72945083877E-01  0.51100000000E-03 0.  1.
</event>
<event>
 8    1  0.1132492E+005  0.1043930E+01  0.7957747E-01            NaN
         13   -1    0    0    0    0  0.00000000000E+00  0.00000000000E+00  0.74505805969E-08  0.10566000000E+00  0.10566000000E+00 0.  1.
     999900   -1    0    0    0    0 -0.00000000000E+00 -0.00000000000E+00 -0.74505805969E-08  0.93827000000E+00  0.93827000000E+00 0.  1.
     999902    2    1    2    0    0  0.87817328204E-02  0.15566463283E-01 -0.16200907956E-01  0.10198073337E+01  0.10195219933E+01 0.  0.
     999903    2    3    3    0    0 -0.85717301063E-02  0.80701683604E-01 -0.10331618620E+00  0.13294048276E+00  0.20315051874E-01 0.  0.
         14    1    1    2    0    0 -0.87817328204E-02 -0.15566463283E-01  0.16200907956E-01  0.24122666292E-01  0.00000000000E+00 0.  1.
     999901    1    3    3    0    0  0.17353462927E-01 -0.65135220321E-01  0.87115278244E-01  0.88686685095E+00  0.88000000000E+00 0.  1.
        -11    1    4    4    0    0 -0.31279614313E-02  0.55521302133E-01 -0.55183200930E-01  0.78344405793E-01  0.51100000000E-03 0.  1.
         11    1    4    4    0    0 -0.54437686750E-02  0.25180381472E-01 -0.48132985270E-01  0.54596076969E-01  0.51100000000E-03 0. -1.
</event>
<event>
 8    1  0.1132492E+005  0.1043930E+01  0.7957747E-01            NaN
         13   -1    0    0    0    0  0.00000000000E+00  0.00000000000E+00  0.74505805969E-08  0.10566000000E+00  0.10566000000E+00 0.  1.
     999900   -1    0    0    0    0 -0.00000000000E+00 -0.00000000000E+00 -0.74505805969E-08  0.93827000000E+00  0.93827000000E+00 0.  1.
     999902    2    1    2    0    0  0.65113083193E-02 -0.22520544796E-01 -0.53083671340E-02  0.10198935519E+01  0.10196102718E+01 0.  0.
     999903    2    3    3    0    0 -0.11578188284E+00 -0.54333892540E-01  0.19520622682E-01  0.13052063103E+00  0.17232647578E-01 0.  0.
         14    1    1    2    0    0 -0.65113083193E-02  0.22520544796E-01  0.53083671340E-02  0.24036448064E-01  0.00000000000E+00 0. -1.
     999901    1    3    3    0    0  0.12229319116E+00  0.31813347744E-01 -0.24828989816E-01  0.88937292090E+00  0.88000000000E+00 0. -1.
        -11    1    4    4    0    0 -0.48531892073E-01 -0.24516388190E-01  0.16774241952E-01  0.56903727049E-01  0.51100000000E-03 0. -1.
         11    1    4    4    0    0 -0.67249990769E-01 -0.29817504350E-01  0.27463807300E-02  0.73616903984E-01  0.51100000000E-03 0.  1.
</event>
<event>
 8    1  0.1132492E+005  0.1043930E+01  0.7957747E-01            NaN
         13   -1    0    0    0    0  0.00000000000E+00  0.00000000000E+00  0.74505805969E-08  0.10566000000E+00  0.10566000000E+00 0. -1.
     999900   -1    0    0    0    0 -0.00000000000E+00 -0.00000000000E+00 -0.74505805969E-08  0.93827000000E+00  0.93827000000E+00 0. -1.
     999902    2    1    2    0    0  0.92727376316E-02 -0.90013636056E-02  0.19325393340E-01  0.10206817950E+01  0.10204169969E+01 0.  0.
     999903    2    3    3    0    0  0.36595760039E-01 -0.81020833480E-01  0.97677060381E-01  0.13384903997E+00  0.21705581428E-01 0.  0.
         14    1    1    2    0    0 -0.92727376316E-02  0.90013636056E-02 -0.19325393340E-01  0.23248205042E-01  0.00000000000E+00 0.  1.
     999901    1    3    3    0    0 -0.27323022408E-01  0.72019469874E-01 -0.78351667041E-01  0.88683275499E+00  0.88000000000E+00 0. -1.
        -11    1    4    4    0    0  0.28198082869E-01 -0.38978542390E-01  0.44460900831E-01  0.65509476170E-01  0.51100000000E-03 0.  1.
         11    1    4    4    0    0  0.83976771707E-02 -0.42042291090E-01  0.53216159550E-01  0.68339563798E-01  0.51100000000E-03 0. -1.
</event>
<event>
 8    1  0.1132492E+005  0.1043930E+01  0.7957747E-01            NaN
         13   -1    0    0    0    0  0.00000000000E+00  0.00000000000E+00  0.74505805969E-08  0.10566000000E+00  0.10566000000E+00 0.  1.
     999900   -1    0    0    0    0 -0.00000000000E+00 -0.00000000000E+00 -0.74505805969E-08  0.93827000000E+00  0.93827000000E+00 0.  1.
     999902    2    1    2    0    0  0.12922497922E-01  0.58994285761E-02  0.19349330637E-01  0.10199260252E+01  0.10196435191E+01 0.  0.
     999903    2    3    3    0    0 -0.55482675132E-01 -0.86668914256E-01 -0.72776535150E-01  0.12766185975E+00  0.20280493808E-01 0.  0.
         14    1    1    2    0    0 -0.12922497922E-01 -0.58994285761E-02 -0.19349330637E-01  0.24003974799E-01  0.00000000000E+00 0. -1.
     999901    1    3    3    0    0  0.68405173054E-01  0.92568342832E-01  0.92125865786E-01  0.89226416545E+00  0.88000000000E+00 0.  1.
        -11    1    4    4    0    0 -0.40409786073E-01 -0.75251312233E-01 -0.54271746192E-01  0.10119977450E+00  0.51100000000E-03 0.  1.
         11    1    4    4    0    0 -0.15072889058E-01 -0.11417602023E-01 -0.18504788958E-01  0.26462085252E-01  0.51100000000E-03 0. -1.
</event>
<event>
 7    1  0.1132492E+005  0.1043930E+01  0.7957747E-01            NaN
         13   -1    0    0    0    0  0.00000000000E+00  0.00000000000E+00  0.74505805969E-08  0.10566000000E+00  0.10566000000E+00 0.  1.
     999900   -1    0    0    0    0 -0.00000000000E+00 -0.00000000000E+00 -0.74505805969E-08  0.93827000000E+00  0.93827000000E+00 0.  1.
     999903    2    1    2    0    0 -0.14594332745E-01 -0.10468048327E+00  0.10874623086E-01  0.10796349676E+00  0.19153617891E-01 0.  0.
         14    1    1    2    0    0 -0.15799956106E-02 -0.28090310476E-01 -0.35773705509E-01  0.45511756005E-01  0.00000000000E+00 0. -1.
     999901    1    1    2    0    0  0.16174328356E-01  0.13277079375E+00  0.24899082423E-01  0.89045474724E+00  0.88000000000E+00 0. -1.
        -11    1    3    3    0    0 -0.46755076944E-02 -0.85944130218E-01  0.65547634651E-02  0.86321955123E-01  0.51100000000E-03 0.  1.
         11    1    3    3    0    0 -0.99188250508E-02 -0.18736353056E-01  0.43198596209E-02  0.21641541635E-01  0.51100000000E-03 0. -1.
</event>
<event>
 8    1  0.1371148E+005  0.1043930E+01  0.7957747E-01            NaN
         13   -1    0    0    0    0  0.00000000000E+00  0.00000000000E+00  0.74505805969E-08  0.10566000000E+00  0.10566000000E+00 0. -1.
     999900   -1    0    0    0    0 -0.00000000000E+00 -0.00000000000E+00 -0.74505805969E-08  0.93827000000E+00  0.93827000000E+00 0. -1.
     999902    2    1    2    0    0 -0.11503714385E-01  0.22166364268E-02  0.21055197910E-01  0.10198349739E+01  0.10195502949E+01 0.  0.
     999903    2    3    3    0    0 -0.20144291598E-01 -0.12248660296E+00  0.36947961411E-01  0.13085908146E+00  0.18713282926E-01 0.  0.
         14    1    1    2    0    0  0.11503714385E-01 -0.22166364268E-02 -0.21055197910E-01  0.24095026058E-01  0.00000000000E+00 0.  1.
     999901    1    3    3    0    0  0.86405772127E-02  0.12470323939E+00 -0.15892763501E-01  0.88897589249E+00  0.88000000000E+00 0. -1.
        -11    1    4    4    0    0 -0.66873352658E-02 -0.42533288716E-01  0.22215673414E-01  0.48452021301E-01  0.51100000000E-03 0. -1.
         11    1    4    4    0    0 -0.13456956332E-01 -0.79953314247E-01  0.14732287997E-01  0.82407060155E-01  0.51100000000E-03 0.  1.
</event>
<event>
 8    1  0.1132492E+005  0.1043930E+01  0.7957747E-01            NaN
         13   -1    0    0    0    0  0.00000000000E+00  0.00000000000E+00  0.74505805969E-08  0.10566000000E+00  0.10566000000E+00 0.  1.
     999900   -1    0    0    0    0 -0.00000000000E+00 -0.00000000000E+00 -0.74505805969E-08  0.93827000000E+00  0.93827000000E+00 0. -1.
     999902    2    1    2    0    0  0.12973716683E-01  0.18522554906E-01 -0.72043577680E-02  0.10201959499E+01  0.10199198356E+01 0.  0.
     999903    2    3    3    0    0 -0.59836789545E-01  0.94103234676E-01  0.65777588389E-01  0.13096022553E+00  0.19698461298E-01 0.  0.
         14    1    1    2    0    0 -0.12973716683E-01 -0.18522554906E-01  0.72043577680E-02  0.23734050132E-01  0.00000000000E+00 0. -1.
     999901    1    3    3    0    0  0.72810506228E-01 -0.75580679770E-01 -0.72981946157E-01  0.88923572434E+00  0.88000000000E+00 0. -1.
        -11    1    4    4    0    0 -0.32680037718E-01  0.64454720483E-01  0.49425940233E-01  0.87553301176E-01  0.51100000000E-03 0. -1.
         11    1    4    4    0    0 -0.27156751828E-01  0.29648514193E-01  0.16351648156E-01  0.43406924356E-01  0.51100000000E-03 0.  1.
</event>
<event>
 8    1  0.1132492E+005  0.1043930E+01  0.7957747E-01            NaN
         13   -1    0    0    0    0  0.00000000000E+00  0.00000000000E+00  0.74505805969E-08  0.10566000000E+00  0.10566000000E+00 0. -1.
     999900   -1    0    0    0    0 -0.00000000000E+00 -0.00000000000E+00 -0.74505805969E-08  0.93827000000E+00  0.93827000000E+00 0. -1.
     999902    2    1    2    0    0  0.14617508794E-01 -0.87405279850E-02 -0.16242335088E-01  0.10203953056E+01  0.10201238639E+01 0.  0.
     999903    2    3    3    0    0  0.11607831311E+00 -0.22625105483E-01  0.54024211594E-01  0.13167461610E+00  0.20821117071E-01 0.  0.
         14    1    1    2    0    0 -0.14617508794E-01  0.87405279850E-02  0.16242335088E-01  0.23534694430E-01  0.00000000000E+00 0.  1.
     999901    1    3    3    0    0 -0.10146080431E+00  0.13884577498E-01 -0.70266546682E-01  0.88872068947E+00  0.88000000000E+00 0. -1.
        -11    1    4    4    0    0  0.29372990834E-01 -0.51837084522E-02  0.40955347854E-02  0.30111093472E-01  0.51100000000E-03 0. -1.
         11    1    4    4    0    0  0.86705322271E-01 -0.17441397031E-01  0.49928676809E-01  0.10156352263E+00  0.51100000000E-03 0.  1.
</event>
<event>
 8    1  0.1132492E+005  0.1043930E+01  0.7957747E-01            NaN
         13   -1    0    0    0    0  0.00000000000E+00  0.00000000000E+00  0.74505805969E-08  0.10566000000E+00  0.10566000000E+00 0. -1.
     999900   -1    0    0    0    0 -0.00000000000E+00 -0.00000000000E+00 -0.74505805969E-08  0.93827000000E+00  0.93827000000E+00 0. -1.
     999902    2    1    2    0    0 -0.19969447558E-01 -0.96655657644E-02  0.16990698563E-01  0.10159856654E+01  0.10156012931E+01 0.  0.
     999903    2    3    3    0    0  0.93424609150E-01 -0.77104379304E-01 -0.24351365741E-01  0.12519086753E+00  0.20162375784E-01 0.  0.
         14    1    1    2    0    0  0.19969447558E-01  0.96655657644E-02 -0.16990698563E-01  0.27944334577E-01  0.00000000000E+00 0.  1.
     999901    1    3    3    0    0 -0.11339405671E+00  0.67438813540E-01  0.41342064304E-01  0.89079479789E+00  0.88000000000E+00 0.  1.
        -11    1    4    4    0    0  0.52846588253E-01 -0.42105791000E-01 -0.34155507463E-02  0.67657864536E-01  0.51100000000E-03 0. -1.
         11    1    4    4    0    0  0.40578020897E-01 -0.34998588304E-01 -0.20935814995E-01  0.57533002996E-01  0.51100000000E-03 0.  1.
</event>
<event>
 8    1  0.1132492E+005  0.1043930E+01  0.7957747E-01            NaN
         13   -1    0    0    0    0  0.00000000000E+00  0.00000000000E+00  0.74505805969E-08  0.10566000000E+00  0.10566000000E+00 0.  1.
     999900   -1    0    0    0    0 -0.00000000000E+00 -0.00000000000E+00 -0.74505805969E-08  0.93827000000E+00  0.93827000000E+00 0. -1.
     999902    2    1    2    0    0 -0.17648951625E-01  0.13840468014E-01  0.57219084586E-02  0.10207829854E+01  0.10205205138E+01 0.  0.
     999903    2    3    3    0    0 -0.82510012104E-01  0.63522701716E-01 -0.79945634434E-01  0.13285606869E+00  0.20405753920E-01 0.  0.
         14    1    1    2    0    0  0.17648951625E-01 -0.13840468014E-01 -0.57219084586E-02  0.23147014596E-01  0.00000000000E+00 0. -1.
     999901    1    3    3    0    0  0.64861060479E-01 -0.49682233702E-01  0.85667542893E-01  0.88792691671E+00  0.88000000000E+00 0.  1.
        -11    1    4    4    0    0 -0.38301200770E-01  0.35306522957E-01 -0.51218826675E-01  0.73055881835E-01  0.51100000000E-03 0. -1.
         11    1    4    4    0    0 -0.44208811334E-01  0.28216178759E-01 -0.28726807759E-01  0.59800186859E-01  0.51100000000E-03 0.  1.
</event>
<event>
 8    1  0.1132492E+005  0.1043930E+01  0.7957747E-01            NaN
         13   -1    0    0    0    0  0.00000000000E+00  0.00000000000E+00  0.74505805969E-08  0.10566000000E+00  0.10566000000E+00 0. -1.
     999900   -1    0    0    0    0 -0.00000000000E+00 -0.00000000000E+00 -0.74505805969E-08  0.93827000000E+00  0.93827000000E+00 0.  1.
     999902    2    1    2    0    0  0.26829219033E-01  0.15669174057E-01  0.69003582513E-02  0.10121032038E+01  0.10116026642E+01 0.  0.
     999903    2    3    3    0    0 -0.75608138398E-01 -0.47176702902E-01  0.79995196210E-01  0.12093213621E+00  0.16826118491E-01 0.  0.
         14    1    1    2    0    0 -0.26829219033E-01 -0.15669174057E-01 -0.69003582513E-02  0.31826796156E-01  0.00000000000E+00 0. -1.
     999901    1    3    3    0    0  0.10243735743E+00  0.62845876959E-01 -0.73094837958E-01  0.89117106763E+00  0.88000000000E+00 0.  1.
        -11    1    4    4    0    0 -0.47654121331E-01 -0.38849256745E-01  0.55832615248E-01  0.83052526006E-01  0.51100000000E-03 0.  1.
         11    1    4    4    0    0 -0.27954017067E-01 -0.83274461575E-02  0.24162580961E-01  0.37879610206E-01  0.51100000000E-03 0. -1.
</event>
<event>
 7    1  0.1414843E+005  0.1043930E+01  0.7957747E-01            NaN
         13   -1    0    0    0    0  0.00000000000E+00  0.00000000000E+00  0.74505805969E-08  0.10566000000E+00  0.10566000000E+00 0.  1.
     999900   -1    0    0    0    0 -0.00000000000E+00 -0.00000000000E+00 -0.74505805969E-08  0.93827000000E+00  0.93827000000E+00 0.  1.
     999903    2    1    2    0    0  0.68916900708E-01  0.17675123145E-01  0.41761888758E-01  0.85127124238E-01  0.20991015863E-01 0.  0.
         14    1    1    2    0    0  0.16030747164E-01  0.67528792498E-01  0.31951955125E-02  0.69479003629E-01  0.00000000000E+00 0. -1.
     999901    1    1    2    0    0 -0.84947647873E-01 -0.85203915643E-01 -0.44957084270E-01  0.88932387213E+00  0.88000000000E+00 0.  1.
        -11    1    3    3    0    0  0.41804572521E-01  0.17067570466E-01  0.35107139977E-01  0.57198746871E-01  0.51100000000E-03 0.  1.
         11    1    3    3    0    0  0.27112328187E-01  0.60755267913E-03  0.66547487805E-02  0.27928377366E-01  0.51100000000E-03 0. -1.
</event>
<event>
 8    1  0.1132492E+005  0.1043930E+01  0.7957747E-01            NaN
         13   -1    0    0    0    0  0.00000000000E+00  0.00000000000E+00  0.74505805969E-08  0.10566000000E+00  0.10566000000E+00 0. -1.
     999900   -1    0    0    0    0 -0.00000000000E+00 -0.00000000000E+00 -0.74505805969E-08  0.93827000000E+00  0.93827000000E+00 0.  1.
     999902    2    1    2    0    0 -0.19655970911E-01 -0.11485253261E-01 -0.83244187627E-02  0.10196902768E+01  0.10194021269E+01 0.  0.
     999903    2    3    3    0    0  0.90235543487E-01  0.81037808869E-01 -0.33992139316E-01  0.12767262344E+00  0.20862729104E-01 0.  0.
         14    1    1    2    0    0  0.19655970911E-01  0.11485253261E-01  0.83244187627E-02  0.24239723238E-01  0.00000000000E+00 0.  1.
     999901    1    3    3    0    0 -0.10989151440E+00 -0.92523062130E-01  0.25667720553E-01  0.89201765332E+00  0.88000000000E+00 0.  1.
        -11    1    4    4    0    0  0.25826381506E-01  0.13714344656E-01 -0.26369033564E-02  0.29364938470E-01  0.51100000000E-03 0.  1.
         11    1    4    4    0    0  0.64409161981E-01  0.67323464213E-01 -0.31355235959E-01  0.98307684968E-01  0.51100000000E-03 0. -1.
</event>
<event>
 8    1  0.1132492E+005  0.1043930E+01  0.7957747E-01            NaN
         13   -1    0    0    0    0  0.00000000000E+00  0.00000000000E+00  0.74505805969E-08  0.10566000000E+00  0.10566000000E+00 0.  1.
     999900   -1    0    0    0    0 -0.00000000000E+00 -0.00000000000E+00 -0.74505805969E-08  0.93827000000E+00  0.93827000000E+00 0. -1.
     999902    2    1    2    0    0 -0.12418870765E-01  0.10893313824E-01 -0.18173878897E-01  0.10193702257E+01  0.10190743224E+01 0.  0.
     999903    2    3    3    0    0  0.93677440916E-01  0.51413072962E-01  0.67441641872E-01  0.12795096657E+00  0.20107406114E-01 0.  0.
         14    1    1    2    0    0  0.12418870765E-01 -0.10893313824E-01  0.18173878897E-01  0.24559774252E-01  0.00000000000E+00 0.  1.
     999901    1    3    3    0    0 -0.10609631168E+00 -0.40519759139E-01 -0.85615520768E-01  0.89141925918E+00  0.88000000000E+00 0. -1.
        -11    1    4    4    0    0  0.12926828625E-01  0.24243736117E-02  0.14859364036E-01  0.19850498892E-01  0.51100000000E-03 0. -1.
         11    1    4    4    0    0  0.80750612291E-01  0.48988699351E-01  0.52582277835E-01  0.10810046768E+00  0.51100000000E-03 0.  1.
</event>
<event>
 8    1  0.1132492E+005  0.1043930E+01  0.7957747E-01            NaN
         13   -1    0    0    0    0  0.00000000000E+00  0.00000000000E+00  0.74505805969E-08  0.10566000000E+00  0.10566000000E+00 0. -1.
     999900   -1    0    0    0    0 -0.00000000000E+00 -0.00000000000E+00 -0.74505805969E-08  0.93827000000E+00  0.93827000000E+00 0.  1.
     999902    2    1    2    0    0 -0.29599371430E-02 -0.11995391580E-01 -0.19306448978E-01  0.10210086209E+01  0.10207512990E+01 0.  0.
     999903    2    3    3    0    0  0.93455182219E-01  0.33891100359E-01 -0.84622697256E-01  0.13215111958E+00  0.20504627499E-01 0.  0.
         14    1    1    2    0    0  0.29599371430E-02  0.11995391580E-01  0.19306448978E-01  0.22921379086E-01  0.00000000000E+00 0. -1.
     999901    1    3    3    0    0 -0.96415119362E-01 -0.45886491939E-01  0.65316248278E-01  0.88885750133E+00  0.88000000000E+00 0. -1.
        -11    1    4    4    0    0  0.68719085581E-01  0.25255228286E-01 -0.49700980116E-01  0.88490608679E-01  0.51100000000E-03 0.  1.
         11    1    4    4    0    0  0.24736096638E-01  0.86358720728E-02 -0.34921717140E-01  0.43660510904E-01  0.51100000000E-03 0. -1.
</event>
<event>
 8    1  0.1132492E+005  0.1043930E+01  0.7957747E-01            NaN
         13   -1    0    0    0    0  0.00000000000E+00  0.00000000000E+00  0.74505805969E-08  0.10566000000E+00  0.10566000000E+00 0.  1.
     999900   -1    0    0    0    0 -0.00000000000E+00 -0.00000000000E+00 -0.74505805969E-08  0.93827000000E+00  0.93827000000E+00 0.  1.
     999902    2    1    2    0    0  0.94302832232E-02  0.20287979161E-01 -0.69266167635E-02  0.10205097020E+01  0.10202409232E+01 0.  0.
     999903    2    3    3    0    0 -0.10959419021E+00 -0.63498821652E-01 -0.72825258507E-02  0.12855276358E+00  0.20731400420E-01 0.  0.
         14    1    1    2    0    0 -0.94302832232E-02 -0.20287979161E-01  0.69266167635E-02  0.23420298031E-01  0.00000000000E+00 0.  1.
     999901    1    3    3    0    0  0.11902447343E+00  0.83786800813E-01  0.35590908718E-03  0.89195693839E+00  0.88000000000E+00 0. -1.
        -11    1    4    4    0    0 -0.33029747117E-01 -0.17321660506E-01  0.71602124309E-02  0.37980704053E-01  0.51100000000E-03 0. -1.
         11    1    4    4    0    0 -0.76564443089E-01 -0.46177161146E-01 -0.14442738282E-01  0.90572059528E-01  0.51100000000E-03 0.  1.
</event>
<event>
 8    1  0.1132492E+005  0.1043930E+01  0.7957747E-01            NaN
         13   -1    0    0    0    0  0.00000000000E+00  0.00000000000E+00  0.74505805969E-08  0.10566000000E+00  0.10566000000E+00 0.  1.
     999900   -1    0    0    0    0 -0.00000000000E+00 -0.00000000000E+00 -0.74505805969E-08  0.93827000000E+00  0.93827000000E+00 0. -1.
     999902    2    1    2    0    0 -0.30986642856E-02  0.13236501091E-01 -0.20712894020E-01  0.10191543938E+01  0.10188532023E+01 0.  0.
     999903    2    3    3    0    0 -0.21561746006E-01 -0.16477640584E-01  0.12239389402E+00  0.12690814511E+00  0.19722841405E-01 0.  0.
         14    1    1    2    0    0  0.30986642856E-02 -0.13236501091E-01  0.20712894020E-01  0.24775606152E-01  0.00000000000E+00 0.  1.
     999901    1    3    3    0    0  0.18463081721E-01  0.29714141675E-01 -0.14310678804E+00  0.89224624874E+00  0.88000000000E+00 0. -1.
        -11    1    4    4    0    0 -0.18453665044E-01 -0.31078253950E-02  0.54122967731E-01  0.57269128589E-01  0.51100000000E-03 0. -1.
         11    1    4    4    0    0 -0.31080809622E-02 -0.13369815189E-01  0.68270926286E-01  0.69639016523E-01  0.51100000000E-03 0.  1.
</event>
<event>
 8    1  0.1132492E+005  0.1043930E+01  0.7957747E-01            NaN
         13   -1    0    0    0    0  0.00000000000E+00  0.00000000000E+00  0.74505805969E-08  0.10566000000E+00  0.10566000000E+00 0. -1.
     999900   -1    0    0    0    0 -0.00000000000E+00 -0.00000000000E+00 -0.74505805969E-08  0.93827000000E+00  0.93827000000E+00 0. -1.
     999902    2    1    2    0    0 -0.33259105860E-02  0.12522595035E-01 -0.20640835307E-01  0.10195595025E+01  0.10192681973E+01 0.  0.
     999903    2    3    3    0    0 -0.82327546623E-02 -0.12401223350E+00 -0.27827005699E-01  0.12898806931E+00  0.20414883585E-01 0.  0.
         14    1    1    2    0    0  0.33259105860E-02 -0.12522595035E-01  0.20640835307E-01  0.24370497528E-01  0.00000000000E+00 0. -1.
     999901    1    3    3    0    0  0.49068440763E-02  0.13653482853E+00  0.71861703924E-02  0.89057143316E+00  0.88000000000E+00 0. -1.
        -11    1    4    4    0    0 -0.12073390425E-01 -0.10171622858E+00 -0.28584805840E-01  0.10634524042E+00  0.51100000000E-03 0.  1.
         11    1    4    4    0    0  0.38406357625E-02 -0.22296004912E-01  0.75780014142E-03  0.22642828890E-01  0.51100000000E-03 0. -1.
</event>
<event>
 8    1  0.1132492E+005  0.1043930E+01  0.7957747E-01            NaN
         13   -1    0    0    0    0  0.00000000000E+00  0.00000000000E+00  0.74505805969E-08  0.10566000000E+00  0.10566000000E+00 0. -1.
     999900   -1    0    0    0    0 -0.00000000000E+00 -0.00000000000E+00 -0.74505805969E-08  0.93827000000E+00  0.93827000000E+00 0. -1.
     999902    2    1    2    0    0  0.16692200543E-01  0.96420158140E-02  0.13956892805E-01  0.10201309898E+01  0.10198533441E+01 0.  0.
     999903    2    3    3    0    0 -0.11600977021E+00 -0.45853064297E-01  0.21572613958E-01  0.12842054571E+00  0.21579819236E-01 0.  0.
         14    1    1    2    0    0 -0.16692200543E-01 -0.96420158140E-02 -0.13956892805E-01  0.23799010163E-01  0.00000000000E+00 0.  1.
     999901    1    3    3    0    0  0.13270197075E+00  0.55495080112E-01 -0.76157211522E-02  0.89171044413E+00  0.88000000000E+00 0. -1.
        -11    1    4    4    0    0 -0.51369326511E-01 -0.90124213854E-02  0.10392937382E-01  0.53181817512E-01  0.51100000000E-03 0. -1.
         11    1    4    4    0    0 -0.64640443697E-01 -0.36840642912E-01  0.11179676576E-01  0.75238728198E-01  0.51100000000E-03 0.  1.
</event>
<event>
 8    1  0.1132492E+005  0.1043930E+01  0.7957747E-01            NaN
         13   -1    0    0    0    0  0.00000000000E+00  0.00000000000E+00  0.74505805969E-08  0.10566000000E+00  0.10566000000E+00 0. -1.
     999900   -1    0    0    0    0 -0.00000000000E+00 -0.00000000000E+00 -0.74505805969E-08  0.93827000000E+00  0.93827000000E+00 0.  1.
     999902    2    1    2    0    0  0.47393084437E-02 -0.21353202724E-01  0.95325907265E-02  0.10200701887E+01  0.10197911057E+01 0.  0.
     999903    2    3    3    0    0 -0.76451568145E-01  0.50328337314E-01  0.89775347062E-01  0.12980668746E+00  0.20307125877E-01 0.  0.
         14    1    1    2    0    0 -0.47393084437E-02  0.21353202724E-01 -0.95325907265E-02  0.23859811338E-01  0.00000000000E+00 0.  1.
     999901    1    3    3    0    0  0.81190876589E-01 -0.71681540038E-01 -0.80242756335E-01  0.89026350120E+00  0.88000000000E+00 0.  1.
        -11    1    4    4    0    0 -0.27912371527E-01  0.27273272643E-01  0.28632949975E-01  0.48404946340E-01  0.51100000000E-03 0. -1.
         11    1    4    4    0    0 -0.48539196618E-01  0.23055064671E-01  0.61142397087E-01  0.81401741123E-01  0.51100000000E-03 0.  1.
</event>
<event>
 8    1  0.1132492E+005  0.1043930E+01  0.7957747E-01            NaN
         13   -1    0    0    0    0  0.00000000000E+00  0.00000000000E+00  0.74505805969E-08  0.10566000000E+00  0.10566000000E+00 0. -1.
     999900   -1    0    0    0    0 -0.00000000000E+00 -0.00000000000E+00 -0.74505805969E-08  0.93827000000E+00  0.93827000000E+00 0. -1.
     999902    2    1    2    0    0 -0.15638365423E-01 -0.16445700551E-01  0.88110522120E-02  0.10195855103E+01  0.10192948340E+01 0.  0.
     999903    2    3    3    0    0  0.10379257837E+00  0.76734582301E-02 -0.70982884164E-01  0.12761434680E+00  0.20373276084E-01 0.  0.
         14    1    1    2    0    0  0.15638365423E-01  0.16445700551E-01 -0.88110522120E-02  0.24344489742E-01  0.00000000000E+00 0.  1.
     999901    1    3    3    0    0 -0.11943094380E+00 -0.24119158781E-01  0.79793936376E-01  0.89197116346E+00  0.88000000000E+00 0. -1.
        -11    1    4    4    0    0  0.50683607915E-01  0.60789326661E-02 -0.46721516960E-01  0.69202187839E-01  0.51100000000E-03 0. -1.
         11    1    4    4    0    0  0.53108970459E-01  0.15945255640E-02 -0.24261367204E-01  0.58412158962E-01  0.51100000000E-03 0.  1.
</event>
<event>
 8    1  0.1132492E+005  0.1043930E+01  0.7957747E-01            NaN
         13   -1    0    0    0    0  0.00000000000E+00  0.00000000000E+00  0.74505805969E-08  0.10566000000E+00  0.10566000000E+00 0.  1.
     999900   -1    0    0    0    0 -0.00000000000E+00 -0.00000000000E+00 -0.74505805969E-08  0.93827000000E+00  0.93827000000E+00 0.  1.
     999902    2    1    2    0    0  0.33352407099E-02 -0.23571067123E-01 -0.18925280748E-02  0.10200490306E+01  0.10197694466E+01 0.  0.
     999903    2    3    3    0    0 -0.97331443923E-01  0.51512668372E-01 -0.62157188744E-01  0.12909270282E+00  0.25970075645E-01 0.  0.
         14    1    1    2    0    0 -0.33352407099E-02  0.23571067123E-01  0.18925280748E-02  0.23880969378E-01  0.00000000000E+00 0.  1.
     999901    1    3    3    0    0  0.10066668463E+00 -0.75083735495E-01  0.60264660669E-01  0.89095632781E+00  0.88000000000E+00 0. -1.
        -11    1    4    4    0    0 -0.57035355184E-01  0.18601533330E-01 -0.42275507089E-01  0.73392972442E-01  0.51100000000E-03 0. -1.
         11    1    4    4    0    0 -0.40296088739E-01  0.32911135042E-01 -0.19881681656E-01  0.55699730375E-01  0.51100000000E-03 0.  1.
</event>
<event>
 8    1  0.1132492E+005  0.1043930E+01  0.7957747E-01            NaN
         13   -1    0    0    0    0  0.00000000000E+00  0.00000000000E+00  0.74505805969E-08  0.10566000000E+00  0.10566000000E+00 0.  1.
     999900   -1    0    0    0    0 -0.00000000000E+00 -0.00000000000E+00 -0.74505805969E-08  0.93827000000E+00  0.93827000000E+00 0. -1.
     999902    2    1    2    0    0 -0.63875776404E-03  0.22259641177E-01 -0.60044520110E-02  0.10208658919E+01  0.10206053185E+01 0.  0.
     999903    2    3    3    0    0 -0.40294537000E-01  0.85737638339E-01 -0.91809742099E-01  0.13353022560E+00  0.20656719581E-01 0.  0.
         14    1    1    2    0    0  0.63875776404E-03 -0.22259641177E-01  0.60044520110E-02  0.23064108064E-01  0.00000000000E+00 0.  1.
     999901    1    3    3    0    0  0.39655779236E-01 -0.63477997162E-01  0.85805290088E-01  0.88733566634E+00  0.88000000000E+00 0.  1.
        -11    1    4    4    0    0 -0.23630840818E-01  0.26926517683E-01 -0.34420592618E-01  0.49683924054E-01  0.51100000000E-03 0.  1.
         11    1    4    4    0    0 -0.16663696182E-01  0.58811120656E-01 -0.57389149481E-01  0.83846301543E-01  0.51100000000E-03 0. -1.
</event>
<event>
 8    1  0.1132492E+005  0.1043930E+01  0.7957747E-01            NaN
         13   -1    0    0    0    0  0.00000000000E+00  0.00000000000E+00  0.74505805969E-08  0.10566000000E+00  0.10566000000E+00 0. -1.
     999900   -1    0    0    0    0 -0.00000000000E+00 -0.00000000000E+00 -0.74505805969E-08  0.93827000000E+00  0.93827000000E+00 0.  1.
     999902    2    1    2    0    0 -0.17850184008E-02 -0.66582561220E-02 -0.23206621101E-01  0.10197212014E+01  0.10194337952E+01 0.  0.
     999903    2    3    3    0    0  0.75888629560E-01  0.23677194502E-01 -0.10370209080E+00  0.13212165445E+00  0.19552859213E-01 0.  0.
         14    1    1    2    0    0  0.17850184008E-02  0.66582561220E-02  0.23206621101E-01  0.24208798570E-01  0.00000000000E+00 0. -1.
     999901    1    3    3    0    0 -0.77673647960E-01 -0.30335450624E-01  0.80495469697E-01  0.88759954698E+00  0.88000000000E+00 0. -1.
        -11    1    4    4    0    0  0.31804489693E-01  0.25796995186E-02 -0.30797617737E-01  0.44350138596E-01  0.51100000000E-03 0. -1.
         11    1    4    4    0    0  0.44084139867E-01  0.21097494983E-01 -0.72904473061E-01  0.87771515856E-01  0.51100000000E-03 0.  1.
</event>
<event>
 8    1  0.1132492E+005  0.1043930E+01  0.7957747E-01            NaN
         13   -1    0    0    0    0  0.00000000000E+00  0.00000000000E+00  0.74505805969E-08  0.10566000000E+00  0.10566000000E+00 0.  1.
     999900   -1    0    0    0    0 -0.00000000000E+00 -0.00000000000E+00 -0.74505805969E-08  0.93827000000E+00  0.93827000000E+00 0. -1.
     999902    2    1    2    0    0  0.17882777129E-01 -0.15133072341E-01 -0.25856239525E-02  0.10203611849E+01  0.10200889464E+01 0.  0.
     999903    2    3    3    0    0 -0.49859148232E-01  0.11468575438E+00  0.17357270734E-01  0.12803858889E+00  0.21303719801E-01 0.  0.
         14    1    1    2    0    0 -0.17882777129E-01  0.15133072341E-01  0.25856239525E-02  0.23568815149E-01  0.00000000000E+00 0.  1.
     999901    1    3    3    0    0  0.67741925361E-01 -0.12981882672E+00 -0.19942894687E-01  0.89232259597E+00  0.88000000000E+00 0. -1.
        -11    1    4    4    0    0 -0.48619991411E-01  0.92792532450E-01  0.11883334378E-01  0.10543164800E+00  0.51100000000E-03 0.  1.
         11    1    4    4    0    0 -0.12391568203E-02  0.21893221926E-01  0.54739363560E-02  0.22606940884E-01  0.51100000000E-03 0. -1.
</event>
<event>
 8    1  0.1401350E+005  0.1043930E+01  0.7957747E-01            NaN
         13   -1    0    0    0    0  0.00000000000E+00  0.00000000000E+00  0.74505805969E-08  0.10566000000E+00  0.10566000000E+00 0.  1.
     999900   -1    0    0    0    0 -0.00000000000E+00 -0.00000000000E+00 -0.74505805969E-08  0.93827000000E+00  0.93827000000E+00 0.  1.
     999902    2    1    2    0    0 -0.55977392768E-02  0.14108953842E-01  0.17916241353E-01  0.10204483270E+01  0.10201781212E+01 0.  0.
     999903    2    3    3    0    0  0.95517381401E-01  0.28372458922E-02  0.90019951531E-01  0.13165686435E+00  0.99155505223E-02 0.  0.
         14    1    1    2    0    0  0.55977392768E-02 -0.14108953842E-01 -0.17916241353E-01  0.23481673019E-01  0.00000000000E+00 0. -1.
     999901    1    3    3    0    0 -0.10111512068E+00  0.11271707950E-01 -0.72103710178E-01  0.88879146263E+00  0.88000000000E+00 0.  1.
        -11    1    4    4    0    0  0.48840204140E-01 -0.34793247733E-02  0.45665730945E-01  0.66955891041E-01  0.51100000000E-03 0. -1.
         11    1    4    4    0    0  0.46677177262E-01  0.63165706655E-02  0.44354220586E-01  0.64700973307E-01  0.51100000000E-03 0.  1.
</event>
<event>
 8    1  0.1132492E+005  0.1043930E+01  0.7957747E-01            NaN
         13   -1    0    0    0    0  0.00000000000E+00  0.00000000000E+00  0.74505805969E-08  0.10566000000E+00  0.10566000000E+00 0. -1.
     999900   -1    0    0    0    0 -0.00000000000E+00 -0.00000000000E+00 -0.74505805969E-08  0.93827000000E+00  0.93827000000E+00 0. -1.
     999902    2    1    2    0    0 -0.17874785279E-01  0.14529861341E-01  0.73896107770E-02  0.10197384484E+01  0.10194514565E+01 0.  0.
     999903    2    3    3    0    0  0.45773196164E-01 -0.52215151788E-01 -0.10515434126E+00  0.12778996144E+00  0.21242203183E-01 0.  0.
         14    1    1    2    0    0  0.17874785279E-01 -0.14529861341E-01 -0.73896107770E-02  0.24191551558E-01  0.00000000000E+00 0.  1.
     999901    1    3    3    0    0 -0.63647981443E-01  0.66745013129E-01  0.11254395204E+00  0.89194848700E+00  0.88000000000E+00 0.  1.
        -11    1    4    4    0    0  0.28235050478E-01 -0.27390932344E-01 -0.41132839859E-01  0.56917948716E-01  0.51100000000E-03 0.  1.
         11    1    4    4    0    0  0.17538145686E-01 -0.24824219444E-01 -0.64021501402E-01  0.70872012726E-01  0.51100000000E-03 0. -1.
</event>
<event>
 8    1  0.1132492E+005  0.1043930E+01  0.7957747E-01            NaN
         13   -1    0    0    0    0  0.00000000000E+00  0.00000000000E+00  0.74505805969E-08  0.10566000000E+00  0.10566000000E+00 0. -1.
     999900   -1    0    0    0    0 -0.00000000000E+00 -0.00000000000E+00 -0.74505805969E-08  0.93827000000E+00  0.93827000000E+00 0. -1.
     999902    2    1    2    0    0 -0.19423627509E-01 -0.12006094540E-01  0.75375732679E-02  0.10198834073E+01  0.10195998851E+01 0.  0.
     999903    2    3    3    0    0 -0.55640932191E-01  0.11368871083E+00 -0.64883407798E-02  0.13010388203E+00  0.29391924856E-01 0.  0.
         14    1    1    2    0    0  0.19423627509E-01  0.12006094540E-01 -0.75375732679E-02  0.24046592742E-01  0.00000000000E+00 0.  1.
     999901    1    3    3    0    0  0.36217304682E-01 -0.12569480537E+00  0.14025914048E-01  0.88977952523E+00  0.88000000000E+00 0.  1.
        -11    1    4    4    0    0 -0.15334310811E-01  0.93679559073E-02 -0.28952330158E-02  0.18208327247E-01  0.51100000000E-03 0. -1.
         11    1    4    4    0    0 -0.40306621380E-01  0.10432075492E+00 -0.35931077640E-02  0.11189555478E+00  0.51100000000E-03 0.  1.
</event>
<event>
 8    1  0.1132492E+005  0.1043930E+01  0.7957747E-01            NaN
         13   -1    0    0    0    0  0.00000000000E+00  0.00000000000E+00  0.74505805969E-08  0.10566000000E+00  0.10566000000E+00 0.  1.
     999900   -1    0    0    0    0 -0.00000000000E+00 -0.00000000000E+00 -0.74505805969E-08  0.93827000000E+00  0.93827000000E+00 0. -1.
     999902    2    1    2    0    0  0.10804222937E-01 -0.13282815460E-01 -0.17273845033E-01  0.10196081962E+01  0.10193180679E+01 0.  0.
     999903    2    3    3    0    0  0.15618823336E-01 -0.11260716387E+00  0.61616644027E-01  0.13050065720E+00  0.17592319731E-01 0.  0.
         14    1    1    2    0    0 -0.10804222937E-01  0.13282815460E-01  0.17273845033E-01  0.24321803840E-01  0.00000000000E+00 0.  1.
     999901    1    3    3    0    0 -0.48146003987E-02  0.99324348406E-01 -0.78890489059E-01  0.88910753896E+00  0.88000000000E+00 0. -1.
        -11    1    4    4    0    0  0.14212977114E-01 -0.49044901951E-01  0.22110878051E-01  0.55646771470E-01  0.51100000000E-03 0.  1.
         11    1    4    4    0    0  0.14058462215E-02 -0.63562261914E-01  0.39505765976E-01  0.74853885735E-01  0.51100000000E-03 0. -1.
</event>
<event>
 8    1  0.1132492E+005  0.1043930E+01  0.7957747E-01            NaN
         13   -1    0    0    0    0  0.00000000000E+00  0.00000000000E+00  0.74505805969E-08  0.10566000000E+00  0.10566000000E+00 0.  1.
     999900   -1    0    0    0    0 -0.00000000000E+00 -0.00000000000E+00 -0.74505805969E-08  0.93827000000E+00  0.93827000000E+00 0. -1.
     999902    2    1    2    0    0 -0.18606006976E-01  0.46547430232E-02  0.13656338327E-01  0.10203854528E+01  0.10201137812E+01 0.  0.
     999903    2    3    3    0    0  0.61341524590E-01  0.11009260801E+00 -0.23327316481E-01  0.12972471943E+00  0.20029332472E-01 0.  0.
         14    1    1    2    0    0  0.18606006976E-01 -0.46547430232E-02 -0.13656338327E-01  0.23544547240E-01  0.00000000000E+00 0.  1.
     999901    1    3    3    0    0 -0.79947531566E-01 -0.10543786499E+00  0.36983654808E-01  0.89066073333E+00  0.88000000000E+00 0. -1.
        -11    1    4    4    0    0  0.74760775387E-02  0.30114049713E-01 -0.83927343658E-02  0.32147267949E-01  0.51100000000E-03 0. -1.
         11    1    4    4    0    0  0.53865447051E-01  0.79978558297E-01 -0.14934582115E-01  0.97577451479E-01  0.51100000000E-03 0.  1.
</event>
<event>
 8    1  0.1132492E+005  0.1043930E+01  0.7957747E-01            NaN
         13   -1    0    0    0    0  0.00000000000E+00  0.00000000000E+00  0.74505805969E-08  0.10566000000E+00  0.10566000000E+00 0.  1.
     999900   -1    0    0    0    0 -0.00000000000E+00 -0.00000000000E+00 -0.74505805969E-08  0.93827000000E+00  0.93827000000E+00 0. -1.
     999902    2    1    2    0    0  0.14743496520E-02 -0.62759086279E-02  0.23144085326E-01  0.10199048169E+01  0.10196218055E+01 0.  0.
     999903    2    3    3    0    0 -0.36927242499E-01  0.78454168672E-01  0.97501145817E-01  0.13188294742E+00  0.19182298207E-01 0.  0.
         14    1    1    2    0    0 -0.14743496520E-02  0.62759086279E-02 -0.23144085326E-01  0.24025183071E-01  0.00000000000E+00 0. -1.
     999901    1    3    3    0    0  0.38401592151E-01 -0.84730077300E-01 -0.74357060490E-01  0.88802186951E+00  0.88000000000E+00 0. -1.
        -11    1    4    4    0    0 -0.37208876800E-01  0.61779127712E-01  0.79373568833E-01  0.10724544598E+00  0.51100000000E-03 0. -1.
         11    1    4    4    0    0  0.28163430132E-03  0.16675040960E-01  0.18127576984E-01  0.24637501440E-01  0.51100000000E-03 0.  1.
</event>
<event>
 8    1  0.1132492E+005  0.1043930E+01  0.7957747E-01            NaN
         13   -1    0    0    0    0  0.00000000000E+00  0.00000000000E+00  0.74505805969E-08  0.10566000000E+00  0.10566000000E+00 0. -1.
     999900   -1    0    0    0    0 -0.00000000000E+00 -0.00000000000E+00 -0.74505805969E-08  0.93827000000E+00  0.93827000000E+00 0.  1.
     999902    2    1    2    0    0  0.19694048206E-01  0.32823766313E-02  0.13899335294E-01  0.10196026275E+01  0.10193123648E+01 0.  0.
     999903    2    3    3    0    0 -0.90936706683E-01  0.66343067956E-01  0.60595508348E-01  0.12921150710E+00  0.18785916157E-01 0.  0.
         14    1    1    2    0    0 -0.19694048206E-01 -0.32823766313E-02 -0.13899335294E-01  0.24327372499E-01  0.00000000000E+00 0.  1.
     999901    1    3    3    0    0  0.11063075489E+00 -0.63060691325E-01 -0.46696173054E-01  0.89039112040E+00  0.88000000000E+00 0. -1.
        -11    1    4    4    0    0 -0.23347683362E-01  0.18330410079E-01  0.25671379603E-01  0.39247918464E-01  0.51100000000E-03 0.  1.
         11    1    4    4    0    0 -0.67589023321E-01  0.48012657877E-01  0.34924128745E-01  0.89963588632E-01  0.51100000000E-03 0. -1.
</event>
<event>
 8    1  0.1132492E+005  0.1043930E+01  0.7957747E-01            NaN
         13   -1    0    0    0    0  0.00000000000E+00  0.00000000000E+00  0.74505805969E-08  0.10566000000E+00  0.10566000000E+00 0. -1.
     999900   -1    0    0    0    0 -0.00000000000E+00 -0.00000000000E+00 -0.74505805969E-08  0.93827000000E+00  0.93827000000E+00 0. -1.
     999902    2    1    2    0    0  0.31909060613E-02  0.80424373449E-02  0.21778688795E-01  0.10204955389E+01  0.10202264312E+01 0.  0.
     999903    2    3    3    0    0  0.12123600534E+00 -0.28375295232E-01 -0.32003544969E-01  0.13024084202E+00  0.20859618125E-01 0.  0.
         14    1    1    2    0    0 -0.31909060613E-02 -0.80424373449E-02 -0.21778688795E-01  0.23434461069E-01  0.00000000000E+00 0.  1.
     999901    1    3    3    0    0 -0.11804509928E+00  0.36417732577E-01  0.53782233764E-01  0.89025469691E+00  0.88000000000E+00 0.  1.
        -11    1    4    4    0    0  0.76300898138E-01 -0.24058312677E-01 -0.12148535813E-01  0.80922663753E-01  0.51100000000E-03 0. -1.
         11    1    4    4    0    0  0.44935107202E-01 -0.43169825555E-02 -0.19855009156E-01  0.49318178264E-01  0.51100000000E-03 0.  1.
</event>
<event>
 8    1  0.1409935E+005  0.1043930E+01  0.7957747E-01            NaN
         13   -1    0    0    0    0  0.00000000000E+00  0.00000000000E+00  0.74505805969E-08  0.10566000000E+00  0.10566000000E+00 0.  1.
     999900   -1    0    0    0    0 -0.00000000000E+00 -0.00000000000E+00 -0.74505805969E-08  0.93827000000E+00  0.93827000000E+00 0. -1.
     999902    2    1    2    0    0 -0.14021158129E-02 -0.57577014971E-03  0.23495229939E-01  0.10203859292E+01  0.10201142687E+01 0.  0.
     999903    2    3    3    0    0  0.66871458616E-01  0.11013021547E+00  0.12533528392E-01  0.13075833570E+00  0.18444421447E-01 0.  0.
         14    1    1    2    0    0  0.14021158129E-02  0.57577014971E-03 -0.23495229939E-01  0.23544070802E-01  0.00000000000E+00 0. -1.
     999901    1    3    3    0    0 -0.68273574429E-01 -0.11070598562E+00  0.10961701547E-01  0.88962759350E+00  0.88000000000E+00 0.  1.
        -11    1    4    4    0    0  0.31921625486E-01  0.63570652933E-01  0.14084219061E-01  0.72517890452E-01  0.51100000000E-03 0.  1.
         11    1    4    4    0    0  0.34949833130E-01  0.46559562541E-01 -0.15506906687E-02  0.58240445245E-01  0.51100000000E-03 0. -1.
</event>
<event>
 8    1  0.1132492E+005  0.1043930E+01  0.7957747E-01            NaN
         13   -1    0    0    0    0  0.00000000000E+00  0.00000000000E+00  0.74505805969E-08  0.10566000000E+00  0.10566000000E+00 0. -1.
     999900   -1    0    0    0    0 -0.00000000000E+00 -0.00000000000E+00 -0.74505805969E-08  0.93827000000E+00  0.93827000000E+00 0. -1.
     999902    2    1    2    0    0 -0.16761629564E-01 -0.87108851448E-02 -0.31761953844E-01  0.10069752512E+01  0.10062969259E+01 0.  0.
     999903    2    3    3    0    0  0.66438369206E-01 -0.36652467571E-01  0.84826505666E-01  0.11495740346E+00  0.16192846104E-01 0.  0.
         14    1    1    2    0    0  0.16761629564E-01  0.87108851448E-02  0.31761953844E-01  0.36954748784E-01  0.00000000000E+00 0. -1.
     999901    1    3    3    0    0 -0.83199998770E-01  0.27941582427E-01 -0.11658845951E+00  0.89201784776E+00  0.88000000000E+00 0. -1.
        -11    1    4    4    0    0  0.63869437165E-01 -0.31964673925E-01  0.73852199907E-01  0.10273973883E+00  0.51100000000E-03 0. -1.
         11    1    4    4    0    0  0.25689320410E-02 -0.46877936463E-02  0.10974305759E-01  0.12217664629E-01  0.51100000000E-03 0.  1.
</event>
<event>
 8    1  0.1132492E+005  0.1043930E+01  0.7957747E-01            NaN
         13   -1    0    0    0    0  0.00000000000E+00  0.00000000000E+00  0.74505805969E-08  0.10566000000E+00  0.10566000000E+00 0.  1.
     999900   -1    0    0    0    0 -0.00000000000E+00 -0.00000000000E+00 -0.74505805969E-08  0.93827000000E+00  0.93827000000E+00 0. -1.
     999902    2    1    2    0    0  0.15694405590E-01  0.62275743724E-02 -0.13795012254E-01  0.10221263441E+01  0.10218937635E+01 0.  0.
     999903    2    3    3    0    0  0.80511045742E-01  0.79342025865E-01  0.66540139726E-01  0.13308154400E+00  0.22492701147E-01 0.  0.
         14    1    1    2    0    0 -0.15694405590E-01 -0.62275743724E-02  0.13795012254E-01  0.21803655943E-01  0.00000000000E+00 0.  1.
     999901    1    3    3    0    0 -0.64816640151E-01 -0.73114451493E-01 -0.80335151980E-01  0.88904480005E+00  0.88000000000E+00 0. -1.
        -11    1    4    4    0    0  0.37335221951E-01  0.49437726178E-01  0.43654220695E-01  0.75788915240E-01  0.51100000000E-03 0.  1.
         11    1    4    4    0    0  0.43175823790E-01  0.29904299687E-01  0.22885919032E-01  0.57292628764E-01  0.51100000000E-03 0. -1.
</event>
<event>
 8    1  0.1132492E+005  0.1043930E+01  0.7957747E-01            NaN
         13   -1    0    0    0    0  0.00000000000E+00  0.00000000000E+00  0.74505805969E-08  0.10566000000E+00  0.10566000000E+00 0.  1.
     999900   -1    0    0    0    0 -0.00000000000E+00 -0.00000000000E+00 -0.74505805969E-08  0.93827000000E+00  0.93827000000E+00 0.  1.
     999902    2    1    2    0    0  0.16516923554E-02  0.10953699164E-01 -0.20890996350E-01  0.10202837457E+01  0.10200096943E+01 0.  0.
     999903    2    3    3    0    0  0.23126337903E-01 -0.19549114315E-02 -0.12935425655E+00  0.13327074049E+00  0.22134077806E-01 0.  0.
         14    1    1    2    0    0 -0.16516923554E-02 -0.10953699164E-01  0.20890996350E-01  0.23646254281E-01  0.00000000000E+00 0.  1.
     999901    1    3    3    0    0 -0.21474645547E-01  0.12908610595E-01  0.10846326020E+00  0.88701300523E+00  0.88000000000E+00 0. -1.
        -11    1    4    4    0    0  0.79651432007E-02 -0.99724747518E-02 -0.32716442069E-01  0.35121509955E-01  0.51100000000E-03 0. -1.
         11    1    4    4    0    0  0.15161194702E-01  0.80175633202E-02 -0.96637814481E-01  0.98149230537E-01  0.51100000000E-03 0.  1.
</event>
<event>
 8    1  0.1132492E+005  0.1043930E+01  0.7957747E-01            NaN
         13   -1    0    0    0    0  0.00000000000E+00  0.00000000000E+00  0.74505805969E-08  0.10566000000E+00  0.10566000000E+00 0.  1.
     999900   -1    0    0    0    0 -0.00000000000E+00 -0.00000000000E+00 -0.74505805969E-08  0.93827000000E+00  0.93827000000E+00 0.  1.
     999902    2    1    2    0    0  0.90307772435E-02 -0.58623292583E-02 -0.20337124340E-01  0.10209186883E+01  0.10206593200E+01 0.  0.
     999903    2    3    3    0    0 -0.10863087155E+00  0.51640205049E-01  0.42232764221E-01  0.12902979607E+00  0.19942539174E-01 0.  0.
         14    1    1    2    0    0 -0.90307772435E-02  0.58623292583E-02  0.20337124340E-01  0.23011311748E-01  0.00000000000E+00 0.  1.
     999901    1    3    3    0    0  0.11766164879E+00 -0.57502534308E-01 -0.62569888560E-01  0.89188889218E+00  0.88000000000E+00 0.  1.
        -11    1    4    4    0    0 -0.10517092219E-01  0.10846848221E-01  0.94599904707E-02  0.17832999909E-01  0.51100000000E-03 0.  1.
         11    1    4    4    0    0 -0.98113779329E-01  0.40793356829E-01  0.32772773750E-01  0.11119679616E+00  0.51100000000E-03 0. -1.
</event>
<event>
 8    1  0.1132492E+005  0.1043930E+01  0.7957747E-01            NaN
         13   -1    0    0    0    0  0.00000000000E+00  0.00000000000E+00  0.74505805969E-08  0.10566000000E+00  0.10566000000E+00 0.  1.
     999900   -1    0    0    0    0 -0.00000000000E+00 -0.00000000000E+00 -0.74505805969E-08  0.93827000000E+00  0.93827000000E+00 0.  1.
     999902    2    1    2    0    0  0.12020323626E-02  0.23039277244E-01  0.68498614691E-02  0.10198639704E+01  0.10195799843E+01 0.  0.
     999903    2    3    3    0    0 -0.50285940067E-01  0.93937807790E-01 -0.74552164933E-01  0.13177393960E+00  0.21292213601E-01 0.  0.
         14    1    1    2    0    0 -0.12020323626E-02 -0.23039277244E-01 -0.68498614691E-02  0.24066029583E-01  0.00000000000E+00 0.  1.
     999901    1    3    3    0    0  0.51487972430E-01 -0.70898530546E-01  0.81402026402E-01  0.88809003082E+00  0.88000000000E+00 0. -1.
        -11    1    4    4    0    0 -0.20324475062E-01  0.31685960130E-01 -0.38486447470E-01  0.53838203125E-01  0.51100000000E-03 0. -1.
         11    1    4    4    0    0 -0.29961465006E-01  0.62251847661E-01 -0.36065717463E-01  0.77935736473E-01  0.51100000000E-03 0.  1.
</event>
<event>
 8    1  0.1132492E+005  0.1043930E+01  0.7957747E-01            NaN
         13   -1    0    0    0    0  0.00000000000E+00  0.00000000000E+00  0.74505805969E-08  0.10566000000E+00  0.10566000000E+00 0. -1.
     999900   -1    0    0    0    0 -0.00000000000E+00 -0.00000000000E+00 -0.74505805969E-08  0.93827000000E+00  0.93827000000E+00 0. -1.
     999902    2    1    2    0    0  0.18602034122E-01  0.13813568698E-01 -0.37630846118E-02  0.10204563731E+01  0.10201863547E+01 0.  0.
     999903    2    3    3    0    0  0.11631113233E+00  0.47370017737E-02 -0.61304070350E-01  0.13313432505E+00  0.20392174358E-01 0.  0.
         14    1    1    2    0    0 -0.18602034122E-01 -0.13813568698E-01  0.37630846118E-02  0.23473626891E-01  0.00000000000E+00 0.  1.
     999901    1    3    3    0    0 -0.97709098205E-01  0.90765669246E-02  0.57540985738E-01  0.88732204806E+00  0.88000000000E+00 0.  1.
        -11    1    4    4    0    0  0.97553832552E-01  0.10363407609E-01 -0.46422578107E-01  0.10853325454E+00  0.51100000000E-03 0.  1.
         11    1    4    4    0    0  0.18757299774E-01 -0.56264058349E-02 -0.14881492243E-01  0.24601070502E-01  0.51100000000E-03 0. -1.
</event>
<event>
 8    1  0.1132492E+005  0.1043930E+01  0.7957747E-01            NaN
         13   -1    0    0    0    0  0.00000000000E+00  0.00000000000E+00  0.74505805969E-08  0.10566000000E+00  0.10566000000E+00 0. -1.
     999900   -1    0    0    0    0 -0.00000000000E+00 -0.00000000000E+00 -0.74505805969E-08  0.93827000000E+00  0.93827000000E+00 0.  1.
     999902    2    1    2    0    0 -0.51433863235E-03  0.20532036598E-01 -0.91032524247E-02  0.10214645092E+01  0.10212174329E+01 0.  0.
     999903    2    3    3    0    0  0.62230837369E-01  0.11624528312E+00  0.10817397896E-01  0.13383011659E+00  0.20195074719E-01 0.  0.
         14    1    1    2    0    0  0.51433863235E-03 -0.20532036598E-01  0.91032524247E-02  0.22465490776E-01  0.00000000000E+00 0.  1.
     999901    1    3    3    0    0 -0.62745176001E-01 -0.95713246523E-01 -0.19920650321E-01  0.88763439263E+00  0.88000000000E+00 0. -1.
        -11    1    4    4    0    0  0.24491783269E-01  0.30745796067E-01  0.91178259195E-02  0.40355263523E-01  0.51100000000E-03 0. -1.
         11    1    4    4    0    0  0.37739054099E-01  0.85499487053E-01  0.16995719767E-02  0.93474853071E-01  0.51100000000E-03 0.  1.
</event>
<event>
 8    1  0.1132492E+005  0.1043930E+01  0.7957747E-01            NaN
         13   -1    0    0    0    0  0.00000000000E+00  0.00000000000E+00  0.74505805969E-08  0.10566000000E+00  0.10566000000E+00 0.  1.
     999900   -1    0    0    0    0 -0.00000000000E+00 -0.00000000000E+00 -0.74505805969E-08  0.93827000000E+00  0.93827000000E+00 0. -1.
     999902    2    1    2    0    0 -0.20041852569E-02  0.21106346586E-02  0.23290799058E-01  0.10204580410E+01  0.10201880614E+01 0.  0.
     999903    2    3    3    0    0  0.89289061582E-01 -0.65691466088E-01  0.69087320533E-01  0.13195992445E+00  0.18773879924E-01 0.  0.
         14    1    1    2    0    0  0.20041852569E-02 -0.21106346586E-02 -0.23290799058E-01  0.23471958972E-01  0.00000000000E+00 0. -1.
     999901    1    3    3    0    0 -0.91293246838E-01  0.67802100747E-01 -0.45796521475E-01  0.88849811658E+00  0.88000000000E+00 0.  1.
        -11    1    4    4    0    0  0.83386244231E-01 -0.55481131893E-01  0.65289381553E-01  0.11955913260E+00  0.51100000000E-03 0. -1.
         11    1    4    4    0    0  0.59028173507E-02 -0.10210334195E-01  0.37979389805E-02  0.12400791852E-01  0.51100000000E-03 0.  1.
</event>
<event>
 8    1  0.1132492E+005  0.1043930E+01  0.7957747E-01            NaN
         13   -1    0    0    0    0  0.00000000000E+00  0.00000000000E+00  0.74505805969E-08  0.10566000000E+00  0.10566000000E+00 0.  1.
     999900   -1    0    0    0    0 -0.00000000000E+00 -0.00000000000E+00 -0.74505805969E-08  0.93827000000E+00  0.93827000000E+00 0. -1.
     999902    2    1    2    0    0  0.12132739380E-01  0.10864257901E-01  0.14473458835E-01  0.10221420108E+01  0.10219097679E+01 0.  0.
     999903    2    3    3    0    0  0.32425416432E-01  0.11752378706E+00 -0.49840708304E-01  0.13314012100E+00  0.19466572848E-01 0.  0.
         14    1    1    2    0    0 -0.12132739380E-01 -0.10864257901E-01 -0.14473458835E-01  0.21787989243E-01  0.00000000000E+00 0.  1.
     999901    1    3    3    0    0 -0.20292677052E-01 -0.10665952916E+00  0.64314167138E-01  0.88900188976E+00  0.88000000000E+00 0.  1.
        -11    1    4    4    0    0  0.39813604066E-02  0.38059124062E-01 -0.22622022953E-01  0.44456329117E-01  0.51100000000E-03 0. -1.
         11    1    4    4    0    0  0.28444056026E-01  0.79464663000E-01 -0.27218685351E-01  0.88683791880E-01  0.51100000000E-03 0.  1.
</event>
<event>
 8    1  0.1132492E+005  0.1043930E+01  0.7957747E-01            NaN
         13   -1    0    0    0    0  0.00000000000E+00  0.00000000000E+00  0.74505805969E-08  0.10566000000E+00  0.10566000000E+00 0.  1.
     999900   -1    0    0    0    0 -0.00000000000E+00 -0.00000000000E+00 -0.74505805969E-08  0.93827000000E+00  0.93827000000E+00 0. -1.
     999902    2    1    2    0    0  0.38967466244E-02  0.23062839089E-01 -0.31383647172E-02  0.10203306671E+01  0.10200577149E+01 0.  0.
     999903    2    3    3    0    0  0.45692358473E-01  0.10597683422E+00 -0.63717011649E-01  0.13337442452E+00  0.20248420389E-01 0.  0.
         14    1    1    2    0    0 -0.38967466244E-02 -0.23062839089E-01  0.31383647172E-02  0.23599332918E-01  0.00000000000E+00 0. -1.
     999901    1    3    3    0    0 -0.41795611849E-01 -0.82913995130E-01  0.60578646931E-01  0.88695624256E+00  0.88000000000E+00 0.  1.
        -11    1    4    4    0    0  0.14880151529E-01  0.31072045261E-01 -0.89446746984E-02  0.35597180123E-01  0.51100000000E-03 0.  1.
         11    1    4    4    0    0  0.30812206944E-01  0.74904788958E-01 -0.54772336950E-01  0.97777244396E-01  0.51100000000E-03 0. -1.
</event>
<event>
 8    1  0.1132492E+005  0.1043930E+01  0.7957747E-01            NaN
         13   -1    0    0    0    0  0.00000000000E+00  0.00000000000E+00  0.74505805969E-08  0.10566000000E+00  0.10566000000E+00 0.  1.
     999900   -1    0    0    0    0 -0.00000000000E+00 -0.00000000000E+00 -0.74505805969E-08  0.93827000000E+00  0.93827000000E+00 0.  1.
     999902    2    1    2    0    0 -0.21257222822E-01  0.78039765299E-02 -0.57761852787E-02  0.10205604496E+01  0.10202928478E+01 0.  0.
     999903    2    3    3    0    0  0.90850395309E-01  0.77587939645E-01 -0.46581630967E-01  0.12977259380E+00  0.19934769943E-01 0.  0.
         14    1    1    2    0    0  0.21257222822E-01 -0.78039765299E-02  0.57761852787E-02  0.23369550448E-01  0.00000000000E+00 0.  1.
     999901    1    3    3    0    0 -0.11210761813E+00 -0.69783963116E-01  0.40805445689E-01  0.89078785575E+00  0.88000000000E+00 0. -1.
        -11    1    4    4    0    0  0.56495940660E-01  0.35345179197E-01 -0.24206982842E-01  0.70903541116E-01  0.51100000000E-03 0. -1.
         11    1    4    4    0    0  0.34354454649E-01  0.42242760449E-01 -0.22374648125E-01  0.58869052687E-01  0.51100000000E-03 0.  1.
</event>
<event>
 8    1  0.1132492E+005  0.1043930E+01  0.7957747E-01            NaN
         13   -1    0    0    0    0  0.00000000000E+00  0.00000000000E+00  0.74505805969E-08  0.10566000000E+00  0.10566000000E+00 0. -1.
     999900   -1    0    0    0    0 -0.00000000000E+00 -0.00000000000E+00 -0.74505805969E-08  0.93827000000E+00  0.93827000000E+00 0. -1.
     999902    2    1    2    0    0 -0.16511636859E-01  0.16314554932E-01 -0.37935039060E-02  0.10204100186E+01  0.10201389202E+01 0.  0.
     999903    2    3    3    0    0  0.86779444542E-01  0.95877858148E-01  0.20732357506E-02  0.13078437520E+00  0.19416972253E-01 0.  0.
         14    1    1    2    0    0  0.16511636859E-01 -0.16314554932E-01  0.37935039060E-02  0.23519981426E-01  0.00000000000E+00 0.  1.
     999901    1    3    3    0    0 -0.10329108140E+00 -0.79563303216E-01 -0.58667396566E-02  0.88962564337E+00  0.88000000000E+00 0.  1.
        -11    1    4    4    0    0  0.32708825860E-01  0.23037515621E-01 -0.85707378133E-03  0.40019871459E-01  0.51100000000E-03 0.  1.
         11    1    4    4    0    0  0.54070618682E-01  0.72840342527E-01  0.29303095319E-02  0.90764503740E-01  0.51100000000E-03 0. -1.
</event>
<event>
 8    1  0.1132492E+005  0.1043930E+01  0.7957747E-01            NaN
         13   -1    0    0    0    0  0.00000000000E+00  0.00000000000E+00  0.74505805969E-08  0.10566000000E+00  0.10566000000E+00 0. -1.
     999900   -1    0    0    0    0 -0.00000000000E+00 -0.00000000000E+00 -0.74505805969E-08  0.93827000000E+00  0.93827000000E+00 0. -1.
     999902    2    1    2    0    0  0.14177922929E-01  0.13788959346E-01 -0.10372366998E-01  0.10215976267E+01  0.10213535020E+01 0.  0.
     999903    2    3    3    0    0  0.29787556777E-02 -0.59628752126E-01  0.11439372354E+00  0.12969956134E+00  0.13099280925E-01 0.  0.
         14    1    1    2    0    0 -0.14177922929E-01 -0.13788959346E-01  0.10372366998E-01  0.22332373263E-01  0.00000000000E+00 0. -1.
     999901    1    3    3    0    0  0.11199167252E-01  0.73417711472E-01 -0.12476609054E+00  0.89189806539E+00  0.88000000000E+00 0. -1.
        -11    1    4    4    0    0  0.17095984136E-02 -0.23717114764E-01  0.59616144994E-01  0.64185435454E-01  0.51100000000E-03 0.  1.
         11    1    4    4    0    0  0.12691572641E-02 -0.35911637362E-01  0.54777578549E-01  0.65514125888E-01  0.51100000000E-03 0. -1.
</event>
<event>
 8    1  0.1132492E+005  0.1043930E+01  0.7957747E-01            NaN
         13   -1    0    0    0    0  0.00000000000E+00  0.00000000000E+00  0.74505805969E-08  0.10566000000E+00  0.10566000000E+00 0. -1.
     999900   -1    0    0    0    0 -0.00000000000E+00 -0.00000000000E+00 -0.74505805969E-08  0.93827000000E+00  0.93827000000E+00 0. -1.
     999902    2    1    2    0    0 -0.92489883284E-02 -0.39108278346E-02 -0.22506256232E-01  0.10192851237E+01  0.10189871409E+01 0.  0.
     999903    2    3    3    0    0  0.11369961532E+00  0.40906799974E-01 -0.41859271236E-01  0.12939776109E+00  0.19763936294E-01 0.  0.
         14    1    1    2    0    0  0.92489883284E-02  0.39108278346E-02  0.22506256232E-01  0.24644876324E-01  0.00000000000E+00 0. -1.
     999901    1    3    3    0    0 -0.12294860365E+00 -0.44817627809E-01  0.19353015004E-01  0.88988736259E+00  0.88000000000E+00 0. -1.
        -11    1    4    4    0    0  0.43774265203E-01  0.98828455665E-02 -0.73611270137E-02  0.45478613022E-01  0.51100000000E-03 0. -1.
         11    1    4    4    0    0  0.69925350120E-01  0.31023954407E-01 -0.34498144222E-01  0.83919148067E-01  0.51100000000E-03 0.  1.
</event>
<event>
 8    1  0.1132492E+005  0.1043930E+01  0.7957747E-01            NaN
         13   -1    0    0    0    0  0.00000000000E+00  0.00000000000E+00  0.74505805969E-08  0.10566000000E+00  0.10566000000E+00 0. -1.
     999900   -1    0    0    0    0 -0.00000000000E+00 -0.00000000000E+00 -0.74505805969E-08  0.93827000000E+00  0.93827000000E+00 0.  1.
     999902    2    1    2    0    0  0.47725348321E-02  0.59177053055E-02  0.23142377204E-01  0.10195708960E+01  0.10192798664E+01 0.  0.
     999903    2    3    3    0    0 -0.44901535746E-01  0.93016386079E-01 -0.73837322892E-01  0.12858337886E+00  0.20335660182E-01 0.  0.
         14    1    1    2    0    0 -0.47725348321E-02 -0.59177053055E-02 -0.23142377204E-01  0.24359103995E-01  0.00000000000E+00 0.  1.
     999901    1    3    3    0    0  0.49674070578E-01 -0.87098680774E-01  0.96979700096E-01  0.89098751715E+00  0.88000000000E+00 0. -1.
        -11    1    4    4    0    0 -0.14550541089E-01  0.52886589784E-01 -0.41283322389E-01  0.68653357190E-01  0.51100000000E-03 0. -1.
         11    1    4    4    0    0 -0.30350994657E-01  0.40129796295E-01 -0.32554000504E-01  0.59930021668E-01  0.51100000000E-03 0.  1.
</event>
<event>
 8    1  0.1132492E+005  0.1043930E+01  0.7957747E-01            NaN
         13   -1    0    0    0    0  0.00000000000E+00  0.00000000000E+00  0.74505805969E-08  0.10566000000E+00  0.10566000000E+00 0.  1.
     999900   -1    0    0    0    0 -0.00000000000E+00 -0.00000000000E+00 -0.74505805969E-08  0.93827000000E+00  0.93827000000E+00 0.  1.
     999902    2    1    2    0    0 -0.18756034364E-01  0.13912309825E-01 -0.12781420876E-02  0.10205425068E+01  0.10202744892E+01 0.  0.
     999903    2    3    3    0    0 -0.13106298111E+00  0.17330030977E-01  0.98978864228E-03  0.13339557727E+00  0.17764159524E-01 0.  0.
         14    1    1    2    0    0  0.18756034364E-01 -0.13912309825E-01  0.12781420876E-02  0.23387493173E-01  0.00000000000E+00 0.  1.
     999901    1    3    3    0    0  0.11230694675E+00 -0.34177211517E-02 -0.22679307299E-02  0.88714692955E+00  0.88000000000E+00 0. -1.
        -11    1    4    4    0    0 -0.20870124410E-01  0.40708214285E-02 -0.62556968679E-02  0.22170443034E-01  0.51100000000E-03 0. -1.
         11    1    4    4    0    0 -0.11019285670E+00  0.13259209548E-01  0.72454855102E-02  0.11122513424E+00  0.51100000000E-03 0.  1.
</event>
<event>
 8    1  0.1132492E+005  0.1043930E+01  0.7957747E-01            NaN
         13   -1    0    0    0    0  0.00000000000E+00  0.00000000000E+00  0.74505805969E-08  0.10566000000E+00  0.10566000000E+00 0.  1.
     999900   -1    0    0    0    0 -0.00000000000E+00 -0.00000000000E+00 -0.74505805969E-08  0.93827000000E+00  0.93827000000E+00 0. -1.
     999902    2    1    2    0    0 -0.77200574463E-02 -0.18677780735E-01 -0.79177160609E-02  0.10222240329E+01  0.10219935540E+01 0.  0.
     999903    2    3    3    0    0  0.43508534766E-01  0.12054015841E+00  0.17679955693E-02  0.12975564901E+00  0.20260312270E-01 0.  0.
         14    1    1    2    0    0  0.77200574463E-02  0.18677780735E-01  0.79177160609E-02  0.21705967101E-01  0.00000000000E+00 0.  1.
     999901    1    3    3    0    0 -0.51228592212E-01 -0.13921793915E+00 -0.96857116303E-02  0.89246838389E+00  0.88000000000E+00 0. -1.
        -11    1    4    4    0    0  0.12024130563E-01  0.60760497433E-01  0.47606678302E-02  0.62123609387E-01  0.51100000000E-03 0. -1.
         11    1    4    4    0    0  0.31484404203E-01  0.59779660978E-01 -0.29926722609E-02  0.67632039618E-01  0.51100000000E-03 0.  1.
</event>
<event>
 8    1  0.1132492E+005  0.1043930E+01  0.7957747E-01            NaN
         13   -1    0    0    0    0  0.00000000000E+00  0.00000000000E+00  0.74505805969E-08  0.10566000000E+00  0.10566000000E+00 0.  1.
     999900   -1    0    0    0    0 -0.00000000000E+00 -0.00000000000E+00 -0.74505805969E-08  0.93827000000E+00  0.93827000000E+00 0. -1.
     999902    2    1    2    0    0  0.17981762761E-01  0.81746755319E-02 -0.12847089751E-01  0.10203669606E+01  0.10200948571E+01 0.  0.
     999903    2    3    3    0    0 -0.90652689317E-01  0.89526235811E-01 -0.16105216641E-01  0.12995686633E+00  0.19913616553E-01 0.  0.
         14    1    1    2    0    0 -0.17981762761E-01 -0.81746755319E-02  0.12847089751E-01  0.23563039428E-01  0.00000000000E+00 0. -1.
     999901    1    3    3    0    0  0.10863445208E+00 -0.81351560279E-01  0.32581268903E-02  0.89041009424E+00  0.88000000000E+00 0.  1.
        -11    1    4    4    0    0 -0.65019509061E-01  0.50988060948E-01 -0.87956447042E-02  0.83095989100E-01  0.51100000000E-03 0. -1.
         11    1    4    4    0    0 -0.25633180256E-01  0.38538174863E-01 -0.73095719370E-02  0.46860877230E-01  0.51100000000E-03 0.  1.
</event>
<event>
 8    1  0.1132492E+005  0.1043930E+01  0.7957747E-01            NaN
         13   -1    0    0    0    0  0.00000000000E+00  0.00000000000E+00  0.74505805969E-08  0.10566000000E+00  0.10566000000E+00 0.  1.
     999900   -1    0    0    0    0 -0.00000000000E+00 -0.00000000000E+00 -0.74505805969E-08  0.93827000000E+00  0.93827000000E+00 0.  1.
     999902    2    1    2    0    0 -0.67483290212E-02  0.65714258351E-03  0.23183460052E-01  0.10197754021E+01  0.10194892967E+01 0.  0.
     999903    2    3    3    0    0 -0.11534369658E+00 -0.48819291313E-01  0.34968048766E-01  0.13164267106E+00  0.20482599079E-01 0.  0.
         14    1    1    2    0    0  0.67483290212E-02 -0.65714258351E-03 -0.23183460052E-01  0.24154597925E-01  0.00000000000E+00 0. -1.
     999901    1    3    3    0    0  0.10859536756E+00  0.49476433896E-01 -0.11784588713E-01  0.88813273101E+00  0.88000000000E+00 0. -1.
        -11    1    4    4    0    0 -0.30671277016E-01 -0.19527048889E-01  0.17512430307E-01  0.40360614569E-01  0.51100000000E-03 0.  1.
         11    1    4    4    0    0 -0.84672419562E-01 -0.29292242424E-01  0.17455618459E-01  0.91282056492E-01  0.51100000000E-03 0. -1.
</event>
<event>
 8    1  0.1132492E+005  0.1043930E+01  0.7957747E-01            NaN
         13   -1    0    0    0    0  0.00000000000E+00  0.00000000000E+00  0.74505805969E-08  0.10566000000E+00  0.10566000000E+00 0. -1.
     999900   -1    0    0    0    0 -0.00000000000E+00 -0.00000000000E+00 -0.74505805969E-08  0.93827000000E+00  0.93827000000E+00 0. -1.
     999902    2    1    2    0    0  0.93245290298E-02  0.70643513071E-02 -0.20189295315E-01  0.10205963431E+01  0.10203295722E+01 0.  0.
     999903    2    3    3    0    0  0.55883347902E-01 -0.11472643860E+00  0.16025830586E-01  0.13025244575E+00  0.20585628317E-01 0.  0.
         14    1    1    2    0    0 -0.93245290298E-02 -0.70643513071E-02  0.20189295315E-01  0.23333656943E-01  0.00000000000E+00 0. -1.
     999901    1    3    3    0    0 -0.46558818873E-01  0.12179078990E+00 -0.36215125900E-01  0.89034389730E+00  0.88000000000E+00 0.  1.
        -11    1    4    4    0    0  0.15240210661E-01 -0.38190996773E-01 -0.39775684685E-02  0.41314627282E-01  0.51100000000E-03 0. -1.
         11    1    4    4    0    0  0.40643137241E-01 -0.76535441824E-01  0.20003399054E-01  0.88937818473E-01  0.51100000000E-03 0.  1.
</event>
<event>
 8    1  0.1132492E+005  0.1043930E+01  0.7957747E-01            NaN
         13   -1    0    0    0    0  0.00000000000E+00  0.00000000000E+00  0.74505805969E-08  0.10566000000E+00  0.10566000000E+00 0. -1.
     999900   -1    0    0    0    0 -0.00000000000E+00 -0.00000000000E+00 -0.74505805969E-08  0.93827000000E+00  0.93827000000E+00 0.  1.
     999902    2    1    2    0    0 -0.55914069183E-02  0.19075204916E-01 -0.13348331628E-01  0.10199862068E+01  0.10197051323E+01 0.  0.
     999903    2    3    3    0    0  0.30495198258E-01  0.12514333208E+00  0.22263394630E-01  0.13216815919E+00  0.19543614878E-01 0.  0.
         14    1    1    2    0    0  0.55914069183E-02 -0.19075204916E-01  0.13348331628E-01  0.23943793166E-01  0.00000000000E+00 0. -1.
     999901    1    3    3    0    0 -0.36086605176E-01 -0.10606812716E+00 -0.35611726258E-01  0.88781804764E+00  0.88000000000E+00 0.  1.
        -11    1    4    4    0    0  0.17800730786E-01  0.66942343835E-01  0.21885078917E-02  0.69305079918E-01  0.51100000000E-03 0. -1.
         11    1    4    4    0    0  0.12694467472E-01  0.58200988246E-01  0.20074886738E-01  0.62863079273E-01  0.51100000000E-03 0.  1.
</event>
<event>
 8    1  0.1132492E+005  0.1043930E+01  0.7957747E-01            NaN
         13   -1    0    0    0    0  0.00000000000E+00  0.00000000000E+00  0.74505805969E-08  0.10566000000E+00  0.10566000000E+00 0. -1.
     999900   -1    0    0    0    0 -0.00000000000E+00 -0.00000000000E+00 -0.74505805969E-08  0.93827000000E+00  0.93827000000E+00 0. -1.
     999902    2    1    2    0    0 -0.37518439249E-02 -0.13797508654E-01  0.18950970220E-01  0.10201900158E+01  0.10199137618E+01 0.  0.
     999903    2    3    3    0    0  0.10274647831E+00  0.74644130769E-01 -0.90090560029E-02  0.12892934725E+00  0.20323100891E-01 0.  0.
         14    1    1    2    0    0  0.37518439249E-02  0.13797508654E-01 -0.18950970220E-01  0.23739984208E-01  0.00000000000E+00 0.  1.
     999901    1    3    3    0    0 -0.10649832223E+00 -0.88441639423E-01  0.27960026223E-01  0.89126066854E+00  0.88000000000E+00 0.  1.
        -11    1    4    4    0    0  0.68968930269E-01  0.42630193430E-01  0.19886566610E-02  0.81106489325E-01  0.51100000000E-03 0.  1.
         11    1    4    4    0    0  0.33777548038E-01  0.32013937338E-01 -0.10997712664E-01  0.47822857926E-01  0.51100000000E-03 0. -1.
</event>
<event>
 8    1  0.1132492E+005  0.1043930E+01  0.7957747E-01            NaN
         13   -1    0    0    0    0  0.00000000000E+00  0.00000000000E+00  0.74505805969E-08  0.10566000000E+00  0.10566000000E+00 0. -1.
     999900   -1    0    0    0    0 -0.00000000000E+00 -0.00000000000E+00 -0.74505805969E-08  0.93827000000E+00  0.93827000000E+00 0.  1.
     999902    2    1    2    0    0  0.15386963447E-02 -0.20007655554E-01 -0.12300265595E-01  0.10203934242E+01  0.10201219387E+01 0.  0.
     999903    2    3    3    0    0  0.59470635800E-02  0.61162548788E-01 -0.11379539246E+00  0.13083775052E+00  0.19821722332E-01 0.  0.
         14    1    1    2    0    0 -0.15386963447E-02  0.20007655554E-01  0.12300265595E-01  0.23536575811E-01  0.00000000000E+00 0.  1.
     999901    1    3    3    0    0 -0.44083672353E-02 -0.81170204342E-01  0.10149512687E+00  0.88955567367E+00  0.88000000000E+00 0. -1.
        -11    1    4    4    0    0 -0.63165885317E-02  0.19698712221E-01 -0.45786924557E-01  0.50245817092E-01  0.51100000000E-03 0.  1.
         11    1    4    4    0    0  0.12263652112E-01  0.41463836568E-01 -0.68008467907E-01  0.80591933431E-01  0.51100000000E-03 0. -1.
</event>
<event>
 8    1  0.1132492E+005  0.1043930E+01  0.7957747E-01            NaN
         13   -1    0    0    0    0  0.00000000000E+00  0.00000000000E+00  0.74505805969E-08  0.10566000000E+00  0.10566000000E+00 0.  1.
     999900   -1    0    0    0    0 -0.00000000000E+00 -0.00000000000E+00 -0.74505805969E-08  0.93827000000E+00  0.93827000000E+00 0. -1.
     999902    2    1    2    0    0 -0.10318094795E-01 -0.20036360386E-01 -0.71079028178E-02  0.10202986416E+01  0.10200249394E+01 0.  0.
     999903    2    3    3    0    0 -0.82081375662E-02 -0.80735179085E-01 -0.10284608610E+00  0.13302495312E+00  0.23081985690E-01 0.  0.
         14    1    1    2    0    0  0.10318094795E-01  0.20036360386E-01  0.71079028178E-02  0.23631358407E-01  0.00000000000E+00 0.  1.
     999901    1    3    3    0    0 -0.21099572283E-02  0.60698818699E-01  0.95738183283E-01  0.88727368847E+00  0.88000000000E+00 0.  1.
        -11    1    4    4    0    0 -0.12231656032E-02 -0.25010475054E-01 -0.49933058990E-01  0.55862254677E-01  0.51100000000E-03 0.  1.
         11    1    4    4    0    0 -0.69849719630E-02 -0.55724704031E-01 -0.52913027111E-01  0.77162698447E-01  0.51100000000E-03 0. -1.
</event>
<event>
 8    1  0.1132492E+005  0.1043930E+01  0.7957747E-01            NaN
         13   -1    0    0    0    0  0.00000000000E+00  0.00000000000E+00  0.74505805969E-08  0.10566000000E+00  0.10566000000E+00 0.  1.
     999900   -1    0    0    0    0 -0.00000000000E+00 -0.00000000000E+00 -0.74505805969E-08  0.93827000000E+00  0.93827000000E+00 0. -1.
     999902    2    1    2    0    0  0.13886817230E-01  0.85774425427E-02 -0.18523994712E-01  0.10192408406E+01  0.10189417729E+01 0.  0.
     999903    2    3    3    0    0 -0.47967249649E-01  0.56877300482E-01  0.10166771800E+00  0.12761039601E+00  0.20302806129E-01 0.  0.
         14    1    1    2    0    0 -0.13886817230E-01 -0.85774425427E-02  0.18523994712E-01  0.24689159431E-01  0.00000000000E+00 0.  1.
     999901    1    3    3    0    0  0.61854066879E-01 -0.48299857939E-01 -0.12019171271E+00  0.89163044456E+00  0.88000000000E+00 0. -1.
        -11    1    4    4    0    0 -0.35675346255E-01  0.30807232879E-01  0.52022731665E-01  0.70202860760E-01  0.51100000000E-03 0. -1.
         11    1    4    4    0    0 -0.12291903394E-01  0.26070067603E-01  0.49644986334E-01  0.57407535246E-01  0.51100000000E-03 0.  1.
</event>
<event>
 8    1  0.1132492E+005  0.1043930E+01  0.7957747E-01            NaN
         13   -1    0    0    0    0  0.00000000000E+00  0.00000000000E+00  0.74505805969E-08  0.10566000000E+00  0.10566000000E+00 0.  1.
     999900   -1    0    0    0    0 -0.00000000000E+00 -0.00000000000E+00 -0.74505805969E-08  0.93827000000E+00  0.93827000000E+00 0.  1.
     999902    2    1    2    0    0  0.10881867890E-01 -0.16178269105E-01 -0.13395629758E-01  0.10202742536E+01  0.10199999795E+01 0.  0.
     999903    2    3    3    0    0 -0.42714961084E-03  0.73854308889E-01 -0.10608344817E+00  0.13076608016E+00  0.19784548162E-01 0.  0.
         14    1    1    2    0    0 -0.10881867890E-01  0.16178269105E-01  0.13395629758E-01  0.23655746376E-01  0.00000000000E+00 0.  1.
     999901    1    3    3    0    0  0.11309017501E-01 -0.90032577994E-01  0.92687818414E-01  0.88950817346E+00  0.88000000000E+00 0. -1.
        -11    1    4    4    0    0 -0.77475180582E-02  0.56474937949E-01 -0.72281182917E-01  0.92055815554E-01  0.51100000000E-03 0. -1.
         11    1    4    4    0    0  0.73203684473E-02  0.17379370940E-01 -0.33802265255E-01  0.38710264605E-01  0.51100000000E-03 0.  1.
</event>
<event>
 8    1  0.1132492E+005  0.1043930E+01  0.7957747E-01            NaN
         13   -1    0    0    0    0  0.00000000000E+00  0.00000000000E+00  0.74505805969E-08  0.10566000000E+00  0.10566000000E+00 0.  1.
     999900   -1    0    0    0    0 -0.00000000000E+00 -0.00000000000E+00 -0.74505805969E-08  0.93827000000E+00  0.93827000000E+00 0.  1.
     999902    2    1    2    0    0 -0.10483863113E-01 -0.63527994892E-02  0.18869029433E-01  0.10214286730E+01  0.10211807990E+01 0.  0.
     999903    2    3    3    0    0  0.14644234238E-01 -0.10230145917E+00 -0.77395394319E-01  0.13064003032E+00  0.19918039910E-01 0.  0.
         14    1    1    2    0    0  0.10483863113E-01  0.63527994892E-02 -0.18869029433E-01  0.22501327046E-01  0.00000000000E+00 0. -1.
     999901    1    3    3    0    0 -0.25128097351E-01  0.95948659684E-01  0.96264423752E-01  0.89078864264E+00  0.88000000000E+00 0. -1.
        -11    1    4    4    0    0  0.60039164160E-02 -0.43448809779E-01 -0.20851845650E-01  0.48568576998E-01  0.51100000000E-03 0.  1.
         11    1    4    4    0    0  0.86403178223E-02 -0.58852649394E-01 -0.56543548669E-01  0.82071453319E-01  0.51100000000E-03 0. -1.
</event>
<event>
 8    1  0.1132492E+005  0.1043930E+01  0.7957747E-01            NaN
         13   -1    0    0    0    0  0.00000000000E+00  0.00000000000E+00  0.74505805969E-08  0.10566000000E+00  0.10566000000E+00 0. -1.
     999900   -1    0    0    0    0 -0.00000000000E+00 -0.00000000000E+00 -0.74505805969E-08  0.93827000000E+00  0.93827000000E+00 0.  1.
     999902    2    1    2    0    0 -0.73892999429E-02 -0.88820693057E-02  0.20591092253E-01  0.10203188588E+01  0.10200456302E+01 0.  0.
     999903    2    3    3    0    0 -0.92720276092E-01  0.81353207722E-01  0.41135695535E-01  0.13136111996E+00  0.18660235394E-01 0.  0.
         14    1    1    2    0    0  0.73892999429E-02  0.88820693057E-02 -0.20591092253E-01  0.23611141204E-01  0.00000000000E+00 0.  1.
     999901    1    3    3    0    0  0.85330976149E-01 -0.90235277027E-01 -0.20544603282E-01  0.88895773884E+00  0.88000000000E+00 0.  1.
        -11    1    4    4    0    0 -0.38034069641E-01  0.21770575953E-01  0.12667638390E-01  0.45621032586E-01  0.51100000000E-03 0.  1.
         11    1    4    4    0    0 -0.54686206451E-01  0.59582631769E-01  0.28468057144E-01  0.85740087375E-01  0.51100000000E-03 0. -1.
</event>
<event>
 8    1  0.1132492E+005  0.1043930E+01  0.7957747E-01            NaN
         13   -1    0    0    0    0  0.00000000000E+00  0.00000000000E+00  0.74505805969E-08  0.10566000000E+00  0.10566000000E+00 0. -1.
     999900   -1    0    0    0    0 -0.00000000000E+00 -0.00000000000E+00 -0.74505805969E-08  0.93827000000E+00  0.93827000000E+00 0. -1.
     999902    2    1    2    0    0  0.19335815133E-01 -0.89897707785E-02 -0.12675617238E-01  0.10191235291E+01  0.10188215774E+01 0.  0.
     999903    2    3    3    0    0 -0.83092422819E-01 -0.97252177731E-01 -0.47085615435E-02  0.12876109146E+00  0.13961064363E-01 0.  0.
         14    1    1    2    0    0 -0.19335815133E-01  0.89897707785E-02  0.12675617238E-01  0.24806470887E-01  0.00000000000E+00 0. -1.
     999901    1    3    3    0    0  0.10242823795E+00  0.88262406953E-01 -0.79670556941E-02  0.89036243766E+00  0.88000000000E+00 0. -1.
        -11    1    4    4    0    0 -0.45681743767E-01 -0.63908500391E-01 -0.30919480444E-02  0.78618950639E-01  0.51100000000E-03 0. -1.
         11    1    4    4    0    0 -0.37410679052E-01 -0.33343677340E-01 -0.16166134991E-02  0.50142140819E-01  0.51100000000E-03 0.  1.
</event>
<event>
 8    1  0.1132492E+005  0.1043930E+01  0.7957747E-01            NaN
         13   -1    0    0    0    0  0.00000000000E+00  0.00000000000E+00  0.74505805969E-08  0.10566000000E+00  0.10566000000E+00 0.  1.
     999900   -1    0    0    0    0 -0.00000000000E+00 -0.00000000000E+00 -0.74505805969E-08  0.93827000000E+00  0.93827000000E+00 0. -1.
     999902    2    1    2    0    0  0.16554701815E-02 -0.13829993753E-01  0.18673889028E-01  0.10206335745E+01  0.10203676641E+01 0.  0.
     999903    2    3    3    0    0 -0.12108228665E+00  0.23497216052E-01 -0.38945722854E-01  0.12946698111E+00  0.56471732943E-02 0.  0.
         14    1    1    2    0    0 -0.16554701815E-02  0.13829993753E-01 -0.18673889028E-01  0.23296425481E-01  0.00000000000E+00 0. -1.
     999901    1    3    3    0    0  0.12273775683E+00 -0.37327209805E-01  0.57619611883E-01  0.89116659341E+00  0.88000000000E+00 0.  1.
        -11    1    4    4    0    0 -0.94055990074E-01  0.16415379391E-01 -0.31628805317E-01  0.10058149132E+00  0.51100000000E-03 0.  1.
         11    1    4    4    0    0 -0.27026296572E-01  0.70818366602E-02 -0.73169175375E-02  0.28885489785E-01  0.51100000000E-03 0. -1.
</event>
<event>
 8    1  0.1132492E+005  0.1043930E+01  0.7957747E-01            NaN
         13   -1    0    0    0    0  0.00000000000E+00  0.00000000000E+00  0.74505805969E-08  0.10566000000E+00  0.10566000000E+00 0. -1.
     999900   -1    0    0    0    0 -0.00000000000E+00 -0.00000000000E+00 -0.74505805969E-08  0.93827000000E+00  0.93827000000E+00 0. -1.
     999902    2    1    2    0    0 -0.14946772766E-02 -0.13289173007E-01 -0.19053987305E-01  0.10206514560E+01  0.10203859583E+01 0.  0.
     999903    2    3    3    0    0 -0.24033742973E-01  0.11451184409E+00  0.49437303729E-01  0.12850115116E+00  0.19440051713E-01 0.  0.
         14    1    1    2    0    0  0.14946772766E-02  0.13289173007E-01  0.19053987305E-01  0.23278544018E-01  0.00000000000E+00 0. -1.
     999901    1    3    3    0    0  0.22539065696E-01 -0.12780101710E+00 -0.68491291034E-01  0.89215030483E+00  0.88000000000E+00 0. -1.
        -11    1    4    4    0    0 -0.88614924774E-02  0.80733400925E-01  0.38527602741E-01  0.89894634811E-01  0.51100000000E-03 0. -1.
         11    1    4    4    0    0 -0.15172250496E-01  0.33778443164E-01  0.10909700988E-01  0.38606516345E-01  0.51100000000E-03 0.  1.
</event>
<event>
 8    1  0.1132492E+005  0.1043930E+01  0.7957747E-01            NaN
         13   -1    0    0    0    0  0.00000000000E+00  0.00000000000E+00  0.74505805969E-08  0.10566000000E+00  0.10566000000E+00 0. -1.
     999900   -1    0    0    0    0 -0.00000000000E+00 -0.00000000000E+00 -0.74505805969E-08  0.93827000000E+00  0.93827000000E+00 0.  1.
     999902    2    1    2    0    0 -0.17646714519E-01 -0.40963585045E-02 -0.14674632835E-01  0.10206162372E+01  0.10203499263E+01 0.  0.
     999903    2    3    3    0    0  0.11532035075E+00  0.49580367995E-01 -0.21469920946E-01  0.12898424623E+00  0.20469051815E-01 0.  0.
         14    1    1    2    0    0  0.17646714519E-01  0.40963585045E-02  0.14674632835E-01  0.23313762784E-01  0.00000000000E+00 0. -1.
     999901    1    3    3    0    0 -0.13296706527E+00 -0.53676726500E-01  0.67952881114E-02  0.89163199099E+00  0.88000000000E+00 0.  1.
        -11    1    4    4    0    0  0.96716491154E-01  0.47476802515E-01 -0.13334370455E-01  0.10856423442E+00  0.51100000000E-03 0. -1.
         11    1    4    4    0    0  0.18603859594E-01  0.21035654802E-02 -0.81355504912E-02  0.20420011809E-01  0.51100000000E-03 0.  1.
</event>
<event>
 8    1  0.1132492E+005  0.1043930E+01  0.7957747E-01            NaN
         13   -1    0    0    0    0  0.00000000000E+00  0.00000000000E+00  0.74505805969E-08  0.10566000000E+00  0.10566000000E+00 0. -1.
     999900   -1    0    0    0    0 -0.00000000000E+00 -0.00000000000E+00 -0.74505805969E-08  0.93827000000E+00  0.93827000000E+00 0.  1.
     999902    2    1    2    0    0 -0.16629306238E-02  0.23620952408E-01  0.20549432157E-02  0.10201615856E+01  0.10198846617E+01 0.  0.
     999903    2    3    3    0    0 -0.11929953746E+00  0.36859552769E-01 -0.33173597650E-01  0.13153642172E+00  0.24704987115E-01 0.  0.
         14    1    1    2    0    0  0.16629306238E-02 -0.23620952408E-01 -0.20549432157E-02  0.23768414389E-01  0.00000000000E+00 0.  1.
     999901    1    3    3    0    0  0.11763660684E+00 -0.13238600361E-01  0.35228540866E-01  0.88862516389E+00  0.88000000000E+00 0.  1.
        -11    1    4    4    0    0 -0.26964611096E-01 -0.45757835943E-03 -0.12910782268E-01  0.29903997212E-01  0.51100000000E-03 0.  1.
         11    1    4    4    0    0 -0.92334926369E-01  0.37317131128E-01 -0.20262815382E-01  0.10163242451E+00  0.51100000000E-03 0. -1.
</event>
<event>
 8    1  0.1132492E+005  0.1043930E+01  0.7957747E-01            NaN
         13   -1    0    0    0    0  0.00000000000E+00  0.00000000000E+00  0.74505805969E-08  0.10566000000E+00  0.10566000000E+00 0.  1.
     999900   -1    0    0    0    0 -0.00000000000E+00 -0.00000000000E+00 -0.74505805969E-08  0.93827000000E+00  0.93827000000E+00 0. -1.
     999902    2    1    2    0    0 -0.25892950046E-02 -0.15724187415E-01 -0.17477482917E-01  0.10202780037E+01  0.10200038176E+01 0.  0.
     999903    2    3    3    0    0  0.10250541971E-02  0.12474122148E+00 -0.26433718046E-01  0.12908565145E+00  0.20073387525E-01 0.  0.
         14    1    1    2    0    0  0.25892950046E-02  0.15724187415E-01  0.17477482917E-01  0.23651996271E-01  0.00000000000E+00 0.  1.
     999901    1    3    3    0    0 -0.36143492017E-02 -0.14046540890E+00  0.89562351288E-02  0.89119235228E+00  0.88000000000E+00 0.  1.
        -11    1    4    4    0    0  0.98666990362E-02  0.85540337154E-01 -0.19747953779E-01  0.88344461228E-01  0.51100000000E-03 0.  1.
         11    1    4    4    0    0 -0.88416448392E-02  0.39200884329E-01 -0.66857642663E-02  0.40741190219E-01  0.51100000000E-03 0. -1.
</event>
<event>
 8    1  0.1132492E+005  0.1043930E+01  0.7957747E-01            NaN
         13   -1    0    0    0    0  0.00000000000E+00  0.00000000000E+00  0.74505805969E-08  0.10566000000E+00  0.10566000000E+00 0.  1.
     999900   -1    0    0    0    0 -0.00000000000E+00 -0.00000000000E+00 -0.74505805969E-08  0.93827000000E+00  0.93827000000E+00 0.  1.
     999902    2    1    2    0    0  0.19431187738E-01 -0.91191942264E-02  0.79710675195E-02  0.10210330858E+01  0.10207763191E+01 0.  0.
     999903    2    3    3    0    0  0.11579685926E+00  0.34693661422E-01  0.53461680411E-01  0.13352235080E+00  0.18907779702E-01 0.  0.
         14    1    1    2    0    0 -0.19431187738E-01  0.91191942264E-02 -0.79710675195E-02  0.22896914151E-01  0.00000000000E+00 0.  1.
     999901    1    3    3    0    0 -0.96365671522E-01 -0.43812855648E-01 -0.45490612891E-01  0.88751073505E+00  0.88000000000E+00 0.  1.
        -11    1    4    4    0    0  0.10743743200E+00  0.27249332059E-01  0.45702917778E-01  0.11989305946E+00  0.51100000000E-03 0. -1.
         11    1    4    4    0    0  0.83594272569E-02  0.74443293624E-02  0.77587626327E-02  0.13629291336E-01  0.51100000000E-03 0.  1.
</event>
<event>
 8    1  0.1132492E+005  0.1043930E+01  0.7957747E-01            NaN
         13   -1    0    0    0    0  0.00000000000E+00  0.00000000000E+00  0.74505805969E-08  0.10566000000E+00  0.10566000000E+00 0.  1.
     999900   -1    0    0    0    0 -0.00000000000E+00 -0.00000000000E+00 -0.74505805969E-08  0.93827000000E+00  0.93827000000E+00 0. -1.
     999902    2    1    2    0    0  0.48813865047E-02 -0.11467739212E-01 -0.19620507387E-01  0.10206856182E+01  0.10204209082E+01 0.  0.
     999903    2    3    3    0    0 -0.19099949744E-03 -0.77498908541E-02  0.12679374425E+00  0.12856640832E+00  0.19813391382E-01 0.  0.
         14    1    1    2    0    0 -0.48813865047E-02  0.11467739212E-01  0.19620507387E-01  0.23244381837E-01  0.00000000000E+00 0.  1.
     999901    1    3    3    0    0  0.50723860021E-02 -0.37178483577E-02 -0.14641425163E+00  0.89211920985E+00  0.88000000000E+00 0. -1.
        -11    1    4    4    0    0  0.81515887906E-02 -0.71507565388E-02  0.42781160422E-01  0.44136951945E-01  0.51100000000E-03 0.  1.
         11    1    4    4    0    0 -0.83425882880E-02 -0.59913431533E-03  0.84012583825E-01  0.84429456372E-01  0.51100000000E-03 0. -1.
</event>
<event>
 8    1  0.1132492E+005  0.1043930E+01  0.7957747E-01            NaN
         13   -1    0    0    0    0  0.00000000000E+00  0.00000000000E+00  0.74505805969E-08  0.10566000000E+00  0.10566000000E+00 0. -1.
     999900   -1    0    0    0    0 -0.00000000000E+00 -0.00000000000E+00 -0.74505805969E-08  0.93827000000E+00  0.93827000000E+00 0.  1.
     999902    2    1    2    0    0  0.23264243817E-01  0.62073173328E-02  0.21834278540E-02  0.10197530857E+01  0.10194664450E+01 0.  0.
     999903    2    3    3    0    0  0.10345405370E+00  0.70044522846E-01 -0.39368505307E-01  0.13283022682E+00  0.22023022945E-01 0.  0.
         14    1    1    2    0    0 -0.23264243817E-01 -0.62073173328E-02 -0.21834278540E-02  0.24176914320E-01  0.00000000000E+00 0. -1.
     999901    1    3    3    0    0 -0.80189809882E-01 -0.63837205513E-01  0.41551933161E-01  0.88692285886E+00  0.88000000000E+00 0. -1.
        -11    1    4    4    0    0  0.45875830139E-01  0.20174154811E-01 -0.95092994554E-02  0.51012510332E-01  0.51100000000E-03 0.  1.
         11    1    4    4    0    0  0.57578223560E-01  0.49870368035E-01 -0.29859205852E-01  0.81817716489E-01  0.51100000000E-03 0. -1.
</event>
<event>
 8    1  0.1132492E+005  0.1043930E+01  0.7957747E-01            NaN
         13   -1    0    0    0    0  0.00000000000E+00  0.00000000000E+00  0.74505805969E-08  0.10566000000E+00  0.10566000000E+00 0. -1.
     999900   -1    0    0    0    0 -0.00000000000E+00 -0.00000000000E+00 -0.74505805969E-08  0.93827000000E+00  0.93827000000E+00 0. -1.
     999902    2    1    2    0    0 -0.14919385044E-01  0.14231412675E-01  0.10828838688E-01  0.10206408415E+01  0.10203750989E+01 0.  0.
     999903    2    3    3    0    0  0.38364931492E-01 -0.58400280253E-01  0.10873771426E+00  0.13064043187E+00  0.18988713332E-01 0.  0.
         14    1    1    2    0    0  0.14919385044E-01 -0.14231412675E-01 -0.10828838688E-01  0.23289158511E-01  0.00000000000E+00 0.  1.
     999901    1    3    3    0    0 -0.53284316537E-01  0.72631692928E-01 -0.97908875574E-01  0.89000040962E+00  0.88000000000E+00 0. -1.
        -11    1    4    4    0    0  0.19514204539E-01 -0.43299530651E-01  0.62811995889E-01  0.78748088750E-01  0.51100000000E-03 0.  1.
         11    1    4    4    0    0  0.18850726954E-01 -0.15100749602E-01  0.45925718374E-01  0.51892343119E-01  0.51100000000E-03 0. -1.
</event>
<event>
 8    1  0.1132492E+005  0.1043930E+01  0.7957747E-01            NaN
         13   -1    0    0    0    0  0.00000000000E+00  0.00000000000E+00  0.74505805969E-08  0.10566000000E+00  0.10566000000E+00 0.  1.
     999900   -1    0    0    0    0 -0.00000000000E+00 -0.00000000000E+00 -0.74505805969E-08  0.93827000000E+00  0.93827000000E+00 0.  1.
     999902    2    1    2    0    0  0.72325247754E-02  0.22250439085E-01 -0.45753228723E-02  0.10200904313E+01  0.10198118273E+01 0.  0.
     999903    2    3    3    0    0  0.12341560370E+00 -0.65162709613E-02  0.38257155551E-01  0.13095565380E+00  0.20295326767E-01 0.  0.
         14    1    1    2    0    0 -0.72325247754E-02 -0.22250439085E-01  0.45753228723E-02  0.23839568651E-01  0.00000000000E+00 0. -1.
     999901    1    3    3    0    0 -0.11618307892E+00  0.28766710046E-01 -0.42832478423E-01  0.88913477755E+00  0.88000000000E+00 0. -1.
        -11    1    4    4    0    0  0.43175245050E-01  0.53182955616E-02  0.71657212410E-02  0.44090755661E-01  0.51100000000E-03 0.  1.
         11    1    4    4    0    0  0.80240358648E-01 -0.11834566523E-01  0.31091434310E-01  0.86864898141E-01  0.51100000000E-03 0. -1.
</event>
<event>
 8    1  0.1132492E+005  0.1043930E+01  0.7957747E-01            NaN
         13   -1    0    0    0    0  0.00000000000E+00  0.00000000000E+00  0.74505805969E-08  0.10566000000E+00  0.10566000000E+00 0.  1.
     999900   -1    0    0    0    0 -0.00000000000E+00 -0.00000000000E+00 -0.74505805969E-08  0.93827000000E+00  0.93827000000E+00 0.  1.
     999902    2    1    2    0    0 -0.23187277113E-01  0.25561082912E-03  0.67264894680E-03  0.10207315601E+01  0.10204679075E+01 0.  0.
     999903    2    3    3    0    0  0.55337477861E-01 -0.11397185972E+00 -0.17085826555E-01  0.12970439126E+00  0.21897086061E-01 0.  0.
         14    1    1    2    0    0  0.23187277113E-01 -0.25561082912E-03 -0.67264894680E-03  0.23198439892E-01  0.00000000000E+00 0.  1.
     999901    1    3    3    0    0 -0.78524754974E-01  0.11422747055E+00  0.17758475502E-01  0.89102716885E+00  0.88000000000E+00 0.  1.
        -11    1    4    4    0    0  0.21747055377E-01 -0.37132469512E-01  0.40338613382E-02  0.43223695677E-01  0.51100000000E-03 0.  1.
         11    1    4    4    0    0  0.33590422484E-01 -0.76839390212E-01 -0.21119687894E-01  0.86480695583E-01  0.51100000000E-03 0. -1.
</event>
<event>
 8    1  0.1132492E+005  0.1043930E+01  0.7957747E-01            NaN
         13   -1    0    0    0    0  0.00000000000E+00  0.00000000000E+00  0.74505805969E-08  0.10566000000E+00  0.10566000000E+00 0.  1.
     999900   -1    0    0    0    0 -0.00000000000E+00 -0.00000000000E+00 -0.74505805969E-08  0.93827000000E+00  0.93827000000E+00 0.  1.
     999902    2    1    2    0    0  0.33848577992E-02 -0.56848364669E-02 -0.27317631895E-01  0.10158225697E+01  0.10154336342E+01 0.  0.
     999903    2    3    3    0    0  0.50693783675E-01  0.76553965078E-01  0.81028534614E-01  0.12411620165E+00  0.20219763071E-01 0.  0.
         14    1    1    2    0    0 -0.33848577992E-02  0.56848364669E-02  0.27317631895E-01  0.28107430340E-01  0.00000000000E+00 0.  1.
     999901    1    3    3    0    0 -0.47308925876E-01 -0.82238801545E-01 -0.10834616651E+00  0.89170636801E+00  0.88000000000E+00 0.  1.
        -11    1    4    4    0    0  0.43508231427E-01  0.54101251150E-01  0.52140391717E-01  0.86826223846E-01  0.51100000000E-03 0. -1.
         11    1    4    4    0    0  0.71855522477E-02  0.22452713928E-01  0.28888142897E-01  0.37289977808E-01  0.51100000000E-03 0.  1.
</event>
<event>
 8    1  0.1132492E+005  0.1043930E+01  0.7957747E-01            NaN
         13   -1    0    0    0    0  0.00000000000E+00  0.00000000000E+00  0.74505805969E-08  0.10566000000E+00  0.10566000000E+00 0. -1.
     999900   -1    0    0    0    0 -0.00000000000E+00 -0.00000000000E+00 -0.74505805969E-08  0.93827000000E+00  0.93827000000E+00 0. -1.
     999902    2    1    2    0    0  0.99405280843E-02  0.19626189397E-01  0.57747487276E-02  0.10211846899E+01  0.10209313502E+01 0.  0.
     999903    2    3    3    0    0 -0.16790803440E-01  0.31283797359E-02 -0.12770190463E+00  0.13056537796E+00  0.21161843818E-01 0.  0.
         14    1    1    2    0    0 -0.99405280843E-02 -0.19626189397E-01 -0.57747487276E-02  0.22745310104E-01  0.00000000000E+00 0.  1.
     999901    1    3    3    0    0  0.26731331524E-01  0.16497809661E-01  0.13347665336E+00  0.89061931194E+00  0.88000000000E+00 0.  1.
        -11    1    4    4    0    0 -0.18321015882E-01 -0.42944743489E-02 -0.75381275010E-01  0.77696202456E-01  0.51100000000E-03 0. -1.
         11    1    4    4    0    0  0.15302124422E-02  0.74228540848E-02 -0.52320629623E-01  0.52869175500E-01  0.51100000000E-03 0.  1.
</event>
<event>
 8    1  0.1132492E+005  0.1043930E+01  0.7957747E-01            NaN
         13   -1    0    0    0    0  0.00000000000E+00  0.00000000000E+00  0.74505805969E-08  0.10566000000E+00  0.10566000000E+00 0.  1.
     999900   -1    0    0    0    0 -0.00000000000E+00 -0.00000000000E+00 -0.74505805969E-08  0.93827000000E+00  0.93827000000E+00 0.  1.
     999902    2    1    2    0    0 -0.15550646363E-01 -0.95171463153E-02  0.17410212331E-01  0.10187205936E+01  0.10184086281E+01 0.  0.
     999903    2    3    3    0    0 -0.11420365008E+00 -0.46538238652E-01  0.42468100958E-01  0.13208037674E+00  0.20818380636E-01 0.  0.
         14    1    1    2    0    0  0.15550646363E-01  0.95171463153E-02 -0.17410212331E-01  0.25209406374E-01  0.00000000000E+00 0. -1.
     999901    1    3    3    0    0  0.98653003716E-01  0.37021092336E-01 -0.25057888628E-01  0.88664021689E+00  0.88000000000E+00 0. -1.
        -11    1    4    4    0    0 -0.98391155484E-01 -0.34805469977E-01  0.41637609518E-01  0.11236632888E+00  0.51100000000E-03 0. -1.
         11    1    4    4    0    0 -0.15812494595E-01 -0.11732768674E-01  0.83049144005E-03  0.19714047862E-01  0.51100000000E-03 0.  1.
</event>
<event>
 8    1  0.1153177E+005  0.1043930E+01  0.7957747E-01            NaN
         13   -1    0    0    0    0  0.00000000000E+00  0.00000000000E+00  0.74505805969E-08  0.10566000000E+00  0.10566000000E+00 0.  1.
     999900   -1    0    0    0    0 -0.00000000000E+00 -0.00000000000E+00 -0.74505805969E-08  0.93827000000E+00  0.93827000000E+00 0. -1.
     999902    2    1    2    0    0  0.12605820024E-01 -0.20159411101E-01 -0.32934644275E-02  0.10199267614E+01  0.10196442729E+01 0.  0.
     999903    2    3    3    0    0  0.53827267987E-01  0.11508765722E+00  0.15813366097E-02  0.12862729382E+00  0.19998411604E-01 0.  0.
         14    1    1    2    0    0 -0.12605820024E-01  0.20159411101E-01  0.32934644275E-02  0.24003238580E-01  0.00000000000E+00 0.  1.
     999901    1    3    3    0    0 -0.41221447963E-01 -0.13524706832E+00 -0.48748010372E-02  0.89129946760E+00  0.88000000000E+00 0.  1.
        -11    1    4    4    0    0  0.20034075411E-01  0.65124636077E-01 -0.23504350005E-02  0.68178941525E-01  0.51100000000E-03 0.  1.
         11    1    4    4    0    0  0.33793192576E-01  0.49963021141E-01  0.39317716102E-02  0.60448352294E-01  0.51100000000E-03 0. -1.
</event>
<event>
 7    1  0.1132492E+005  0.1043930E+01  0.7957747E-01            NaN
         13   -1    0    0    0    0  0.00000000000E+00  0.00000000000E+00  0.74505805969E-08  0.10566000000E+00  0.10566000000E+00 0. -1.
     999900   -1    0    0    0    0 -0.00000000000E+00 -0.00000000000E+00 -0.74505805969E-08  0.93827000000E+00  0.93827000000E+00 0. -1.
     999902    2    1    2    0    0  0.65798889395E-02 -0.26693761849E-01  0.25569403777E-02  0.10163185929E+01  0.10159434494E+01 0.  0.
         14    1    1    2    0    0 -0.65798889395E-02  0.26693761849E-01 -0.25569403777E-02  0.27611407139E-01  0.00000000000E+00 0. -1.
     999901    1    3    3    0    0  0.31720893225E-01  0.25554778009E-01 -0.10428270975E+00  0.88709308717E+00  0.88000000000E+00 0.  1.
        -11    1    3    3    0    0  0.11401445880E-01 -0.42110689597E-02  0.14774560771E-01  0.19138308100E-01  0.51100000000E-03 0. -1.
         11    1    3    3    0    0 -0.36542450166E-01 -0.48037470898E-01  0.92065089360E-01  0.11008719759E+00  0.51100000000E-03 0.  1.
</event>
<event>
 8    1  0.1144021E+005  0.1043930E+01  0.7957747E-01            NaN
         13   -1    0    0    0    0  0.00000000000E+00  0.00000000000E+00  0.74505805969E-08  0.10566000000E+00  0.10566000000E+00 0.  1.
     999900   -1    0    0    0    0 -0.00000000000E+00 -0.00000000000E+00 -0.74505805969E-08  0.93827000000E+00  0.93827000000E+00 0. -1.
     999902    2    1    2    0    0 -0.97320107916E-02  0.21167106759E-01  0.38298975368E-02  0.10203201174E+01  0.10200469182E+01 0.  0.
     999903    2    3    3    0    0  0.71946733688E-01 -0.52713934631E-01 -0.89850416640E-01  0.12852090968E+00  0.22123188325E-01 0.  0.
         14    1    1    2    0    0  0.97320107916E-02 -0.21167106759E-01 -0.38298975368E-02  0.23609882629E-01  0.00000000000E+00 0.  1.
     999901    1    3    3    0    0 -0.81678744479E-01  0.73881041390E-01  0.93680314177E-01  0.89179920769E+00  0.88000000000E+00 0.  1.
        -11    1    4    4    0    0  0.24116106093E-01 -0.25414171566E-01 -0.23036651627E-01  0.41933460728E-01  0.51100000000E-03 0.  1.
         11    1    4    4    0    0  0.47830627595E-01 -0.27299763065E-01 -0.66813765013E-01  0.86587448950E-01  0.51100000000E-03 0. -1.
</event>
<event>
 8    1  0.1132492E+005  0.1043930E+01  0.7957747E-01            NaN
         13   -1    0    0    0    0  0.00000000000E+00  0.00000000000E+00  0.74505805969E-08  0.10566000000E+00  0.10566000000E+00 0. -1.
     999900   -1    0    0    0    0 -0.00000000000E+00 -0.00000000000E+00 -0.74505805969E-08  0.93827000000E+00  0.93827000000E+00 0.  1.
     999902    2    1    2    0    0 -0.24750464400E-01  0.95185369723E-02  0.81029756326E-04  0.10174121833E+01  0.10170665446E+01 0.  0.
     999903    2    3    3    0    0  0.11173496872E+00  0.53177920120E-01 -0.10944721659E-01  0.12575306553E+00  0.19530799638E-01 0.  0.
         14    1    1    2    0    0  0.24750464400E-01 -0.95185369723E-02 -0.81029756326E-04  0.26517816651E-01  0.00000000000E+00 0.  1.
     999901    1    3    3    0    0 -0.13648543312E+00 -0.43659383148E-01  0.11025751415E-01  0.89165911782E+00  0.88000000000E+00 0. -1.
        -11    1    4    4    0    0  0.53252099361E-01  0.24849424991E-01  0.45627215992E-02  0.58943698206E-01  0.51100000000E-03 0. -1.
         11    1    4    4    0    0  0.58482869363E-01  0.28328495129E-01 -0.15507443258E-01  0.66809367326E-01  0.51100000000E-03 0.  1.
</event>
<event>
 8    1  0.1132492E+005  0.1043930E+01  0.7957747E-01            NaN
         13   -1    0    0    0    0  0.00000000000E+00  0.00000000000E+00  0.74505805969E-08  0.10566000000E+00  0.10566000000E+00 0.  1.
     999900   -1    0    0    0    0 -0.00000000000E+00 -0.00000000000E+00 -0.74505805969E-08  0.93827000000E+00  0.93827000000E+00 0. -1.
     999902    2    1    2    0    0  0.24144080011E-01  0.21613044923E-02 -0.50697263146E-02  0.10191649044E+01  0.10188639715E+01 0.  0.
     999903    2    3    3    0    0 -0.47342536246E-01  0.85437148768E-02  0.11774068431E+00  0.12774274376E+00  0.11875564801E-01 0.  0.
         14    1    1    2    0    0 -0.24144080011E-01 -0.21613044923E-02  0.50697263146E-02  0.24765095630E-01  0.00000000000E+00 0.  1.
     999901    1    3    3    0    0  0.71486616257E-01 -0.63824103846E-02 -0.12281041063E+00  0.89142216061E+00  0.88000000000E+00 0. -1.
        -11    1    4    4    0    0 -0.23421523852E-01  0.26951074650E-02  0.72401161506E-01  0.76144735158E-01  0.51100000000E-03 0. -1.
         11    1    4    4    0    0 -0.23921012394E-01  0.58486074119E-02  0.45339522805E-01  0.51598008603E-01  0.51100000000E-03 0.  1.
</event>
<event>
 8    1  0.1132492E+005  0.1043930E+01  0.7957747E-01            NaN
         13   -1    0    0    0    0  0.00000000000E+00  0.00000000000E+00  0.74505805969E-08  0.10566000000E+00  0.10566000000E+00 0.  1.
     999900   -1    0    0    0    0 -0.00000000000E+00 -0.00000000000E+00 -0.74505805969E-08  0.93827000000E+00  0.93827000000E+00 0.  1.
     999902    2    1    2    0    0  0.36168568657E-02  0.23639509171E-01  0.87326227510E-02  0.10184708809E+01  0.10181526253E+01 0.  0.
     999903    2    3    3    0    0  0.95550256552E-02  0.98990838291E-01 -0.82222080944E-01  0.13055993781E+00  0.19873152409E-01 0.  0.
         14    1    1    2    0    0 -0.36168568657E-02 -0.23639509171E-01 -0.87326227510E-02  0.25459119143E-01  0.00000000000E+00 0.  1.
     999901    1    3    3    0    0 -0.59381687895E-02 -0.75351329120E-01  0.90954703695E-01  0.88791094304E+00  0.88000000000E+00 0. -1.
        -11    1    4    4    0    0  0.13804028017E-01  0.44971967794E-01 -0.42134725777E-01  0.63155564395E-01  0.51100000000E-03 0.  1.
         11    1    4    4    0    0 -0.42490023619E-02  0.54018870497E-01 -0.40087355167E-01  0.67404373420E-01  0.51100000000E-03 0. -1.
</event>
<event>
 8    1  0.1132492E+005  0.1043930E+01  0.7957747E-01            NaN
         13   -1    0    0    0    0  0.00000000000E+00  0.00000000000E+00  0.74505805969E-08  0.10566000000E+00  0.10566000000E+00 0. -1.
     999900   -1    0    0    0    0 -0.00000000000E+00 -0.00000000000E+00 -0.74505805969E-08  0.93827000000E+00  0.93827000000E+00 0.  1.
     999902    2    1    2    0    0 -0.10082718384E-02  0.10497017952E-02 -0.24256187603E-01  0.10196301827E+01  0.10193405850E+01 0.  0.
     999903    2    3    3    0    0  0.58985341413E-01 -0.93327207069E-01 -0.69232396452E-01  0.13141337696E+00  0.16944404521E-01 0.  0.
         14    1    1    2    0    0  0.10082718384E-02 -0.10497017952E-02  0.24256187603E-01  0.24299817345E-01  0.00000000000E+00 0. -1.
     999901    1    3    3    0    0 -0.59993613251E-01  0.94376908865E-01  0.44976208849E-01  0.88821680570E+00  0.88000000000E+00 0. -1.
        -11    1    4    4    0    0  0.43153672788E-01 -0.78549307403E-01 -0.60066121812E-01  0.10789083964E+00  0.51100000000E-03 0. -1.
         11    1    4    4    0    0  0.15831668624E-01 -0.14777899667E-01 -0.91662746391E-02  0.23522537315E-01  0.51100000000E-03 0.  1.
</event>
<event>
 8    1  0.1132492E+005  0.1043930E+01  0.7957747E-01            NaN
         13   -1    0    0    0    0  0.00000000000E+00  0.00000000000E+00  0.74505805969E-08  0.10566000000E+00  0.10566000000E+00 0. -1.
     999900   -1    0    0    0    0 -0.00000000000E+00 -0.00000000000E+00 -0.74505805969E-08  0.93827000000E+00  0.93827000000E+00 0.  1.
     999902    2    1    2    0    0  0.31443867441E-02 -0.20671320481E-01 -0.94481530884E-02  0.10209853219E+01  0.10207274706E+01 0.  0.
     999903    2    3    3    0    0  0.63124745432E-01 -0.30738882130E-01  0.10892803583E+00  0.13097862450E+00  0.18986066630E-01 0.  0.
         14    1    1    2    0    0 -0.31443867441E-02  0.20671320481E-01  0.94481530884E-02  0.22944678146E-01  0.00000000000E+00 0. -1.
     999901    1    3    3    0    0 -0.59980358688E-01  0.10067561649E-01 -0.11837618892E+00  0.89000669735E+00  0.88000000000E+00 0.  1.
        -11    1    4    4    0    0  0.40975506055E-01 -0.17895003360E-01  0.84424181159E-01  0.95534950291E-01  0.51100000000E-03 0. -1.
         11    1    4    4    0    0  0.22149239377E-01 -0.12843878771E-01  0.24503854673E-01  0.35443674213E-01  0.51100000000E-03 0.  1.
</event>
<event>
 8    1  0.1132492E+005  0.1043930E+01  0.7957747E-01            NaN
         13   -1    0    0    0    0  0.00000000000E+00  0.00000000000E+00  0.74505805969E-08  0.10566000000E+00  0.10566000000E+00 0. -1.
     999900   -1    0    0    0    0 -0.00000000000E+00 -0.00000000000E+00 -0.74505805969E-08  0.93827000000E+00  0.93827000000E+00 0.  1.
     999902    2    1    2    0    0  0.48730369228E-03 -0.13104805078E-01  0.19737303047E-01  0.10202332806E+01  0.10199580444E+01 0.  0.
     999903    2    3    3    0    0  0.83961736632E-01 -0.99206916086E-01  0.11041192472E-01  0.13205695976E+00  0.20628797171E-01 0.  0.
         14    1    1    2    0    0 -0.48730369228E-03  0.13104805078E-01 -0.19737303047E-01  0.23696719447E-01  0.00000000000E+00 0.  1.
     999901    1    3    3    0    0 -0.83474432940E-01  0.86102111008E-01  0.86961105747E-02  0.88817632079E+00  0.88000000000E+00 0. -1.
        -11    1    4    4    0    0  0.32726416370E-01 -0.49678883090E-01 -0.23900664139E-02  0.59539762277E-01  0.51100000000E-03 0.  1.
         11    1    4    4    0    0  0.51235320262E-01 -0.49528032995E-01  0.13431258886E-01  0.72517197485E-01  0.51100000000E-03 0. -1.
</event>
<event>
 8    1  0.1132492E+005  0.1043930E+01  0.7957747E-01            NaN
         13   -1    0    0    0    0  0.00000000000E+00  0.00000000000E+00  0.74505805969E-08  0.10566000000E+00  0.10566000000E+00 0. -1.
     999900   -1    0    0    0    0 -0.00000000000E+00 -0.00000000000E+00 -0.74505805969E-08  0.93827000000E+00  0.93827000000E+00 0.  1.
     999902    2    1    2    0    0 -0.47555026666E-02 -0.11898930802E-01 -0.19416958405E-01  0.10206659154E+01  0.10204007513E+01 0.  0.
     999903    2    3    3    0    0 -0.41652630093E-01  0.10793881546E+00 -0.57931159159E-01  0.13094358391E+00  0.20111526287E-01 0.  0.
         14    1    1    2    0    0  0.47555026666E-02  0.11898930802E-01  0.19416958405E-01  0.23264084627E-01  0.00000000000E+00 0. -1.
     999901    1    3    3    0    0  0.36897127427E-01 -0.11983774626E+00  0.38514200754E-01  0.88972233146E+00  0.88000000000E+00 0. -1.
        -11    1    4    4    0    0 -0.12591686000E-01  0.54431907647E-01 -0.34703564566E-01  0.65772195044E-01  0.51100000000E-03 0. -1.
         11    1    4    4    0    0 -0.29060944093E-01  0.53506907812E-01 -0.23227594593E-01  0.65171388867E-01  0.51100000000E-03 0.  1.
</event>
<event>
 8    1  0.1132492E+005  0.1043930E+01  0.7957747E-01            NaN
         13   -1    0    0    0    0  0.00000000000E+00  0.00000000000E+00  0.74505805969E-08  0.10566000000E+00  0.10566000000E+00 0. -1.
     999900   -1    0    0    0    0 -0.00000000000E+00 -0.00000000000E+00 -0.74505805969E-08  0.93827000000E+00  0.93827000000E+00 0.  1.
     999902    2    1    2    0    0 -0.77295382091E-03  0.12235362521E-01  0.19507808957E-01  0.10208896839E+01  0.10206296540E+01 0.  0.
     999903    2    3    3    0    0  0.10234292985E+00  0.19503642807E-01 -0.75902292088E-01  0.12971697299E+00  0.14521286657E-01 0.  0.
         14    1    1    2    0    0  0.77295382091E-03 -0.12235362521E-01 -0.19507808957E-01  0.23040316055E-01  0.00000000000E+00 0.  1.
     999901    1    3    3    0    0 -0.10311588367E+00 -0.72682802865E-02  0.95410101044E-01  0.89117271095E+00  0.88000000000E+00 0. -1.
        -11    1    4    4    0    0  0.65194857204E-01  0.70144695169E-02 -0.41797056232E-01  0.77761347847E-01  0.51100000000E-03 0. -1.
         11    1    4    4    0    0  0.37148072643E-01  0.12489173290E-01 -0.34105235856E-01  0.51955625146E-01  0.51100000000E-03 0.  1.
</event>
<event>
 8    1  0.1132492E+005  0.1043930E+01  0.7957747E-01            NaN
         13   -1    0    0    0    0  0.00000000000E+00  0.00000000000E+00  0.74505805969E-08  0.10566000000E+00  0.10566000000E+00 0.  1.
     999900   -1    0    0    0    0 -0.00000000000E+00 -0.00000000000E+00 -0.74505805969E-08  0.93827000000E+00  0.93827000000E+00 0.  1.
     999902    2    1    2    0    0 -0.16728736944E-01  0.18025230574E-01  0.35331819793E-02  0.10190856253E+01  0.10187827388E+01 0.  0.
     999903    2    3    3    0    0  0.92177984020E-01 -0.55449636541E-01 -0.64074325562E-01  0.12676841435E+00  0.19831004757E-01 0.  0.
         14    1    1    2    0    0  0.16728736944E-01 -0.18025230574E-01 -0.35331819793E-02  0.24844374652E-01  0.00000000000E+00 0.  1.
     999901    1    3    3    0    0 -0.10890672096E+00  0.73474867115E-01  0.67607507541E-01  0.89231721100E+00  0.88000000000E+00 0.  1.
        -11    1    4    4    0    0  0.61565316490E-01 -0.31098900362E-01 -0.50007252335E-01  0.85196339155E-01  0.51100000000E-03 0. -1.
         11    1    4    4    0    0  0.30612667530E-01 -0.24350736179E-01 -0.14067073227E-01  0.41572075194E-01  0.51100000000E-03 0.  1.
</event>
<event>
 8    1  0.1132492E+005  0.1043930E+01  0.7957747E-01            NaN
         13   -1    0    0    0    0  0.00000000000E+00  0.00000000000E+00  0.74505805969E-08  0.10566000000E+00  0.10566000000E+00 0. -1.
     999900   -1    0    0    0    0 -0.00000000000E+00 -0.00000000000E+00 -0.74505805969E-08  0.93827000000E+00  0.93827000000E+00 0.  1.
     999902    2    1    2    0    0  0.85986691750E-02  0.10783735282E-01  0.21658013346E-01  0.10182532479E+01  0.10179294579E+01 0.  0.
     999903    2    3    3    0    0  0.10698042202E+00  0.65493547381E-01  0.32047082381E-01  0.13102156133E+00  0.20135009285E-01 0.  0.
         14    1    1    2    0    0 -0.85986691750E-02 -0.10783735282E-01 -0.21658013346E-01  0.25676752137E-01  0.00000000000E+00 0.  1.
     999901    1    3    3    0    0 -0.98381752850E-01 -0.54709812099E-01 -0.10389069035E-01  0.88723168653E+00  0.88000000000E+00 0. -1.
        -11    1    4    4    0    0  0.63379266561E-01  0.49696195198E-01  0.23104005037E-01  0.83789614015E-01  0.51100000000E-03 0. -1.
         11    1    4    4    0    0  0.43601155463E-01  0.15797352183E-01  0.89430773443E-02  0.47231947315E-01  0.51100000000E-03 0.  1.
</event>
<event>
 8    1  0.1132492E+005  0.1043930E+01  0.7957747E-01            NaN
         13   -1    0    0    0    0  0.00000000000E+00  0.00000000000E+00  0.74505805969E-08  0.10566000000E+00  0.10566000000E+00 0.  1.
     999900   -1    0    0    0    0 -0.00000000000E+00 -0.00000000000E+00 -0.74505805969E-08  0.93827000000E+00  0.93827000000E+00 0. -1.
     999902    2    1    2    0    0  0.40429216439E-02  0.91101896897E-02 -0.19649555724E-01  0.10218971651E+01  0.10216596157E+01 0.  0.
     999903    2    3    3    0    0 -0.30286770895E-01  0.30979175214E-01  0.12088807609E+00  0.12981667199E+00  0.19011670046E-01 0.  0.
         14    1    1    2    0    0 -0.40429216439E-02 -0.91101896897E-02  0.19649555724E-01  0.22032834855E-01  0.00000000000E+00 0.  1.
     999901    1    3    3    0    0  0.34329692539E-01 -0.21868985525E-01 -0.14053763181E+00  0.89208049316E+00  0.88000000000E+00 0. -1.
        -11    1    4    4    0    0 -0.17698265075E-01  0.10945181213E-01  0.79093142159E-01  0.81786379282E-01  0.51100000000E-03 0. -1.
         11    1    4    4    0    0 -0.12588505820E-01  0.20033994002E-01  0.41794933927E-01  0.48030292705E-01  0.51100000000E-03 0.  1.
</event>
<event>
 8    1  0.1132492E+005  0.1043930E+01  0.7957747E-01            NaN
         13   -1    0    0    0    0  0.00000000000E+00  0.00000000000E+00  0.74505805969E-08  0.10566000000E+00  0.10566000000E+00 0.  1.
     999900   -1    0    0    0    0 -0.00000000000E+00 -0.00000000000E+00 -0.74505805969E-08  0.93827000000E+00  0.93827000000E+00 0.  1.
     999902    2    1    2    0    0  0.10528936982E-01  0.21430758056E-01  0.10933878904E-02  0.10200274603E+01  0.10197473650E+01 0.  0.
     999903    2    3    3    0    0 -0.25362513608E-01  0.36365500679E-01  0.12143880822E+00  0.13098625604E+00  0.21078624094E-01 0.  0.
         14    1    1    2    0    0 -0.10528936982E-01 -0.21430758056E-01 -0.10933878904E-02  0.23902539654E-01  0.00000000000E+00 0.  1.
     999901    1    3    3    0    0  0.35891450590E-01 -0.14934742623E-01 -0.12034542033E+00  0.88904120431E+00  0.88000000000E+00 0.  1.
        -11    1    4    4    0    0 -0.24843433830E-01  0.21510950695E-01  0.68151665767E-01  0.75662592290E-01  0.51100000000E-03 0. -1.
         11    1    4    4    0    0 -0.51907977767E-03  0.14854549984E-01  0.53287142450E-01  0.55323663749E-01  0.51100000000E-03 0.  1.
</event>
<event>
 8    1  0.1132492E+005  0.1043930E+01  0.7957747E-01            NaN
         13   -1    0    0    0    0  0.00000000000E+00  0.00000000000E+00  0.74505805969E-08  0.10566000000E+00  0.10566000000E+00 0.  1.
     999900   -1    0    0    0    0 -0.00000000000E+00 -0.00000000000E+00 -0.74505805969E-08  0.93827000000E+00  0.93827000000E+00 0. -1.
     999902    2    1    2    0    0  0.28714902004E-02  0.21240495061E-01  0.67501650919E-02  0.10214584888E+01  0.10212112786E+01 0.  0.
     999903    2    3    3    0    0 -0.24362574003E-01  0.86754761830E-01 -0.95024333617E-01  0.13275614157E+00  0.21786358863E-01 0.  0.
         14    1    1    2    0    0 -0.28714902004E-02 -0.21240495061E-01 -0.67501650919E-02  0.22471511191E-01  0.00000000000E+00 0.  1.
     999901    1    3    3    0    0  0.27234064204E-01 -0.65514266769E-01  0.10177449871E+00  0.88870234724E+00  0.88000000000E+00 0.  1.
        -11    1    4    4    0    0 -0.12832021444E-01  0.75153132562E-01 -0.75819849212E-01  0.10752471699E+00  0.51100000000E-03 0.  1.
         11    1    4    4    0    0 -0.11530552559E-01  0.11601629268E-01 -0.19204484406E-01  0.25231424579E-01  0.51100000000E-03 0. -1.
</event>
<event>
 8    1  0.1132492E+005  0.1043930E+01  0.7957747E-01            NaN
         13   -1    0    0    0    0  0.00000000000E+00  0.00000000000E+00  0.74505805969E-08  0.10566000000E+00  0.10566000000E+00 0. -1.
     999900   -1    0    0    0    0 -0.00000000000E+00 -0.00000000000E+00 -0.74505805969E-08  0.93827000000E+00  0.93827000000E+00 0.  1.
     999902    2    1    2    0    0  0.15196386253E-01  0.16204749532E-01 -0.91946510452E-02  0.10198870037E+01  0.10196035674E+01 0.  0.
     999903    2    3    3    0    0 -0.70465684541E-02  0.12970702482E+00 -0.11984119316E-01  0.13231430435E+00  0.22133449869E-01 0.  0.
         14    1    1    2    0    0 -0.15196386253E-01 -0.16204749532E-01  0.91946510452E-02  0.24042996285E-01  0.00000000000E+00 0. -1.
     999901    1    3    3    0    0  0.22242954707E-01 -0.11350227529E+00  0.27894682712E-02  0.88757269937E+00  0.88000000000E+00 0. -1.
        -11    1    4    4    0    0 -0.10117658960E-02  0.51866692211E-01 -0.15543760832E-01  0.54157613065E-01  0.51100000000E-03 0.  1.
         11    1    4    4    0    0 -0.60348025581E-02  0.77840332614E-01  0.35596415153E-02  0.78156691281E-01  0.51100000000E-03 0. -1.
</event>
<event>
 8    1  0.1132492E+005  0.1043930E+01  0.7957747E-01            NaN
         13   -1    0    0    0    0  0.00000000000E+00  0.00000000000E+00  0.74505805969E-08  0.10566000000E+00  0.10566000000E+00 0. -1.
     999900   -1    0    0    0    0 -0.00000000000E+00 -0.00000000000E+00 -0.74505805969E-08  0.93827000000E+00  0.93827000000E+00 0.  1.
     999902    2    1    2    0    0 -0.17920494549E-01  0.91414974709E-02 -0.13263055006E-01  0.10198339479E+01  0.10195492443E+01 0.  0.
     999903    2    3    3    0    0 -0.88378098072E-01 -0.47395989978E-01 -0.84278394191E-01  0.13236341889E+00  0.18977851513E-01 0.  0.
         14    1    1    2    0    0  0.17920494549E-01 -0.91414974709E-02  0.13263055006E-01  0.24096052145E-01  0.00000000000E+00 0. -1.
     999901    1    3    3    0    0  0.70457603523E-01  0.56537487448E-01  0.71015339185E-01  0.88747052896E+00  0.88000000000E+00 0.  1.
        -11    1    4    4    0    0 -0.54240139973E-01 -0.22704501775E-01 -0.39266398379E-01  0.70707837952E-01  0.51100000000E-03 0. -1.
         11    1    4    4    0    0 -0.34137958098E-01 -0.24691488202E-01 -0.45011995813E-01  0.61655580938E-01  0.51100000000E-03 0.  1.
</event>
<event>
 8    1  0.1132492E+005  0.1043930E+01  0.7957747E-01            NaN
         13   -1    0    0    0    0  0.00000000000E+00  0.00000000000E+00  0.74505805969E-08  0.10566000000E+00  0.10566000000E+00 0. -1.
     999900   -1    0    0    0    0 -0.00000000000E+00 -0.00000000000E+00 -0.74505805969E-08  0.93827000000E+00  0.93827000000E+00 0.  1.
     999902    2    1    2    0    0  0.18353920439E-01  0.14703145421E-01  0.40306080592E-02  0.10200701031E+01  0.10197910180E+01 0.  0.
     999903    2    3    3    0    0 -0.49121729914E-01 -0.10841890605E+00  0.42748674177E-01  0.12809976073E+00  0.20359175249E-01 0.  0.
         14    1    1    2    0    0 -0.18353920439E-01 -0.14703145421E-01 -0.40306080592E-02  0.23859896942E-01  0.00000000000E+00 0.  1.
     999901    1    3    3    0    0  0.67475650353E-01  0.12312205147E+00 -0.38718066118E-01  0.89197034233E+00  0.88000000000E+00 0. -1.
        -11    1    4    4    0    0 -0.39449148127E-01 -0.67657327575E-01  0.33560338089E-01  0.85207433221E-01  0.51100000000E-03 0.  1.
         11    1    4    4    0    0 -0.96725817872E-02 -0.40761578473E-01  0.91883360879E-02  0.42892327509E-01  0.51100000000E-03 0. -1.
</event>
<event>
 8    1  0.1132492E+005  0.1043930E+01  0.7957747E-01            NaN
         13   -1    0    0    0    0  0.00000000000E+00  0.00000000000E+00  0.74505805969E-08  0.10566000000E+00  0.10566000000E+00 0. -1.
     999900   -1    0    0    0    0 -0.00000000000E+00 -0.00000000000E+00 -0.74505805969E-08  0.93827000000E+00  0.93827000000E+00 0.  1.
     999902    2    1    2    0    0 -0.16043459518E-01 -0.18288288096E-01  0.65540560218E-02  0.10187345694E+01  0.10184229539E+01 0.  0.
     999903    2    3    3    0    0 -0.87525324175E-01  0.91967053836E-01 -0.86901579963E-02  0.12884790047E+00  0.20190127473E-01 0.  0.
         14    1    1    2    0    0  0.16043459518E-01  0.18288288096E-01 -0.65540560218E-02  0.25195430640E-01  0.00000000000E+00 0. -1.
     999901    1    3    3    0    0  0.71481864657E-01 -0.11025534193E+00  0.15244214018E-01  0.88988666889E+00  0.88000000000E+00 0.  1.
        -11    1    4    4    0    0 -0.48252361151E-01  0.36105821892E-01 -0.40876029123E-02  0.60406045639E-01  0.51100000000E-03 0. -1.
         11    1    4    4    0    0 -0.39272963024E-01  0.55861231945E-01 -0.46025550841E-02  0.68441854836E-01  0.51100000000E-03 0.  1.
</event>
<event>
 8    1  0.1132492E+005  0.1043930E+01  0.7957747E-01            NaN
         13   -1    0    0    0    0  0.00000000000E+00  0.00000000000E+00  0.74505805969E-08  0.10566000000E+00  0.10566000000E+00 0. -1.
     999900   -1    0    0    0    0 -0.00000000000E+00 -0.00000000000E+00 -0.74505805969E-08  0.93827000000E+00  0.93827000000E+00 0.  1.
     999902    2    1    2    0    0  0.21053742900E-01 -0.55882645187E-02 -0.10312140732E-01  0.10198296050E+01  0.10195447976E+01 0.  0.
     999903    2    3    3    0    0 -0.16400456259E-01 -0.12741709941E+00  0.89626900984E-02  0.13043846435E+00  0.20730918488E-01 0.  0.
         14    1    1    2    0    0 -0.21053742900E-01  0.55882645187E-02  0.10312140732E-01  0.24100394953E-01  0.00000000000E+00 0. -1.
     999901    1    3    3    0    0  0.37454199159E-01  0.12182883489E+00 -0.19274830830E-01  0.88939114070E+00  0.88000000000E+00 0. -1.
        -11    1    4    4    0    0 -0.36711860291E-02 -0.47283301725E-01  0.13064180799E-01  0.49194737217E-01  0.51100000000E-03 0.  1.
         11    1    4    4    0    0 -0.12729270230E-01 -0.80133797683E-01 -0.41014907005E-02  0.81243727134E-01  0.51100000000E-03 0. -1.
</event>
<event>
 8    1  0.1132492E+005  0.1043930E+01  0.7957747E-01            NaN
         13   -1    0    0    0    0  0.00000000000E+00  0.00000000000E+00  0.74505805969E-08  0.10566000000E+00  0.10566000000E+00 0.  1.
     999900   -1    0    0    0    0 -0.00000000000E+00 -0.00000000000E+00 -0.74505805969E-08  0.93827000000E+00  0.93827000000E+00 0.  1.
     999902    2    1    2    0    0  0.15216373354E-01  0.16203839880E-01  0.92708421650E-02  0.10198457529E+01  0.10195613315E+01 0.  0.
     999903    2    3    3    0    0 -0.10660549642E+00 -0.43923037062E-01  0.53061761264E-01  0.12834507768E+00  0.19051073566E-01 0.  0.
         14    1    1    2    0    0 -0.15216373354E-01 -0.16203839880E-01 -0.92708421650E-02  0.24084247120E-01  0.00000000000E+00 0.  1.
     999901    1    3    3    0    0  0.12182186978E+00  0.60126876942E-01 -0.43790919099E-01  0.89150067520E+00  0.88000000000E+00 0. -1.
        -11    1    4    4    0    0 -0.94173978826E-01 -0.33579175348E-01  0.50329559251E-01  0.11193580732E+00  0.51100000000E-03 0.  1.
         11    1    4    4    0    0 -0.12431517597E-01 -0.10343861715E-01  0.27322020135E-02  0.16409270361E-01  0.51100000000E-03 0. -1.
</event>
<event>
 8    1  0.1132492E+005  0.1043930E+01  0.7957747E-01            NaN
         13   -1    0    0    0    0  0.00000000000E+00  0.00000000000E+00  0.74505805969E-08  0.10566000000E+00  0.10566000000E+00 0. -1.
     999900   -1    0    0    0    0 -0.00000000000E+00 -0.00000000000E+00 -0.74505805969E-08  0.93827000000E+00  0.93827000000E+00 0.  1.
     999902    2    1    2    0    0  0.18121475085E-01 -0.19565158002E-02 -0.16161411763E-01  0.10195700525E+01  0.10192790025E+01 0.  0.
     999903    2    3    3    0    0  0.84588169896E-01  0.62161876710E-01 -0.78757053621E-01  0.13252597005E+00  0.18471649649E-01 0.  0.
         14    1    1    2    0    0 -0.18121475085E-01  0.19565158002E-02  0.16161411763E-01  0.24359947527E-01  0.00000000000E+00 0. -1.
     999901    1    3    3    0    0 -0.66466694811E-01 -0.64118392511E-01  0.62595641858E-01  0.88704408242E+00  0.88000000000E+00 0. -1.
        -11    1    4    4    0    0  0.76258971267E-01  0.53834302605E-01 -0.62092416965E-01  0.11211285475E+00  0.51100000000E-03 0.  1.
         11    1    4    4    0    0  0.83291986290E-02  0.83275741057E-02 -0.16664636656E-01  0.20413115298E-01  0.51100000000E-03 0. -1.
</event>
<event>
 8    1  0.1132492E+005  0.1043930E+01  0.7957747E-01            NaN
         13   -1    0    0    0    0  0.00000000000E+00  0.00000000000E+00  0.74505805969E-08  0.10566000000E+00  0.10566000000E+00 0.  1.
     999900   -1    0    0    0    0 -0.00000000000E+00 -0.00000000000E+00 -0.74505805969E-08  0.93827000000E+00  0.93827000000E+00 0.  1.
     999902    2    1    2    0    0 -0.18288381844E-01  0.13666545571E-01  0.32360918270E-02  0.10208711260E+01  0.10206106722E+01 0.  0.
     999903    2    3    3    0    0 -0.22248904601E-01  0.12964595899E+00  0.19601277527E-01  0.13310160111E+00  0.53607553721E-02 0.  0.
         14    1    1    2    0    0  0.18288381844E-01 -0.13666545571E-01 -0.32360918270E-02  0.23058873967E-01  0.00000000000E+00 0.  1.
     999901    1    3    3    0    0  0.39605227567E-02 -0.11597941342E+00 -0.16365185700E-01  0.88776952492E+00  0.88000000000E+00 0.  1.
        -11    1    4    4    0    0 -0.80719835608E-02  0.48674361882E-01  0.47986208728E-02  0.49574573186E-01  0.51100000000E-03 0.  1.
         11    1    4    4    0    0 -0.14176921040E-01  0.80971597112E-01  0.14802656654E-01  0.83527027925E-01  0.51100000000E-03 0. -1.
</event>
<event>
 8    1  0.1132492E+005  0.1043930E+01  0.7957747E-01            NaN
         13   -1    0    0    0    0  0.00000000000E+00  0.00000000000E+00  0.74505805969E-08  0.10566000000E+00  0.10566000000E+00 0.  1.
     999900   -1    0    0    0    0 -0.00000000000E+00 -0.00000000000E+00 -0.74505805969E-08  0.93827000000E+00  0.93827000000E+00 0. -1.
     999902    2    1    2    0    0 -0.20209211967E-01 -0.78793725125E-02 -0.13038593638E-01  0.10186218653E+01  0.10183074205E+01 0.  0.
     999903    2    3    3    0    0 -0.90631948773E-01 -0.85260817327E-01  0.36353593770E-01  0.13104829759E+00  0.19196755250E-01 0.  0.
         14    1    1    2    0    0  0.20209211967E-01  0.78793725125E-02  0.13038593638E-01  0.25308134732E-01  0.00000000000E+00 0.  1.
     999901    1    3    3    0    0  0.70422736805E-01  0.77381444814E-01 -0.49392187409E-01  0.88757356768E+00  0.88000000000E+00 0. -1.
        -11    1    4    4    0    0 -0.32790821286E-01 -0.19397379087E-01  0.13925865313E-01  0.40567069426E-01  0.51100000000E-03 0.  1.
         11    1    4    4    0    0 -0.57841127486E-01 -0.65863438240E-01  0.22427728457E-01  0.90481228166E-01  0.51100000000E-03 0. -1.
</event>
<event>
 8    1  0.1132492E+005  0.1043930E+01  0.7957747E-01            NaN
         13   -1    0    0    0    0  0.00000000000E+00  0.00000000000E+00  0.74505805969E-08  0.10566000000E+00  0.10566000000E+00 0.  1.
     999900   -1    0    0    0    0 -0.00000000000E+00 -0.00000000000E+00 -0.74505805969E-08  0.93827000000E+00  0.93827000000E+00 0.  1.
     999902    2    1    2    0    0  0.51990614853E-02  0.23032872906E-01 -0.80766430909E-03  0.10203038324E+01  0.10200302518E+01 0.  0.
     999903    2    3    3    0    0  0.58662753944E-01 -0.27194933958E-01 -0.11184958508E+00  0.13029736771E+00  0.16917186993E-01 0.  0.
         14    1    1    2    0    0 -0.51990614853E-02 -0.23032872906E-01  0.80766430909E-03  0.23626167617E-01  0.00000000000E+00 0. -1.
     999901    1    3    3    0    0 -0.53463692459E-01  0.50227806864E-01  0.11104192077E+00  0.89000646467E+00  0.88000000000E+00 0. -1.
        -11    1    4    4    0    0  0.31129634415E-01 -0.15891004557E-01 -0.43922273286E-01  0.56133816691E-01  0.51100000000E-03 0.  1.
         11    1    4    4    0    0  0.27533119528E-01 -0.11303929401E-01 -0.67927311795E-01  0.74163551018E-01  0.51100000000E-03 0. -1.
</event>
<event>
 8    1  0.1132492E+005  0.1043930E+01  0.7957747E-01            NaN
         13   -1    0    0    0    0  0.00000000000E+00  0.00000000000E+00  0.74505805969E-08  0.10566000000E+00  0.10566000000E+00 0.  1.
     999900   -1    0    0    0    0 -0.00000000000E+00 -0.00000000000E+00 -0.74505805969E-08  0.93827000000E+00  0.93827000000E+00 0.  1.
     999902    2    1    2    0    0 -0.12113965667E-01  0.13599931789E-01  0.15393456832E-01  0.10200833058E+01  0.10198045333E+01 0.  0.
     999903    2    3    3    0    0  0.10649107636E+00 -0.28367990251E-01  0.65481047655E-01  0.12972538387E+00  0.19895110000E-01 0.  0.
         14    1    1    2    0    0  0.12113965667E-01 -0.13599931789E-01 -0.15393456832E-01  0.23846694154E-01  0.00000000000E+00 0.  1.
     999901    1    3    3    0    0 -0.11860504203E+00  0.41967922040E-01 -0.50087590823E-01  0.89035792198E+00  0.88000000000E+00 0.  1.
        -11    1    4    4    0    0  0.20493812329E-01  0.11028118694E-02  0.72797398157E-02  0.21782292593E-01  0.51100000000E-03 0.  1.
         11    1    4    4    0    0  0.85997264033E-01 -0.29470802121E-01  0.58201307839E-01  0.10794309128E+00  0.51100000000E-03 0. -1.
</event>
<event>
 8    1  0.1132492E+005  0.1043930E+01  0.7957747E-01            NaN
         13   -1    0    0    0    0  0.00000000000E+00  0.00000000000E+00  0.74505805969E-08  0.10566000000E+00  0.10566000000E+00 0. -1.
     999900   -1    0    0    0    0 -0.00000000000E+00 -0.00000000000E+00 -0.74505805969E-08  0.93827000000E+00  0.93827000000E+00 0. -1.
     999902    2    1    2    0    0  0.18302128623E-01  0.15200712944E-01  0.55764297735E-02  0.10194938351E+01  0.10192009388E+01 0.  0.
     999903    2    3    3    0    0 -0.12652610628E-01 -0.83359880269E-02  0.12762054639E+00  0.13022057081E+00  0.20995617362E-01 0.  0.
         14    1    1    2    0    0 -0.18302128623E-01 -0.15200712944E-01 -0.55764297735E-02  0.24436164903E-01  0.00000000000E+00 0.  1.
     999901    1    3    3    0    0  0.30954739251E-01  0.23536700971E-01 -0.12204411662E+00  0.88927326429E+00  0.88000000000E+00 0. -1.
        -11    1    4    4    0    0 -0.77929305050E-02 -0.14847260899E-01  0.10097670251E+00  0.10236076637E+00  0.51100000000E-03 0. -1.
         11    1    4    4    0    0 -0.48596801231E-02  0.65112728724E-02  0.26643843886E-01  0.27859804439E-01  0.51100000000E-03 0.  1.
</event>
<event>
 8    1  0.1132492E+005  0.1043930E+01  0.7957747E-01            NaN
         13   -1    0    0    0    0  0.00000000000E+00  0.00000000000E+00  0.74505805969E-08  0.10566000000E+00  0.10566000000E+00 0.  1.
     999900   -1    0    0    0    0 -0.00000000000E+00 -0.00000000000E+00 -0.74505805969E-08  0.93827000000E+00  0.93827000000E+00 0. -1.
     999902    2    1    2    0    0  0.17191213230E-01  0.10791462631E-01  0.11837062661E-01  0.10204329889E+01  0.10201624259E+01 0.  0.
     999903    2    3    3    0    0 -0.74988047614E-01  0.22309264848E-01 -0.99946718870E-01  0.12851074470E+00  0.20118506570E-01 0.  0.
         14    1    1    2    0    0 -0.17191213230E-01 -0.10791462631E-01 -0.11837062661E-01  0.23497011096E-01  0.00000000000E+00 0. -1.
     999901    1    3    3    0    0  0.92179260844E-01 -0.11517802217E-01  0.11178378153E+00  0.89192224421E+00  0.88000000000E+00 0.  1.
        -11    1    4    4    0    0 -0.37081454826E-01  0.24204497594E-02 -0.55554132018E-01  0.66838728103E-01  0.51100000000E-03 0.  1.
         11    1    4    4    0    0 -0.37906592788E-01  0.19888815089E-01 -0.44392586852E-01  0.61672016594E-01  0.51100000000E-03 0. -1.
</event>
<event>
 8    1  0.1132492E+005  0.1043930E+01  0.7957747E-01            NaN
         13   -1    0    0    0    0  0.00000000000E+00  0.00000000000E+00  0.74505805969E-08  0.10566000000E+00  0.10566000000E+00 0.  1.
     999900   -1    0    0    0    0 -0.00000000000E+00 -0.00000000000E+00 -0.74505805969E-08  0.93827000000E+00  0.93827000000E+00 0.  1.
     999902    2    1    2    0    0 -0.26996089743E-01  0.14946034897E-01 -0.46137976445E-02  0.10127296803E+01  0.10122489543E+01 0.  0.
     999903    2    3    3    0    0  0.53429825572E-01 -0.52253484169E-01 -0.94384866301E-01  0.12197553466E+00  0.19604978947E-01 0.  0.
         14    1    1    2    0    0  0.26996089743E-01 -0.14946034897E-01  0.46137976445E-02  0.31200319698E-01  0.00000000000E+00 0.  1.
     999901    1    3    3    0    0 -0.80425915316E-01  0.67199519065E-01  0.89771068657E-01  0.89075414565E+00  0.88000000000E+00 0. -1.
        -11    1    4    4    0    0  0.33420932785E-02 -0.61616422696E-02 -0.19740566491E-01  0.20954391171E-01  0.51100000000E-03 0.  1.
         11    1    4    4    0    0  0.50087732294E-01 -0.46091841899E-01 -0.74644299810E-01  0.10102114349E+00  0.51100000000E-03 0. -1.
</event>
<event>
 8    1  0.1132492E+005  0.1043930E+01  0.7957747E-01            NaN
         13   -1    0    0    0    0  0.00000000000E+00  0.00000000000E+00  0.74505805969E-08  0.10566000000E+00  0.10566000000E+00 0. -1.
     999900   -1    0    0    0    0 -0.00000000000E+00 -0.00000000000E+00 -0.74505805969E-08  0.93827000000E+00  0.93827000000E+00 0.  1.
     999902    2    1    2    0    0  0.16517555621E-01  0.16212532629E-01  0.47540062100E-02  0.10203021259E+01  0.10200285054E+01 0.  0.
     999903    2    3    3    0    0  0.37297840140E-01  0.11637472027E+00 -0.47965494396E-01  0.13280923593E+00  0.20084822571E-01 0.  0.
         14    1    1    2    0    0 -0.16517555621E-01 -0.16212532629E-01 -0.47540062100E-02  0.23627874068E-01  0.00000000000E+00 0.  1.
     999901    1    3    3    0    0 -0.20780284519E-01 -0.10016218765E+00  0.52719500606E-01  0.88749289000E+00  0.88000000000E+00 0. -1.
        -11    1    4    4    0    0  0.28368106055E-01  0.65864329315E-01 -0.35495517870E-01  0.80019074145E-01  0.51100000000E-03 0.  1.
         11    1    4    4    0    0  0.89297340851E-02  0.50510390960E-01 -0.12469976526E-01  0.52790161785E-01  0.51100000000E-03 0. -1.
</event>
<event>
 8    1  0.1132492E+005  0.1043930E+01  0.7957747E-01            NaN
         13   -1    0    0    0    0  0.00000000000E+00  0.00000000000E+00  0.74505805969E-08  0.10566000000E+00  0.10566000000E+00 0.  1.
     999900   -1    0    0    0    0 -0.00000000000E+00 -0.00000000000E+00 -0.74505805969E-08  0.93827000000E+00  0.93827000000E+00 0. -1.
     999902    2    1    2    0    0  0.11108012012E-01  0.18614607413E-01 -0.98456779084E-02  0.10201218310E+01  0.10198439690E+01 0.  0.
     999903    2    3    3    0    0  0.18442075150E-01 -0.11431769945E+00 -0.53379569329E-01  0.12904383976E+00  0.19856676777E-01 0.  0.
         14    1    1    2    0    0 -0.11108012012E-01 -0.18614607413E-01  0.98456779084E-02  0.23808169049E-01  0.00000000000E+00 0.  1.
     999901    1    3    3    0    0 -0.73340631371E-02  0.13293230687E+00  0.43533891420E-01  0.89107799120E+00  0.88000000000E+00 0.  1.
        -11    1    4    4    0    0  0.48538271753E-02 -0.68050317276E-01 -0.39620638805E-01  0.78895256258E-01  0.51100000000E-03 0.  1.
         11    1    4    4    0    0  0.13588247974E-01 -0.46267382178E-01 -0.13758930523E-01  0.50148583497E-01  0.51100000000E-03 0. -1.
</event>
<event>
 8    1  0.1132492E+005  0.1043930E+01  0.7957747E-01            NaN
         13   -1    0    0    0    0  0.00000000000E+00  0.00000000000E+00  0.74505805969E-08  0.10566000000E+00  0.10566000000E+00 0. -1.
     999900   -1    0    0    0    0 -0.00000000000E+00 -0.00000000000E+00 -0.74505805969E-08  0.93827000000E+00  0.93827000000E+00 0. -1.
     999902    2    1    2    0    0 -0.23965445059E-01 -0.53121842829E-02  0.18636925631E-02  0.10193122176E+01  0.10190148977E+01 0.  0.
     999903    2    3    3    0    0 -0.44845247789E-01  0.61132167572E-01  0.10442322322E+00  0.13062257812E+00  0.20243769519E-01 0.  0.
         14    1    1    2    0    0  0.23965445059E-01  0.53121842829E-02 -0.18636925631E-02  0.24617782368E-01  0.00000000000E+00 0.  1.
     999901    1    3    3    0    0  0.20879802730E-01 -0.66444351855E-01 -0.10255953066E+00  0.88868963952E+00  0.88000000000E+00 0. -1.
        -11    1    4    4    0    0 -0.32302672078E-01  0.50478166732E-01  0.92794739523E-01  0.11046552740E+00  0.51100000000E-03 0. -1.
         11    1    4    4    0    0 -0.12542575711E-01  0.10654000840E-01  0.11628483699E-01  0.20157050715E-01  0.51100000000E-03 0.  1.
</event>
<event>
 8    1  0.1132492E+005  0.1043930E+01  0.7957747E-01            NaN
         13   -1    0    0    0    0  0.00000000000E+00  0.00000000000E+00  0.74505805969E-08  0.10566000000E+00  0.10566000000E+00 0.  1.
     999900   -1    0    0    0    0 -0.00000000000E+00 -0.00000000000E+00 -0.74505805969E-08  0.93827000000E+00  0.93827000000E+00 0. -1.
     999902    2    1    2    0    0 -0.11643485580E-01  0.76124030417E-02  0.14866509060E-01  0.10235699281E+01  0.10233674146E+01 0.  0.
     999903    2    3    3    0    0  0.30815869302E-01  0.86763349635E-01 -0.93288132657E-01  0.13241051716E+00  0.18771593419E-01 0.  0.
         14    1    1    2    0    0  0.11643485580E-01 -0.76124030417E-02 -0.14866509060E-01  0.20360071909E-01  0.00000000000E+00 0. -1.
     999901    1    3    3    0    0 -0.42459354882E-01 -0.79150946593E-01  0.10815464172E+00  0.89115941093E+00  0.88000000000E+00 0. -1.
        -11    1    4    4    0    0  0.21970578557E-01  0.34184761153E-01 -0.41209508875E-01  0.57877361377E-01  0.51100000000E-03 0. -1.
         11    1    4    4    0    0  0.88452907447E-02  0.52578588482E-01 -0.52078623782E-01  0.74533155784E-01  0.51100000000E-03 0.  1.
</event>
<event>
 8    1  0.1132492E+005  0.1043930E+01  0.7957747E-01            NaN
         13   -1    0    0    0    0  0.00000000000E+00  0.00000000000E+00  0.74505805969E-08  0.10566000000E+00  0.10566000000E+00 0. -1.
     999900   -1    0    0    0    0 -0.00000000000E+00 -0.00000000000E+00 -0.74505805969E-08  0.93827000000E+00  0.93827000000E+00 0.  1.
     999902    2    1    2    0    0  0.89510446451E-02 -0.18509742922E-01 -0.11825240217E-01  0.10202114821E+01  0.10199357334E+01 0.  0.
     999903    2    3    3    0    0 -0.22127237158E-01 -0.83405641599E-01 -0.99179227971E-01  0.13296402148E+00  0.19919740793E-01 0.  0.
         14    1    1    2    0    0 -0.89510446451E-02  0.18509742922E-01  0.11825240217E-01  0.23718517860E-01  0.00000000000E+00 0. -1.
     999901    1    3    3    0    0  0.31078281803E-01  0.64895898677E-01  0.87353987754E-01  0.88724746066E+00  0.88000000000E+00 0. -1.
        -11    1    4    4    0    0 -0.33405849134E-02 -0.11353231010E-01 -0.25951867346E-01  0.28527458732E-01  0.51100000000E-03 0.  1.
         11    1    4    4    0    0 -0.18786652245E-01 -0.72052410589E-01 -0.73227360625E-01  0.10443656275E+00  0.51100000000E-03 0. -1.
</event>
<event>
 8    1  0.1132492E+005  0.1043930E+01  0.7957747E-01            NaN
         13   -1    0    0    0    0  0.00000000000E+00  0.00000000000E+00  0.74505805969E-08  0.10566000000E+00  0.10566000000E+00 0.  1.
     999900   -1    0    0    0    0 -0.00000000000E+00 -0.00000000000E+00 -0.74505805969E-08  0.93827000000E+00  0.93827000000E+00 0. -1.
     999902    2    1    2    0    0  0.89846172434E-02 -0.16003682745E-01  0.14855434427E-01  0.10203180297E+01  0.10200447817E+01 0.  0.
     999903    2    3    3    0    0  0.12197704517E+00  0.14811197471E-01 -0.40261278708E-01  0.13084925698E+00  0.20069538355E-01 0.  0.
         14    1    1    2    0    0 -0.89846172434E-02  0.16003682745E-01 -0.14855434427E-01  0.23611970278E-01  0.00000000000E+00 0. -1.
     999901    1    3    3    0    0 -0.11299242793E+00 -0.30814880216E-01  0.55116713135E-01  0.88946877274E+00  0.88000000000E+00 0.  1.
        -11    1    4    4    0    0  0.11110399199E+00  0.16383260019E-01 -0.31093864530E-01  0.11653153126E+00  0.51100000000E-03 0. -1.
         11    1    4    4    0    0  0.10873053181E-01 -0.15720625483E-02 -0.91674141773E-02  0.14317725721E-01  0.51100000000E-03 0.  1.
</event>
<event>
 8    1  0.1132492E+005  0.1043930E+01  0.7957747E-01            NaN
         13   -1    0    0    0    0  0.00000000000E+00  0.00000000000E+00  0.74505805969E-08  0.10566000000E+00  0.10566000000E+00 0.  1.
     999900   -1    0    0    0    0 -0.00000000000E+00 -0.00000000000E+00 -0.74505805969E-08  0.93827000000E+00  0.93827000000E+00 0.  1.
     999902    2    1    2    0    0  0.22100420350E-01  0.95903785167E-02 -0.21502846771E-02  0.10197426549E+01  0.10194557639E+01 0.  0.
     999903    2    3    3    0    0  0.11584747044E+00 -0.44193041570E-01  0.40826896780E-01  0.13208945469E+00  0.20177393548E-01 0.  0.
         14    1    1    2    0    0 -0.22100420350E-01 -0.95903785167E-02  0.21502846771E-02  0.24187345119E-01  0.00000000000E+00 0. -1.
     999901    1    3    3    0    0 -0.93747050089E-01  0.53783420087E-01 -0.42977181457E-01  0.88765320019E+00  0.88000000000E+00 0. -1.
        -11    1    4    4    0    0  0.25856984244E-01 -0.56977123902E-02  0.16603853828E-01  0.31256945526E-01  0.51100000000E-03 0. -1.
         11    1    4    4    0    0  0.89990486194E-01 -0.38495329180E-01  0.24223042952E-01  0.10083250917E+00  0.51100000000E-03 0.  1.
</event>
<event>
 8    1  0.1132492E+005  0.1043930E+01  0.7957747E-01            NaN
         13   -1    0    0    0    0  0.00000000000E+00  0.00000000000E+00  0.74505805969E-08  0.10566000000E+00  0.10566000000E+00 0.  1.
     999900   -1    0    0    0    0 -0.00000000000E+00 -0.00000000000E+00 -0.74505805969E-08  0.93827000000E+00  0.93827000000E+00 0.  1.
     999902    2    1    2    0    0  0.22715075045E-01  0.61786959089E-02 -0.17703799302E-02  0.10203231120E+01  0.10200499829E+01 0.  0.
     999903    2    3    3    0    0  0.12933416418E+00 -0.11586416962E-01  0.26704360421E-01  0.13325262985E+00  0.13474769525E-01 0.  0.
         14    1    1    2    0    0 -0.22715075045E-01 -0.61786959089E-02  0.17703799302E-02  0.23606888031E-01  0.00000000000E+00 0. -1.
     999901    1    3    3    0    0 -0.10661908914E+00  0.17765112871E-01 -0.28474740351E-01  0.88707048212E+00  0.88000000000E+00 0. -1.
        -11    1    4    4    0    0  0.80978956609E-01 -0.12839180384E-01  0.13376307507E-01  0.83076005501E-01  0.51100000000E-03 0.  1.
         11    1    4    4    0    0  0.48355207575E-01  0.12527634214E-02  0.13328052914E-01  0.50176624351E-01  0.51100000000E-03 0. -1.
</event>
<event>
 8    1  0.1132492E+005  0.1043930E+01  0.7957747E-01            NaN
         13   -1    0    0    0    0  0.00000000000E+00  0.00000000000E+00  0.74505805969E-08  0.10566000000E+00  0.10566000000E+00 0. -1.
     999900   -1    0    0    0    0 -0.00000000000E+00 -0.00000000000E+00 -0.74505805969E-08  0.93827000000E+00  0.93827000000E+00 0. -1.
     999902    2    1    2    0    0 -0.21185859398E-01  0.10166160623E-01  0.45658342714E-02  0.10199917815E+01  0.10197108395E+01 0.  0.
     999903    2    3    3    0    0  0.11442478810E+00 -0.51839547749E-01 -0.72310756392E-02  0.12736973237E+00  0.19758274925E-01 0.  0.
         14    1    1    2    0    0  0.21185859398E-01 -0.10166160623E-01 -0.45658342714E-02  0.23938218456E-01  0.00000000000E+00 0. -1.
     999901    1    3    3    0    0 -0.13561064749E+00  0.62005708371E-01  0.11796909911E-01  0.89262204917E+00  0.88000000000E+00 0.  1.
        -11    1    4    4    0    0  0.95926205795E-01 -0.44283802282E-01 -0.13276826806E-01  0.10648674732E+00  0.51100000000E-03 0. -1.
         11    1    4    4    0    0  0.18498582301E-01 -0.75557454664E-02  0.60457511667E-02  0.20882985057E-01  0.51100000000E-03 0.  1.
</event>
<event>
 8    1  0.1132492E+005  0.1043930E+01  0.7957747E-01            NaN
         13   -1    0    0    0    0  0.00000000000E+00  0.00000000000E+00  0.74505805969E-08  0.10566000000E+00  0.10566000000E+00 0. -1.
     999900   -1    0    0    0    0 -0.00000000000E+00 -0.00000000000E+00 -0.74505805969E-08  0.93827000000E+00  0.93827000000E+00 0. -1.
     999902    2    1    2    0    0 -0.22035658925E-01  0.79711198182E-02 -0.62563284557E-02  0.10196761207E+01  0.10193876301E+01 0.  0.
     999903    2    3    3    0    0 -0.94225711978E-01  0.52252741728E-01  0.73538488260E-01  0.13201656965E+00  0.20288705972E-01 0.  0.
         14    1    1    2    0    0  0.22035658925E-01 -0.79711198182E-02  0.62563284557E-02  0.24253879301E-01  0.00000000000E+00 0. -1.
     999901    1    3    3    0    0  0.72190053054E-01 -0.44281621909E-01 -0.79794816716E-01  0.88765955105E+00  0.88000000000E+00 0.  1.
        -11    1    4    4    0    0 -0.79174539460E-01  0.35318799452E-01  0.54365985029E-01  0.10233253023E+00  0.51100000000E-03 0.  1.
         11    1    4    4    0    0 -0.15051172518E-01  0.16933942276E-01  0.19172503231E-01  0.29684039421E-01  0.51100000000E-03 0. -1.
</event>
<event>
 8    1  0.1132492E+005  0.1043930E+01  0.7957747E-01            NaN
         13   -1    0    0    0    0  0.00000000000E+00  0.00000000000E+00  0.74505805969E-08  0.10566000000E+00  0.10566000000E+00 0.  1.
     999900   -1    0    0    0    0 -0.00000000000E+00 -0.00000000000E+00 -0.74505805969E-08  0.93827000000E+00  0.93827000000E+00 0.  1.
     999902    2    1    2    0    0 -0.15059675070E-01 -0.33505632000E-02  0.18702206226E-01  0.10196855655E+01  0.10193973023E+01 0.  0.
     999903    2    3    3    0    0  0.28371136223E-01 -0.21598980056E-01  0.12562140730E+00  0.13196322396E+00  0.19029377168E-01 0.  0.
         14    1    1    2    0    0  0.15059675070E-01  0.33505632000E-02 -0.18702206226E-01  0.24244434510E-01  0.00000000000E+00 0.  1.
     999901    1    3    3    0    0 -0.43430811293E-01  0.18248416856E-01 -0.10691920108E+00  0.88772234153E+00  0.88000000000E+00 0.  1.
        -11    1    4    4    0    0  0.39086089620E-02  0.30649893970E-02  0.91879216404E-02  0.10457074595E-01  0.51100000000E-03 0.  1.
         11    1    4    4    0    0  0.24462527261E-01 -0.24663969453E-01  0.11643348566E+00  0.12150614937E+00  0.51100000000E-03 0. -1.
</event>
<event>
 8    1  0.1132492E+005  0.1043930E+01  0.7957747E-01            NaN
         13   -1    0    0    0    0  0.00000000000E+00  0.00000000000E+00  0.74505805969E-08  0.10566000000E+00  0.10566000000E+00 0.  1.
     999900   -1    0    0    0    0 -0.00000000000E+00 -0.00000000000E+00 -0.74505805969E-08  0.93827000000E+00  0.93827000000E+00 0. -1.
     999902    2    1    2    0    0  0.25602199031E-02  0.22766934912E-01  0.16329238738E-02  0.10209614456E+01  0.10207030513E+01 0.  0.
     999903    2    3    3    0    0 -0.63659991266E-01  0.10629079148E+00 -0.44297476378E-01  0.13334049459E+00  0.21612363238E-01 0.  0.
         14    1    1    2    0    0 -0.25602199031E-02 -0.22766934912E-01 -0.16329238738E-02  0.22968554408E-01  0.00000000000E+00 0.  1.
     999901    1    3    3    0    0  0.66220211169E-01 -0.83523856564E-01  0.45930400252E-01  0.88762095100E+00  0.88000000000E+00 0.  1.
        -11    1    4    4    0    0 -0.27876361971E-01  0.27176079164E-01 -0.13881099618E-01  0.41334935382E-01  0.51100000000E-03 0.  1.
         11    1    4    4    0    0 -0.35783629294E-01  0.79114712312E-01 -0.30416376761E-01  0.92005559212E-01  0.51100000000E-03 0. -1.
</event>
<event>
 8    1  0.1132492E+005  0.1043930E+01  0.7957747E-01            NaN
         13   -1    0    0    0    0  0.00000000000E+00  0.00000000000E+00  0.74505805969E-08  0.10566000000E+00  0.10566000000E+00 0.  1.
     999900   -1    0    0    0    0 -0.00000000000E+00 -0.00000000000E+00 -0.74505805969E-08  0.93827000000E+00  0.93827000000E+00 0. -1.
     999902    2    1    2    0    0  0.22297333345E-01 -0.22796341504E-02  0.10756374963E-01  0.10190690385E+01  0.10187657423E+01 0.  0.
     999903    2    3    3    0    0  0.12721439746E+00 -0.27843536278E-01 -0.11242583742E-01  0.13219528329E+00  0.19759347162E-01 0.  0.
         14    1    1    2    0    0 -0.22297333345E-01  0.22796341504E-02 -0.10756374963E-01  0.24860961536E-01  0.00000000000E+00 0. -1.
     999901    1    3    3    0    0 -0.10491706412E+00  0.25563902127E-01  0.21998958705E-01  0.88687375518E+00  0.88000000000E+00 0.  1.
        -11    1    4    4    0    0  0.75227196708E-01 -0.68942881712E-02 -0.36580593913E-02  0.75632696987E-01  0.51100000000E-03 0. -1.
         11    1    4    4    0    0  0.51987200754E-01 -0.20949248106E-01 -0.75845243509E-02  0.56562586302E-01  0.51100000000E-03 0.  1.
</event>
<event>
 8    1  0.1132492E+005  0.1043930E+01  0.7957747E-01            NaN
         13   -1    0    0    0    0  0.00000000000E+00  0.00000000000E+00  0.74505805969E-08  0.10566000000E+00  0.10566000000E+00 0.  1.
     999900   -1    0    0    0    0 -0.00000000000E+00 -0.00000000000E+00 -0.74505805969E-08  0.93827000000E+00  0.93827000000E+00 0. -1.
     999902    2    1    2    0    0 -0.86065668492E-02  0.92855348757E-02  0.20237967359E-01  0.10200580610E+01  0.10197786908E+01 0.  0.
     999903    2    3    3    0    0 -0.67133826988E-01  0.42150912228E-01  0.10550215524E+00  0.13339264777E+00  0.19474177526E-01 0.  0.
         14    1    1    2    0    0  0.86065668492E-02 -0.92855348757E-02 -0.20237967359E-01  0.23871939043E-01  0.00000000000E+00 0. -1.
     999901    1    3    3    0    0  0.58527260139E-01 -0.32865377353E-01 -0.85264187883E-01  0.88666541319E+00  0.88000000000E+00 0. -1.
        -11    1    4    4    0    0 -0.53906054223E-01  0.39611022573E-01  0.77948179262E-01  0.10271842854E+00  0.51100000000E-03 0.  1.
         11    1    4    4    0    0 -0.13227772765E-01  0.25398896556E-02  0.27553975980E-01  0.30674219226E-01  0.51100000000E-03 0. -1.
</event>
<event>
 8    1  0.1132492E+005  0.1043930E+01  0.7957747E-01            NaN
         13   -1    0    0    0    0  0.00000000000E+00  0.00000000000E+00  0.74505805969E-08  0.10566000000E+00  0.10566000000E+00 0. -1.
     999900   -1    0    0    0    0 -0.00000000000E+00 -0.00000000000E+00 -0.74505805969E-08  0.93827000000E+00  0.93827000000E+00 0. -1.
     999902    2    1    2    0    0  0.19995254709E-01  0.86738008249E-02  0.38885830238E-02  0.10217903047E+01  0.10215504200E+01 0.  0.
     999903    2    3    3    0    0 -0.21925534027E-01  0.12913522542E+00 -0.17479684920E-02  0.13257712547E+00  0.20420659101E-01 0.  0.
         14    1    1    2    0    0 -0.19995254709E-01 -0.86738008249E-02 -0.38885830238E-02  0.22139695336E-01  0.00000000000E+00 0.  1.
     999901    1    3    3    0    0  0.41920788736E-01 -0.12046142459E+00  0.56365515159E-02  0.88921317920E+00  0.88000000000E+00 0. -1.
        -11    1    4    4    0    0 -0.19270986526E-01  0.57333513178E-01 -0.46480755829E-02  0.60666039781E-01  0.51100000000E-03 0.  1.
         11    1    4    4    0    0 -0.26545475006E-02  0.71801712237E-01  0.29001070908E-02  0.71911085687E-01  0.51100000000E-03 0. -1.
</event>
<event>
 8    1  0.1132492E+005  0.1043930E+01  0.7957747E-01            NaN
         13   -1    0    0    0    0  0.00000000000E+00  0.00000000000E+00  0.74505805969E-08  0.10566000000E+00  0.10566000000E+00 0. -1.
     999900   -1    0    0    0    0 -0.00000000000E+00 -0.00000000000E+00 -0.74505805969E-08  0.93827000000E+00  0.93827000000E+00 0.  1.
     999902    2    1    2    0    0 -0.30366993226E-02  0.46697022445E-02 -0.22415641828E-01  0.10208326265E+01  0.10205712923E+01 0.  0.
     999903    2    3    3    0    0  0.12634363397E-01 -0.12821893491E+00 -0.56489604984E-02  0.13055958209E+00  0.20351199311E-01 0.  0.
         14    1    1    2    0    0  0.30366993226E-02 -0.46697022445E-02  0.22415641828E-01  0.23097373452E-01  0.00000000000E+00 0. -1.
     999901    1    3    3    0    0 -0.15671062719E-01  0.13288863715E+00 -0.16766681330E-01  0.89027304446E+00  0.88000000000E+00 0. -1.
        -11    1    4    4    0    0  0.16968119405E-01 -0.82146097428E-01 -0.77046397174E-02  0.84234915522E-01  0.51100000000E-03 0. -1.
         11    1    4    4    0    0 -0.43337560084E-02 -0.46072837477E-01  0.20556792190E-02  0.46324666565E-01  0.51100000000E-03 0.  1.
</event>
<event>
 7    1  0.1132492E+005  0.1043930E+01  0.7957747E-01            NaN
         13   -1    0    0    0    0  0.00000000000E+00  0.00000000000E+00  0.74505805969E-08  0.10566000000E+00  0.10566000000E+00 0.  1.
     999900   -1    0    0    0    0 -0.00000000000E+00 -0.00000000000E+00 -0.74505805969E-08  0.93827000000E+00  0.93827000000E+00 0.  1.
     999903    2    1    2    0    0 -0.93949572174E-01 -0.50466776248E-01  0.24459608971E-01  0.11061801633E+00  0.16268234378E-01 0.  0.
         14    1    1    2    0    0  0.49941853383E-01  0.93926398470E-02  0.20271976653E-02  0.50857840428E-01  0.00000000000E+00 0.  1.
     999901    1    1    2    0    0  0.44007718791E-01  0.41074136401E-01 -0.26486806637E-01  0.88245414324E+00  0.88000000000E+00 0.  1.
        -11    1    3    3    0    0 -0.33379095638E-01 -0.19313980741E-01  0.10113538557E-02  0.38580796199E-01  0.51100000000E-03 0. -1.
         11    1    3    3    0    0 -0.60570476536E-01 -0.31152795507E-01  0.23448255116E-01  0.72037220134E-01  0.51100000000E-03 0.  1.
</event>
<event>
 8    1  0.1132492E+005  0.1043930E+01  0.7957747E-01            NaN
         13   -1    0    0    0    0  0.00000000000E+00  0.00000000000E+00  0.74505805969E-08  0.10566000000E+00  0.10566000000E+00 0. -1.
     999900   -1    0    0    0    0 -0.00000000000E+00 -0.00000000000E+00 -0.74505805969E-08  0.93827000000E+00  0.93827000000E+00 0. -1.
     999902    2    1    2    0    0  0.79779481508E-02 -0.14195511760E-01 -0.15005578222E-01  0.10217866581E+01  0.10215466936E+01 0.  0.
     999903    2    3    3    0    0  0.20685209761E-01  0.11386299637E+00 -0.58636189832E-01  0.13135749966E+00  0.20589563224E-01 0.  0.
         14    1    1    2    0    0 -0.79779481508E-02  0.14195511760E-01  0.15005578222E-01  0.22143341857E-01  0.00000000000E+00 0. -1.
     999901    1    3    3    0    0 -0.12707261610E-01 -0.12805850813E+00  0.43630611610E-01  0.89042915848E+00  0.88000000000E+00 0.  1.
        -11    1    4    4    0    0  0.34929760427E-02  0.39133573112E-01 -0.99789305456E-02  0.40539827355E-01  0.51100000000E-03 0.  1.
         11    1    4    4    0    0  0.17192233718E-01  0.74729423261E-01 -0.48657259286E-01  0.90817672308E-01  0.51100000000E-03 0. -1.
</event>
<event>
 8    1  0.1132492E+005  0.1043930E+01  0.7957747E-01            NaN
         13   -1    0    0    0    0  0.00000000000E+00  0.00000000000E+00  0.74505805969E-08  0.10566000000E+00  0.10566000000E+00 0. -1.
     999900   -1    0    0    0    0 -0.00000000000E+00 -0.00000000000E+00 -0.74505805969E-08  0.93827000000E+00  0.93827000000E+00 0.  1.
     999902    2    1    2    0    0 -0.90992580828E-02 -0.14711124145E-01  0.20471032516E-01  0.10171293126E+01  0.10167761611E+01 0.  0.
     999903    2    3    3    0    0  0.12103735198E+00  0.21278543684E-01 -0.19301297164E-01  0.12594323123E+00  0.19655544387E-01 0.  0.
         14    1    1    2    0    0  0.90992580828E-02  0.14711124145E-01 -0.20471032516E-01  0.26800687370E-01  0.00000000000E+00 0.  1.
     999901    1    3    3    0    0 -0.13013661006E+00 -0.35989667828E-01  0.39772329680E-01  0.89118608140E+00  0.88000000000E+00 0. -1.
        -11    1    4    4    0    0  0.65586295543E-01  0.16931194127E-01 -0.22921083380E-02  0.67777152339E-01  0.51100000000E-03 0.  1.
         11    1    4    4    0    0  0.55451056438E-01  0.43473495573E-02 -0.17009188826E-01  0.58166078893E-01  0.51100000000E-03 0. -1.
</event>
<event>
 8    1  0.1132492E+005  0.1043930E+01  0.7957747E-01            NaN
         13   -1    0    0    0    0  0.00000000000E+00  0.00000000000E+00  0.74505805969E-08  0.10566000000E+00  0.10566000000E+00 0.  1.
     999900   -1    0    0    0    0 -0.00000000000E+00 -0.00000000000E+00 -0.74505805969E-08  0.93827000000E+00  0.93827000000E+00 0.  1.
     999902    2    1    2    0    0 -0.17922674194E-01 -0.15099623277E-01  0.12308665270E-02  0.10204622369E+01  0.10201923549E+01 0.  0.
     999903    2    3    3    0    0  0.98885470133E-01 -0.22987858871E-01  0.77468028821E-01  0.12944120921E+00  0.21141269895E-01 0.  0.
         14    1    1    2    0    0  0.17922674194E-01  0.15099623277E-01 -0.12308665270E-02  0.23467763119E-01  0.00000000000E+00 0. -1.
     999901    1    3    3    0    0 -0.11680814433E+00  0.78882355933E-02 -0.76237162294E-01  0.89102102767E+00  0.88000000000E+00 0. -1.
        -11    1    4    4    0    0  0.16754161026E-01 -0.44667890459E-02  0.24325979610E-01  0.29877558820E-01  0.51100000000E-03 0.  1.
         11    1    4    4    0    0  0.82131309107E-01 -0.18521069825E-01  0.53142049212E-01  0.99563650388E-01  0.51100000000E-03 0. -1.
</event>
<event>
 8    1  0.1132492E+005  0.1043930E+01  0.7957747E-01            NaN
         13   -1    0    0    0    0  0.00000000000E+00  0.00000000000E+00  0.74505805969E-08  0.10566000000E+00  0.10566000000E+00 0.  1.
     999900   -1    0    0    0    0 -0.00000000000E+00 -0.00000000000E+00 -0.74505805969E-08  0.93827000000E+00  0.93827000000E+00 0. -1.
     999902    2    1    2    0    0 -0.28898115362E-02  0.19141945084E-01  0.19039836683E-01  0.10167770913E+01  0.10164144690E+01 0.  0.
     999903    2    3    3    0    0 -0.10621018907E+00 -0.45613029981E-01 -0.46000077689E-01  0.12599176489E+00  0.19918958443E-01 0.  0.
         14    1    1    2    0    0  0.28898115362E-02 -0.19141945084E-01 -0.19039836683E-01  0.27152908744E-01  0.00000000000E+00 0. -1.
     999901    1    3    3    0    0  0.10332037754E+00  0.64754975066E-01  0.65039914372E-01  0.89078532637E+00  0.88000000000E+00 0.  1.
        -11    1    4    4    0    0 -0.98381440734E-01 -0.38649766275E-01 -0.46526011260E-01  0.11548871442E+00  0.51100000000E-03 0. -1.
         11    1    4    4    0    0 -0.78287483386E-02 -0.69632637062E-02  0.52593357068E-03  0.10503050467E-01  0.51100000000E-03 0.  1.
</event>
<event>
 7    1  0.1132492E+005  0.1043930E+01  0.7957747E-01            NaN
         13   -1    0    0    0    0  0.00000000000E+00  0.00000000000E+00  0.74505805969E-08  0.10566000000E+00  0.10566000000E+00 0.  1.
     999900   -1    0    0    0    0 -0.00000000000E+00 -0.00000000000E+00 -0.74505805969E-08  0.93827000000E+00  0.93827000000E+00 0. -1.
     999902    2    1    2    0    0 -0.13871485908E-02  0.21821497034E-01 -0.93777813129E-02  0.10201383061E+01  0.10198608331E+01 0.  0.
         14    1    1    2    0    0  0.13871485908E-02 -0.21821497034E-01  0.93777813129E-02  0.23791693853E-01  0.00000000000E+00 0.  1.
     999901    1    3    3    0    0  0.66200820050E-01 -0.78090397251E-01  0.46510800130E-01  0.88715495447E+00  0.88000000000E+00 0. -1.
        -11    1    3    3    0    0 -0.35384791399E-01  0.51491981474E-01 -0.30564274012E-01  0.69555327512E-01  0.51100000000E-03 0.  1.
         11    1    3    3    0    0 -0.32203177242E-01  0.48419912811E-01 -0.25324307431E-01  0.63428024161E-01  0.51100000000E-03 0. -1.
</event>
<event>
 8    1  0.1132492E+005  0.1043930E+01  0.7957747E-01            NaN
         13   -1    0    0    0    0  0.00000000000E+00  0.00000000000E+00  0.74505805969E-08  0.10566000000E+00  0.10566000000E+00 0.  1.
     999900   -1    0    0    0    0 -0.00000000000E+00 -0.00000000000E+00 -0.74505805969E-08  0.93827000000E+00  0.93827000000E+00 0.  1.
     999902    2    1    2    0    0 -0.17112384611E-01  0.51348801328E-02  0.14498669835E-01  0.10209210424E+01  0.10206617279E+01 0.  0.
     999903    2    3    3    0    0 -0.63847709035E-01  0.53017548320E-01 -0.99452358849E-01  0.13105488542E+00  0.19930402258E-01 0.  0.
         14    1    1    2    0    0  0.17112384611E-01 -0.51348801328E-02 -0.14498669835E-01  0.23008957561E-01  0.00000000000E+00 0. -1.
     999901    1    3    3    0    0  0.46735324424E-01 -0.47882668187E-01  0.11395102868E+00  0.88986615701E+00  0.88000000000E+00 0. -1.
        -11    1    4    4    0    0 -0.12930621660E-01  0.10996955304E-01 -0.34437334539E-01  0.38396941722E-01  0.51100000000E-03 0. -1.
         11    1    4    4    0    0 -0.50917087374E-01  0.42020593016E-01 -0.65015024311E-01  0.92657943703E-01  0.51100000000E-03 0.  1.
</event>
<event>
 8    1  0.1132492E+005  0.1043930E+01  0.7957747E-01            NaN
         13   -1    0    0    0    0  0.00000000000E+00  0.00000000000E+00  0.74505805969E-08  0.10566000000E+00  0.10566000000E+00 0. -1.
     999900   -1    0    0    0    0 -0.00000000000E+00 -0.00000000000E+00 -0.74505805969E-08  0.93827000000E+00  0.93827000000E+00 0. -1.
     999902    2    1    2    0    0  0.21584669801E-01 -0.10075767316E-01 -0.68419719482E-02  0.10191463030E+01  0.10188449123E+01 0.  0.
     999903    2    3    3    0    0 -0.78412331135E-01 -0.36277758423E-01 -0.93481254535E-01  0.12886976740E+00  0.20102302598E-01 0.  0.
         14    1    1    2    0    0 -0.21584669801E-01  0.10075767316E-01  0.68419719482E-02  0.24783697012E-01  0.00000000000E+00 0. -1.
     999901    1    3    3    0    0  0.99997000937E-01  0.26201991107E-01  0.86639282587E-01  0.89027653559E+00  0.88000000000E+00 0.  1.
        -11    1    4    4    0    0 -0.22279470227E-01 -0.18012033205E-01 -0.21767790356E-01  0.35984801678E-01  0.51100000000E-03 0.  1.
         11    1    4    4    0    0 -0.56132860908E-01 -0.18265725217E-01 -0.71713464179E-01  0.92884965721E-01  0.51100000000E-03 0. -1.
</event>
<event>
 8    1  0.1132492E+005  0.1043930E+01  0.7957747E-01            NaN
         13   -1    0    0    0    0  0.00000000000E+00  0.00000000000E+00  0.74505805969E-08  0.10566000000E+00  0.10566000000E+00 0.  1.
     999900   -1    0    0    0    0 -0.00000000000E+00 -0.00000000000E+00 -0.74505805969E-08  0.93827000000E+00  0.93827000000E+00 0.  1.
     999902    2    1    2    0    0 -0.20062068482E-02 -0.22661033178E-01 -0.90760116009E-02  0.10194367095E+01  0.10191424255E+01 0.  0.
     999903    2    3    3    0    0 -0.74334320967E-01 -0.10738761639E+00 -0.10663982798E-01  0.13241220501E+00  0.19015259099E-01 0.  0.
         14    1    1    2    0    0  0.20062068482E-02  0.22661033178E-01  0.90760116009E-02  0.24493290453E-01  0.00000000000E+00 0.  1.
     999901    1    3    3    0    0  0.72328114119E-01  0.84726583214E-01  0.15879711968E-02  0.88702450454E+00  0.88000000000E+00 0. -1.
        -11    1    4    4    0    0 -0.22551036245E-01 -0.20965411387E-01  0.20476396465E-02  0.30863435640E-01  0.51100000000E-03 0.  1.
         11    1    4    4    0    0 -0.51783284721E-01 -0.86422205006E-01 -0.12711622444E-01  0.10154876937E+00  0.51100000000E-03 0. -1.
</event>
<event>
 8    1  0.1132492E+005  0.1043930E+01  0.7957747E-01            NaN
         13   -1    0    0    0    0  0.00000000000E+00  0.00000000000E+00  0.74505805969E-08  0.10566000000E+00  0.10566000000E+00 0. -1.
     999900   -1    0    0    0    0 -0.00000000000E+00 -0.00000000000E+00 -0.74505805969E-08  0.93827000000E+00  0.93827000000E+00 0. -1.
     999902    2    1    2    0    0  0.88946527207E-02 -0.14688928782E-01 -0.11884105793E-01  0.10230467185E+01  0.10228335528E+01 0.  0.
     999903    2    3    3    0    0 -0.87616564494E-01  0.43979393577E-01 -0.87005916869E-01  0.13265373021E+00  0.20399341523E-01 0.  0.
         14    1    1    2    0    0 -0.88946527207E-02  0.14688928782E-01  0.11884105793E-01  0.20883281502E-01  0.00000000000E+00 0. -1.
     999901    1    3    3    0    0  0.96511217215E-01 -0.58668322359E-01  0.75121811076E-01  0.89039298829E+00  0.88000000000E+00 0. -1.
        -11    1    4    4    0    0 -0.60809937920E-01  0.19627069837E-01 -0.56586115240E-01  0.85354085896E-01  0.51100000000E-03 0.  1.
         11    1    4    4    0    0 -0.26806626575E-01  0.24352323740E-01 -0.30419801629E-01  0.47299644311E-01  0.51100000000E-03 0. -1.
</event>
<event>
 8    1  0.1132492E+005  0.1043930E+01  0.7957747E-01            NaN
         13   -1    0    0    0    0  0.00000000000E+00  0.00000000000E+00  0.74505805969E-08  0.10566000000E+00  0.10566000000E+00 0.  1.
     999900   -1    0    0    0    0 -0.00000000000E+00 -0.00000000000E+00 -0.74505805969E-08  0.93827000000E+00  0.93827000000E+00 0. -1.
     999902    2    1    2    0    0 -0.21301930052E-01  0.12422124532E-01  0.11109272383E-02  0.10192456819E+01  0.10189467329E+01 0.  0.
     999903    2    3    3    0    0 -0.73570223934E-01 -0.10028055329E+00  0.31986865781E-01  0.12998352047E+00  0.20094496608E-01 0.  0.
         14    1    1    2    0    0  0.21301930052E-01 -0.12422124532E-01 -0.11109272383E-02  0.24684318122E-01  0.00000000000E+00 0.  1.
     999901    1    3    3    0    0  0.52268293882E-01  0.11270267782E+00 -0.30875938542E-01  0.88926216141E+00  0.88000000000E+00 0. -1.
        -11    1    4    4    0    0 -0.58679814273E-01 -0.78707304184E-01  0.16556580835E-01  0.99561748804E-01  0.51100000000E-03 0. -1.
         11    1    4    4    0    0 -0.14890409661E-01 -0.21573249103E-01  0.15430284946E-01  0.30421771665E-01  0.51100000000E-03 0.  1.
</event>
<event>
 8    1  0.1132492E+005  0.1043930E+01  0.7957747E-01            NaN
         13   -1    0    0    0    0  0.00000000000E+00  0.00000000000E+00  0.74505805969E-08  0.10566000000E+00  0.10566000000E+00 0. -1.
     999900   -1    0    0    0    0 -0.00000000000E+00 -0.00000000000E+00 -0.74505805969E-08  0.93827000000E+00  0.93827000000E+00 0. -1.
     999902    2    1    2    0    0 -0.21969749205E-01 -0.39628744569E-02  0.86175705928E-02  0.10200001697E+01  0.10197194268E+01 0.  0.
     999903    2    3    3    0    0 -0.53520209074E-01  0.96907179846E-02  0.11904006535E+00  0.13243328241E+00  0.20241401593E-01 0.  0.
         14    1    1    2    0    0  0.21969749205E-01  0.39628744569E-02 -0.86175705928E-02  0.23929830275E-01  0.00000000000E+00 0.  1.
     999901    1    3    3    0    0  0.31550459869E-01 -0.13653592442E-01 -0.11042249475E+00  0.88756688731E+00  0.88000000000E+00 0. -1.
        -11    1    4    4    0    0 -0.81468695907E-02  0.95948866433E-02  0.23431346665E-01  0.26603053610E-01  0.51100000000E-03 0. -1.
         11    1    4    4    0    0 -0.45373339483E-01  0.95831341279E-04  0.95608718682E-01  0.10583022880E+00  0.51100000000E-03 0.  1.
</event>
<event>
 8    1  0.1132492E+005  0.1043930E+01  0.7957747E-01            NaN
         13   -1    0    0    0    0  0.00000000000E+00  0.00000000000E+00  0.74505805969E-08  0.10566000000E+00  0.10566000000E+00 0.  1.
     999900   -1    0    0    0    0 -0.00000000000E+00 -0.00000000000E+00 -0.74505805969E-08  0.93827000000E+00  0.93827000000E+00 0. -1.
     999902    2    1    2    0    0  0.50453558769E-02 -0.18866681424E-01 -0.11435232147E-01  0.10212987866E+01  0.10210480105E+01 0.  0.
     999903    2    3    3    0    0 -0.84941422590E-02  0.10175652789E+00  0.75709549347E-01  0.12870285926E+00  0.20148168630E-01 0.  0.
         14    1    1    2    0    0 -0.50453558769E-02  0.18866681424E-01  0.11435232147E-01  0.22631213360E-01  0.00000000000E+00 0. -1.
     999901    1    3    3    0    0  0.13539498136E-01 -0.12062320931E+00 -0.87144781494E-01  0.89259592738E+00  0.88000000000E+00 0. -1.
        -11    1    4    4    0    0 -0.84596755507E-02  0.71851045527E-01  0.42079380615E-01  0.83696321590E-01  0.51100000000E-03 0. -1.
         11    1    4    4    0    0 -0.34466708257E-04  0.29905482360E-01  0.33630168732E-01  0.45006537670E-01  0.51100000000E-03 0.  1.
</event>
<event>
 8    1  0.1132492E+005  0.1043930E+01  0.7957747E-01            NaN
         13   -1    0    0    0    0  0.00000000000E+00  0.00000000000E+00  0.74505805969E-08  0.10566000000E+00  0.10566000000E+00 0. -1.
     999900   -1    0    0    0    0 -0.00000000000E+00 -0.00000000000E+00 -0.74505805969E-08  0.93827000000E+00  0.93827000000E+00 0.  1.
     999902    2    1    2    0    0 -0.14372204091E-01 -0.18523940079E-01  0.28736371722E-02  0.10203089417E+01  0.10200354808E+01 0.  0.
     999903    2    3    3    0    0 -0.76670283285E-01 -0.81831339296E-01  0.69922748153E-01  0.13330022651E+00  0.17465945401E-01 0.  0.
         14    1    1    2    0    0  0.14372204091E-01  0.18523940079E-01 -0.28736371722E-02  0.23621058340E-01  0.00000000000E+00 0. -1.
     999901    1    3    3    0    0  0.62298079194E-01  0.63307399217E-01 -0.67049110981E-01  0.88700871515E+00  0.88000000000E+00 0.  1.
        -11    1    4    4    0    0 -0.42110639375E-01 -0.38587735118E-01  0.26623863421E-01  0.63019127847E-01  0.51100000000E-03 0. -1.
         11    1    4    4    0    0 -0.34559643910E-01 -0.43243604178E-01  0.43298884731E-01  0.70281098665E-01  0.51100000000E-03 0.  1.
</event>
<event>
 8    1  0.1132492E+005  0.1043930E+01  0.7957747E-01            NaN
         13   -1    0    0    0    0  0.00000000000E+00  0.00000000000E+00  0.74505805969E-08  0.10566000000E+00  0.10566000000E+00 0. -1.
     999900   -1    0    0    0    0 -0.00000000000E+00 -0.00000000000E+00 -0.74505805969E-08  0.93827000000E+00  0.93827000000E+00 0.  1.
     999902    2    1    2    0    0 -0.19363315373E-01 -0.23720152947E-02  0.13277347916E-01  0.10203322796E+01  0.10200593652E+01 0.  0.
     999903    2    3    3    0    0  0.87452498633E-01 -0.92793584765E-01  0.77884718548E-03  0.12918588826E+00  0.20731575694E-01 0.  0.
         14    1    1    2    0    0  0.19363315373E-01  0.23720152947E-02 -0.13277347916E-01  0.23597720366E-01  0.00000000000E+00 0. -1.
     999901    1    3    3    0    0 -0.10681581401E+00  0.90421569470E-01  0.12498500730E-01  0.89114639138E+00  0.88000000000E+00 0. -1.
        -11    1    4    4    0    0  0.28447989368E-01 -0.23579892200E-01 -0.80043078300E-02  0.37810441417E-01  0.51100000000E-03 0. -1.
         11    1    4    4    0    0  0.59004509265E-01 -0.69213692564E-01  0.87831550155E-02  0.91375446839E-01  0.51100000000E-03 0.  1.
</event>
<event>
 8    1  0.1132492E+005  0.1043930E+01  0.7957747E-01            NaN
         13   -1    0    0    0    0  0.00000000000E+00  0.00000000000E+00  0.74505805969E-08  0.10566000000E+00  0.10566000000E+00 0. -1.
     999900   -1    0    0    0    0 -0.00000000000E+00 -0.00000000000E+00 -0.74505805969E-08  0.93827000000E+00  0.93827000000E+00 0. -1.
     999902    2    1    2    0    0 -0.41837810269E-02 -0.18732921118E-01 -0.14156629677E-01  0.10200797061E+01  0.10198008483E+01 0.  0.
     999903    2    3    3    0    0  0.22958215112E-01 -0.12763093548E+00 -0.21131886320E-01  0.13292463523E+00  0.20141169290E-01 0.  0.
         14    1    1    2    0    0  0.41837810269E-02  0.18732921118E-01  0.14156629677E-01  0.23850293942E-01  0.00000000000E+00 0. -1.
     999901    1    3    3    0    0 -0.27141996138E-01  0.10889801436E+00  0.69752566431E-02  0.88715507083E+00  0.88000000000E+00 0.  1.
        -11    1    4    4    0    0  0.14856394852E-01 -0.43085539448E-01 -0.77265565579E-03  0.45584364592E-01  0.51100000000E-03 0.  1.
         11    1    4    4    0    0  0.81018202594E-02 -0.84545396030E-01 -0.20359230664E-01  0.87340270641E-01  0.51100000000E-03 0. -1.
</event>
<event>
 8    1  0.1132492E+005  0.1043930E+01  0.7957747E-01            NaN
         13   -1    0    0    0    0  0.00000000000E+00  0.00000000000E+00  0.74505805969E-08  0.10566000000E+00  0.10566000000E+00 0. -1.
     999900   -1    0    0    0    0 -0.00000000000E+00 -0.00000000000E+00 -0.74505805969E-08  0.93827000000E+00  0.93827000000E+00 0. -1.
     999902    2    1    2    0    0  0.19864473945E-01 -0.26499207810E-02 -0.98400575237E-02  0.10216040927E+01  0.10213601109E+01 0.  0.
     999903    2    3    3    0    0  0.24772338549E-01  0.36135957166E-01 -0.12434406822E+00  0.13332508251E+00  0.19865904592E-01 0.  0.
         14    1    1    2    0    0 -0.19864473945E-01  0.26499207810E-02  0.98400575237E-02  0.22325907312E-01  0.00000000000E+00 0. -1.
     999901    1    3    3    0    0 -0.49078646046E-02 -0.38785877947E-01  0.11450401070E+00  0.88827901018E+00  0.88000000000E+00 0.  1.
        -11    1    4    4    0    0  0.44907081938E-02 -0.18776067784E-02 -0.15825337833E-01  0.16564851518E-01  0.51100000000E-03 0. -1.
         11    1    4    4    0    0  0.20281630355E-01  0.38013563945E-01 -0.10851873039E+00  0.11676023099E+00  0.51100000000E-03 0.  1.
</event>
<event>
 8    1  0.1132492E+005  0.1043930E+01  0.7957747E-01            NaN
         13   -1    0    0    0    0  0.00000000000E+00  0.00000000000E+00  0.74505805969E-08  0.10566000000E+00  0.10566000000E+00 0. -1.
     999900   -1    0    0    0    0 -0.00000000000E+00 -0.00000000000E+00 -0.74505805969E-08  0.93827000000E+00  0.93827000000E+00 0.  1.
     999902    2    1    2    0    0 -0.51991583473E-02 -0.22098221230E-01 -0.37720040156E-02  0.10209171635E+01  0.10206577605E+01 0.  0.
     999903    2    3    3    0    0  0.51950096089E-01 -0.32352547760E-01  0.11458587781E+00  0.13109708243E+00  0.17635810151E-01 0.  0.
         14    1    1    2    0    0  0.51991583473E-02  0.22098221230E-01  0.37720040156E-02  0.23012836491E-01  0.00000000000E+00 0.  1.
     999901    1    3    3    0    0 -0.57149254437E-01  0.10254326530E-01 -0.11835788182E+00  0.88982008108E+00  0.88000000000E+00 0.  1.
        -11    1    4    4    0    0  0.36891027931E-01 -0.20521979003E-01  0.60957291093E-01  0.74149524762E-01  0.51100000000E-03 0.  1.
         11    1    4    4    0    0  0.15059068159E-01 -0.11830568758E-01  0.53628586713E-01  0.56947557672E-01  0.51100000000E-03 0. -1.
</event>
<event>
 8    1  0.1132492E+005  0.1043930E+01  0.7957747E-01            NaN
         13   -1    0    0    0    0  0.00000000000E+00  0.00000000000E+00  0.74505805969E-08  0.10566000000E+00  0.10566000000E+00 0. -1.
     999900   -1    0    0    0    0 -0.00000000000E+00 -0.00000000000E+00 -0.74505805969E-08  0.93827000000E+00  0.93827000000E+00 0. -1.
     999902    2    1    2    0    0 -0.13425228604E-02 -0.16436340768E-01 -0.17082391655E-01  0.10201862899E+01  0.10199099481E+01 0.  0.
     999903    2    3    3    0    0  0.71466483157E-01  0.21993817901E-01 -0.10661692040E+00  0.13182011522E+00  0.20449665535E-01 0.  0.
         14    1    1    2    0    0  0.13425228604E-02  0.16436340768E-01  0.17082391655E-01  0.23743710117E-01  0.00000000000E+00 0.  1.
     999901    1    3    3    0    0 -0.72809006018E-01 -0.38430158669E-01  0.89534528741E-01  0.88836617467E+00  0.88000000000E+00 0. -1.
        -11    1    4    4    0    0  0.20229617145E-01  0.13225398764E-01 -0.45999560981E-01  0.51965077829E-01  0.51100000000E-03 0.  1.
         11    1    4    4    0    0  0.51236866012E-01  0.87684191375E-02 -0.60617359415E-01  0.79855037389E-01  0.51100000000E-03 0. -1.
</event>
<event>
 8    1  0.1132492E+005  0.1043930E+01  0.7957747E-01            NaN
         13   -1    0    0    0    0  0.00000000000E+00  0.00000000000E+00  0.74505805969E-08  0.10566000000E+00  0.10566000000E+00 0.  1.
     999900   -1    0    0    0    0 -0.00000000000E+00 -0.00000000000E+00 -0.74505805969E-08  0.93827000000E+00  0.93827000000E+00 0.  1.
     999902    2    1    2    0    0  0.10637416938E-01 -0.13998250715E-01  0.15070718757E-01  0.10207733114E+01  0.10205106178E+01 0.  0.
     999903    2    3    3    0    0 -0.36694541503E-01  0.23784308545E-01  0.12319908982E+00  0.13208912640E+00  0.18903408985E-01 0.  0.
         14    1    1    2    0    0 -0.10637416938E-01  0.13998250715E-01 -0.15070718757E-01  0.23156688581E-01  0.00000000000E+00 0. -1.
     999901    1    3    3    0    0  0.47331958441E-01 -0.37782559260E-01 -0.10812837106E+00  0.88868418502E+00  0.88000000000E+00 0.  1.
        -11    1    4    4    0    0 -0.28206012903E-01  0.14901564123E-01  0.10757369176E+00  0.11220515165E+00  0.51100000000E-03 0. -1.
         11    1    4    4    0    0 -0.84885285994E-02  0.88827444223E-02  0.15625398065E-01  0.19883974752E-01  0.51100000000E-03 0.  1.
</event>
<event>
 8    1  0.1132492E+005  0.1043930E+01  0.7957747E-01            NaN
         13   -1    0    0    0    0  0.00000000000E+00  0.00000000000E+00  0.74505805969E-08  0.10566000000E+00  0.10566000000E+00 0.  1.
     999900   -1    0    0    0    0 -0.00000000000E+00 -0.00000000000E+00 -0.74505805969E-08  0.93827000000E+00  0.93827000000E+00 0. -1.
     999902    2    1    2    0    0 -0.91739038497E-02  0.19135211626E-01 -0.11821614650E-01  0.10196386968E+01  0.10193493046E+01 0.  0.
     999903    2    3    3    0    0  0.19919413617E-01 -0.93179760041E-01 -0.84674083181E-01  0.12903858673E+00  0.20050081829E-01 0.  0.
         14    1    1    2    0    0  0.91739038497E-02 -0.19135211626E-01  0.11821614650E-01  0.24291303150E-01  0.00000000000E+00 0.  1.
     999901    1    3    3    0    0 -0.29093317466E-01  0.11231497167E+00  0.72852468531E-01  0.89060011012E+00  0.88000000000E+00 0.  1.
        -11    1    4    4    0    0  0.69185992852E-02 -0.60752159514E-01 -0.63640603279E-01  0.88255761333E-01  0.51100000000E-03 0. -1.
         11    1    4    4    0    0  0.13000814331E-01 -0.32427600527E-01 -0.21033479903E-01  0.40782825393E-01  0.51100000000E-03 0.  1.
</event>
<event>
 8    1  0.1132492E+005  0.1043930E+01  0.7957747E-01            NaN
         13   -1    0    0    0    0  0.00000000000E+00  0.00000000000E+00  0.74505805969E-08  0.10566000000E+00  0.10566000000E+00 0.  1.
     999900   -1    0    0    0    0 -0.00000000000E+00 -0.00000000000E+00 -0.74505805969E-08  0.93827000000E+00  0.93827000000E+00 0.  1.
     999902    2    1    2    0    0  0.14067876197E-01  0.19029640958E-01  0.53370816370E-02  0.10196706345E+01  0.10193820118E+01 0.  0.
     999903    2    3    3    0    0  0.14030249073E-01  0.12895294120E+00  0.19331461180E-01  0.13272138225E+00  0.20385067600E-01 0.  0.
         14    1    1    2    0    0 -0.14067876197E-01 -0.19029640958E-01 -0.53370816370E-02  0.24259365534E-01  0.00000000000E+00 0. -1.
     999901    1    3    3    0    0  0.37627124186E-04 -0.10992330024E+00 -0.13994379543E-01  0.88694925222E+00  0.88000000000E+00 0. -1.
        -11    1    4    4    0    0  0.14461010683E-01  0.61790893996E-01  0.16127106275E-01  0.65479615825E-01  0.51100000000E-03 0. -1.
         11    1    4    4    0    0 -0.43076160959E-03  0.67162047204E-01  0.32043549046E-02  0.67241766422E-01  0.51100000000E-03 0.  1.
</event>
<event>
 8    1  0.1132492E+005  0.1043930E+01  0.7957747E-01            NaN
         13   -1    0    0    0    0  0.00000000000E+00  0.00000000000E+00  0.74505805969E-08  0.10566000000E+00  0.10566000000E+00 0.  1.
     999900   -1    0    0    0    0 -0.00000000000E+00 -0.00000000000E+00 -0.74505805969E-08  0.93827000000E+00  0.93827000000E+00 0.  1.
     999902    2    1    2    0    0 -0.21226518308E-01  0.55754501268E-03 -0.11553887959E-01  0.10197562898E+01  0.10194697261E+01 0.  0.
     999903    2    3    3    0    0  0.25438193672E-01 -0.12518760662E+00  0.41638906996E-02  0.12945494363E+00  0.20547649355E-01 0.  0.
         14    1    1    2    0    0  0.21226518308E-01 -0.55754501268E-03  0.11553887959E-01  0.24173710159E-01  0.00000000000E+00 0. -1.
     999901    1    3    3    0    0 -0.46664711980E-01  0.12574515164E+00 -0.15717778659E-01  0.89030134621E+00  0.88000000000E+00 0. -1.
        -11    1    4    4    0    0  0.10122193220E-01 -0.94929330764E-01  0.33483008507E-02  0.95527529407E-01  0.51100000000E-03 0. -1.
         11    1    4    4    0    0  0.15316000452E-01 -0.30258275860E-01  0.81558984885E-03  0.33927414220E-01  0.51100000000E-03 0.  1.
</event>
<event>
 8    1  0.1132492E+005  0.1043930E+01  0.7957747E-01            NaN
         13   -1    0    0    0    0  0.00000000000E+00  0.00000000000E+00  0.74505805969E-08  0.10566000000E+00  0.10566000000E+00 0.  1.
     999900   -1    0    0    0    0 -0.00000000000E+00 -0.00000000000E+00 -0.74505805969E-08  0.93827000000E+00  0.93827000000E+00 0.  1.
     999902    2    1    2    0    0 -0.19007674738E-01 -0.45817392864E-02 -0.13195606755E-01  0.10203416963E+01  0.10200690021E+01 0.  0.
     999903    2    3    3    0    0  0.73704982330E-01  0.73577778418E-01  0.71743883293E-01  0.12797447147E+00  0.19600169889E-01 0.  0.
         14    1    1    2    0    0  0.19007674738E-01  0.45817392864E-02  0.13195606755E-01  0.23588303700E-01  0.00000000000E+00 0.  1.
     999901    1    3    3    0    0 -0.92712657068E-01 -0.78159517705E-01 -0.84939490048E-01  0.89236722483E+00  0.88000000000E+00 0.  1.
        -11    1    4    4    0    0  0.69256135323E-01  0.69541244491E-01  0.60722133104E-01  0.11541159186E+00  0.51100000000E-03 0. -1.
         11    1    4    4    0    0  0.44488470074E-02  0.40365339277E-02  0.11021750189E-01  0.12562879609E-01  0.51100000000E-03 0.  1.
</event>
<event>
 8    1  0.1132492E+005  0.1043930E+01  0.7957747E-01            NaN
         13   -1    0    0    0    0  0.00000000000E+00  0.00000000000E+00  0.74505805969E-08  0.10566000000E+00  0.10566000000E+00 0.  1.
     999900   -1    0    0    0    0 -0.00000000000E+00 -0.00000000000E+00 -0.74505805969E-08  0.93827000000E+00  0.93827000000E+00 0.  1.
     999902    2    1    2    0    0  0.14562549083E-01  0.14590649060E-01  0.15823884490E-01  0.10179424992E+01  0.10176107220E+01 0.  0.
     999903    2    3    3    0    0 -0.33547014406E-01  0.90875398833E-01  0.85309017839E-01  0.13060824603E+00  0.19928500149E-01 0.  0.
         14    1    1    2    0    0 -0.14562549083E-01 -0.14590649060E-01 -0.15823884490E-01  0.25987500767E-01  0.00000000000E+00 0. -1.
     999901    1    3    3    0    0  0.48109563490E-01 -0.76284749773E-01 -0.69485133349E-01  0.88733425320E+00  0.88000000000E+00 0.  1.
        -11    1    4    4    0    0 -0.19867283283E-01  0.54467937482E-01  0.37826590897E-01  0.69228442554E-01  0.51100000000E-03 0. -1.
         11    1    4    4    0    0 -0.13679731123E-01  0.36407461351E-01  0.47482426942E-01  0.61379803477E-01  0.51100000000E-03 0.  1.
</event>
<event>
 8    1  0.1132492E+005  0.1043930E+01  0.7957747E-01            NaN
         13   -1    0    0    0    0  0.00000000000E+00  0.00000000000E+00  0.74505805969E-08  0.10566000000E+00  0.10566000000E+00 0. -1.
     999900   -1    0    0    0    0 -0.00000000000E+00 -0.00000000000E+00 -0.74505805969E-08  0.93827000000E+00  0.93827000000E+00 0. -1.
     999902    2    1    2    0    0  0.65421897372E-02  0.19285917105E-01 -0.12878857734E-01  0.10198341119E+01  0.10195494123E+01 0.  0.
     999903    2    3    3    0    0 -0.37601605419E-01  0.80443913183E-01 -0.96480719072E-01  0.13265980755E+00  0.20124400340E-01 0.  0.
         14    1    1    2    0    0 -0.65421897372E-02 -0.19285917105E-01  0.12878857734E-01  0.24095888066E-01  0.00000000000E+00 0. -1.
     999901    1    3    3    0    0  0.44143795156E-01 -0.61157996078E-01  0.83601861338E-01  0.88717430438E+00  0.88000000000E+00 0.  1.
        -11    1    4    4    0    0 -0.28841285424E-02  0.13589975007E-01 -0.66146201186E-02  0.15395451876E-01  0.51100000000E-03 0.  1.
         11    1    4    4    0    0 -0.34717476877E-01  0.66853938176E-01 -0.89866098953E-01  0.11726435568E+00  0.51100000000E-03 0. -1.
</event>
<event>
 8    1  0.1487799E+005  0.1043930E+01  0.7957747E-01            NaN
         13   -1    0    0    0    0  0.00000000000E+00  0.00000000000E+00  0.74505805969E-08  0.10566000000E+00  0.10566000000E+00 0. -1.
     999900   -1    0    0    0    0 -0.00000000000E+00 -0.00000000000E+00 -0.74505805969E-08  0.93827000000E+00  0.93827000000E+00 0.  1.
     999902    2    1    2    0    0  0.10945922998E-01 -0.15871175210E-01  0.14586463360E-01  0.10197541371E+01  0.10194675217E+01 0.  0.
     999903    2    3    3    0    0 -0.39419184800E-02  0.12232783986E+00  0.34235313783E-01  0.12862749465E+00  0.19832713959E-01 0.  0.
         14    1    1    2    0    0 -0.10945922998E-01  0.15871175210E-01 -0.14586463360E-01  0.24175862884E-01  0.00000000000E+00 0. -1.
     999901    1    3    3    0    0  0.14887841478E-01 -0.13819901507E+00 -0.19648850424E-01  0.89112664247E+00  0.88000000000E+00 0. -1.
        -11    1    4    4    0    0 -0.11344800467E-01  0.50418646092E-01  0.15258597202E-01  0.53887199602E-01  0.51100000000E-03 0. -1.
         11    1    4    4    0    0  0.74028819865E-02  0.71909193772E-01  0.18976716582E-01  0.74740295048E-01  0.51100000000E-03 0.  1.
</event>
<event>
 8    1  0.1132492E+005  0.1043930E+01  0.7957747E-01            NaN
         13   -1    0    0    0    0  0.00000000000E+00  0.00000000000E+00  0.74505805969E-08  0.10566000000E+00  0.10566000000E+00 0. -1.
     999900   -1    0    0    0    0 -0.00000000000E+00 -0.00000000000E+00 -0.74505805969E-08  0.93827000000E+00  0.93827000000E+00 0. -1.
     999902    2    1    2    0    0 -0.90082655895E-02  0.39849231397E-02  0.20163516756E-01  0.10214890582E+01  0.10212425276E+01 0.  0.
     999903    2    3    3    0    0 -0.36312919549E-01  0.11104382098E+00 -0.56340909842E-01  0.13128678959E+00  0.20311688640E-01 0.  0.
         14    1    1    2    0    0  0.90082655895E-02 -0.39849231397E-02 -0.20163516756E-01  0.22440941810E-01  0.00000000000E+00 0.  1.
     999901    1    3    3    0    0  0.27304653959E-01 -0.10705889784E+00  0.76504426597E-01  0.89020226860E+00  0.88000000000E+00 0.  1.
        -11    1    4    4    0    0 -0.33703404799E-01  0.86263950041E-01 -0.36969616571E-01  0.99721623744E-01  0.51100000000E-03 0.  1.
         11    1    4    4    0    0 -0.26095147499E-02  0.24779870936E-01 -0.19371293270E-01  0.31565165844E-01  0.51100000000E-03 0. -1.
</event>
<event>
 8    1  0.1132492E+005  0.1043930E+01  0.7957747E-01            NaN
         13   -1    0    0    0    0  0.00000000000E+00  0.00000000000E+00  0.74505805969E-08  0.10566000000E+00  0.10566000000E+00 0.  1.
     999900   -1    0    0    0    0 -0.00000000000E+00 -0.00000000000E+00 -0.74505805969E-08  0.93827000000E+00  0.93827000000E+00 0. -1.
     999902    2    1    2    0    0  0.50509138887E-02 -0.18728704285E-01 -0.16070252705E-01  0.10187401386E+01  0.10184286626E+01 0.  0.
     999903    2    3    3    0    0  0.52963352643E-01  0.10218116387E+00  0.48950314985E-01  0.12680826215E+00  0.20930720003E-01 0.  0.
         14    1    1    2    0    0 -0.50509138887E-02  0.18728704285E-01  0.16070252705E-01  0.25189861399E-01  0.00000000000E+00 0.  1.
     999901    1    3    3    0    0 -0.47912438754E-01 -0.12090986815E+00 -0.65020567689E-01  0.89193187645E+00  0.88000000000E+00 0. -1.
        -11    1    4    4    0    0  0.28667055385E-01  0.58094577595E-01  0.16291424293E-01  0.66801584089E-01  0.51100000000E-03 0.  1.
         11    1    4    4    0    0  0.24296297258E-01  0.44086586275E-01  0.32658890692E-01  0.60006678062E-01  0.51100000000E-03 0. -1.
</event>
<event>
 8    1  0.1132492E+005  0.1043930E+01  0.7957747E-01            NaN
         13   -1    0    0    0    0  0.00000000000E+00  0.00000000000E+00  0.74505805969E-08  0.10566000000E+00  0.10566000000E+00 0.  1.
     999900   -1    0    0    0    0 -0.00000000000E+00 -0.00000000000E+00 -0.74505805969E-08  0.93827000000E+00  0.93827000000E+00 0. -1.
     999902    2    1    2    0    0 -0.13552933027E-01 -0.31541462067E-02 -0.19009819072E-01  0.10203714802E+01  0.10200994823E+01 0.  0.
     999903    2    3    3    0    0  0.40829599414E-01  0.70314769667E-01 -0.10179260296E+00  0.13177250954E+00  0.19774661299E-01 0.  0.
         14    1    1    2    0    0  0.13552933027E-01  0.31541462067E-02  0.19009819072E-01  0.23558519756E-01  0.00000000000E+00 0.  1.
     999901    1    3    3    0    0 -0.54382532441E-01 -0.73468915874E-01  0.82782783893E-01  0.88859897071E+00  0.88000000000E+00 0.  1.
        -11    1    4    4    0    0  0.90880907538E-02  0.29891975665E-01 -0.48813144741E-01  0.57957810718E-01  0.51100000000E-03 0. -1.
         11    1    4    4    0    0  0.31741508660E-01  0.40422794002E-01 -0.52979458224E-01  0.73814698818E-01  0.51100000000E-03 0.  1.
</event>
<event>
 8    1  0.1132492E+005  0.1043930E+01  0.7957747E-01            NaN
         13   -1    0    0    0    0  0.00000000000E+00  0.00000000000E+00  0.74505805969E-08  0.10566000000E+00  0.10566000000E+00 0.  1.
     999900   -1    0    0    0    0 -0.00000000000E+00 -0.00000000000E+00 -0.74505805969E-08  0.93827000000E+00  0.93827000000E+00 0. -1.
     999902    2    1    2    0    0  0.17467877632E-01  0.59495027772E-02  0.13451936238E-01  0.10210941089E+01  0.10208387245E+01 0.  0.
     999903    2    3    3    0    0 -0.20032917243E-02  0.82883261345E-01  0.10215850434E+00  0.13308127971E+00  0.20015464306E-01 0.  0.
         14    1    1    2    0    0 -0.17467877632E-01 -0.59495027772E-02 -0.13451936238E-01  0.22835891066E-01  0.00000000000E+00 0. -1.
     999901    1    3    3    0    0  0.19471169356E-01 -0.76933758568E-01 -0.88706568101E-01  0.88801282922E+00  0.88000000000E+00 0. -1.
        -11    1    4    4    0    0  0.48284310221E-02  0.43353755563E-01  0.65741220813E-01  0.78898866294E-01  0.51100000000E-03 0. -1.
         11    1    4    4    0    0 -0.68317227464E-02  0.39529505782E-01  0.36417283526E-01  0.54182413415E-01  0.51100000000E-03 0.  1.
</event>
<event>
 8    1  0.1132492E+005  0.1043930E+01  0.7957747E-01            NaN
         13   -1    0    0    0    0  0.00000000000E+00  0.00000000000E+00  0.74505805969E-08  0.10566000000E+00  0.10566000000E+00 0. -1.
     999900   -1    0    0    0    0 -0.00000000000E+00 -0.00000000000E+00 -0.74505805969E-08  0.93827000000E+00  0.93827000000E+00 0.  1.
     999902    2    1    2    0    0  0.14783965565E-02 -0.22790925998E-01  0.86219962565E-02  0.10195178968E+01  0.10192255840E+01 0.  0.
     999903    2    3    3    0    0 -0.96995887331E-01 -0.85663805802E-01  0.47915548928E-02  0.13178772613E+00  0.24465403661E-01 0.  0.
         14    1    1    2    0    0 -0.14783965565E-02  0.22790925998E-01 -0.86219962565E-02  0.24412103221E-01  0.00000000000E+00 0. -1.
     999901    1    3    3    0    0  0.98474283887E-01  0.62872879804E-01  0.38304413637E-02  0.88773017065E+00  0.88000000000E+00 0.  1.
        -11    1    4    4    0    0 -0.48588203443E-02 -0.11917255870E-01 -0.38822997809E-02  0.13452230120E-01  0.51100000000E-03 0.  1.
         11    1    4    4    0    0 -0.92137066986E-01 -0.73746549932E-01  0.86738546737E-02  0.11833549601E+00  0.51100000000E-03 0. -1.
</event>
<event>
 8    1  0.1132492E+005  0.1043930E+01  0.7957747E-01            NaN
         13   -1    0    0    0    0  0.00000000000E+00  0.00000000000E+00  0.74505805969E-08  0.10566000000E+00  0.10566000000E+00 0. -1.
     999900   -1    0    0    0    0 -0.00000000000E+00 -0.00000000000E+00 -0.74505805969E-08  0.93827000000E+00  0.93827000000E+00 0.  1.
     999902    2    1    2    0    0  0.11040070150E-01  0.58360569986E-02 -0.21811273669E-01  0.10187968671E+01  0.10184868100E+01 0.  0.
     999903    2    3    3    0    0  0.72641642097E-01  0.39816129803E-01  0.95796940810E-01  0.12818971963E+00  0.19834767233E-01 0.  0.
         14    1    1    2    0    0 -0.11040070150E-01 -0.58360569986E-02  0.21811273669E-01  0.25133132898E-01  0.00000000000E+00 0. -1.
     999901    1    3    3    0    0 -0.61601571947E-01 -0.33980072805E-01 -0.11760821448E+00  0.89060714747E+00  0.88000000000E+00 0.  1.
        -11    1    4    4    0    0  0.26099110053E-01  0.20203668778E-01  0.25920585315E-01  0.41970104143E-01  0.51100000000E-03 0.  1.
         11    1    4    4    0    0  0.46542532044E-01  0.19612461025E-01  0.69876355495E-01  0.86219615487E-01  0.51100000000E-03 0. -1.
</event>
<event>
 8    1  0.1132492E+005  0.1043930E+01  0.7957747E-01            NaN
         13   -1    0    0    0    0  0.00000000000E+00  0.00000000000E+00  0.74505805969E-08  0.10566000000E+00  0.10566000000E+00 0.  1.
     999900   -1    0    0    0    0 -0.00000000000E+00 -0.00000000000E+00 -0.74505805969E-08  0.93827000000E+00  0.93827000000E+00 0.  1.
     999902    2    1    2    0    0  0.27949784692E-02  0.43871154438E-02  0.22965132341E-01  0.10203831108E+01  0.10201113845E+01 0.  0.
     999903    2    3    3    0    0 -0.33801072424E-01  0.11837528947E+00 -0.37494192923E-01  0.13022138126E+00  0.19914115106E-01 0.  0.
         14    1    1    2    0    0 -0.27949784692E-02 -0.43871154438E-02 -0.22965132341E-01  0.23546889179E-01  0.00000000000E+00 0. -1.
     999901    1    3    3    0    0  0.36596050893E-01 -0.11398817403E+00  0.60459325264E-01  0.89016172956E+00  0.88000000000E+00 0. -1.
        -11    1    4    4    0    0 -0.81054796973E-02  0.38167915386E-01 -0.21289976382E-01  0.44452365307E-01  0.51100000000E-03 0.  1.
         11    1    4    4    0    0 -0.25695592727E-01  0.80207374085E-01 -0.16204216541E-01  0.85769015955E-01  0.51100000000E-03 0. -1.
</event>
<event>
 8    1  0.1132492E+005  0.1043930E+01  0.7957747E-01            NaN
         13   -1    0    0    0    0  0.00000000000E+00  0.00000000000E+00  0.74505805969E-08  0.10566000000E+00  0.10566000000E+00 0. -1.
     999900   -1    0    0    0    0 -0.00000000000E+00 -0.00000000000E+00 -0.74505805969E-08  0.93827000000E+00  0.93827000000E+00 0.  1.
     999902    2    1    2    0    0 -0.14990730592E-01  0.13819626053E-01  0.12161711435E-01  0.10201895010E+01  0.10199132349E+01 0.  0.
     999903    2    3    3    0    0  0.99530143916E-01 -0.32210304553E-01 -0.70585027862E-01  0.12773176638E+00  0.19733340247E-01 0.  0.
         14    1    1    2    0    0  0.14990730592E-01 -0.13819626053E-01 -0.12161711435E-01  0.23740499004E-01  0.00000000000E+00 0.  1.
     999901    1    3    3    0    0 -0.11452087451E+00  0.46029930606E-01  0.82746739297E-01  0.89245773461E+00  0.88000000000E+00 0.  1.
        -11    1    4    4    0    0  0.21648743376E-01  0.92208126413E-03 -0.11758055795E-01  0.24658291114E-01  0.51100000000E-03 0.  1.
         11    1    4    4    0    0  0.77881400540E-01 -0.33132385817E-01 -0.58826972067E-01  0.10307347527E+00  0.51100000000E-03 0. -1.
</event>
<event>
 8    1  0.1132492E+005  0.1043930E+01  0.7957747E-01            NaN
         13   -1    0    0    0    0  0.00000000000E+00  0.00000000000E+00  0.74505805969E-08  0.10566000000E+00  0.10566000000E+00 0. -1.
     999900   -1    0    0    0    0 -0.00000000000E+00 -0.00000000000E+00 -0.74505805969E-08  0.93827000000E+00  0.93827000000E+00 0. -1.
     999902    2    1    2    0    0  0.62529085367E-02 -0.20685931111E-01  0.80914666140E-02  0.10208545056E+01  0.10205936719E+01 0.  0.
     999903    2    3    3    0    0 -0.61525761780E-01  0.55875302272E-01  0.99092108130E-01  0.13027228738E+00  0.15625434355E-01 0.  0.
         14    1    1    2    0    0 -0.62529085367E-02  0.20685931111E-01 -0.80914666140E-02  0.23075494427E-01  0.00000000000E+00 0.  1.
     999901    1    3    3    0    0  0.67778670316E-01 -0.76561233383E-01 -0.91000641516E-01  0.89058221819E+00  0.88000000000E+00 0. -1.
        -11    1    4    4    0    0 -0.47587387233E-01  0.35691050969E-01  0.76620591664E-01  0.97001993438E-01  0.51100000000E-03 0.  1.
         11    1    4    4    0    0 -0.13938374546E-01  0.20184251303E-01  0.22471516465E-01  0.33270293941E-01  0.51100000000E-03 0. -1.
</event>
<event>
 7    1  0.1132492E+005  0.1043930E+01  0.7957747E-01            NaN
         13   -1    0    0    0    0  0.00000000000E+00  0.00000000000E+00  0.74505805969E-08  0.10566000000E+00  0.10566000000E+00 0.  1.
     999900   -1    0    0    0    0 -0.00000000000E+00 -0.00000000000E+00 -0.74505805969E-08  0.93827000000E+00  0.93827000000E+00 0. -1.
     999903    2    1    2    0    0  0.95057283928E-01  0.32197420344E-01  0.32176593364E-01  0.10719289900E+00  0.19555647044E-01 0.  0.
         14    1    1    2    0    0 -0.23566741037E-01 -0.47230301205E-01  0.42885500263E-02  0.52957381887E-01  0.00000000000E+00 0.  1.
     999901    1    1    2    0    0 -0.71490542891E-01  0.15032880860E-01 -0.36465143391E-01  0.88377971911E+00  0.88000000000E+00 0. -1.
        -11    1    3    3    0    0  0.52074383149E-01  0.92696233008E-02  0.10778539547E-01  0.53982453930E-01  0.51100000000E-03 0. -1.
         11    1    3    3    0    0  0.42982900779E-01  0.22927797043E-01  0.21398053817E-01  0.53210445072E-01  0.51100000000E-03 0.  1.
</event>
<event>
 8    1  0.1132492E+005  0.1043930E+01  0.7957747E-01            NaN
         13   -1    0    0    0    0  0.00000000000E+00  0.00000000000E+00  0.74505805969E-08  0.10566000000E+00  0.10566000000E+00 0. -1.
     999900   -1    0    0    0    0 -0.00000000000E+00 -0.00000000000E+00 -0.74505805969E-08  0.93827000000E+00  0.93827000000E+00 0.  1.
     999902    2    1    2    0    0  0.45992546229E-02 -0.58086418682E-02 -0.22902184618E-01  0.10198591977E+01  0.10195750976E+01 0.  0.
     999903    2    3    3    0    0  0.72409883860E-01 -0.92455726896E-01  0.51832846257E-01  0.12986407208E+00  0.19666737109E-01 0.  0.
         14    1    1    2    0    0 -0.45992546229E-02  0.58086418682E-02  0.22902184618E-01  0.24070802308E-01  0.00000000000E+00 0. -1.
     999901    1    3    3    0    0 -0.67810629237E-01  0.86647085028E-01 -0.74735030875E-01  0.88999512562E+00  0.88000000000E+00 0.  1.
        -11    1    4    4    0    0  0.35842887375E-01 -0.40380255471E-01  0.33885787410E-01  0.63747825976E-01  0.51100000000E-03 0. -1.
         11    1    4    4    0    0  0.36566996485E-01 -0.52075471426E-01  0.17947058847E-01  0.66116246100E-01  0.51100000000E-03 0.  1.
</event>
<event>
 8    1  0.1132492E+005  0.1043930E+01  0.7957747E-01            NaN
         13   -1    0    0    0    0  0.00000000000E+00  0.00000000000E+00  0.74505805969E-08  0.10566000000E+00  0.10566000000E+00 0.  1.
     999900   -1    0    0    0    0 -0.00000000000E+00 -0.00000000000E+00 -0.74505805969E-08  0.93827000000E+00  0.93827000000E+00 0. -1.
     999902    2    1    2    0    0  0.10970574536E-01 -0.17105605916E-01  0.12077066391E-01  0.10202908208E+01  0.10200169353E+01 0.  0.
     999903    2    3    3    0    0 -0.17973999652E-01  0.69131129543E-01  0.10737112997E+00  0.13048436914E+00  0.19885504832E-01 0.  0.
         14    1    1    2    0    0 -0.10970574536E-01  0.17105605916E-01 -0.12077066391E-01  0.23639179174E-01  0.00000000000E+00 0. -1.
     999901    1    3    3    0    0  0.28944574188E-01 -0.86236735459E-01 -0.95294063578E-01  0.88980645169E+00  0.88000000000E+00 0. -1.
        -11    1    4    4    0    0 -0.84817890836E-02  0.39040983339E-01  0.76677955213E-01  0.86463339415E-01  0.51100000000E-03 0. -1.
         11    1    4    4    0    0 -0.94922105679E-02  0.30090146204E-01  0.30693174756E-01  0.44021029720E-01  0.51100000000E-03 0.  1.
</event>
<event>
 8    1  0.1132492E+005  0.1043930E+01  0.7957747E-01            NaN
         13   -1    0    0    0    0  0.00000000000E+00  0.00000000000E+00  0.74505805969E-08  0.10566000000E+00  0.10566000000E+00 0. -1.
     999900   -1    0    0    0    0 -0.00000000000E+00 -0.00000000000E+00 -0.74505805969E-08  0.93827000000E+00  0.93827000000E+00 0. -1.
     999902    2    1    2    0    0 -0.72291082113E-02  0.21651435500E-01  0.77653249542E-02  0.10198189043E+01  0.10195338408E+01 0.  0.
     999903    2    3    3    0    0  0.35301576893E-01 -0.56019257790E-01 -0.10717103841E+00  0.12793776681E+00  0.22317753636E-01 0.  0.
         14    1    1    2    0    0  0.72291082113E-02 -0.21651435500E-01 -0.77653249542E-02  0.24111095711E-01  0.00000000000E+00 0. -1.
     999901    1    3    3    0    0 -0.42530685104E-01  0.77670693290E-01  0.11493636336E+00  0.89188113748E+00  0.88000000000E+00 0.  1.
        -11    1    4    4    0    0 -0.16241179727E-02 -0.10995595122E-02 -0.56943762270E-04  0.20275980623E-02  0.51100000000E-03 0. -1.
         11    1    4    4    0    0  0.36925694865E-01 -0.54919698278E-01 -0.10711409465E+00  0.12591016875E+00  0.51100000000E-03 0.  1.
</event>
<event>
 7    1  0.1132492E+005  0.1043930E+01  0.7957747E-01            NaN
         13   -1    0    0    0    0  0.00000000000E+00  0.00000000000E+00  0.74505805969E-08  0.10566000000E+00  0.10566000000E+00 0.  1.
     999900   -1    0    0    0    0 -0.00000000000E+00 -0.00000000000E+00 -0.74505805969E-08  0.93827000000E+00  0.93827000000E+00 0. -1.
     999903    2    1    2    0    0 -0.45021656905E-01 -0.10146467930E+00 -0.15806013427E-01  0.11465219814E+00  0.23942968523E-01 0.  0.
         14    1    1    2    0    0  0.20781302934E-01 -0.13297206218E-01  0.33153294105E-01  0.41325768655E-01  0.00000000000E+00 0.  1.
     999901    1    1    2    0    0  0.24240353971E-01  0.11476188552E+00 -0.17347280678E-01  0.88795203321E+00  0.88000000000E+00 0.  1.
        -11    1    3    3    0    0 -0.15791689859E-01 -0.13789970567E-01 -0.53442053526E-02  0.21641682206E-01  0.51100000000E-03 0.  1.
         11    1    3    3    0    0 -0.29229967046E-01 -0.87674708733E-01 -0.10461808075E-01  0.93010515933E-01  0.51100000000E-03 0. -1.
</event>
<event>
 8    1  0.1132492E+005  0.1043930E+01  0.7957747E-01            NaN
         13   -1    0    0    0    0  0.00000000000E+00  0.00000000000E+00  0.74505805969E-08  0.10566000000E+00  0.10566000000E+00 0.  1.
     999900   -1    0    0    0    0 -0.00000000000E+00 -0.00000000000E+00 -0.74505805969E-08  0.93827000000E+00  0.93827000000E+00 0.  1.
     999902    2    1    2    0    0 -0.16999492597E-01 -0.85957743134E-02 -0.12933385967E-01  0.10209051752E+01  0.10206454988E+01 0.  0.
     999903    2    3    3    0    0  0.12765176498E+00  0.11723288883E-02 -0.69865033089E-02  0.12902246566E+00  0.17367727546E-01 0.  0.
         14    1    1    2    0    0  0.16999492597E-01  0.85957743134E-02  0.12933385967E-01  0.23024824802E-01  0.00000000000E+00 0. -1.
     999901    1    3    3    0    0 -0.14465125757E+00 -0.97681032017E-02 -0.59468826584E-02  0.89188270954E+00  0.88000000000E+00 0.  1.
        -11    1    4    4    0    0  0.80028462144E-01  0.78257981593E-02 -0.88531721189E-02  0.80897698654E-01  0.51100000000E-03 0. -1.
         11    1    4    4    0    0  0.47623302833E-01 -0.66534692711E-02  0.18666688099E-02  0.48124767007E-01  0.51100000000E-03 0.  1.
</event>
<event>
 8    1  0.1132492E+005  0.1043930E+01  0.7957747E-01            NaN
         13   -1    0    0    0    0  0.00000000000E+00  0.00000000000E+00  0.74505805969E-08  0.10566000000E+00  0.10566000000E+00 0. -1.
     999900   -1    0    0    0    0 -0.00000000000E+00 -0.00000000000E+00 -0.74505805969E-08  0.93827000000E+00  0.93827000000E+00 0. -1.
     999902    2    1    2    0    0  0.13599466765E-01  0.72906697673E-02 -0.17703854476E-01  0.10204454130E+01  0.10201751394E+01 0.  0.
     999903    2    3    3    0    0  0.57181349337E-01  0.55035691390E-01  0.10116903654E+00  0.13010293297E+00  0.19823349190E-01 0.  0.
         14    1    1    2    0    0 -0.13599466765E-01 -0.72906697673E-02  0.17703854476E-01  0.23484586972E-01  0.00000000000E+00 0. -1.
     999901    1    3    3    0    0 -0.43581882572E-01 -0.47745021623E-01 -0.11887289102E+00  0.89034248006E+00  0.88000000000E+00 0. -1.
        -11    1    4    4    0    0  0.28482302153E-01  0.28184995558E-01  0.35328350501E-01  0.53422738424E-01  0.51100000000E-03 0.  1.
         11    1    4    4    0    0  0.28699047184E-01  0.26850695832E-01  0.65840686043E-01  0.76680194545E-01  0.51100000000E-03 0. -1.
</event>
<event>
 8    1  0.1132492E+005  0.1043930E+01  0.7957747E-01            NaN
         13   -1    0    0    0    0  0.00000000000E+00  0.00000000000E+00  0.74505805969E-08  0.10566000000E+00  0.10566000000E+00 0.  1.
     999900   -1    0    0    0    0 -0.00000000000E+00 -0.00000000000E+00 -0.74505805969E-08  0.93827000000E+00  0.93827000000E+00 0.  1.
     999902    2    1    2    0    0 -0.10978505356E-01  0.19730687713E-01  0.54280567778E-02  0.10207073512E+01  0.10204431417E+01 0.  0.
     999903    2    3    3    0    0  0.10793573500E+00 -0.65794144897E-01 -0.11630705672E-01  0.12843715953E+00  0.19540681674E-01 0.  0.
         14    1    1    2    0    0  0.10978505356E-01 -0.19730687713E-01 -0.54280567778E-02  0.23222648812E-01  0.00000000000E+00 0.  1.
     999901    1    3    3    0    0 -0.11891424035E+00  0.85524832610E-01  0.17058762450E-01  0.89227019166E+00  0.88000000000E+00 0. -1.
        -11    1    4    4    0    0  0.34945676650E-01 -0.30742507809E-01  0.57938097222E-03  0.46549961398E-01  0.51100000000E-03 0.  1.
         11    1    4    4    0    0  0.72990058349E-01 -0.35051637088E-01 -0.12210086645E-01  0.81887198128E-01  0.51100000000E-03 0. -1.
</event>
<event>
 8    1  0.1132492E+005  0.1043930E+01  0.7957747E-01            NaN
         13   -1    0    0    0    0  0.00000000000E+00  0.00000000000E+00  0.74505805969E-08  0.10566000000E+00  0.10566000000E+00 0.  1.
     999900   -1    0    0    0    0 -0.00000000000E+00 -0.00000000000E+00 -0.74505805969E-08  0.93827000000E+00  0.93827000000E+00 0.  1.
     999902    2    1    2    0    0 -0.25809560605E-02 -0.14784258043E-01  0.18380486409E-01  0.10202007375E+01  0.10199247359E+01 0.  0.
     999903    2    3    3    0    0 -0.72209318210E-01 -0.33734737396E-01 -0.99899139521E-01  0.12935995517E+00  0.20048485743E-01 0.  0.
         14    1    1    2    0    0  0.25809560605E-02  0.14784258043E-01 -0.18380486409E-01  0.23729262541E-01  0.00000000000E+00 0. -1.
     999901    1    3    3    0    0  0.69628362150E-01  0.18950479352E-01  0.11827962593E+00  0.89084078229E+00  0.88000000000E+00 0.  1.
        -11    1    4    4    0    0 -0.41124661441E-01 -0.25082393684E-01 -0.72400375285E-01  0.86962289034E-01  0.51100000000E-03 0. -1.
         11    1    4    4    0    0 -0.31084656769E-01 -0.86523437120E-02 -0.27498764236E-01  0.42397666134E-01  0.51100000000E-03 0.  1.
</event>
<event>
 8    1  0.1132492E+005  0.1043930E+01  0.7957747E-01            NaN
         13   -1    0    0    0    0  0.00000000000E+00  0.00000000000E+00  0.74505805969E-08  0.10566000000E+00  0.10566000000E+00 0. -1.
     999900   -1    0    0    0    0 -0.00000000000E+00 -0.00000000000E+00 -0.74505805969E-08  0.93827000000E+00  0.93827000000E+00 0. -1.
     999902    2    1    2    0    0  0.18788743410E-01 -0.43758504403E-02 -0.14519474543E-01  0.10197850194E+01  0.10194991446E+01 0.  0.
     999903    2    3    3    0    0 -0.10674894485E+00 -0.26337388347E-01 -0.65049348214E-01  0.12916990140E+00  0.19090585961E-01 0.  0.
         14    1    1    2    0    0 -0.18788743410E-01  0.43758504403E-02  0.14519474543E-01  0.24144980576E-01  0.00000000000E+00 0.  1.
     999901    1    3    3    0    0  0.12553768826E+00  0.21961537907E-01  0.50529873670E-01  0.89061511803E+00  0.88000000000E+00 0.  1.
        -11    1    4    4    0    0 -0.94597127358E-01 -0.29026615052E-01 -0.55329723445E-01  0.11337019142E+00  0.51100000000E-03 0. -1.
         11    1    4    4    0    0 -0.12151817494E-01  0.26892267045E-02 -0.97196247683E-02  0.15799709976E-01  0.51100000000E-03 0.  1.
</event>
<event>
 8    1  0.1132492E+005  0.1043930E+01  0.7957747E-01            NaN
         13   -1    0    0    0    0  0.00000000000E+00  0.00000000000E+00  0.74505805969E-08  0.10566000000E+00  0.10566000000E+00 0.  1.
     999900   -1    0    0    0    0 -0.00000000000E+00 -0.00000000000E+00 -0.74505805969E-08  0.93827000000E+00  0.93827000000E+00 0.  1.
     999902    2    1    2    0    0 -0.30946730292E-02 -0.50511495320E-02  0.22551295380E-01  0.10206136530E+01  0.10203472824E+01 0.  0.
     999903    2    3    3    0    0 -0.35529462056E-01 -0.18098964609E-02 -0.12150964877E+00  0.12830424655E+00  0.20778992723E-01 0.  0.
         14    1    1    2    0    0  0.30946730292E-02  0.50511495320E-02 -0.22551295380E-01  0.23316346971E-01  0.00000000000E+00 0. -1.
     999901    1    3    3    0    0  0.32434789027E-01 -0.32412530712E-02  0.14406094415E+00  0.89230940648E+00  0.88000000000E+00 0. -1.
        -11    1    4    4    0    0 -0.96546607712E-02 -0.73388523501E-02 -0.61980145513E-01  0.63157507766E-01  0.51100000000E-03 0.  1.
         11    1    4    4    0    0 -0.25874801285E-01  0.55289558893E-02 -0.59529503260E-01  0.65146738784E-01  0.51100000000E-03 0. -1.
</event>
<event>
 8    1  0.1132492E+005  0.1043930E+01  0.7957747E-01            NaN
         13   -1    0    0    0    0  0.00000000000E+00  0.00000000000E+00  0.74505805969E-08  0.10566000000E+00  0.10566000000E+00 0.  1.
     999900   -1    0    0    0    0 -0.00000000000E+00 -0.00000000000E+00 -0.74505805969E-08  0.93827000000E+00  0.93827000000E+00 0. -1.
     999902    2    1    2    0    0  0.17380886641E-01  0.15970139372E-01 -0.17040330599E-02  0.10202647449E+01  0.10199902477E+01 0.  0.
     999903    2    3    3    0    0  0.30430564673E-01  0.11472242295E+00 -0.56798729621E-01  0.13293293928E+00  0.18916053128E-01 0.  0.
         14    1    1    2    0    0 -0.17380886641E-01 -0.15970139372E-01  0.17040330599E-02  0.23665255136E-01  0.00000000000E+00 0.  1.
     999901    1    3    3    0    0 -0.13049678032E-01 -0.98752283578E-01  0.55094696561E-01  0.88733180558E+00  0.88000000000E+00 0.  1.
        -11    1    4    4    0    0  0.30321955824E-01  0.83608476677E-01 -0.44764709346E-01  0.99568763682E-01  0.51100000000E-03 0. -1.
         11    1    4    4    0    0  0.10860884866E-03  0.31113946272E-01 -0.12034020275E-01  0.33364175600E-01  0.51100000000E-03 0.  1.
</event>
<event>
 8    1  0.1132492E+005  0.1043930E+01  0.7957747E-01            NaN
         13   -1    0    0    0    0  0.00000000000E+00  0.00000000000E+00  0.74505805969E-08  0.10566000000E+00  0.10566000000E+00 0. -1.
     999900   -1    0    0    0    0 -0.00000000000E+00 -0.00000000000E+00 -0.74505805969E-08  0.93827000000E+00  0.93827000000E+00 0.  1.
     999902    2    1    2    0    0 -0.13586807286E-02  0.13060605807E-01  0.19806067312E-01  0.10201664620E+01  0.10198896530E+01 0.  0.
     999903    2    3    3    0    0  0.79203836160E-02  0.13016132722E+00  0.11516540994E-01  0.13232222099E+00  0.19283046200E-01 0.  0.
         14    1    1    2    0    0  0.13586807286E-02 -0.13060605807E-01 -0.19806067312E-01  0.23763538031E-01  0.00000000000E+00 0.  1.
     999901    1    3    3    0    0 -0.92790643445E-02 -0.11710072141E+00  0.82895263180E-02  0.88784424098E+00  0.88000000000E+00 0. -1.
        -11    1    4    4    0    0  0.48516747787E-02  0.96608738178E-01  0.61421389035E-04  0.96731855839E-01  0.51100000000E-03 0.  1.
         11    1    4    4    0    0  0.30687088372E-02  0.33552589044E-01  0.11455119605E-01  0.35590365152E-01  0.51100000000E-03 0. -1.
</event>
<event>
 8    1  0.1132492E+005  0.1043930E+01  0.7957747E-01            NaN
         13   -1    0    0    0    0  0.00000000000E+00  0.00000000000E+00  0.74505805969E-08  0.10566000000E+00  0.10566000000E+00 0. -1.
     999900   -1    0    0    0    0 -0.00000000000E+00 -0.00000000000E+00 -0.74505805969E-08  0.93827000000E+00  0.93827000000E+00 0. -1.
     999902    2    1    2    0    0  0.90384558576E-02  0.19355844893E-01 -0.58757925144E-02  0.10217744735E+01  0.10215342419E+01 0.  0.
     999903    2    3    3    0    0 -0.10177357113E+00  0.53162600192E-01  0.61362850146E-01  0.13163783396E+00  0.19467873806E-01 0.  0.
         14    1    1    2    0    0 -0.90384558576E-02 -0.19355844893E-01  0.58757925144E-02  0.22155526478E-01  0.00000000000E+00 0.  1.
     999901    1    3    3    0    0  0.11081202699E+00 -0.33806755299E-01 -0.67238642661E-01  0.89013663957E+00  0.88000000000E+00 0. -1.
        -11    1    4    4    0    0 -0.43491190137E-01  0.23803945595E-01  0.37440572691E-01  0.62130258730E-01  0.51100000000E-03 0.  1.
         11    1    4    4    0    0 -0.58282380996E-01  0.29358654597E-01  0.23922277455E-01  0.69507575227E-01  0.51100000000E-03 0. -1.
</event>
<event>
 8    1  0.1132492E+005  0.1043930E+01  0.7957747E-01            NaN
         13   -1    0    0    0    0  0.00000000000E+00  0.00000000000E+00  0.74505805969E-08  0.10566000000E+00  0.10566000000E+00 0. -1.
     999900   -1    0    0    0    0 -0.00000000000E+00 -0.00000000000E+00 -0.74505805969E-08  0.93827000000E+00  0.93827000000E+00 0. -1.
     999902    2    1    2    0    0 -0.44367056530E-02  0.14073055536E-02 -0.23493108811E-01  0.10199802395E+01  0.10196990232E+01 0.  0.
     999903    2    3    3    0    0 -0.28493881949E-01 -0.11458804653E+00  0.48244340024E-01  0.12914920559E+00  0.20240534656E-01 0.  0.
         14    1    1    2    0    0  0.44367056530E-02 -0.14073055536E-02  0.23493108811E-01  0.23949760491E-01  0.00000000000E+00 0. -1.
     999901    1    3    3    0    0  0.24057176296E-01  0.11599535208E+00 -0.71737448835E-01  0.89083103392E+00  0.88000000000E+00 0. -1.
        -11    1    4    4    0    0 -0.17254962067E-01 -0.95112831039E-01  0.33735560245E-01  0.10238424435E+00  0.51100000000E-03 0. -1.
         11    1    4    4    0    0 -0.11238919882E-01 -0.19475215490E-01  0.14508779779E-01  0.26764961240E-01  0.51100000000E-03 0.  1.
</event>
<event>
 8    1  0.1132492E+005  0.1043930E+01  0.7957747E-01            NaN
         13   -1    0    0    0    0  0.00000000000E+00  0.00000000000E+00  0.74505805969E-08  0.10566000000E+00  0.10566000000E+00 0.  1.
     999900   -1    0    0    0    0 -0.00000000000E+00 -0.00000000000E+00 -0.74505805969E-08  0.93827000000E+00  0.93827000000E+00 0. -1.
     999902    2    1    2    0    0  0.18912687359E-01  0.68240532418E-02 -0.12109681914E-01  0.10204587017E+01  0.10201887375E+01 0.  0.
     999903    2    3    3    0    0 -0.63138813760E-02  0.99012745371E-02 -0.13023336064E+00  0.13220251542E+00  0.19464750870E-01 0.  0.
         14    1    1    2    0    0 -0.18912687359E-01 -0.68240532418E-02  0.12109681914E-01  0.23471298256E-01  0.00000000000E+00 0.  1.
     999901    1    3    3    0    0  0.25226568735E-01 -0.30772212953E-02  0.11812367872E+00  0.88825618632E+00  0.88000000000E+00 0.  1.
        -11    1    4    4    0    0  0.62460488926E-03  0.12691996188E-01 -0.10785111279E+00  0.10859834506E+00  0.51100000000E-03 0. -1.
         11    1    4    4    0    0 -0.69384862653E-02 -0.27907216508E-02 -0.22382247844E-01  0.23604170363E-01  0.51100000000E-03 0.  1.
</event>
<event>
 8    1  0.1132492E+005  0.1043930E+01  0.7957747E-01            NaN
         13   -1    0    0    0    0  0.00000000000E+00  0.00000000000E+00  0.74505805969E-08  0.10566000000E+00  0.10566000000E+00 0.  1.
     999900   -1    0    0    0    0 -0.00000000000E+00 -0.00000000000E+00 -0.74505805969E-08  0.93827000000E+00  0.93827000000E+00 0.  1.
     999902    2    1    2    0    0 -0.20764693498E-01  0.13219948668E-01  0.70291347650E-02  0.10183302290E+01  0.10180084023E+01 0.  0.
     999903    2    3    3    0    0  0.32231202442E-01  0.10029237742E+00  0.73422169299E-01  0.12996194510E+00  0.20046966096E-01 0.  0.
         14    1    1    2    0    0  0.20764693498E-01 -0.13219948668E-01 -0.70291347650E-02  0.25599770983E-01  0.00000000000E+00 0. -1.
     999901    1    3    3    0    0 -0.52995895940E-01 -0.87072428754E-01 -0.66393034534E-01  0.88836828392E+00  0.88000000000E+00 0.  1.
        -11    1    4    4    0    0  0.11442033559E-01  0.57822209340E-01  0.31859261560E-01  0.67004490096E-01  0.51100000000E-03 0.  1.
         11    1    4    4    0    0  0.20789168883E-01  0.42470168083E-01  0.41562907739E-01  0.62957455003E-01  0.51100000000E-03 0. -1.
</event>
<event>
 8    1  0.1132492E+005  0.1043930E+01  0.7957747E-01            NaN
         13   -1    0    0    0    0  0.00000000000E+00  0.00000000000E+00  0.74505805969E-08  0.10566000000E+00  0.10566000000E+00 0. -1.
     999900   -1    0    0    0    0 -0.00000000000E+00 -0.00000000000E+00 -0.74505805969E-08  0.93827000000E+00  0.93827000000E+00 0. -1.
     999902    2    1    2    0    0 -0.16553124973E-02  0.20336973434E-01 -0.12367054104E-01  0.10200704825E+01  0.10197914065E+01 0.  0.
     999903    2    3    3    0    0  0.10048553097E+00 -0.11380991006E-01  0.77567880146E-01  0.12904462790E+00  0.20220560565E-01 0.  0.
         14    1    1    2    0    0  0.16553124973E-02 -0.20336973434E-01  0.12367054104E-01  0.23859517495E-01  0.00000000000E+00 0. -1.
     999901    1    3    3    0    0 -0.10214084347E+00  0.31717964440E-01 -0.89934934250E-01  0.89102585460E+00  0.88000000000E+00 0. -1.
        -11    1    4    4    0    0  0.72450715486E-01 -0.14118880931E-01  0.47173872799E-01  0.87601851402E-01  0.51100000000E-03 0. -1.
         11    1    4    4    0    0  0.28034815482E-01  0.27378899246E-02  0.30394007347E-01  0.41442776500E-01  0.51100000000E-03 0.  1.
</event>
<event>
 8    1  0.1132492E+005  0.1043930E+01  0.7957747E-01            NaN
         13   -1    0    0    0    0  0.00000000000E+00  0.00000000000E+00  0.74505805969E-08  0.10566000000E+00  0.10566000000E+00 0.  1.
     999900   -1    0    0    0    0 -0.00000000000E+00 -0.00000000000E+00 -0.74505805969E-08  0.93827000000E+00  0.93827000000E+00 0. -1.
     999902    2    1    2    0    0 -0.89829738815E-02 -0.82452212026E-02  0.17737324886E-01  0.10224058232E+01  0.10221792295E+01 0.  0.
     999903    2    3    3    0    0  0.96332171160E-01 -0.98476717947E-02  0.89364315632E-01  0.13323526959E+00  0.19717817159E-01 0.  0.
         14    1    1    2    0    0  0.89829738815E-02  0.82452212026E-02 -0.17737324886E-01  0.21524176792E-01  0.00000000000E+00 0. -1.
     999901    1    3    3    0    0 -0.10531514504E+00  0.16024505921E-02 -0.71626990745E-01  0.88917055362E+00  0.88000000000E+00 0. -1.
        -11    1    4    4    0    0  0.12687361473E-01 -0.33517921832E-02  0.44536657899E-02  0.13867224378E-01  0.51100000000E-03 0. -1.
         11    1    4    4    0    0  0.83644809687E-01 -0.64958796115E-02  0.84910649842E-01  0.11936804521E+00  0.51100000000E-03 0.  1.
</event>
<event>
 8    1  0.1132492E+005  0.1043930E+01  0.7957747E-01            NaN
         13   -1    0    0    0    0  0.00000000000E+00  0.00000000000E+00  0.74505805969E-08  0.10566000000E+00  0.10566000000E+00 0. -1.
     999900   -1    0    0    0    0 -0.00000000000E+00 -0.00000000000E+00 -0.74505805969E-08  0.93827000000E+00  0.93827000000E+00 0.  1.
     999902    2    1    2    0    0 -0.65311439320E-03  0.23728951237E-01  0.89643091110E-02  0.10185558296E+01  0.10182397210E+01 0.  0.
     999903    2    3    3    0    0 -0.88335266709E-02  0.89302821382E-01  0.93172528311E-01  0.13206957716E+00  0.26612554938E-01 0.  0.
         14    1    1    2    0    0  0.65311439320E-03 -0.23728951237E-01 -0.89643091110E-02  0.25374170392E-01  0.00000000000E+00 0. -1.
     999901    1    3    3    0    0  0.81804122777E-02 -0.65573870145E-01 -0.84208219200E-01  0.88648625244E+00  0.88000000000E+00 0. -1.
        -11    1    4    4    0    0  0.62821172662E-02  0.21385195956E-01  0.34377750312E-01  0.40974167972E-01  0.51100000000E-03 0.  1.
         11    1    4    4    0    0 -0.15115643937E-01  0.67917625426E-01  0.58794777998E-01  0.91095409193E-01  0.51100000000E-03 0. -1.
</event>
<event>
 8    1  0.1132492E+005  0.1043930E+01  0.7957747E-01            NaN
         13   -1    0    0    0    0  0.00000000000E+00  0.00000000000E+00  0.74505805969E-08  0.10566000000E+00  0.10566000000E+00 0.  1.
     999900   -1    0    0    0    0 -0.00000000000E+00 -0.00000000000E+00 -0.74505805969E-08  0.93827000000E+00  0.93827000000E+00 0. -1.
     999902    2    1    2    0    0  0.14368922259E-01 -0.97504717245E-02 -0.15995938371E-01  0.10203205174E+01  0.10200473276E+01 0.  0.
     999903    2    3    3    0    0 -0.12398930835E+00 -0.28784101438E-01 -0.11573495893E-01  0.12929591780E+00  0.19534980720E-01 0.  0.
         14    1    1    2    0    0 -0.14368922259E-01  0.97504717245E-02  0.15995938371E-01  0.23609482631E-01  0.00000000000E+00 0.  1.
     999901    1    3    3    0    0  0.13835823061E+00  0.19033629713E-01 -0.44224424778E-02  0.89102459957E+00  0.88000000000E+00 0.  1.
        -11    1    4    4    0    0 -0.10427025663E+00 -0.26757602892E-01 -0.29983915336E-02  0.10769172300E+00  0.51100000000E-03 0.  1.
         11    1    4    4    0    0 -0.19719051721E-01 -0.20264985451E-02 -0.85751043597E-02  0.21604194799E-01  0.51100000000E-03 0. -1.
</event>
<event>
 8    1  0.1132492E+005  0.1043930E+01  0.7957747E-01            NaN
         13   -1    0    0    0    0  0.00000000000E+00  0.00000000000E+00  0.74505805969E-08  0.10566000000E+00  0.10566000000E+00 0. -1.
     999900   -1    0    0    0    0 -0.00000000000E+00 -0.00000000000E+00 -0.74505805969E-08  0.93827000000E+00  0.93827000000E+00 0.  1.
     999902    2    1    2    0    0 -0.73118688987E-02 -0.17906019282E-02  0.16763172237E-01  0.10255541020E+01  0.10253894590E+01 0.  0.
     999903    2    3    3    0    0 -0.64998373105E-01 -0.51726908748E-01 -0.10345971588E+00  0.13410869692E+00  0.19513282249E-01 0.  0.
         14    1    1    2    0    0  0.73118688987E-02  0.17906019282E-02 -0.16763172237E-01  0.18375897951E-01  0.00000000000E+00 0.  1.
     999901    1    3    3    0    0  0.57686504206E-01  0.49936306820E-01  0.12022288811E+00  0.89144540513E+00  0.88000000000E+00 0. -1.
        -11    1    4    4    0    0 -0.47499768242E-01 -0.44807534022E-01 -0.88926233424E-01  0.11032714625E+00  0.51100000000E-03 0.  1.
         11    1    4    4    0    0 -0.17498604863E-01 -0.69193747254E-02 -0.14533482454E-01  0.23781550664E-01  0.51100000000E-03 0. -1.
</event>
<event>
 8    1  0.1132492E+005  0.1043930E+01  0.7957747E-01            NaN
         13   -1    0    0    0    0  0.00000000000E+00  0.00000000000E+00  0.74505805969E-08  0.10566000000E+00  0.10566000000E+00 0. -1.
     999900   -1    0    0    0    0 -0.00000000000E+00 -0.00000000000E+00 -0.74505805969E-08  0.93827000000E+00  0.93827000000E+00 0. -1.
     999902    2    1    2    0    0 -0.12837241385E-01 -0.18412071674E-01  0.18162913209E-02  0.10214111620E+01  0.10211628978E+01 0.  0.
     999903    2    3    3    0    0  0.75761853361E-02 -0.12610996624E+00 -0.37785297985E-01  0.13372662889E+00  0.22225219018E-01 0.  0.
         14    1    1    2    0    0  0.12837241385E-01  0.18412071674E-01 -0.18162913209E-02  0.22518837978E-01  0.00000000000E+00 0. -1.
     999901    1    3    3    0    0 -0.20413426721E-01  0.10769789457E+00  0.39601589306E-01  0.88768453313E+00  0.88000000000E+00 0.  1.
        -11    1    4    4    0    0  0.10612993125E-01 -0.35306603686E-01 -0.53599950933E-02  0.37258321960E-01  0.51100000000E-03 0.  1.
         11    1    4    4    0    0 -0.30368077891E-02 -0.90803362558E-01 -0.32425302892E-01  0.96468306931E-01  0.51100000000E-03 0. -1.
</event>
<event>
 8    1  0.1132492E+005  0.1043930E+01  0.7957747E-01            NaN
         13   -1    0    0    0    0  0.00000000000E+00  0.00000000000E+00  0.74505805969E-08  0.10566000000E+00  0.10566000000E+00 0.  1.
     999900   -1    0    0    0    0 -0.00000000000E+00 -0.00000000000E+00 -0.74505805969E-08  0.93827000000E+00  0.93827000000E+00 0.  1.
     999902    2    1    2    0    0  0.23955363434E-01 -0.54029661913E-02 -0.13098875912E-02  0.10193379833E+01  0.10190412930E+01 0.  0.
     999903    2    3    3    0    0 -0.25567434043E-01  0.10074410901E+00 -0.72682119094E-01  0.12871252638E+00  0.21935241698E-01 0.  0.
         14    1    1    2    0    0 -0.23955363434E-01  0.54029661913E-02  0.13098875912E-02  0.24592016721E-01  0.00000000000E+00 0.  1.
     999901    1    3    3    0    0  0.49522797477E-01 -0.10614707520E+00  0.71372231502E-01  0.89062545690E+00  0.88000000000E+00 0. -1.
        -11    1    4    4    0    0 -0.17489804140E-01  0.91167326864E-01 -0.58246071733E-01  0.10959124385E+00  0.51100000000E-03 0. -1.
         11    1    4    4    0    0 -0.80776299024E-02  0.95767821443E-02 -0.14436047361E-01  0.19121282527E-01  0.51100000000E-03 0.  1.
</event>
<event>
 8    1  0.1132492E+005  0.1043930E+01  0.7957747E-01            NaN
         13   -1    0    0    0    0  0.00000000000E+00  0.00000000000E+00  0.74505805969E-08  0.10566000000E+00  0.10566000000E+00 0.  1.
     999900   -1    0    0    0    0 -0.00000000000E+00 -0.00000000000E+00 -0.74505805969E-08  0.93827000000E+00  0.93827000000E+00 0.  1.
     999902    2    1    2    0    0 -0.87441704092E-02  0.21354832922E-01  0.68374315885E-02  0.10198625972E+01  0.10195785783E+01 0.  0.
     999903    2    3    3    0    0  0.11971861717E+00  0.26842558175E-01 -0.35713298588E-01  0.12950122815E+00  0.21025179388E-01 0.  0.
         14    1    1    2    0    0  0.87441704092E-02 -0.21354832922E-01 -0.68374315885E-02  0.24067402768E-01  0.00000000000E+00 0. -1.
     999901    1    3    3    0    0 -0.12846278758E+00 -0.54877252525E-02  0.42550730177E-01  0.89036136909E+00  0.88000000000E+00 0. -1.
        -11    1    4    4    0    0  0.69198619400E-01  0.15173408737E-01 -0.31332008871E-01  0.77463779668E-01  0.51100000000E-03 0.  1.
         11    1    4    4    0    0  0.50519997772E-01  0.11669149437E-01 -0.43812897169E-02  0.52037448478E-01  0.51100000000E-03 0. -1.
</event>
<event>
 8    1  0.1132492E+005  0.1043930E+01  0.7957747E-01            NaN
         13   -1    0    0    0    0  0.00000000000E+00  0.00000000000E+00  0.74505805969E-08  0.10566000000E+00  0.10566000000E+00 0. -1.
     999900   -1    0    0    0    0 -0.00000000000E+00 -0.00000000000E+00 -0.74505805969E-08  0.93827000000E+00  0.93827000000E+00 0.  1.
     999902    2    1    2    0    0 -0.18119301173E-01  0.69306206388E-02 -0.13454407818E-01  0.10203214493E+01  0.10200482813E+01 0.  0.
     999903    2    3    3    0    0 -0.70796154711E-01 -0.62474329527E-02  0.10743685268E+00  0.13039830155E+00  0.20246327911E-01 0.  0.
         14    1    1    2    0    0  0.18119301173E-01 -0.69306206388E-02  0.13454407818E-01  0.23608550722E-01  0.00000000000E+00 0. -1.
     999901    1    3    3    0    0  0.52676853538E-01  0.13178053591E-01 -0.12089126050E+00  0.88992314773E+00  0.88000000000E+00 0.  1.
        -11    1    4    4    0    0 -0.32969537480E-01 -0.11102251438E-01  0.61814086765E-01  0.70933016517E-01  0.51100000000E-03 0.  1.
         11    1    4    4    0    0 -0.37826617232E-01  0.48548184858E-02  0.45622765913E-01  0.59465285035E-01  0.51100000000E-03 0. -1.
</event>
<event>
 8    1  0.1132492E+005  0.1043930E+01  0.7957747E-01            NaN
         13   -1    0    0    0    0  0.00000000000E+00  0.00000000000E+00  0.74505805969E-08  0.10566000000E+00  0.10566000000E+00 0.  1.
     999900   -1    0    0    0    0 -0.00000000000E+00 -0.00000000000E+00 -0.74505805969E-08  0.93827000000E+00  0.93827000000E+00 0. -1.
     999902    2    1    2    0    0  0.21529010771E-01 -0.15267438983E-01  0.67982578814E-02  0.10166754718E+01  0.10163100932E+01 0.  0.
     999903    2    3    3    0    0  0.12122431364E+00  0.14113797811E-01 -0.38008400774E-01  0.12942688929E+00  0.20301419524E-01 0.  0.
         14    1    1    2    0    0 -0.21529010771E-01  0.15267438983E-01 -0.67982578814E-02  0.27254528213E-01  0.00000000000E+00 0. -1.
     999901    1    3    3    0    0 -0.99695302870E-01 -0.29381236794E-01  0.44806658655E-01  0.88724858250E+00  0.88000000000E+00 0.  1.
        -11    1    4    4    0    0  0.86211457993E-01  0.87580491840E-02 -0.17211337802E-01  0.88349364371E-01  0.51100000000E-03 0. -1.
         11    1    4    4    0    0  0.35012855648E-01  0.53557486273E-02 -0.20797062971E-01  0.41077524916E-01  0.51100000000E-03 0.  1.
</event>
<event>
 8    1  0.1132492E+005  0.1043930E+01  0.7957747E-01            NaN
         13   -1    0    0    0    0  0.00000000000E+00  0.00000000000E+00  0.74505805969E-08  0.10566000000E+00  0.10566000000E+00 0.  1.
     999900   -1    0    0    0    0 -0.00000000000E+00 -0.00000000000E+00 -0.74505805969E-08  0.93827000000E+00  0.93827000000E+00 0. -1.
     999902    2    1    2    0    0  0.45277116113E-02  0.18863534558E-01 -0.17479692354E-01  0.10178173067E+01  0.10174822834E+01 0.  0.
     999903    2    3    3    0    0 -0.77194942259E-01  0.51630189347E-01 -0.89421430602E-01  0.13050233467E+00  0.20246766191E-01 0.  0.
         14    1    1    2    0    0 -0.45277116113E-02 -0.18863534558E-01  0.17479692354E-01  0.26112693336E-01  0.00000000000E+00 0.  1.
     999901    1    3    3    0    0  0.81722653870E-01 -0.32766654789E-01  0.71941738248E-01  0.88731497199E+00  0.88000000000E+00 0.  1.
        -11    1    4    4    0    0 -0.44808766668E-01  0.40527066709E-01 -0.51291746529E-01  0.79255113964E-01  0.51100000000E-03 0.  1.
         11    1    4    4    0    0 -0.32386175590E-01  0.11103122638E-01 -0.38129684073E-01  0.51247220707E-01  0.51100000000E-03 0. -1.
</event>
<event>
 8    1  0.1132492E+005  0.1043930E+01  0.7957747E-01            NaN
         13   -1    0    0    0    0  0.00000000000E+00  0.00000000000E+00  0.74505805969E-08  0.10566000000E+00  0.10566000000E+00 0.  1.
     999900   -1    0    0    0    0 -0.00000000000E+00 -0.00000000000E+00 -0.74505805969E-08  0.93827000000E+00  0.93827000000E+00 0.  1.
     999902    2    1    2    0    0  0.75810701680E-02 -0.22465629144E-01  0.63512653525E-02  0.10193838050E+01  0.10190882328E+01 0.  0.
     999903    2    3    3    0    0 -0.75723870704E-01 -0.91583120123E-01 -0.51085026827E-01  0.13089302373E+00  0.20043233498E-01 0.  0.
         14    1    1    2    0    0 -0.75810701680E-02  0.22465629144E-01 -0.63512653525E-02  0.24546195007E-01  0.00000000000E+00 0. -1.
     999901    1    3    3    0    0  0.83304940872E-01  0.69117490979E-01  0.57436292179E-01  0.88849078126E+00  0.88000000000E+00 0. -1.
        -11    1    4    4    0    0 -0.23894501243E-01 -0.43676323309E-01 -0.17986712513E-01  0.52937239780E-01  0.51100000000E-03 0.  1.
         11    1    4    4    0    0 -0.51829369461E-01 -0.47906796814E-01 -0.33098314314E-01  0.77955783949E-01  0.51100000000E-03 0. -1.
</event>
<event>
 8    1  0.1132492E+005  0.1043930E+01  0.7957747E-01            NaN
         13   -1    0    0    0    0  0.00000000000E+00  0.00000000000E+00  0.74505805969E-08  0.10566000000E+00  0.10566000000E+00 0.  1.
     999900   -1    0    0    0    0 -0.00000000000E+00 -0.00000000000E+00 -0.74505805969E-08  0.93827000000E+00  0.93827000000E+00 0.  1.
     999902    2    1    2    0    0  0.15983796054E-01 -0.33721531534E-02 -0.16927163827E-01  0.10204059266E+01  0.10201347328E+01 0.  0.
     999903    2    3    3    0    0  0.97765315857E-01  0.72442650670E-01 -0.49298975178E-01  0.13277760596E+00  0.19837063064E-01 0.  0.
         14    1    1    2    0    0 -0.15983796054E-01  0.33721531534E-02  0.16927163827E-01  0.23524073381E-01  0.00000000000E+00 0.  1.
     999901    1    3    3    0    0 -0.81781519803E-01 -0.75814803823E-01  0.32371811351E-01  0.88762832066E+00  0.88000000000E+00 0. -1.
        -11    1    4    4    0    0  0.81427487799E-01  0.60317583684E-01 -0.32596068813E-01  0.10644910283E+00  0.51100000000E-03 0.  1.
         11    1    4    4    0    0  0.16337828059E-01  0.12125066985E-01 -0.16702906366E-01  0.26328503131E-01  0.51100000000E-03 0. -1.
</event>
<event>
 8    1  0.1132492E+005  0.1043930E+01  0.7957747E-01            NaN
         13   -1    0    0    0    0  0.00000000000E+00  0.00000000000E+00  0.74505805969E-08  0.10566000000E+00  0.10566000000E+00 0. -1.
     999900   -1    0    0    0    0 -0.00000000000E+00 -0.00000000000E+00 -0.74505805969E-08  0.93827000000E+00  0.93827000000E+00 0. -1.
     999902    2    1    2    0    0 -0.18620578749E-01  0.11376196633E-01  0.11733757048E-01  0.10191545110E+01  0.10188533223E+01 0.  0.
     999903    2    3    3    0    0 -0.66017329171E-01  0.66646215778E-01  0.92457372130E-01  0.13246542847E+00  0.14096746116E-01 0.  0.
         14    1    1    2    0    0  0.18620578749E-01 -0.11376196633E-01 -0.11733757048E-01  0.24775489041E-01  0.00000000000E+00 0. -1.
     999901    1    3    3    0    0  0.47396750422E-01 -0.55270019145E-01 -0.80723615082E-01  0.88668908249E+00  0.88000000000E+00 0. -1.
        -11    1    4    4    0    0 -0.60990135367E-01  0.54847459561E-01  0.80012692552E-01  0.11458766305E+00  0.51100000000E-03 0.  1.
         11    1    4    4    0    0 -0.50271938044E-02  0.11798756217E-01  0.12444679578E-01  0.17877765426E-01  0.51100000000E-03 0. -1.
</event>
<event>
 8    1  0.1132492E+005  0.1043930E+01  0.7957747E-01            NaN
         13   -1    0    0    0    0  0.00000000000E+00  0.00000000000E+00  0.74505805969E-08  0.10566000000E+00  0.10566000000E+00 0. -1.
     999900   -1    0    0    0    0 -0.00000000000E+00 -0.00000000000E+00 -0.74505805969E-08  0.93827000000E+00  0.93827000000E+00 0. -1.
     999902    2    1    2    0    0  0.18888933797E-01 -0.12009402719E-01 -0.10805743344E-01  0.10190747860E+01  0.10187716318E+01 0.  0.
     999903    2    3    3    0    0 -0.45210633741E-01  0.57767229086E-01  0.10069381836E+00  0.12699312765E+00  0.24636461900E-01 0.  0.
         14    1    1    2    0    0 -0.18888933797E-01  0.12009402719E-01  0.10805743344E-01  0.24855213997E-01  0.00000000000E+00 0. -1.
     999901    1    3    3    0    0  0.64099567538E-01 -0.69776631806E-01 -0.11149956171E+00  0.89208165835E+00  0.88000000000E+00 0. -1.
        -11    1    4    4    0    0 -0.16168568213E-01  0.11218446992E-01  0.13142977934E-01  0.23670131832E-01  0.51100000000E-03 0.  1.
         11    1    4    4    0    0 -0.29042065528E-01  0.46548782094E-01  0.87550840428E-01  0.10332299582E+00  0.51100000000E-03 0. -1.
</event>
<event>
 8    1  0.1132492E+005  0.1043930E+01  0.7957747E-01            NaN
         13   -1    0    0    0    0  0.00000000000E+00  0.00000000000E+00  0.74505805969E-08  0.10566000000E+00  0.10566000000E+00 0. -1.
     999900   -1    0    0    0    0 -0.00000000000E+00 -0.00000000000E+00 -0.74505805969E-08  0.93827000000E+00  0.93827000000E+00 0.  1.
     999902    2    1    2    0    0  0.12410575108E-01  0.54718340686E-02 -0.18567361917E-01  0.10209362993E+01  0.10206773325E+01 0.  0.
     999903    2    3    3    0    0  0.96829040304E-01 -0.14417073248E-01  0.84299779036E-01  0.13070953349E+00  0.19869935915E-01 0.  0.
         14    1    1    2    0    0 -0.12410575108E-01 -0.54718340686E-02  0.18567361917E-01  0.22993700684E-01  0.00000000000E+00 0. -1.
     999901    1    3    3    0    0 -0.84418465196E-01  0.19888907317E-01 -0.10286714095E+00  0.89022676582E+00  0.88000000000E+00 0.  1.
        -11    1    4    4    0    0  0.71660333325E-01 -0.96274593312E-02  0.50067140898E-01  0.87948115751E-01  0.51100000000E-03 0.  1.
         11    1    4    4    0    0  0.25168706979E-01 -0.47896139169E-02  0.34232638137E-01  0.42761417742E-01  0.51100000000E-03 0. -1.
</event>
<event>
 8    1  0.1132492E+005  0.1043930E+01  0.7957747E-01            NaN
         13   -1    0    0    0    0  0.00000000000E+00  0.00000000000E+00  0.74505805969E-08  0.10566000000E+00  0.10566000000E+00 0.  1.
     999900   -1    0    0    0    0 -0.00000000000E+00 -0.00000000000E+00 -0.74505805969E-08  0.93827000000E+00  0.93827000000E+00 0.  1.
     999902    2    1    2    0    0 -0.86258930313E-02 -0.17255293366E-01  0.10614581134E-01  0.10219113599E+01  0.10216741197E+01 0.  0.
     999903    2    3    3    0    0 -0.44592882714E-01  0.11793089137E+00 -0.25554681771E-01  0.13012823352E+00  0.19598343623E-01 0.  0.
         14    1    1    2    0    0  0.86258930313E-02  0.17255293366E-01 -0.10614581134E-01  0.22018640112E-01  0.00000000000E+00 0. -1.
     999901    1    3    3    0    0  0.35966989682E-01 -0.13518618473E+00  0.36169262905E-01  0.89178312636E+00  0.88000000000E+00 0.  1.
        -11    1    4    4    0    0 -0.53653510938E-02  0.11562976224E-01  0.32285673682E-02  0.13159566094E-01  0.51100000000E-03 0. -1.
         11    1    4    4    0    0 -0.39227531620E-01  0.10636791514E+00 -0.28783249139E-01  0.11696866743E+00  0.51100000000E-03 0.  1.
</event>
<event>
 8    1  0.1132492E+005  0.1043930E+01  0.7957747E-01            NaN
         13   -1    0    0    0    0  0.00000000000E+00  0.00000000000E+00  0.74505805969E-08  0.10566000000E+00  0.10566000000E+00 0. -1.
     999900   -1    0    0    0    0 -0.00000000000E+00 -0.00000000000E+00 -0.74505805969E-08  0.93827000000E+00  0.93827000000E+00 0.  1.
     999902    2    1    2    0    0 -0.17225418202E-01  0.73545546874E-02 -0.14844426164E-01  0.10200310148E+01  0.10197510037E+01 0.  0.
     999903    2    3    3    0    0  0.58475422062E-01 -0.12926447507E-01 -0.11456716738E+00  0.13093790301E+00  0.20799773397E-01 0.  0.
         14    1    1    2    0    0  0.17225418202E-01 -0.73545546874E-02  0.14844426164E-01  0.23898985231E-01  0.00000000000E+00 0. -1.
     999901    1    3    3    0    0 -0.75700840264E-01  0.20281002195E-01  0.99722741211E-01  0.88909311176E+00  0.88000000000E+00 0. -1.
        -11    1    4    4    0    0  0.33218487021E-01 -0.18538465442E-02 -0.43948429980E-01  0.55123772056E-01  0.51100000000E-03 0. -1.
         11    1    4    4    0    0  0.25256935041E-01 -0.11072600963E-01 -0.70618737395E-01  0.75814130952E-01  0.51100000000E-03 0.  1.
</event>
<event>
 8    1  0.1132492E+005  0.1043930E+01  0.7957747E-01            NaN
         13   -1    0    0    0    0  0.00000000000E+00  0.00000000000E+00  0.74505805969E-08  0.10566000000E+00  0.10566000000E+00 0.  1.
     999900   -1    0    0    0    0 -0.00000000000E+00 -0.00000000000E+00 -0.74505805969E-08  0.93827000000E+00  0.93827000000E+00 0.  1.
     999902    2    1    2    0    0 -0.18278743296E-01  0.13623281012E-01  0.69550028522E-02  0.10200956066E+01  0.10198171250E+01 0.  0.
     999903    2    3    3    0    0 -0.10431193256E+00 -0.25762279176E-01 -0.73074816659E-01  0.13141247750E+00  0.19612141934E-01 0.  0.
         14    1    1    2    0    0  0.18278743296E-01 -0.13623281012E-01 -0.69550028522E-02  0.23834393357E-01  0.00000000000E+00 0.  1.
     999901    1    3    3    0    0  0.86033189264E-01  0.39385560188E-01  0.80029819511E-01  0.88868312914E+00  0.88000000000E+00 0. -1.
        -11    1    4    4    0    0 -0.63944516499E-01 -0.12014771976E-01 -0.33281639561E-01  0.73083408437E-01  0.51100000000E-03 0.  1.
         11    1    4    4    0    0 -0.40367416061E-01 -0.13747507200E-01 -0.39793177098E-01  0.58329069067E-01  0.51100000000E-03 0. -1.
</event>
<event>
 8    1  0.1132492E+005  0.1043930E+01  0.7957747E-01            NaN
         13   -1    0    0    0    0  0.00000000000E+00  0.00000000000E+00  0.74505805969E-08  0.10566000000E+00  0.10566000000E+00 0. -1.
     999900   -1    0    0    0    0 -0.00000000000E+00 -0.00000000000E+00 -0.74505805969E-08  0.93827000000E+00  0.93827000000E+00 0. -1.
     999902    2    1    2    0    0 -0.13657957241E-01  0.21462594820E-01  0.29961549937E-02  0.10183143853E+01  0.10179921550E+01 0.  0.
     999903    2    3    3    0    0 -0.10608209268E+00 -0.53592319429E-01 -0.45954943518E-01  0.12894850388E+00  0.19756333899E-01 0.  0.
         14    1    1    2    0    0  0.13657957241E-01 -0.21462594820E-01 -0.29961549937E-02  0.25615614714E-01  0.00000000000E+00 0. -1.
     999901    1    3    3    0    0  0.92424135443E-01  0.75054914249E-01  0.48951098512E-01  0.88936588141E+00  0.88000000000E+00 0.  1.
        -11    1    4    4    0    0 -0.29082144577E-01 -0.24779234239E-01 -0.12768660769E-01  0.40287484428E-01  0.51100000000E-03 0. -1.
         11    1    4    4    0    0 -0.76999948106E-01 -0.28813085190E-01 -0.33186282749E-01  0.88661019452E-01  0.51100000000E-03 0.  1.
</event>
<event>
 8    1  0.1132492E+005  0.1043930E+01  0.7957747E-01            NaN
         13   -1    0    0    0    0  0.00000000000E+00  0.00000000000E+00  0.74505805969E-08  0.10566000000E+00  0.10566000000E+00 0. -1.
     999900   -1    0    0    0    0 -0.00000000000E+00 -0.00000000000E+00 -0.74505805969E-08  0.93827000000E+00  0.93827000000E+00 0. -1.
     999902    2    1    2    0    0 -0.70470077605E-02 -0.14264423334E-01 -0.17068883140E-01  0.10205958863E+01  0.10203291049E+01 0.  0.
     999903    2    3    3    0    0 -0.62682120952E-01  0.99699094008E-01 -0.52663788022E-01  0.13079256736E+00  0.21546774127E-01 0.  0.
         14    1    1    2    0    0  0.70470077605E-02  0.14264423334E-01  0.17068883140E-01  0.23334113719E-01  0.00000000000E+00 0. -1.
     999901    1    3    3    0    0  0.55635113192E-01 -0.11396351734E+00  0.35594904883E-01  0.88980331892E+00  0.88000000000E+00 0. -1.
        -11    1    4    4    0    0 -0.41416899987E-01  0.45817189182E-01 -0.25751468942E-01  0.66917663608E-01  0.51100000000E-03 0.  1.
         11    1    4    4    0    0 -0.21265220966E-01  0.53881904826E-01 -0.26912319080E-01  0.63874903755E-01  0.51100000000E-03 0. -1.
</event>
<event>
 8    1  0.1132492E+005  0.1043930E+01  0.7957747E-01            NaN
         13   -1    0    0    0    0  0.00000000000E+00  0.00000000000E+00  0.74505805969E-08  0.10566000000E+00  0.10566000000E+00 0. -1.
     999900   -1    0    0    0    0 -0.00000000000E+00 -0.00000000000E+00 -0.74505805969E-08  0.93827000000E+00  0.93827000000E+00 0.  1.
     999902    2    1    2    0    0  0.13150872129E-01  0.16325809625E-01  0.62114784307E-02  0.10220654176E+01  0.10218315213E+01 0.  0.
     999903    2    3    3    0    0  0.35213481659E-01  0.12234034306E+00  0.40836151101E-01  0.13475222152E+00  0.16835116197E-01 0.  0.
         14    1    1    2    0    0 -0.13150872129E-01 -0.16325809625E-01 -0.62114784307E-02  0.21864582364E-01  0.00000000000E+00 0.  1.
     999901    1    3    3    0    0 -0.22062609530E-01 -0.10601453344E+00 -0.34624672671E-01  0.88731319611E+00  0.88000000000E+00 0.  1.
        -11    1    4    4    0    0  0.24950559629E-02  0.32064056064E-01  0.68098750195E-02  0.32878024794E-01  0.51100000000E-03 0.  1.
         11    1    4    4    0    0  0.32718425696E-01  0.90276286998E-01  0.34026276082E-01  0.10187419673E+00  0.51100000000E-03 0. -1.
</event>
<event>
 8    1  0.1132492E+005  0.1043930E+01  0.7957747E-01            NaN
         13   -1    0    0    0    0  0.00000000000E+00  0.00000000000E+00  0.74505805969E-08  0.10566000000E+00  0.10566000000E+00 0. -1.
     999900   -1    0    0    0    0 -0.00000000000E+00 -0.00000000000E+00 -0.74505805969E-08  0.93827000000E+00  0.93827000000E+00 0. -1.
     999902    2    1    2    0    0 -0.14239081562E-01 -0.11111558703E-01  0.14436785563E-01  0.10208077389E+01  0.10205458348E+01 0.  0.
     999903    2    3    3    0    0  0.88967761434E-01 -0.51299421627E-01  0.79598307251E-01  0.13147498865E+00  0.20072092333E-01 0.  0.
         14    1    1    2    0    0  0.14239081562E-01  0.11111558703E-01 -0.14436785563E-01  0.23122261090E-01  0.00000000000E+00 0.  1.
     999901    1    3    3    0    0 -0.10320684300E+00  0.40187862924E-01 -0.65161521688E-01  0.88933275026E+00  0.88000000000E+00 0. -1.
        -11    1    4    4    0    0  0.22076407867E-01 -0.90597940853E-02  0.92174243191E-02  0.25586513738E-01  0.51100000000E-03 0.  1.
         11    1    4    4    0    0  0.66891353567E-01 -0.42239627542E-01  0.70380882932E-01  0.10588847492E+00  0.51100000000E-03 0. -1.
</event>
<event>
 8    1  0.1132492E+005  0.1043930E+01  0.7957747E-01            NaN
         13   -1    0    0    0    0  0.00000000000E+00  0.00000000000E+00  0.74505805969E-08  0.10566000000E+00  0.10566000000E+00 0.  1.
     999900   -1    0    0    0    0 -0.00000000000E+00 -0.00000000000E+00 -0.74505805969E-08  0.93827000000E+00  0.93827000000E+00 0.  1.
     999902    2    1    2    0    0 -0.14326114583E-01  0.26663103656E-01 -0.31192541323E-02  0.10135015856E+01  0.10130447056E+01 0.  0.
     999903    2    3    3    0    0 -0.70682285764E-01  0.14496819059E-01  0.10077814076E+00  0.12551582831E+00  0.19795105895E-01 0.  0.
         14    1    1    2    0    0  0.14326114583E-01 -0.26663103656E-01  0.31192541323E-02  0.30428414385E-01  0.00000000000E+00 0.  1.
     999901    1    3    3    0    0  0.56356171181E-01  0.12166284598E-01 -0.10389739489E+00  0.88798575731E+00  0.88000000000E+00 0.  1.
        -11    1    4    4    0    0 -0.62496439069E-01  0.14087627116E-01  0.75937892132E-01  0.99353362885E-01  0.51100000000E-03 0.  1.
         11    1    4    4    0    0 -0.81858466951E-02  0.40919194289E-03  0.24840248629E-01  0.26162465425E-01  0.51100000000E-03 0. -1.
</event>
<event>
 8    1  0.1132492E+005  0.1043930E+01  0.7957747E-01            NaN
         13   -1    0    0    0    0  0.00000000000E+00  0.00000000000E+00  0.74505805969E-08  0.10566000000E+00  0.10566000000E+00 0. -1.
     999900   -1    0    0    0    0 -0.00000000000E+00 -0.00000000000E+00 -0.74505805969E-08  0.93827000000E+00  0.93827000000E+00 0. -1.
     999902    2    1    2    0    0  0.76383991766E-02 -0.79097643457E-02 -0.20450416246E-01  0.10207108476E+01  0.10204467185E+01 0.  0.
     999903    2    3    3    0    0  0.62376624157E-01 -0.11369311711E+00  0.14536696724E-01  0.13199802048E+00  0.19879480358E-01 0.  0.
         14    1    1    2    0    0 -0.76383991766E-02  0.79097643457E-02  0.20450416246E-01  0.23219152410E-01  0.00000000000E+00 0. -1.
     999901    1    3    3    0    0 -0.54738224980E-01  0.10578335277E+00 -0.34987112970E-01  0.88871282711E+00  0.88000000000E+00 0. -1.
        -11    1    4    4    0    0  0.33405910344E-01 -0.40882827333E-01  0.73105736109E-02  0.53301651233E-01  0.51100000000E-03 0. -1.
         11    1    4    4    0    0  0.28970713813E-01 -0.72810289778E-01  0.72261231130E-02  0.78696369247E-01  0.51100000000E-03 0.  1.
</event>
<event>
 8    1  0.1132492E+005  0.1043930E+01  0.7957747E-01            NaN
         13   -1    0    0    0    0  0.00000000000E+00  0.00000000000E+00  0.74505805969E-08  0.10566000000E+00  0.10566000000E+00 0.  1.
     999900   -1    0    0    0    0 -0.00000000000E+00 -0.00000000000E+00 -0.74505805969E-08  0.93827000000E+00  0.93827000000E+00 0. -1.
     999902    2    1    2    0    0  0.18687498374E-01  0.38443811323E-02 -0.13748980405E-01  0.10204132757E+01  0.10201422532E+01 0.  0.
     999903    2    3    3    0    0 -0.64929873327E-01 -0.10507485373E+00 -0.34730835396E-01  0.12951737668E+00  0.17660877622E-01 0.  0.
         14    1    1    2    0    0 -0.18687498374E-01 -0.38443811323E-02  0.13748980405E-01  0.23516724346E-01  0.00000000000E+00 0. -1.
     999901    1    3    3    0    0  0.83617371701E-01  0.10891923486E+00  0.20981854991E-01  0.89089589898E+00  0.88000000000E+00 0. -1.
        -11    1    4    4    0    0 -0.13359538607E-01 -0.12364623453E-01 -0.91848480104E-02  0.20395679417E-01  0.51100000000E-03 0. -1.
         11    1    4    4    0    0 -0.51570334720E-01 -0.92710230275E-01 -0.25545987386E-01  0.10912169726E+00  0.51100000000E-03 0.  1.
</event>
<event>
 8    1  0.1132492E+005  0.1043930E+01  0.7957747E-01            NaN
         13   -1    0    0    0    0  0.00000000000E+00  0.00000000000E+00  0.74505805969E-08  0.10566000000E+00  0.10566000000E+00 0.  1.
     999900   -1    0    0    0    0 -0.00000000000E+00 -0.00000000000E+00 -0.74505805969E-08  0.93827000000E+00  0.93827000000E+00 0.  1.
     999902    2    1    2    0    0 -0.10434623666E-01 -0.80844865406E-02 -0.17648948656E-01  0.10218908148E+01  0.10216531269E+01 0.  0.
     999903    2    3    3    0    0  0.12762088978E+00 -0.13465019292E-01  0.72453963197E-02  0.13076343712E+00  0.24045425073E-01 0.  0.
         14    1    1    2    0    0  0.10434623666E-01  0.80844865406E-02  0.17648948656E-01  0.22039185156E-01  0.00000000000E+00 0.  1.
     999901    1    3    3    0    0 -0.13805551344E+00  0.53805327513E-02 -0.24894344975E-01  0.89112737773E+00  0.88000000000E+00 0. -1.
        -11    1    4    4    0    0  0.10488764401E+00 -0.17384134596E-01  0.12635652236E-01  0.10706795426E+00  0.51100000000E-03 0.  1.
         11    1    4    4    0    0  0.22733245765E-01  0.39191153042E-02 -0.53902559161E-02  0.23695482853E-01  0.51100000000E-03 0. -1.
</event>
<event>
 8    1  0.1132492E+005  0.1043930E+01  0.7957747E-01            NaN
         13   -1    0    0    0    0  0.00000000000E+00  0.00000000000E+00  0.74505805969E-08  0.10566000000E+00  0.10566000000E+00 0. -1.
     999900   -1    0    0    0    0 -0.00000000000E+00 -0.00000000000E+00 -0.74505805969E-08  0.93827000000E+00  0.93827000000E+00 0. -1.
     999902    2    1    2    0    0 -0.18660868282E-01  0.44642658128E-02 -0.13557696708E-01  0.10204359834E+01  0.10201654902E+01 0.  0.
     999903    2    3    3    0    0 -0.49095770842E-01 -0.88789815288E-01 -0.83661695858E-01  0.13221462722E+00  0.13689495406E-01 0.  0.
         14    1    1    2    0    0  0.18660868282E-01 -0.44642658128E-02  0.13557696708E-01  0.23494016564E-01  0.00000000000E+00 0.  1.
     999901    1    3    3    0    0  0.30434902560E-01  0.93254081101E-01  0.70103999150E-01  0.88822135621E+00  0.88000000000E+00 0.  1.
        -11    1    4    4    0    0 -0.28923716927E-01 -0.38232268719E-01 -0.39129688275E-01  0.61884419669E-01  0.51100000000E-03 0. -1.
         11    1    4    4    0    0 -0.20172053915E-01 -0.50557546569E-01 -0.44532007583E-01  0.70330207554E-01  0.51100000000E-03 0.  1.
</event>
<event>
 8    1  0.1132492E+005  0.1043930E+01  0.7957747E-01            NaN
         13   -1    0    0    0    0  0.00000000000E+00  0.00000000000E+00  0.74505805969E-08  0.10566000000E+00  0.10566000000E+00 0. -1.
     999900   -1    0    0    0    0 -0.00000000000E+00 -0.00000000000E+00 -0.74505805969E-08  0.93827000000E+00  0.93827000000E+00 0.  1.
     999902    2    1    2    0    0  0.11944798387E-01 -0.63228999796E-02  0.16983833351E-01  0.10222249806E+01  0.10219945220E+01 0.  0.
     999903    2    3    3    0    0 -0.50617119845E-01  0.11910321526E+00  0.52941429757E-02  0.13105588728E+00  0.19998723282E-01 0.  0.
         14    1    1    2    0    0 -0.11944798387E-01  0.63228999796E-02 -0.16983833351E-01  0.21705019418E-01  0.00000000000E+00 0.  1.
     999901    1    3    3    0    0  0.62561918232E-01 -0.12542611524E+00  0.11689690375E-01  0.89116909330E+00  0.88000000000E+00 0. -1.
        -11    1    4    4    0    0 -0.25439669935E-01  0.64549408687E-01 -0.69657884039E-02  0.69732247184E-01  0.51100000000E-03 0. -1.
         11    1    4    4    0    0 -0.25177449910E-01  0.54553806577E-01  0.12259931380E-01  0.61323640095E-01  0.51100000000E-03 0.  1.
</event>
<event>
 8    1  0.1132492E+005  0.1043930E+01  0.7957747E-01            NaN
         13   -1    0    0    0    0  0.00000000000E+00  0.00000000000E+00  0.74505805969E-08  0.10566000000E+00  0.10566000000E+00 0.  1.
     999900   -1    0    0    0    0 -0.00000000000E+00 -0.00000000000E+00 -0.74505805969E-08  0.93827000000E+00  0.93827000000E+00 0. -1.
     999902    2    1    2    0    0 -0.19923547235E-02 -0.22334482598E-01 -0.76886894880E-02  0.10202252634E+01  0.10199498388E+01 0.  0.
     999903    2    3    3    0    0  0.37918403622E-01 -0.12509549335E+00 -0.16011308729E-01  0.13330815345E+00  0.20688498749E-01 0.  0.
         14    1    1    2    0    0  0.19923547235E-02  0.22334482598E-01  0.76886894880E-02  0.23704736580E-01  0.00000000000E+00 0.  1.
     999901    1    3    3    0    0 -0.39910758346E-01  0.10276101075E+00  0.83226192409E-02  0.88691710997E+00  0.88000000000E+00 0.  1.
        -11    1    4    4    0    0  0.34196380131E-01 -0.10890340409E+00 -0.20762579533E-01  0.11602021232E+00  0.51100000000E-03 0. -1.
         11    1    4    4    0    0  0.37220234906E-02 -0.16192089256E-01  0.47512708045E-02  0.17287941133E-01  0.51100000000E-03 0.  1.
</event>
<event>
 8    1  0.1132492E+005  0.1043930E+01  0.7957747E-01            NaN
         13   -1    0    0    0    0  0.00000000000E+00  0.00000000000E+00  0.74505805969E-08  0.10566000000E+00  0.10566000000E+00 0. -1.
     999900   -1    0    0    0    0 -0.00000000000E+00 -0.00000000000E+00 -0.74505805969E-08  0.93827000000E+00  0.93827000000E+00 0.  1.
     999902    2    1    2    0    0 -0.15404040757E-01  0.10491419495E-01  0.13215571038E-01  0.10210825565E+01  0.10208269107E+01 0.  0.
     999903    2    3    3    0    0 -0.11630736552E+00 -0.58922424729E-01 -0.10751302776E-01  0.13227764333E+00  0.19558348681E-01 0.  0.
         14    1    1    2    0    0  0.15404040757E-01 -0.10491419495E-01 -0.13215571038E-01  0.22847443458E-01  0.00000000000E+00 0. -1.
     999901    1    3    3    0    0  0.10090332476E+00  0.69413844225E-01  0.23966873814E-01  0.88880491322E+00  0.88000000000E+00 0. -1.
        -11    1    4    4    0    0 -0.42636688418E-01 -0.30451635366E-01 -0.97055282327E-02  0.53288344833E-01  0.51100000000E-03 0. -1.
         11    1    4    4    0    0 -0.73670677098E-01 -0.28470789364E-01 -0.10457745434E-02  0.78989298493E-01  0.51100000000E-03 0.  1.
</event>
<event>
 8    1  0.1132492E+005  0.1043930E+01  0.7957747E-01            NaN
         13   -1    0    0    0    0  0.00000000000E+00  0.00000000000E+00  0.74505805969E-08  0.10566000000E+00  0.10566000000E+00 0.  1.
     999900   -1    0    0    0    0 -0.00000000000E+00 -0.00000000000E+00 -0.74505805969E-08  0.93827000000E+00  0.93827000000E+00 0. -1.
     999902    2    1    2    0    0  0.22140042750E-01  0.10265578805E-01  0.85866845197E-02  0.10180592684E+01  0.10177305042E+01 0.  0.
     999903    2    3    3    0    0  0.11363937545E+00  0.32632191727E-01 -0.52427125527E-01  0.13093183774E+00  0.20390562841E-01 0.  0.
         14    1    1    2    0    0 -0.22140042750E-01 -0.10265578805E-01 -0.85866845197E-02  0.25870731575E-01  0.00000000000E+00 0.  1.
     999901    1    3    3    0    0 -0.91499332701E-01 -0.22366612922E-01  0.61013810047E-01  0.88712743069E+00  0.88000000000E+00 0.  1.
        -11    1    4    4    0    0  0.88243563158E-01  0.16301829609E-01 -0.37721437221E-01  0.97343947087E-01  0.51100000000E-03 0. -1.
         11    1    4    4    0    0  0.25395812293E-01  0.16330362118E-01 -0.14705688306E-01  0.33587890652E-01  0.51100000000E-03 0.  1.
</event>
<event>
 8    1  0.1132492E+005  0.1043930E+01  0.7957747E-01            NaN
         13   -1    0    0    0    0  0.00000000000E+00  0.00000000000E+00  0.74505805969E-08  0.10566000000E+00  0.10566000000E+00 0. -1.
     999900   -1    0    0    0    0 -0.00000000000E+00 -0.00000000000E+00 -0.74505805969E-08  0.93827000000E+00  0.93827000000E+00 0. -1.
     999902    2    1    2    0    0  0.34898427057E-02  0.22432129145E-01  0.68678822987E-02  0.10202119219E+01  0.10199361835E+01 0.  0.
     999903    2    3    3    0    0  0.89104104030E-01  0.26663624048E-01  0.91604793477E-01  0.13199570309E+00  0.19517613693E-01 0.  0.
         14    1    1    2    0    0 -0.34898427057E-02 -0.22432129145E-01 -0.68678822987E-02  0.23718078071E-01  0.00000000000E+00 0. -1.
     999901    1    3    3    0    0 -0.85614261324E-01 -0.42314949024E-02 -0.84736911178E-01  0.88821621884E+00  0.88000000000E+00 0. -1.
        -11    1    4    4    0    0  0.57266363700E-01  0.23598995985E-01  0.50548597058E-01  0.79948551010E-01  0.51100000000E-03 0. -1.
         11    1    4    4    0    0  0.31837740330E-01  0.30646280624E-02  0.41056196418E-01  0.52047152082E-01  0.51100000000E-03 0.  1.
</event>
<event>
 8    1  0.1132492E+005  0.1043930E+01  0.7957747E-01            NaN
         13   -1    0    0    0    0  0.00000000000E+00  0.00000000000E+00  0.74505805969E-08  0.10566000000E+00  0.10566000000E+00 0.  1.
     999900   -1    0    0    0    0 -0.00000000000E+00 -0.00000000000E+00 -0.74505805969E-08  0.93827000000E+00  0.93827000000E+00 0.  1.
     999902    2    1    2    0    0 -0.51178831860E-02  0.34700264902E-02 -0.21842025259E-01  0.10212296062E+01  0.10209772772E+01 0.  0.
     999903    2    3    3    0    0  0.21170460623E-01  0.36877058619E-01  0.11989672381E+00  0.12887486741E+00  0.20625256690E-01 0.  0.
         14    1    1    2    0    0  0.51178831860E-02 -0.34700264902E-02  0.21842025259E-01  0.22700393820E-01  0.00000000000E+00 0.  1.
     999901    1    3    3    0    0 -0.26288343809E-01 -0.33407032129E-01 -0.14173874907E+00  0.89235473877E+00  0.88000000000E+00 0.  1.
        -11    1    4    4    0    0  0.15295226063E-01  0.71012399910E-02  0.45224393179E-01  0.48268814043E-01  0.51100000000E-03 0.  1.
         11    1    4    4    0    0  0.58752345603E-02  0.29775818628E-01  0.74672330635E-01  0.80606053368E-01  0.51100000000E-03 0. -1.
</event>
<event>
 8    1  0.1132492E+005  0.1043930E+01  0.7957747E-01            NaN
         13   -1    0    0    0    0  0.00000000000E+00  0.00000000000E+00  0.74505805969E-08  0.10566000000E+00  0.10566000000E+00 0.  1.
     999900   -1    0    0    0    0 -0.00000000000E+00 -0.00000000000E+00 -0.74505805969E-08  0.93827000000E+00  0.93827000000E+00 0.  1.
     999902    2    1    2    0    0 -0.13221556464E-01  0.21569360912E-01  0.68579359763E-02  0.10177178240E+01  0.10173802097E+01 0.  0.
     999903    2    3    3    0    0 -0.81963608081E-01  0.19574155115E-01 -0.96018890930E-01  0.12905979526E+00  0.18320009249E-01 0.  0.
         14    1    1    2    0    0  0.13221556464E-01 -0.21569360912E-01 -0.68579359763E-02  0.26212176013E-01  0.00000000000E+00 0. -1.
     999901    1    3    3    0    0  0.68742051618E-01  0.19952057969E-02  0.10287682691E+00  0.88865802873E+00  0.88000000000E+00 0. -1.
        -11    1    4    4    0    0 -0.20551810501E-01  0.39709554064E-02 -0.36749664480E-01  0.42295914248E-01  0.51100000000E-03 0.  1.
         11    1    4    4    0    0 -0.61411797581E-01  0.15603199709E-01 -0.59269226451E-01  0.86763881012E-01  0.51100000000E-03 0. -1.
</event>
<event>
 8    1  0.1132492E+005  0.1043930E+01  0.7957747E-01            NaN
         13   -1    0    0    0    0  0.00000000000E+00  0.00000000000E+00  0.74505805969E-08  0.10566000000E+00  0.10566000000E+00 0. -1.
     999900   -1    0    0    0    0 -0.00000000000E+00 -0.00000000000E+00 -0.74505805969E-08  0.93827000000E+00  0.93827000000E+00 0.  1.
     999902    2    1    2    0    0 -0.18204155201E-02 -0.22127721621E-01 -0.87158738576E-02  0.10200780308E+01  0.10197991334E+01 0.  0.
     999903    2    3    3    0    0 -0.11366911433E+00  0.54017684057E-02 -0.61852640747E-01  0.13098213034E+00  0.19512115383E-01 0.  0.
         14    1    1    2    0    0  0.18204155201E-02  0.22127721621E-01  0.87158738576E-02  0.23851969183E-01  0.00000000000E+00 0. -1.
     999901    1    3    3    0    0  0.11184869881E+00 -0.27529490027E-01  0.53136766889E-01  0.88909590048E+00  0.88000000000E+00 0. -1.
        -11    1    4    4    0    0 -0.71768096640E-01 -0.45896447522E-02 -0.44291716141E-01  0.84461481008E-01  0.51100000000E-03 0. -1.
         11    1    4    4    0    0 -0.41901017691E-01  0.99914131578E-02 -0.17560924605E-01  0.46520649333E-01  0.51100000000E-03 0.  1.
</event>
<event>
 8    1  0.1132492E+005  0.1043930E+01  0.7957747E-01            NaN
         13   -1    0    0    0    0  0.00000000000E+00  0.00000000000E+00  0.74505805969E-08  0.10566000000E+00  0.10566000000E+00 0. -1.
     999900   -1    0    0    0    0 -0.00000000000E+00 -0.00000000000E+00 -0.74505805969E-08  0.93827000000E+00  0.93827000000E+00 0. -1.
     999902    2    1    2    0    0 -0.22612926801E-01  0.48992293180E-02 -0.59346612681E-02  0.10200434534E+01  0.10197637372E+01 0.  0.
     999903    2    3    3    0    0  0.95632416739E-01 -0.20559108664E-01 -0.80757608086E-01  0.12862404499E+00  0.21310035292E-01 0.  0.
         14    1    1    2    0    0  0.22612926801E-01 -0.48992293180E-02  0.59346612681E-02  0.23886546648E-01  0.00000000000E+00 0.  1.
     999901    1    3    3    0    0 -0.11824534354E+00  0.25458337982E-01  0.74822946818E-01  0.89141940837E+00  0.88000000000E+00 0. -1.
        -11    1    4    4    0    0  0.31084527052E-01 -0.10982668976E-02 -0.15345966312E-01  0.34687372562E-01  0.51100000000E-03 0.  1.
         11    1    4    4    0    0  0.64547889687E-01 -0.19460841767E-01 -0.65411641774E-01  0.93936672423E-01  0.51100000000E-03 0. -1.
</event>
<event>
 8    1  0.1132492E+005  0.1043930E+01  0.7957747E-01            NaN
         13   -1    0    0    0    0  0.00000000000E+00  0.00000000000E+00  0.74505805969E-08  0.10566000000E+00  0.10566000000E+00 0. -1.
     999900   -1    0    0    0    0 -0.00000000000E+00 -0.00000000000E+00 -0.74505805969E-08  0.93827000000E+00  0.93827000000E+00 0.  1.
     999902    2    1    2    0    0  0.19473908922E-01 -0.12886748484E-01  0.62359360238E-02  0.10197600121E+01  0.10194735377E+01 0.  0.
     999903    2    3    3    0    0 -0.64735327212E-01  0.41123762322E-01  0.10186086585E+00  0.12894439826E+00  0.19214458994E-01 0.  0.
         14    1    1    2    0    0 -0.19473908922E-01  0.12886748484E-01 -0.62359360238E-02  0.24169987863E-01  0.00000000000E+00 0.  1.
     999901    1    3    3    0    0  0.84209236134E-01 -0.54010510806E-01 -0.95624929823E-01  0.89081561388E+00  0.88000000000E+00 0. -1.
        -11    1    4    4    0    0 -0.36768340621E-01  0.12513965139E-01  0.45497256024E-01  0.59822835290E-01  0.51100000000E-03 0. -1.
         11    1    4    4    0    0 -0.27966986591E-01  0.28609797183E-01  0.56363609823E-01  0.69121562968E-01  0.51100000000E-03 0.  1.
</event>
<event>
 8    1  0.1132492E+005  0.1043930E+01  0.7957747E-01            NaN
         13   -1    0    0    0    0  0.00000000000E+00  0.00000000000E+00  0.74505805969E-08  0.10566000000E+00  0.10566000000E+00 0.  1.
     999900   -1    0    0    0    0 -0.00000000000E+00 -0.00000000000E+00 -0.74505805969E-08  0.93827000000E+00  0.93827000000E+00 0. -1.
     999902    2    1    2    0    0  0.15533452229E-01  0.11881831832E-02 -0.16094485470E-01  0.10215306165E+01  0.10212850083E+01 0.  0.
     999903    2    3    3    0    0  0.14826744993E-01 -0.23311605157E-02 -0.13176910752E+00  0.13395329404E+00  0.18844644075E-01 0.  0.
         14    1    1    2    0    0 -0.15533452229E-01 -0.11881831832E-02  0.16094485470E-01  0.22399383473E-01  0.00000000000E+00 0. -1.
     999901    1    3    3    0    0  0.70670723591E-03  0.35193436989E-02  0.11567462205E+00  0.88757732249E+00  0.88000000000E+00 0.  1.
        -11    1    4    4    0    0 -0.13929799664E-03 -0.80450241753E-02 -0.43542146754E-01  0.44282293108E-01  0.51100000000E-03 0. -1.
         11    1    4    4    0    0  0.14966042989E-01  0.57138636596E-02 -0.88226960765E-01  0.89671000928E-01  0.51100000000E-03 0.  1.
</event>
<event>
 8    1  0.1132492E+005  0.1043930E+01  0.7957747E-01            NaN
         13   -1    0    0    0    0  0.00000000000E+00  0.00000000000E+00  0.74505805969E-08  0.10566000000E+00  0.10566000000E+00 0.  1.
     999900   -1    0    0    0    0 -0.00000000000E+00 -0.00000000000E+00 -0.74505805969E-08  0.93827000000E+00  0.93827000000E+00 0.  1.
     999902    2    1    2    0    0  0.24142179274E-02  0.25421298416E-02  0.22716244905E-01  0.10209448166E+01  0.10206860438E+01 0.  0.
     999903    2    3    3    0    0  0.26691466962E-01 -0.12027100376E+00 -0.36087706931E-01  0.13014160864E+00  0.21376785403E-01 0.  0.
         14    1    1    2    0    0 -0.24142179274E-02 -0.25421298416E-02 -0.22716244905E-01  0.22985183378E-01  0.00000000000E+00 0. -1.
     999901    1    3    3    0    0 -0.24277249034E-01  0.12281313360E+00  0.58803951836E-01  0.89080320798E+00  0.88000000000E+00 0.  1.
        -11    1    4    4    0    0  0.55981435769E-02 -0.44828459055E-01 -0.35608270389E-02  0.45319648752E-01  0.51100000000E-03 0.  1.
         11    1    4    4    0    0  0.21093323385E-01 -0.75442544701E-01 -0.32526879892E-01  0.84821959886E-01  0.51100000000E-03 0. -1.
</event>
<event>
 8    1  0.1132492E+005  0.1043930E+01  0.7957747E-01            NaN
         13   -1    0    0    0    0  0.00000000000E+00  0.00000000000E+00  0.74505805969E-08  0.10566000000E+00  0.10566000000E+00 0.  1.
     999900   -1    0    0    0    0 -0.00000000000E+00 -0.00000000000E+00 -0.74505805969E-08  0.93827000000E+00  0.93827000000E+00 0.  1.
     999902    2    1    2    0    0  0.22669877424E-01 -0.50540665853E-02 -0.25166911491E-02  0.10205676229E+01  0.10203001873E+01 0.  0.
     999903    2    3    3    0    0  0.75258155682E-01  0.10637342614E+00 -0.42245081723E-02  0.13198193212E+00  0.20549650847E-01 0.  0.
         14    1    1    2    0    0 -0.22669877424E-01  0.50540665853E-02  0.25166911491E-02  0.23362377144E-01  0.00000000000E+00 0.  1.
     999901    1    3    3    0    0 -0.52588278259E-01 -0.11142749273E+00  0.17078170232E-02  0.88858569074E+00  0.88000000000E+00 0.  1.
        -11    1    4    4    0    0  0.63786377993E-01  0.75080894132E-01 -0.49114311046E-02  0.98641907714E-01  0.51100000000E-03 0. -1.
         11    1    4    4    0    0  0.11471777690E-01  0.31292532013E-01  0.68692293229E-03  0.33340024404E-01  0.51100000000E-03 0.  1.
</event>
<event>
 8    1  0.1132492E+005  0.1043930E+01  0.7957747E-01            NaN
         13   -1    0    0    0    0  0.00000000000E+00  0.00000000000E+00  0.74505805969E-08  0.10566000000E+00  0.10566000000E+00 0.  1.
     999900   -1    0    0    0    0 -0.00000000000E+00 -0.00000000000E+00 -0.74505805969E-08  0.93827000000E+00  0.93827000000E+00 0. -1.
     999902    2    1    2    0    0 -0.22296789269E-01  0.36303970497E-02  0.58037078692E-02  0.10206059862E+01  0.10203394384E+01 0.  0.
     999903    2    3    3    0    0  0.10966018476E+00 -0.33491602671E-01  0.54891570714E-01  0.12864169088E+00  0.19711837194E-01 0.  0.
         14    1    1    2    0    0  0.22296789269E-01 -0.36303970497E-02 -0.58037078692E-02  0.23324013794E-01  0.00000000000E+00 0. -1.
     999901    1    3    3    0    0 -0.13195697403E+00  0.37121999721E-01 -0.49087862844E-01  0.89196429533E+00  0.88000000000E+00 0. -1.
        -11    1    4    4    0    0  0.71673592213E-01 -0.14623548240E-01  0.41787751304E-01  0.84246241838E-01  0.51100000000E-03 0. -1.
         11    1    4    4    0    0  0.37986592548E-01 -0.18868054431E-01  0.13103819410E-01  0.44395449041E-01  0.51100000000E-03 0.  1.
</event>
<event>
 8    1  0.1132492E+005  0.1043930E+01  0.7957747E-01            NaN
         13   -1    0    0    0    0  0.00000000000E+00  0.00000000000E+00  0.74505805969E-08  0.10566000000E+00  0.10566000000E+00 0. -1.
     999900   -1    0    0    0    0 -0.00000000000E+00 -0.00000000000E+00 -0.74505805969E-08  0.93827000000E+00  0.93827000000E+00 0.  1.
     999902    2    1    2    0    0  0.86473523424E-02  0.74840920552E-02 -0.19563616833E-01  0.10212689444E+01  0.10210174991E+01 0.  0.
     999903    2    3    3    0    0  0.12382918081E+00 -0.38306388557E-01 -0.20251649211E-01  0.13258221946E+00  0.19153855972E-01 0.  0.
         14    1    1    2    0    0 -0.86473523424E-02 -0.74840920552E-02  0.19563616833E-01  0.22661055580E-01  0.00000000000E+00 0. -1.
     999901    1    3    3    0    0 -0.11518182847E+00  0.45790480612E-01  0.68803237762E-03  0.88868672496E+00  0.88000000000E+00 0. -1.
        -11    1    4    4    0    0  0.41051158393E-01 -0.90489491168E-02 -0.14970274875E-01  0.44625680234E-01  0.51100000000E-03 0.  1.
         11    1    4    4    0    0  0.82778022414E-01 -0.29257439440E-01 -0.52813743353E-02  0.87956539230E-01  0.51100000000E-03 0. -1.
</event>
<event>
 8    1  0.1132492E+005  0.1043930E+01  0.7957747E-01            NaN
         13   -1    0    0    0    0  0.00000000000E+00  0.00000000000E+00  0.74505805969E-08  0.10566000000E+00  0.10566000000E+00 0. -1.
     999900   -1    0    0    0    0 -0.00000000000E+00 -0.00000000000E+00 -0.74505805969E-08  0.93827000000E+00  0.93827000000E+00 0. -1.
     999902    2    1    2    0    0  0.21849062225E-01 -0.54620022750E-02  0.28808743491E-04  0.10214085476E+01  0.10211602251E+01 0.  0.
     999903    2    3    3    0    0  0.71691544109E-01  0.10447033667E+00 -0.33567668805E-01  0.13253391331E+00  0.19614307213E-01 0.  0.
         14    1    1    2    0    0 -0.21849062225E-01  0.54620022750E-02 -0.28808743491E-04  0.22521452416E-01  0.00000000000E+00 0.  1.
     999901    1    3    3    0    0 -0.49842481883E-01 -0.10993233895E+00  0.33596477549E-01  0.88887463427E+00  0.88000000000E+00 0.  1.
        -11    1    4    4    0    0  0.39574087105E-01  0.69643198249E-01 -0.27873999107E-01  0.84814529296E-01  0.51100000000E-03 0. -1.
         11    1    4    4    0    0  0.32117457003E-01  0.34827138426E-01 -0.56936696979E-02  0.47719384017E-01  0.51100000000E-03 0.  1.
</event>
<event>
 8    1  0.1132492E+005  0.1043930E+01  0.7957747E-01            NaN
         13   -1    0    0    0    0  0.00000000000E+00  0.00000000000E+00  0.74505805969E-08  0.10566000000E+00  0.10566000000E+00 0. -1.
     999900   -1    0    0    0    0 -0.00000000000E+00 -0.00000000000E+00 -0.74505805969E-08  0.93827000000E+00  0.93827000000E+00 0. -1.
     999902    2    1    2    0    0 -0.30328286467E-03 -0.14203899498E-01  0.19214497894E-01  0.10200335636E+01  0.10197536130E+01 0.  0.
     999903    2    3    3    0    0 -0.40674071064E-01  0.10024341566E+00  0.69781268643E-01  0.13026674767E+00  0.19921788479E-01 0.  0.
         14    1    1    2    0    0  0.30328286467E-03  0.14203899498E-01 -0.19214497894E-01  0.23896436362E-01  0.00000000000E+00 0.  1.
     999901    1    3    3    0    0  0.40370788199E-01 -0.11444731516E+00 -0.50566770748E-01  0.88976681596E+00  0.88000000000E+00 0.  1.
        -11    1    4    4    0    0 -0.21788930068E-01  0.47041234556E-01  0.44841005388E-01  0.68546423008E-01  0.51100000000E-03 0. -1.
         11    1    4    4    0    0 -0.18885140995E-01  0.53202181104E-01  0.24940263255E-01  0.61720324666E-01  0.51100000000E-03 0.  1.
</event>
<event>
 8    1  0.1132492E+005  0.1043930E+01  0.7957747E-01            NaN
         13   -1    0    0    0    0  0.00000000000E+00  0.00000000000E+00  0.74505805969E-08  0.10566000000E+00  0.10566000000E+00 0. -1.
     999900   -1    0    0    0    0 -0.00000000000E+00 -0.00000000000E+00 -0.74505805969E-08  0.93827000000E+00  0.93827000000E+00 0.  1.
     999902    2    1    2    0    0 -0.71652449750E-02 -0.23600222163E-01 -0.76254897356E-02  0.10181141267E+01  0.10177867732E+01 0.  0.
     999903    2    3    3    0    0  0.13557731663E-01 -0.11223559800E+00 -0.64416905968E-01  0.13159794715E+00  0.19693663243E-01 0.  0.
         14    1    1    2    0    0  0.71652449750E-02  0.23600222163E-01  0.76254897356E-02  0.25815873322E-01  0.00000000000E+00 0. -1.
     999901    1    3    3    0    0 -0.20722976638E-01  0.88635375840E-01  0.56791416233E-01  0.88651617953E+00  0.88000000000E+00 0. -1.
        -11    1    4    4    0    0  0.18037055279E-01 -0.76188732218E-01 -0.41061015786E-01  0.88409990490E-01  0.51100000000E-03 0. -1.
         11    1    4    4    0    0 -0.44793236166E-02 -0.36046865785E-01 -0.23355890182E-01  0.43187956657E-01  0.51100000000E-03 0.  1.
</event>
<event>
 8    1  0.1132492E+005  0.1043930E+01  0.7957747E-01            NaN
         13   -1    0    0    0    0  0.00000000000E+00  0.00000000000E+00  0.74505805969E-08  0.10566000000E+00  0.10566000000E+00 0. -1.
     999900   -1    0    0    0    0 -0.00000000000E+00 -0.00000000000E+00 -0.74505805969E-08  0.93827000000E+00  0.93827000000E+00 0.  1.
     999902    2    1    2    0    0 -0.20941426029E-01  0.10171784784E-01  0.41352934618E-02  0.10202845103E+01  0.10200104768E+01 0.  0.
     999903    2    3    3    0    0  0.85992791464E-01  0.91811831708E-01 -0.24061638089E-01  0.12961336390E+00  0.19912032748E-01 0.  0.
         14    1    1    2    0    0  0.20941426029E-01 -0.10171784784E-01 -0.41352934618E-02  0.23645489673E-01  0.00000000000E+00 0. -1.
     999901    1    3    3    0    0 -0.10693421749E+00 -0.81640046924E-01  0.28196931551E-01  0.89067114643E+00  0.88000000000E+00 0. -1.
        -11    1    4    4    0    0  0.78883201652E-01  0.86184708393E-01 -0.16908351551E-01  0.11805302595E+00  0.51100000000E-03 0.  1.
         11    1    4    4    0    0  0.71095898116E-02  0.56271233149E-02 -0.71532865380E-02  0.11560337944E-01  0.51100000000E-03 0. -1.
</event>
<event>
 8    1  0.1132492E+005  0.1043930E+01  0.7957747E-01            NaN
         13   -1    0    0    0    0  0.00000000000E+00  0.00000000000E+00  0.74505805969E-08  0.10566000000E+00  0.10566000000E+00 0. -1.
     999900   -1    0    0    0    0 -0.00000000000E+00 -0.00000000000E+00 -0.74505805969E-08  0.93827000000E+00  0.93827000000E+00 0. -1.
     999902    2    1    2    0    0 -0.68374506319E-02 -0.13563486126E-01 -0.18707059465E-01  0.10198328433E+01  0.10195481133E+01 0.  0.
     999903    2    3    3    0    0  0.18039230981E-01  0.98771575763E-02  0.12440782446E+00  0.12761639924E+00  0.19638392802E-01 0.  0.
         14    1    1    2    0    0  0.68374506319E-02  0.13563486126E-01  0.18707059465E-01  0.24097156697E-01  0.00000000000E+00 0. -1.
     999901    1    3    3    0    0 -0.24876681613E-01 -0.23440643702E-01 -0.14311488392E+00  0.89221644407E+00  0.88000000000E+00 0. -1.
        -11    1    4    4    0    0  0.20884061160E-01  0.34390261534E-02  0.99538812429E-01  0.10176545196E+00  0.51100000000E-03 0.  1.
         11    1    4    4    0    0 -0.28448301788E-02  0.64381314229E-02  0.24869012027E-01  0.25850947278E-01  0.51100000000E-03 0. -1.
</event>
<event>
 8    1  0.1132492E+005  0.1043930E+01  0.7957747E-01            NaN
         13   -1    0    0    0    0  0.00000000000E+00  0.00000000000E+00  0.74505805969E-08  0.10566000000E+00  0.10566000000E+00 0.  1.
     999900   -1    0    0    0    0 -0.00000000000E+00 -0.00000000000E+00 -0.74505805969E-08  0.93827000000E+00  0.93827000000E+00 0.  1.
     999902    2    1    2    0    0  0.39913494249E-03  0.15058916506E-01  0.16572673458E-01  0.10215339338E+01  0.10212883991E+01 0.  0.
     999903    2    3    3    0    0 -0.96113577299E-01 -0.59864608040E-01 -0.59811859592E-01  0.12981490013E+00  0.21280477196E-01 0.  0.
         14    1    1    2    0    0 -0.39913494249E-03 -0.15058916506E-01 -0.16572673458E-01  0.22396066185E-01  0.00000000000E+00 0. -1.
     999901    1    3    3    0    0  0.96512712241E-01  0.74923524547E-01  0.76384533050E-01  0.89171903369E+00  0.88000000000E+00 0. -1.
        -11    1    4    4    0    0 -0.26174281268E-01 -0.20479828686E-01 -0.77124503898E-02  0.34121245506E-01  0.51100000000E-03 0.  1.
         11    1    4    4    0    0 -0.69939296031E-01 -0.39384779354E-01 -0.52099409202E-01  0.95693654619E-01  0.51100000000E-03 0. -1.
</event>
<event>
 8    1  0.1132492E+005  0.1043930E+01  0.7957747E-01            NaN
         13   -1    0    0    0    0  0.00000000000E+00  0.00000000000E+00  0.74505805969E-08  0.10566000000E+00  0.10566000000E+00 0. -1.
     999900   -1    0    0    0    0 -0.00000000000E+00 -0.00000000000E+00 -0.74505805969E-08  0.93827000000E+00  0.93827000000E+00 0.  1.
     999902    2    1    2    0    0 -0.97546229064E-02 -0.21599824252E-01 -0.51131090432E-02  0.10196844033E+01  0.10193961121E+01 0.  0.
     999903    2    3    3    0    0 -0.36986051817E-02  0.10885110401E+00 -0.64320220873E-01  0.12807933257E+00  0.20124166921E-01 0.  0.
         14    1    1    2    0    0  0.97546229064E-02  0.21599824252E-01  0.51131090432E-02  0.24245596711E-01  0.00000000000E+00 0. -1.
     999901    1    3    3    0    0 -0.60560177246E-02 -0.13045092826E+00  0.59207111830E-01  0.89160507072E+00  0.88000000000E+00 0. -1.
        -11    1    4    4    0    0 -0.59202751927E-02  0.56663340575E-01 -0.22863777502E-01  0.61390530753E-01  0.51100000000E-03 0.  1.
         11    1    4    4    0    0  0.22216700109E-02  0.52187763436E-01 -0.41456443371E-01  0.66688801819E-01  0.51100000000E-03 0. -1.
</event>
<event>
 8    1  0.1132492E+005  0.1043930E+01  0.7957747E-01            NaN
         13   -1    0    0    0    0  0.00000000000E+00  0.00000000000E+00  0.74505805969E-08  0.10566000000E+00  0.10566000000E+00 0. -1.
     999900   -1    0    0    0    0 -0.00000000000E+00 -0.00000000000E+00 -0.74505805969E-08  0.93827000000E+00  0.93827000000E+00 0.  1.
     999902    2    1    2    0    0 -0.20608135498E-01  0.90930113015E-02  0.29875502586E-02  0.10212076859E+01  0.10209548639E+01 0.  0.
     999903    2    3    3    0    0  0.92581431977E-01  0.44384376214E-01  0.77413312664E-01  0.13014284381E+00  0.20075966222E-01 0.  0.
         14    1    1    2    0    0  0.20608135498E-01 -0.90930113015E-02 -0.29875502586E-02  0.22722314138E-01  0.00000000000E+00 0.  1.
     999901    1    3    3    0    0 -0.11318956748E+00 -0.35291364912E-01 -0.74425762406E-01  0.89106484205E+00  0.88000000000E+00 0. -1.
        -11    1    4    4    0    0  0.59453494436E-01  0.38726800987E-01  0.54354976212E-01  0.89382367810E-01  0.51100000000E-03 0.  1.
         11    1    4    4    0    0  0.33127937541E-01  0.56575752265E-02  0.23058336452E-01  0.40760476004E-01  0.51100000000E-03 0. -1.
</event>
<event>
 8    1  0.1132492E+005  0.1043930E+01  0.7957747E-01            NaN
         13   -1    0    0    0    0  0.00000000000E+00  0.00000000000E+00  0.74505805969E-08  0.10566000000E+00  0.10566000000E+00 0.  1.
     999900   -1    0    0    0    0 -0.00000000000E+00 -0.00000000000E+00 -0.74505805969E-08  0.93827000000E+00  0.93827000000E+00 0. -1.
     999902    2    1    2    0    0 -0.11816119422E-01  0.20035911548E-01  0.37570982798E-02  0.10203678648E+01  0.10200957824E+01 0.  0.
     999903    2    3    3    0    0  0.12922274061E-01  0.53602069857E-01  0.11815610014E+00  0.13198404752E+00  0.20463571026E-01 0.  0.
         14    1    1    2    0    0  0.11816119422E-01 -0.20035911548E-01 -0.37570982798E-02  0.23562135244E-01  0.00000000000E+00 0. -1.
     999901    1    3    3    0    0 -0.24738393483E-01 -0.33566158309E-01 -0.11439900186E+00  0.88838381723E+00  0.88000000000E+00 0. -1.
        -11    1    4    4    0    0  0.50385362393E-02  0.26558334872E-01  0.80740387299E-01  0.85146950977E-01  0.51100000000E-03 0. -1.
         11    1    4    4    0    0  0.78837378213E-02  0.27043734986E-01  0.37415712846E-01  0.46837096545E-01  0.51100000000E-03 0.  1.
</event>
<event>
 8    1  0.1132492E+005  0.1043930E+01  0.7957747E-01            NaN
         13   -1    0    0    0    0  0.00000000000E+00  0.00000000000E+00  0.74505805969E-08  0.10566000000E+00  0.10566000000E+00 0. -1.
     999900   -1    0    0    0    0 -0.00000000000E+00 -0.00000000000E+00 -0.74505805969E-08  0.93827000000E+00  0.93827000000E+00 0.  1.
     999902    2    1    2    0    0 -0.26682914968E-02 -0.20479450004E-01  0.13213791654E-01  0.10194120078E+01  0.10191171227E+01 0.  0.
     999903    2    3    3    0    0 -0.71214903795E-01 -0.93352822449E-01 -0.54958810909E-01  0.13112338904E+00  0.19661136143E-01 0.  0.
         14    1    1    2    0    0  0.26682914968E-02  0.20479450004E-01 -0.13213791654E-01  0.24517992207E-01  0.00000000000E+00 0.  1.
     999901    1    3    3    0    0  0.68546612298E-01  0.72873372445E-01  0.68172602563E-01  0.88828861875E+00  0.88000000000E+00 0. -1.
        -11    1    4    4    0    0 -0.39208044831E-01 -0.46568013284E-01 -0.38748053881E-01  0.72163172334E-01  0.51100000000E-03 0.  1.
         11    1    4    4    0    0 -0.32006858964E-01 -0.46784809165E-01 -0.16210757028E-01  0.58960216704E-01  0.51100000000E-03 0. -1.
</event>
<event>
 8    1  0.1132492E+005  0.1043930E+01  0.7957747E-01            NaN
         13   -1    0    0    0    0  0.00000000000E+00  0.00000000000E+00  0.74505805969E-08  0.10566000000E+00  0.10566000000E+00 0.  1.
     999900   -1    0    0    0    0 -0.00000000000E+00 -0.00000000000E+00 -0.74505805969E-08  0.93827000000E+00  0.93827000000E+00 0. -1.
     999902    2    1    2    0    0 -0.21236966195E-01  0.10525716085E-01 -0.58201965357E-02  0.10195235640E+01  0.10192313885E+01 0.  0.
     999903    2    3    3    0    0  0.63130617384E-01 -0.33307898111E-01  0.10394624852E+00  0.12762225364E+00  0.19690762185E-01 0.  0.
         14    1    1    2    0    0  0.21236966195E-01 -0.10525716085E-01  0.58201965357E-02  0.24406436036E-01  0.00000000000E+00 0. -1.
     999901    1    3    3    0    0 -0.84367583579E-01  0.43833614196E-01 -0.10976644506E+00  0.89190131032E+00  0.88000000000E+00 0. -1.
        -11    1    4    4    0    0  0.32943786522E-01 -0.12098774836E-01  0.35841303352E-01  0.50165063241E-01  0.51100000000E-03 0.  1.
         11    1    4    4    0    0  0.30186830862E-01 -0.21209123275E-01  0.68104945169E-01  0.77457190402E-01  0.51100000000E-03 0. -1.
</event>
<event>
 8    1  0.1132492E+005  0.1043930E+01  0.7957747E-01            NaN
         13   -1    0    0    0    0  0.00000000000E+00  0.00000000000E+00  0.74505805969E-08  0.10566000000E+00  0.10566000000E+00 0. -1.
     999900   -1    0    0    0    0 -0.00000000000E+00 -0.00000000000E+00 -0.74505805969E-08  0.93827000000E+00  0.93827000000E+00 0. -1.
     999902    2    1    2    0    0 -0.12644317936E-01  0.66310744908E-02 -0.15768323807E-01  0.10226581886E+01  0.10224369324E+01 0.  0.
     999903    2    3    3    0    0  0.61488322276E-01 -0.66338758084E-01 -0.95363783923E-01  0.13296403773E+00  0.20088291216E-01 0.  0.
         14    1    1    2    0    0  0.12644317936E-01 -0.66310744908E-02  0.15768323807E-01  0.21271811410E-01  0.00000000000E+00 0. -1.
     999901    1    3    3    0    0 -0.74132640212E-01  0.72969832575E-01  0.79595460116E-01  0.88969415086E+00  0.88000000000E+00 0.  1.
        -11    1    4    4    0    0  0.20632542201E-01 -0.36827752219E-01 -0.45359558021E-01  0.61965601393E-01  0.51100000000E-03 0.  1.
         11    1    4    4    0    0  0.40855780075E-01 -0.29511005865E-01 -0.50004225902E-01  0.70998436333E-01  0.51100000000E-03 0. -1.
</event>
<event>
 8    1  0.1132492E+005  0.1043930E+01  0.7957747E-01            NaN
         13   -1    0    0    0    0  0.00000000000E+00  0.00000000000E+00  0.74505805969E-08  0.10566000000E+00  0.10566000000E+00 0. -1.
     999900   -1    0    0    0    0 -0.00000000000E+00 -0.00000000000E+00 -0.74505805969E-08  0.93827000000E+00  0.93827000000E+00 0.  1.
     999902    2    1    2    0    0  0.15655923939E-01 -0.97056269892E-02 -0.15295322744E-01  0.10199872757E+01  0.10197062266E+01 0.  0.
     999903    2    3    3    0    0  0.12044314172E+00 -0.52159397118E-01 -0.61177646904E-03  0.13263261709E+00  0.19075737216E-01 0.  0.
         14    1    1    2    0    0 -0.15655923939E-01  0.97056269892E-02  0.15295322744E-01  0.23942724312E-01  0.00000000000E+00 0. -1.
     999901    1    3    3    0    0 -0.10478721778E+00  0.42453770129E-01 -0.14683546275E-01  0.88735465860E+00  0.88000000000E+00 0.  1.
        -11    1    4    4    0    0  0.89607146366E-01 -0.46992249799E-01 -0.33875331555E-02  0.10123956106E+00  0.51100000000E-03 0.  1.
         11    1    4    4    0    0  0.30835995353E-01 -0.51671473194E-02  0.27757566865E-02  0.31393056032E-01  0.51100000000E-03 0. -1.
</event>
<event>
 8    1  0.1132492E+005  0.1043930E+01  0.7957747E-01            NaN
         13   -1    0    0    0    0  0.00000000000E+00  0.00000000000E+00  0.74505805969E-08  0.10566000000E+00  0.10566000000E+00 0. -1.
     999900   -1    0    0    0    0 -0.00000000000E+00 -0.00000000000E+00 -0.74505805969E-08  0.93827000000E+00  0.93827000000E+00 0.  1.
     999902    2    1    2    0    0 -0.23044696133E-01  0.64827080035E-02 -0.68482049265E-02  0.10190305736E+01  0.10187263266E+01 0.  0.
     999903    2    3    3    0    0  0.59484885640E-01 -0.11021888966E+00  0.10886404996E-01  0.12732159018E+00  0.20139966617E-01 0.  0.
         14    1    1    2    0    0  0.23044696133E-01 -0.64827080035E-02  0.68482049265E-02  0.24899426372E-01  0.00000000000E+00 0. -1.
     999901    1    3    3    0    0 -0.82529581773E-01  0.11670159767E+00 -0.17734609922E-01  0.89170898344E+00  0.88000000000E+00 0. -1.
        -11    1    4    4    0    0  0.44032167068E-01 -0.63254073064E-01  0.20896028019E-02  0.77100823969E-01  0.51100000000E-03 0. -1.
         11    1    4    4    0    0  0.15452718572E-01 -0.46964816598E-01  0.87968021940E-02  0.50220766215E-01  0.51100000000E-03 0.  1.
</event>
<event>
 8    1  0.1132492E+005  0.1043930E+01  0.7957747E-01            NaN
         13   -1    0    0    0    0  0.00000000000E+00  0.00000000000E+00  0.74505805969E-08  0.10566000000E+00  0.10566000000E+00 0.  1.
     999900   -1    0    0    0    0 -0.00000000000E+00 -0.00000000000E+00 -0.74505805969E-08  0.93827000000E+00  0.93827000000E+00 0. -1.
     999902    2    1    2    0    0  0.22682778280E-01 -0.17333732748E-02  0.82293202904E-02  0.10197383749E+01  0.10194513811E+01 0.  0.
     999903    2    3    3    0    0  0.92712011234E-02  0.12796823973E+00 -0.70339530008E-02  0.12999945456E+00  0.19711827482E-01 0.  0.
         14    1    1    2    0    0 -0.22682778280E-01  0.17333732748E-02 -0.82293202904E-02  0.24191625118E-01  0.00000000000E+00 0. -1.
     999901    1    3    3    0    0  0.13411577157E-01 -0.12970161300E+00  0.15263273291E-01  0.88973892032E+00  0.88000000000E+00 0.  1.
        -11    1    4    4    0    0  0.11602339199E-01  0.89057952795E-01  0.25763583769E-02  0.89848939751E-01  0.51100000000E-03 0.  1.
         11    1    4    4    0    0 -0.23311380756E-02  0.38910286933E-01 -0.96103113777E-02  0.40150514812E-01  0.51100000000E-03 0. -1.
</event>
<event>
 8    1  0.1132492E+005  0.1043930E+01  0.7957747E-01            NaN
         13   -1    0    0    0    0  0.00000000000E+00  0.00000000000E+00  0.74505805969E-08  0.10566000000E+00  0.10566000000E+00 0. -1.
     999900   -1    0    0    0    0 -0.00000000000E+00 -0.00000000000E+00 -0.74505805969E-08  0.93827000000E+00  0.93827000000E+00 0. -1.
     999902    2    1    2    0    0 -0.22767534593E-01 -0.67761956260E-02  0.15211561185E-02  0.10201268201E+01  0.10198490759E+01 0.  0.
     999903    2    3    3    0    0  0.76726693227E-01  0.99363756194E-01  0.13684214008E-01  0.12809950507E+00  0.21496138887E-01 0.  0.
         14    1    1    2    0    0  0.22767534593E-01  0.67761956260E-02 -0.15211561185E-02  0.23803179925E-01  0.00000000000E+00 0. -1.
     999901    1    3    3    0    0 -0.99494227820E-01 -0.10613995182E+00 -0.12163057890E-01  0.89202731501E+00  0.88000000000E+00 0. -1.
        -11    1    4    4    0    0  0.41408208684E-01  0.70173619868E-01  0.68341791606E-02  0.81767620717E-01  0.51100000000E-03 0.  1.
         11    1    4    4    0    0  0.35318484543E-01  0.29190136325E-01  0.68500348477E-02  0.46331884351E-01  0.51100000000E-03 0. -1.
</event>
<event>
 8    1  0.1132492E+005  0.1043930E+01  0.7957747E-01            NaN
         13   -1    0    0    0    0  0.00000000000E+00  0.00000000000E+00  0.74505805969E-08  0.10566000000E+00  0.10566000000E+00 0.  1.
     999900   -1    0    0    0    0 -0.00000000000E+00 -0.00000000000E+00 -0.74505805969E-08  0.93827000000E+00  0.93827000000E+00 0. -1.
     999902    2    1    2    0    0  0.21461504226E-03 -0.22908451922E-01  0.58466940507E-02  0.10202862469E+01  0.10200122541E+01 0.  0.
     999903    2    3    3    0    0 -0.21056216296E-01 -0.52486856693E-01  0.11795232756E+00  0.13242645879E+00  0.20634462409E-01 0.  0.
         14    1    1    2    0    0 -0.21461504226E-03  0.22908451922E-01 -0.58466940507E-02  0.23643753095E-01  0.00000000000E+00 0. -1.
     999901    1    3    3    0    0  0.21270831338E-01  0.29578404771E-01 -0.11210563351E+00  0.88785978812E+00  0.88000000000E+00 0. -1.
        -11    1    4    4    0    0 -0.15012652800E-01 -0.14305257624E-01  0.51902644487E-01  0.55894237320E-01  0.51100000000E-03 0.  1.
         11    1    4    4    0    0 -0.60435634958E-02 -0.38181599068E-01  0.66049683076E-01  0.76532221466E-01  0.51100000000E-03 0. -1.
</event>
<event>
 8    1  0.1132492E+005  0.1043930E+01  0.7957747E-01            NaN
         13   -1    0    0    0    0  0.00000000000E+00  0.00000000000E+00  0.74505805969E-08  0.10566000000E+00  0.10566000000E+00 0. -1.
     999900   -1    0    0    0    0 -0.00000000000E+00 -0.00000000000E+00 -0.74505805969E-08  0.93827000000E+00  0.93827000000E+00 0.  1.
     999902    2    1    2    0    0 -0.22844150828E-01 -0.62132811962E-02  0.82260317050E-03  0.10202416745E+01  0.10199666355E+01 0.  0.
     999903    2    3    3    0    0  0.97705121295E-01  0.17383302638E-01 -0.78858758263E-01  0.12814412087E+00  0.18808030783E-01 0.  0.
         14    1    1    2    0    0  0.22844150828E-01  0.62132811962E-02 -0.82260317050E-03  0.23688325526E-01  0.00000000000E+00 0. -1.
     999901    1    3    3    0    0 -0.12054927212E+00 -0.23596583834E-01  0.79681361434E-01  0.89209755360E+00  0.88000000000E+00 0. -1.
        -11    1    4    4    0    0  0.38321625064E-01 -0.14263273928E-02 -0.35375221686E-01  0.52175174055E-01  0.51100000000E-03 0. -1.
         11    1    4    4    0    0  0.59383496232E-01  0.18809630030E-01 -0.43483536577E-01  0.75968946819E-01  0.51100000000E-03 0.  1.
</event>
<event>
 8    1  0.1132492E+005  0.1043930E+01  0.7957747E-01            NaN
         13   -1    0    0    0    0  0.00000000000E+00  0.00000000000E+00  0.74505805969E-08  0.10566000000E+00  0.10566000000E+00 0. -1.
     999900   -1    0    0    0    0 -0.00000000000E+00 -0.00000000000E+00 -0.74505805969E-08  0.93827000000E+00  0.93827000000E+00 0.  1.
     999902    2    1    2    0    0  0.21555279206E-01  0.78413889652E-02  0.46259654049E-02  0.10205309189E+01  0.10202626325E+01 0.  0.
     999903    2    3    3    0    0  0.11742074131E+00  0.52049487090E-01  0.31766731853E-01  0.13380595362E+00  0.19953154538E-01 0.  0.
         14    1    1    2    0    0 -0.21555279206E-01 -0.78413889652E-02 -0.46259654049E-02  0.23399081146E-01  0.00000000000E+00 0. -1.
     999901    1    3    3    0    0 -0.95865462102E-01 -0.44208098125E-01 -0.27140766448E-01  0.88672496523E+00  0.88000000000E+00 0.  1.
        -11    1    4    4    0    0  0.61376256827E-01  0.18543551407E-01  0.95169649756E-02  0.64820844983E-01  0.51100000000E-03 0.  1.
         11    1    4    4    0    0  0.56044484481E-01  0.33505935682E-01  0.22249766877E-01  0.68985108638E-01  0.51100000000E-03 0. -1.
</event>
<event>
 8    1  0.1132492E+005  0.1043930E+01  0.7957747E-01            NaN
         13   -1    0    0    0    0  0.00000000000E+00  0.00000000000E+00  0.74505805969E-08  0.10566000000E+00  0.10566000000E+00 0.  1.
     999900   -1    0    0    0    0 -0.00000000000E+00 -0.00000000000E+00 -0.74505805969E-08  0.93827000000E+00  0.93827000000E+00 0. -1.
     999902    2    1    2    0    0  0.11615248155E-01 -0.15509947194E-01  0.11580286843E-01  0.10213562211E+01  0.10211067304E+01 0.  0.
     999903    2    3    3    0    0  0.12597304833E+00  0.10429098996E-01  0.36670022833E-01  0.13322332819E+00  0.20634669559E-01 0.  0.
         14    1    1    2    0    0 -0.11615248155E-01  0.15509947194E-01 -0.11580286843E-01  0.22573778926E-01  0.00000000000E+00 0. -1.
     999901    1    3    3    0    0 -0.11435780017E+00 -0.25939046190E-01 -0.25089735990E-01  0.88813289289E+00  0.88000000000E+00 0.  1.
        -11    1    4    4    0    0  0.63790283532E-01  0.15499131821E-01  0.20418611770E-01  0.68750303184E-01  0.51100000000E-03 0. -1.
         11    1    4    4    0    0  0.62182764794E-01 -0.50700328249E-02  0.16251411063E-01  0.64473025002E-01  0.51100000000E-03 0.  1.
</event>
<event>
 7    1  0.1132492E+005  0.1043930E+01  0.7957747E-01            NaN
         13   -1    0    0    0    0  0.00000000000E+00  0.00000000000E+00  0.74505805969E-08  0.10566000000E+00  0.10566000000E+00 0. -1.
     999900   -1    0    0    0    0 -0.00000000000E+00 -0.00000000000E+00 -0.74505805969E-08  0.93827000000E+00  0.93827000000E+00 0. -1.
     999903    2    1    2    0    0  0.22769323025E-01 -0.50027545084E-01  0.96524780985E-01  0.11397097641E+00  0.25517695454E-01 0.  0.
         14    1    1    2    0    0 -0.19384860938E-01 -0.13901885921E-01  0.30302085232E-01  0.38564901597E-01  0.00000000000E+00 0. -1.
     999901    1    1    2    0    0 -0.33844620866E-02  0.63929431005E-01 -0.12682686622E+00  0.89139412199E+00  0.88000000000E+00 0. -1.
        -11    1    3    3    0    0  0.95423044900E-02 -0.97527681002E-02  0.46168519758E-01  0.48145253123E-01  0.51100000000E-03 0.  1.
         11    1    3    3    0    0  0.13227018535E-01 -0.40274776984E-01  0.50356261227E-01  0.65825723286E-01  0.51100000000E-03 0. -1.
</event>
<event>
 8    1  0.1132492E+005  0.1043930E+01  0.7957747E-01            NaN
         13   -1    0    0    0    0  0.00000000000E+00  0.00000000000E+00  0.74505805969E-08  0.10566000000E+00  0.10566000000E+00 0. -1.
     999900   -1    0    0    0    0 -0.00000000000E+00 -0.00000000000E+00 -0.74505805969E-08  0.93827000000E+00  0.93827000000E+00 0. -1.
     999902    2    1    2    0    0  0.38276753375E-03 -0.22197547700E-01 -0.76160592501E-02  0.10204591246E+01  0.10201891702E+01 0.  0.
     999903    2    3    3    0    0  0.91780246783E-01  0.48884221715E-01  0.73959432876E-01  0.12913388759E+00  0.19806119800E-01 0.  0.
         14    1    1    2    0    0 -0.38276753375E-03  0.22197547700E-01  0.76160592501E-02  0.23470875429E-01  0.00000000000E+00 0.  1.
     999901    1    3    3    0    0 -0.91397479250E-01 -0.71081769416E-01 -0.81575492126E-01  0.89132523698E+00  0.88000000000E+00 0. -1.
        -11    1    4    4    0    0  0.63246041789E-01  0.23966151096E-01  0.42425057558E-01  0.79840997177E-01  0.51100000000E-03 0.  1.
         11    1    4    4    0    0  0.28534204994E-01  0.24918070619E-01  0.31534375318E-01  0.49292890417E-01  0.51100000000E-03 0. -1.
</event>
<event>
 8    1  0.1132492E+005  0.1043930E+01  0.7957747E-01            NaN
         13   -1    0    0    0    0  0.00000000000E+00  0.00000000000E+00  0.74505805969E-08  0.10566000000E+00  0.10566000000E+00 0. -1.
     999900   -1    0    0    0    0 -0.00000000000E+00 -0.00000000000E+00 -0.74505805969E-08  0.93827000000E+00  0.93827000000E+00 0. -1.
     999902    2    1    2    0    0 -0.19090380582E-01 -0.95485517918E-02 -0.10520021839E-01  0.10201331865E+01  0.10198555927E+01 0.  0.
     999903    2    3    3    0    0  0.15771859797E-01 -0.39249849159E-01 -0.12319024593E+00  0.13176832777E+00  0.19943753219E-01 0.  0.
         14    1    1    2    0    0  0.19090380582E-01  0.95485517918E-02  0.10520021839E-01  0.23796813476E-01  0.00000000000E+00 0. -1.
     999901    1    3    3    0    0 -0.34862240380E-01  0.29701297367E-01  0.11267022409E+00  0.88836485875E+00  0.88000000000E+00 0.  1.
        -11    1    4    4    0    0  0.62032882098E-02 -0.21093230312E-01 -0.35937021498E-01  0.42132360304E-01  0.51100000000E-03 0. -1.
         11    1    4    4    0    0  0.95685715875E-02 -0.18156618846E-01 -0.87253224427E-01  0.89635967468E-01  0.51100000000E-03 0.  1.
</event>
<event>
 8    1  0.1132492E+005  0.1043930E+01  0.7957747E-01            NaN
         13   -1    0    0    0    0  0.00000000000E+00  0.00000000000E+00  0.74505805969E-08  0.10566000000E+00  0.10566000000E+00 0.  1.
     999900   -1    0    0    0    0 -0.00000000000E+00 -0.00000000000E+00 -0.74505805969E-08  0.93827000000E+00  0.93827000000E+00 0.  1.
     999902    2    1    2    0    0 -0.21575489573E-01  0.16064876379E-02 -0.98452895831E-02  0.10201600130E+01  0.10198830521E+01 0.  0.
     999903    2    3    3    0    0 -0.11486098243E-01 -0.12101553007E+00  0.41884664443E-01  0.13009600232E+00  0.19848318166E-01 0.  0.
         14    1    1    2    0    0  0.21575489573E-01 -0.16064876379E-02  0.98452895831E-02  0.23769986955E-01  0.00000000000E+00 0.  1.
     999901    1    3    3    0    0 -0.10089391330E-01  0.12262201771E+00 -0.51729954026E-01  0.89006401072E+00  0.88000000000E+00 0. -1.
        -11    1    4    4    0    0 -0.59555946684E-02 -0.65752896641E-01  0.12275565544E-01  0.67155514702E-01  0.51100000000E-03 0. -1.
         11    1    4    4    0    0 -0.55305035751E-02 -0.55262633426E-01  0.29609098899E-01  0.62940487618E-01  0.51100000000E-03 0.  1.
</event>
<event>
 8    1  0.1132492E+005  0.1043930E+01  0.7957747E-01            NaN
         13   -1    0    0    0    0  0.00000000000E+00  0.00000000000E+00  0.74505805969E-08  0.10566000000E+00  0.10566000000E+00 0. -1.
     999900   -1    0    0    0    0 -0.00000000000E+00 -0.00000000000E+00 -0.74505805969E-08  0.93827000000E+00  0.93827000000E+00 0.  1.
     999902    2    1    2    0    0 -0.22666382371E-01 -0.12288746031E-02  0.22404578145E-02  0.10211200313E+01  0.10208652328E+01 0.  0.
     999903    2    3    3    0    0  0.67395329684E-01 -0.85173546150E-01 -0.68129578064E-01  0.12976726058E+00  0.20030953136E-01 0.  0.
         14    1    1    2    0    0  0.22666382371E-01  0.12288746031E-02 -0.22404578145E-02  0.22809968737E-01  0.00000000000E+00 0. -1.
     999901    1    3    3    0    0 -0.90061712055E-01  0.83944671547E-01  0.70370035879E-01  0.89135277069E+00  0.88000000000E+00 0. -1.
        -11    1    4    4    0    0  0.30125130514E-01 -0.51164735847E-01 -0.43588635613E-01  0.73658563374E-01  0.51100000000E-03 0.  1.
         11    1    4    4    0    0  0.37270199170E-01 -0.34008810303E-01 -0.24540942451E-01  0.56108697203E-01  0.51100000000E-03 0. -1.
</event>
<event>
 8    1  0.1132492E+005  0.1043930E+01  0.7957747E-01            NaN
         13   -1    0    0    0    0  0.00000000000E+00  0.00000000000E+00  0.74505805969E-08  0.10566000000E+00  0.10566000000E+00 0.  1.
     999900   -1    0    0    0    0 -0.00000000000E+00 -0.00000000000E+00 -0.74505805969E-08  0.93827000000E+00  0.93827000000E+00 0.  1.
     999902    2    1    2    0    0 -0.56524005156E-02 -0.10112042597E-01  0.17683211433E-01  0.10227900141E+01  0.10225715202E+01 0.  0.
     999903    2    3    3    0    0  0.11810531493E+00  0.51708647925E-01 -0.14344234552E-01  0.13140708449E+00  0.20962230403E-01 0.  0.
         14    1    1    2    0    0  0.56524005156E-02  0.10112042597E-01 -0.17683211433E-01  0.21139985895E-01  0.00000000000E+00 0. -1.
     999901    1    3    3    0    0 -0.12375771545E+00 -0.61820690522E-01  0.32027445985E-01  0.89138292961E+00  0.88000000000E+00 0. -1.
        -11    1    4    4    0    0  0.84160559507E-01  0.43162032727E-01 -0.30909279909E-02  0.94634960783E-01  0.51100000000E-03 0. -1.
         11    1    4    4    0    0  0.33944755428E-01  0.85466151976E-02 -0.11253306561E-01  0.36772123708E-01  0.51100000000E-03 0.  1.
</event>
<event>
 8    1  0.1132492E+005  0.1043930E+01  0.7957747E-01            NaN
         13   -1    0    0    0    0  0.00000000000E+00  0.00000000000E+00  0.74505805969E-08  0.10566000000E+00  0.10566000000E+00 0. -1.
     999900   -1    0    0    0    0 -0.00000000000E+00 -0.00000000000E+00 -0.74505805969E-08  0.93827000000E+00  0.93827000000E+00 0. -1.
     999902    2    1    2    0    0 -0.16064007007E-01  0.13670817111E-01  0.11952706011E-01  0.10196851914E+01  0.10193969192E+01 0.  0.
     999903    2    3    3    0    0  0.29418965698E-01 -0.81909087276E-01  0.93862014886E-01  0.12956533781E+00  0.20063020761E-01 0.  0.
         14    1    1    2    0    0  0.16064007007E-01 -0.13670817111E-01 -0.11952706011E-01  0.24244808570E-01  0.00000000000E+00 0. -1.
     999901    1    3    3    0    0 -0.45482972705E-01  0.95579904387E-01 -0.81909308875E-01  0.89011985362E+00  0.88000000000E+00 0. -1.
        -11    1    4    4    0    0  0.89280889198E-02 -0.45567357650E-01  0.59743184349E-01  0.75667721336E-01  0.51100000000E-03 0.  1.
         11    1    4    4    0    0  0.20490876778E-01 -0.36341729626E-01  0.34118830537E-01  0.53897616474E-01  0.51100000000E-03 0. -1.
</event>
<event>
 8    1  0.1132492E+005  0.1043930E+01  0.7957747E-01            NaN
         13   -1    0    0    0    0  0.00000000000E+00  0.00000000000E+00  0.74505805969E-08  0.10566000000E+00  0.10566000000E+00 0. -1.
     999900   -1    0    0    0    0 -0.00000000000E+00 -0.00000000000E+00 -0.74505805969E-08  0.93827000000E+00  0.93827000000E+00 0. -1.
     999902    2    1    2    0    0  0.21307444782E-01 -0.97417830346E-02  0.17701490425E-03  0.10205005127E+01  0.10202315206E+01 0.  0.
     999903    2    3    3    0    0 -0.48575009145E-02  0.12715143919E+00 -0.13197253249E-01  0.12943192405E+00  0.19681759726E-01 0.  0.
         14    1    1    2    0    0 -0.21307444782E-01  0.97417830346E-02 -0.17701490425E-03  0.23429487278E-01  0.00000000000E+00 0.  1.
     999901    1    3    3    0    0  0.26164945697E-01 -0.13689322222E+00  0.13374268154E-01  0.89106858867E+00  0.88000000000E+00 0. -1.
        -11    1    4    4    0    0 -0.92537129773E-02  0.56496093129E-01 -0.12668634019E-01  0.58636124971E-01  0.51100000000E-03 0. -1.
         11    1    4    4    0    0  0.43962120628E-02  0.70655346061E-01 -0.52861923061E-03  0.70795799076E-01  0.51100000000E-03 0.  1.
</event>
<event>
 8    1  0.1261746E+005  0.1043930E+01  0.7957747E-01            NaN
         13   -1    0    0    0    0  0.00000000000E+00  0.00000000000E+00  0.74505805969E-08  0.10566000000E+00  0.10566000000E+00 0.  1.
     999900   -1    0    0    0    0 -0.00000000000E+00 -0.00000000000E+00 -0.74505805969E-08  0.93827000000E+00  0.93827000000E+00 0. -1.
     999902    2    1    2    0    0 -0.21496276620E-01 -0.19470020786E-02 -0.11127492580E-01  0.10196462232E+01  0.10193570123E+01 0.  0.
     999903    2    3    3    0    0  0.30240235587E-01 -0.63773083702E-02  0.12243427355E+00  0.12805492685E+00  0.21278417275E-01 0.  0.
         14    1    1    2    0    0  0.21496276620E-01  0.19470020786E-02  0.11127492580E-01  0.24283776822E-01  0.00000000000E+00 0.  1.
     999901    1    3    3    0    0 -0.51736512207E-01  0.44303062917E-02 -0.13356176613E+00  0.89159129632E+00  0.88000000000E+00 0. -1.
        -11    1    4    4    0    0  0.11737922142E-01 -0.13008045599E-01  0.49278295162E-01  0.52302959396E-01  0.51100000000E-03 0.  1.
         11    1    4    4    0    0  0.18502313445E-01  0.66307372283E-02  0.73155978388E-01  0.75751967459E-01  0.51100000000E-03 0. -1.
</event>
<event>
 8    1  0.1132492E+005  0.1043930E+01  0.7957747E-01            NaN
         13   -1    0    0    0    0  0.00000000000E+00  0.00000000000E+00  0.74505805969E-08  0.10566000000E+00  0.10566000000E+00 0.  1.
     999900   -1    0    0    0    0 -0.00000000000E+00 -0.00000000000E+00 -0.74505805969E-08  0.93827000000E+00  0.93827000000E+00 0.  1.
     999902    2    1    2    0    0 -0.11142327391E-02  0.23646763364E-01 -0.13052364892E-01  0.10168971466E+01  0.10165377670E+01 0.  0.
     999903    2    3    3    0    0  0.80878855586E-02  0.10610934742E+00 -0.73568561919E-01  0.13092481814E+00  0.20108883554E-01 0.  0.
         14    1    1    2    0    0  0.11142327391E-02 -0.23646763364E-01  0.13052364892E-01  0.27032853373E-01  0.00000000000E+00 0. -1.
     999901    1    3    3    0    0 -0.92021182977E-02 -0.82462584058E-01  0.60516197027E-01  0.88597232849E+00  0.88000000000E+00 0. -1.
        -11    1    4    4    0    0 -0.21933854546E-02  0.82634744997E-01 -0.56533968218E-01  0.10014820370E+00  0.51100000000E-03 0.  1.
         11    1    4    4    0    0  0.10281271013E-01  0.23474602425E-01 -0.17034593701E-01  0.30776614437E-01  0.51100000000E-03 0. -1.
</event>
<event>
 8    1  0.1132492E+005  0.1043930E+01  0.7957747E-01            NaN
         13   -1    0    0    0    0  0.00000000000E+00  0.00000000000E+00  0.74505805969E-08  0.10566000000E+00  0.10566000000E+00 0.  1.
     999900   -1    0    0    0    0 -0.00000000000E+00 -0.00000000000E+00 -0.74505805969E-08  0.93827000000E+00  0.93827000000E+00 0.  1.
     999902    2    1    2    0    0  0.20846373810E-01 -0.10714404713E-01 -0.37442037177E-02  0.10201941867E+01  0.10199180309E+01 0.  0.
     999903    2    3    3    0    0  0.10637039490E+00  0.68432579980E-01  0.31923302880E-01  0.13179631732E+00  0.18801411609E-01 0.  0.
         14    1    1    2    0    0 -0.20846373810E-01  0.10714404713E-01  0.37442037177E-02  0.23735813255E-01  0.00000000000E+00 0. -1.
     999901    1    3    3    0    0 -0.85524021092E-01 -0.79146984693E-01 -0.35667506597E-01  0.88839786942E+00  0.88000000000E+00 0.  1.
        -11    1    4    4    0    0  0.98106179333E-01  0.58030491487E-01  0.24570251946E-01  0.11660325367E+00  0.51100000000E-03 0. -1.
         11    1    4    4    0    0  0.82642155688E-02  0.10402088493E-01  0.73530509338E-02  0.15193063648E-01  0.51100000000E-03 0.  1.
</event>
<event>
 8    1  0.1132492E+005  0.1043930E+01  0.7957747E-01            NaN
         13   -1    0    0    0    0  0.00000000000E+00  0.00000000000E+00  0.74505805969E-08  0.10566000000E+00  0.10566000000E+00 0.  1.
     999900   -1    0    0    0    0 -0.00000000000E+00 -0.00000000000E+00 -0.74505805969E-08  0.93827000000E+00  0.93827000000E+00 0.  1.
     999902    2    1    2    0    0  0.11609309102E-01  0.20151534806E-01 -0.75168018969E-03  0.10206614496E+01  0.10203961825E+01 0.  0.
     999903    2    3    3    0    0 -0.41818814676E-01  0.10424716759E+00 -0.67633233939E-01  0.13251743986E+00  0.19244020458E-01 0.  0.
         14    1    1    2    0    0 -0.11609309102E-01 -0.20151534806E-01  0.75168018969E-03  0.23268550362E-01  0.00000000000E+00 0. -1.
     999901    1    3    3    0    0  0.53428123778E-01 -0.84095632786E-01  0.66881553749E-01  0.88814400977E+00  0.88000000000E+00 0. -1.
        -11    1    4    4    0    0 -0.16269380568E-01  0.42660120851E-01 -0.38611343842E-01  0.59796953513E-01  0.51100000000E-03 0.  1.
         11    1    4    4    0    0 -0.25549434108E-01  0.61587046740E-01 -0.29021890097E-01  0.72720486352E-01  0.51100000000E-03 0. -1.
</event>
<event>
 8    1  0.1132492E+005  0.1043930E+01  0.7957747E-01            NaN
         13   -1    0    0    0    0  0.00000000000E+00  0.00000000000E+00  0.74505805969E-08  0.10566000000E+00  0.10566000000E+00 0.  1.
     999900   -1    0    0    0    0 -0.00000000000E+00 -0.00000000000E+00 -0.74505805969E-08  0.93827000000E+00  0.93827000000E+00 0. -1.
     999902    2    1    2    0    0 -0.19226707671E-02 -0.23432090945E-01 -0.42272296167E-02  0.10200421575E+01  0.10197624106E+01 0.  0.
     999903    2    3    3    0    0 -0.70249039098E-01 -0.55973981885E-01  0.93699215491E-01  0.13138189850E+00  0.20338292168E-01 0.  0.
         14    1    1    2    0    0  0.19226707671E-02  0.23432090945E-01  0.42272296167E-02  0.23887842497E-01  0.00000000000E+00 0.  1.
     999901    1    3    3    0    0  0.68326368331E-01  0.32541890941E-01 -0.97926445108E-01  0.88866025900E+00  0.88000000000E+00 0. -1.
        -11    1    4    4    0    0 -0.26533845548E-01 -0.24761818558E-01  0.51828459311E-01  0.63274346567E-01  0.51100000000E-03 0.  1.
         11    1    4    4    0    0 -0.43715193550E-01 -0.31212163328E-01  0.41870756180E-01  0.68107551936E-01  0.51100000000E-03 0. -1.
</event>
<event>
 8    1  0.1132492E+005  0.1043930E+01  0.7957747E-01            NaN
         13   -1    0    0    0    0  0.00000000000E+00  0.00000000000E+00  0.74505805969E-08  0.10566000000E+00  0.10566000000E+00 0.  1.
     999900   -1    0    0    0    0 -0.00000000000E+00 -0.00000000000E+00 -0.74505805969E-08  0.93827000000E+00  0.93827000000E+00 0. -1.
     999902    2    1    2    0    0  0.18757535236E-01  0.15200418098E-01 -0.22465439499E-02  0.10196824270E+01  0.10193940882E+01 0.  0.
     999903    2    3    3    0    0  0.11874752106E+00  0.42111168795E-02 -0.54848633434E-01  0.13239118852E+00  0.20008671702E-01 0.  0.
         14    1    1    2    0    0 -0.18757535236E-01 -0.15200418098E-01  0.22465439499E-02  0.24247573037E-01  0.00000000000E+00 0. -1.
     999901    1    3    3    0    0 -0.99989985827E-01  0.10989301219E-01  0.52602089484E-01  0.88729123845E+00  0.88000000000E+00 0.  1.
        -11    1    4    4    0    0  0.10927344660E-01 -0.52690230236E-02 -0.38254601216E-02  0.12730464685E-01  0.51100000000E-03 0. -1.
         11    1    4    4    0    0  0.10782017640E+00  0.94801399031E-02 -0.51023173312E-01  0.11966072383E+00  0.51100000000E-03 0.  1.
</event>
<event>
 8    1  0.1132492E+005  0.1043930E+01  0.7957747E-01            NaN
         13   -1    0    0    0    0  0.00000000000E+00  0.00000000000E+00  0.74505805969E-08  0.10566000000E+00  0.10566000000E+00 0.  1.
     999900   -1    0    0    0    0 -0.00000000000E+00 -0.00000000000E+00 -0.74505805969E-08  0.93827000000E+00  0.93827000000E+00 0. -1.
     999902    2    1    2    0    0 -0.13086011253E-01 -0.90236559644E-02  0.17151247690E-01  0.10205454890E+01  0.10202775406E+01 0.  0.
     999903    2    3    3    0    0 -0.91610062524E-02  0.91157030305E-02 -0.12642741441E+00  0.12871631577E+00  0.20420057645E-01 0.  0.
         14    1    1    2    0    0  0.13086011253E-01  0.90236559644E-02 -0.17151247690E-01  0.23384511002E-01  0.00000000000E+00 0. -1.
     999901    1    3    3    0    0 -0.39250050002E-02 -0.18139358995E-01  0.14357866210E+00  0.89182917323E+00  0.88000000000E+00 0.  1.
        -11    1    4    4    0    0 -0.20244547910E-02  0.11031163496E-01 -0.30454511299E-01  0.32458024658E-01  0.51100000000E-03 0. -1.
         11    1    4    4    0    0 -0.71365514614E-02 -0.19154604651E-02 -0.95972903110E-01  0.96258291113E-01  0.51100000000E-03 0.  1.
</event>
<event>
 8    1  0.1132492E+005  0.1043930E+01  0.7957747E-01            NaN
         13   -1    0    0    0    0  0.00000000000E+00  0.00000000000E+00  0.74505805969E-08  0.10566000000E+00  0.10566000000E+00 0.  1.
     999900   -1    0    0    0    0 -0.00000000000E+00 -0.00000000000E+00 -0.74505805969E-08  0.93827000000E+00  0.93827000000E+00 0.  1.
     999902    2    1    2    0    0  0.35300212563E-03 -0.98900907634E-02  0.21143989057E-01  0.10205846197E+01  0.10203175777E+01 0.  0.
     999903    2    3    3    0    0 -0.10553923059E+00  0.72040143107E-01 -0.11796790926E-01  0.12984850666E+00  0.19828237292E-01 0.  0.
         14    1    1    2    0    0 -0.35300212563E-03  0.98900907634E-02 -0.21143989057E-01  0.23345380251E-01  0.00000000000E+00 0. -1.
     999901    1    3    3    0    0  0.10589223271E+00 -0.81930233871E-01  0.32940779983E-01  0.89073611309E+00  0.88000000000E+00 0.  1.
        -11    1    4    4    0    0 -0.25856305788E-01  0.14088434631E-01  0.50783831244E-02  0.29884504940E-01  0.51100000000E-03 0.  1.
         11    1    4    4    0    0 -0.79682924801E-01  0.57951708476E-01 -0.16875174050E-01  0.99964001722E-01  0.51100000000E-03 0. -1.
</event>
<event>
 8    1  0.1132492E+005  0.1043930E+01  0.7957747E-01            NaN
         13   -1    0    0    0    0  0.00000000000E+00  0.00000000000E+00  0.74505805969E-08  0.10566000000E+00  0.10566000000E+00 0.  1.
     999900   -1    0    0    0    0 -0.00000000000E+00 -0.00000000000E+00 -0.74505805969E-08  0.93827000000E+00  0.93827000000E+00 0.  1.
     999902    2    1    2    0    0  0.24841373275E-02  0.10798078050E-01  0.20021558210E-01  0.10210469884E+01  0.10207905369E+01 0.  0.
     999903    2    3    3    0    0  0.48656897412E-01  0.12184338807E+00  0.66460501569E-02  0.13276668978E+00  0.19222878322E-01 0.  0.
         14    1    1    2    0    0 -0.24841373275E-02 -0.10798078050E-01 -0.20021558210E-01  0.22883011624E-01  0.00000000000E+00 0. -1.
     999901    1    3    3    0    0 -0.46172760084E-01 -0.11104531002E+00  0.13375508053E-01  0.88828029859E+00  0.88000000000E+00 0. -1.
        -11    1    4    4    0    0  0.24575782397E-01  0.66395323961E-01  0.12989057344E-01  0.71981142364E-01  0.51100000000E-03 0. -1.
         11    1    4    4    0    0  0.24081115015E-01  0.55448064110E-01 -0.63430071875E-02  0.60785547419E-01  0.51100000000E-03 0.  1.
</event>
<event>
 8    1  0.1132492E+005  0.1043930E+01  0.7957747E-01            NaN
         13   -1    0    0    0    0  0.00000000000E+00  0.00000000000E+00  0.74505805969E-08  0.10566000000E+00  0.10566000000E+00 0. -1.
     999900   -1    0    0    0    0 -0.00000000000E+00 -0.00000000000E+00 -0.74505805969E-08  0.93827000000E+00  0.93827000000E+00 0. -1.
     999902    2    1    2    0    0  0.21959710211E-01 -0.97281509551E-02 -0.14318515668E-02  0.10198693268E+01  0.10195854686E+01 0.  0.
     999903    2    3    3    0    0 -0.91621819137E-02  0.87841225269E-01  0.91517306383E-01  0.12906749630E+00  0.21976687634E-01 0.  0.
         14    1    1    2    0    0 -0.21959710211E-01  0.97281509551E-02  0.14318515668E-02  0.24060673151E-01  0.00000000000E+00 0. -1.
     999901    1    3    3    0    0  0.31121892125E-01 -0.97569376224E-01 -0.92949157950E-01  0.89080183055E+00  0.88000000000E+00 0. -1.
        -11    1    4    4    0    0 -0.12907128880E-01  0.25945445554E-01  0.28000448993E-01  0.40299458876E-01  0.51100000000E-03 0. -1.
         11    1    4    4    0    0  0.37449469666E-02  0.61895779715E-01  0.63516857390E-01  0.88768037424E-01  0.51100000000E-03 0.  1.
</event>
<event>
 8    1  0.1132492E+005  0.1043930E+01  0.7957747E-01            NaN
         13   -1    0    0    0    0  0.00000000000E+00  0.00000000000E+00  0.74505805969E-08  0.10566000000E+00  0.10566000000E+00 0. -1.
     999900   -1    0    0    0    0 -0.00000000000E+00 -0.00000000000E+00 -0.74505805969E-08  0.93827000000E+00  0.93827000000E+00 0. -1.
     999902    2    1    2    0    0  0.10127838235E-01 -0.19451487095E-01 -0.10562752365E-01  0.10195885704E+01  0.10192979681E+01 0.  0.
     999903    2    3    3    0    0 -0.95915570042E-01  0.27646226871E-01  0.76993627020E-01  0.12766395549E+00  0.20148362070E-01 0.  0.
         14    1    1    2    0    0 -0.10127838235E-01  0.19451487095E-01  0.10562752365E-01  0.24341429602E-01  0.00000000000E+00 0. -1.
     999901    1    3    3    0    0  0.10604340828E+00 -0.47097713966E-01 -0.87556379386E-01  0.89192461490E+00  0.88000000000E+00 0. -1.
        -11    1    4    4    0    0 -0.83803036841E-01  0.19077839900E-01  0.58590357508E-01  0.10401924857E+00  0.51100000000E-03 0. -1.
         11    1    4    4    0    0 -0.12112533201E-01  0.85683869709E-02  0.18403269513E-01  0.23644706925E-01  0.51100000000E-03 0.  1.
</event>
<event>
 8    1  0.1132492E+005  0.1043930E+01  0.7957747E-01            NaN
         13   -1    0    0    0    0  0.00000000000E+00  0.00000000000E+00  0.74505805969E-08  0.10566000000E+00  0.10566000000E+00 0.  1.
     999900   -1    0    0    0    0 -0.00000000000E+00 -0.00000000000E+00 -0.74505805969E-08  0.93827000000E+00  0.93827000000E+00 0. -1.
     999902    2    1    2    0    0  0.16802681869E-01  0.84784552819E-02 -0.13902192016E-01  0.10205315970E+01  0.10202633264E+01 0.  0.
     999903    2    3    3    0    0 -0.96340400282E-01 -0.77254223487E-01  0.28713488756E-01  0.12813732003E+00  0.18574729488E-01 0.  0.
         14    1    1    2    0    0 -0.16802681869E-01 -0.84784552819E-02  0.13902192016E-01  0.23398403039E-01  0.00000000000E+00 0.  1.
     999901    1    3    3    0    0  0.11314308215E+00  0.85732678768E-01 -0.42615680772E-01  0.89239427693E+00  0.88000000000E+00 0.  1.
        -11    1    4    4    0    0 -0.47149295104E-01 -0.26067195144E-01  0.13063952703E-01  0.55438999565E-01  0.51100000000E-03 0.  1.
         11    1    4    4    0    0 -0.49191105177E-01 -0.51187028343E-01  0.15649536053E-01  0.72698320468E-01  0.51100000000E-03 0. -1.
</event>
<event>
 8    1  0.1132492E+005  0.1043930E+01  0.7957747E-01            NaN
         13   -1    0    0    0    0  0.00000000000E+00  0.00000000000E+00  0.74505805969E-08  0.10566000000E+00  0.10566000000E+00 0. -1.
     999900   -1    0    0    0    0 -0.00000000000E+00 -0.00000000000E+00 -0.74505805969E-08  0.93827000000E+00  0.93827000000E+00 0. -1.
     999902    2    1    2    0    0  0.11820686657E-01  0.20305067817E-01 -0.58613332166E-02  0.10197147230E+01  0.10194271611E+01 0.  0.
     999903    2    3    3    0    0 -0.11327377300E+00  0.17551689615E-01 -0.56558903820E-01  0.12941901451E+00  0.20282067381E-01 0.  0.
         14    1    1    2    0    0 -0.11820686657E-01 -0.20305067817E-01  0.58613332166E-02  0.24215276979E-01  0.00000000000E+00 0.  1.
     999901    1    3    3    0    0  0.12509445966E+00  0.27533782015E-02  0.50697570604E-01  0.89029570851E+00  0.88000000000E+00 0.  1.
        -11    1    4    4    0    0 -0.66039821650E-01  0.11864403771E-01 -0.43906097953E-01  0.80187459611E-01  0.51100000000E-03 0.  1.
         11    1    4    4    0    0 -0.47233951350E-01  0.56872858445E-02 -0.12652805867E-01  0.49231554899E-01  0.51100000000E-03 0. -1.
</event>
<event>
 8    1  0.1132492E+005  0.1043930E+01  0.7957747E-01            NaN
         13   -1    0    0    0    0  0.00000000000E+00  0.00000000000E+00  0.74505805969E-08  0.10566000000E+00  0.10566000000E+00 0. -1.
     999900   -1    0    0    0    0 -0.00000000000E+00 -0.00000000000E+00 -0.74505805969E-08  0.93827000000E+00  0.93827000000E+00 0.  1.
     999902    2    1    2    0    0 -0.20113080774E-01  0.74100733045E-02  0.11186879627E-01  0.10197516733E+01  0.10194649988E+01 0.  0.
     999903    2    3    3    0    0  0.71800638910E-01  0.69058119946E-01 -0.78414740677E-01  0.12830506030E+00  0.19722100951E-01 0.  0.
         14    1    1    2    0    0  0.20113080774E-01 -0.74100733045E-02 -0.11186879627E-01  0.24178326666E-01  0.00000000000E+00 0.  1.
     999901    1    3    3    0    0 -0.91913719684E-01 -0.61648046641E-01  0.89601620304E-01  0.89144661303E+00  0.88000000000E+00 0. -1.
        -11    1    4    4    0    0  0.67587490665E-01  0.62060646294E-01 -0.64496513998E-01  0.11215905738E+00  0.51100000000E-03 0. -1.
         11    1    4    4    0    0  0.42131482447E-02  0.69974736518E-02 -0.13918226678E-01  0.16146002927E-01  0.51100000000E-03 0.  1.
</event>
<event>
 8    1  0.1132492E+005  0.1043930E+01  0.7957747E-01            NaN
         13   -1    0    0    0    0  0.00000000000E+00  0.00000000000E+00  0.74505805969E-08  0.10566000000E+00  0.10566000000E+00 0. -1.
     999900   -1    0    0    0    0 -0.00000000000E+00 -0.00000000000E+00 -0.74505805969E-08  0.93827000000E+00  0.93827000000E+00 0. -1.
     999902    2    1    2    0    0  0.72147310475E-02 -0.46716547223E-02  0.23640621775E-01  0.10187753642E+01  0.10184647697E+01 0.  0.
     999903    2    3    3    0    0 -0.17945728602E-01  0.12283700152E+00  0.30016983941E-01  0.12920683730E+00  0.19555289861E-01 0.  0.
         14    1    1    2    0    0 -0.72147310475E-02  0.46716547223E-02 -0.23640621775E-01  0.25154635752E-01  0.00000000000E+00 0.  1.
     999901    1    3    3    0    0  0.25160459649E-01 -0.12750865624E+00 -0.63763621662E-02  0.88956852695E+00  0.88000000000E+00 0.  1.
        -11    1    4    4    0    0 -0.39751943244E-03  0.69790229979E-01  0.16289422165E-01  0.71668965513E-01  0.51100000000E-03 0.  1.
         11    1    4    4    0    0 -0.17548209169E-01  0.53046771542E-01  0.13727561776E-01  0.57537871784E-01  0.51100000000E-03 0. -1.
</event>
<event>
 8    1  0.1132492E+005  0.1043930E+01  0.7957747E-01            NaN
         13   -1    0    0    0    0  0.00000000000E+00  0.00000000000E+00  0.74505805969E-08  0.10566000000E+00  0.10566000000E+00 0.  1.
     999900   -1    0    0    0    0 -0.00000000000E+00 -0.00000000000E+00 -0.74505805969E-08  0.93827000000E+00  0.93827000000E+00 0. -1.
     999902    2    1    2    0    0 -0.17093937535E-01  0.11328218318E-01 -0.45992764370E-02  0.10229137069E+01  0.10226977888E+01 0.  0.
     999903    2    3    3    0    0 -0.29068936980E-01 -0.11626558683E+00 -0.54617278683E-01  0.13222555708E+00  0.11741423974E-01 0.  0.
         14    1    1    2    0    0  0.17093937535E-01 -0.11328218318E-01  0.45992764370E-02  0.21016293071E-01  0.00000000000E+00 0. -1.
     999901    1    3    3    0    0  0.11974999445E-01  0.12759380515E+00  0.50018002246E-01  0.89068814984E+00  0.88000000000E+00 0. -1.
        -11    1    4    4    0    0 -0.17578208286E-01 -0.46730717659E-01 -0.23417229242E-01  0.55148718261E-01  0.51100000000E-03 0.  1.
         11    1    4    4    0    0 -0.11490728694E-01 -0.69534869174E-01 -0.31200049441E-01  0.77076838824E-01  0.51100000000E-03 0. -1.
</event>
<event>
 8    1  0.1132492E+005  0.1043930E+01  0.7957747E-01            NaN
         13   -1    0    0    0    0  0.00000000000E+00  0.00000000000E+00  0.74505805969E-08  0.10566000000E+00  0.10566000000E+00 0. -1.
     999900   -1    0    0    0    0 -0.00000000000E+00 -0.00000000000E+00 -0.74505805969E-08  0.93827000000E+00  0.93827000000E+00 0.  1.
     999902    2    1    2    0    0 -0.11624526136E-01 -0.13082711715E-01  0.14209581670E-01  0.10213867268E+01  0.10211379175E+01 0.  0.
     999903    2    3    3    0    0  0.29842169645E-01  0.11765857857E+00  0.43150879799E-01  0.13029168669E+00  0.19489201942E-01 0.  0.
         14    1    1    2    0    0  0.11624526136E-01  0.13082711715E-01 -0.14209581670E-01  0.22543273164E-01  0.00000000000E+00 0. -1.
     999901    1    3    3    0    0 -0.41466695781E-01 -0.13074129028E+00 -0.28941298129E-01  0.89109504015E+00  0.88000000000E+00 0.  1.
        -11    1    4    4    0    0  0.21497956066E-01  0.47492905405E-01  0.15229522207E-01  0.54313328442E-01  0.51100000000E-03 0. -1.
         11    1    4    4    0    0  0.83442135793E-02  0.70165673163E-01  0.27921357592E-01  0.75978358244E-01  0.51100000000E-03 0.  1.
</event>
<event>
 8    1  0.1132492E+005  0.1043930E+01  0.7957747E-01            NaN
         13   -1    0    0    0    0  0.00000000000E+00  0.00000000000E+00  0.74505805969E-08  0.10566000000E+00  0.10566000000E+00 0. -1.
     999900   -1    0    0    0    0 -0.00000000000E+00 -0.00000000000E+00 -0.74505805969E-08  0.93827000000E+00  0.93827000000E+00 0. -1.
     999902    2    1    2    0    0  0.50399235657E-02 -0.71314290600E-02  0.86590344896E-02  0.10316321551E+01  0.10315588527E+01 0.  0.
     999903    2    3    3    0    0  0.43843212714E-01 -0.84593551513E-01  0.10360891896E+00  0.14229444862E+00  0.20847200327E-01 0.  0.
         14    1    1    2    0    0 -0.50399235657E-02  0.71314290600E-02 -0.86590344896E-02  0.12297844863E-01  0.00000000000E+00 0.  1.
     999901    1    3    3    0    0 -0.38803289148E-01  0.77462122453E-01 -0.94949884475E-01  0.88933770651E+00  0.88000000000E+00 0. -1.
        -11    1    4    4    0    0  0.25481815579E-01 -0.28804012294E-01  0.46856547376E-01  0.60620056107E-01  0.51100000000E-03 0. -1.
         11    1    4    4    0    0  0.18361397135E-01 -0.55789539220E-01  0.56752371589E-01  0.81674392517E-01  0.51100000000E-03 0.  1.
</event>
<event>
 8    1  0.1132492E+005  0.1043930E+01  0.7957747E-01            NaN
         13   -1    0    0    0    0  0.00000000000E+00  0.00000000000E+00  0.74505805969E-08  0.10566000000E+00  0.10566000000E+00 0.  1.
     999900   -1    0    0    0    0 -0.00000000000E+00 -0.00000000000E+00 -0.74505805969E-08  0.93827000000E+00  0.93827000000E+00 0.  1.
     999902    2    1    2    0    0  0.52165620157E-02 -0.21904690823E-01  0.69399232125E-02  0.10203675185E+01  0.10200954280E+01 0.  0.
     999903    2    3    3    0    0 -0.12568022071E+00 -0.12585982585E-01  0.25742877824E-01  0.13043810719E+00  0.19936880719E-01 0.  0.
         14    1    1    2    0    0 -0.52165620157E-02  0.21904690823E-01 -0.69399232125E-02  0.23562481481E-01  0.00000000000E+00 0. -1.
     999901    1    3    3    0    0  0.13089678273E+00 -0.93187082385E-02 -0.18802954612E-01  0.88992941133E+00  0.88000000000E+00 0.  1.
        -11    1    4    4    0    0 -0.10803241072E+00 -0.13928080711E-01  0.15618509291E-01  0.11004177458E+00  0.51100000000E-03 0. -1.
         11    1    4    4    0    0 -0.17647809987E-01  0.13420981261E-02  0.10124368534E-01  0.20396332610E-01  0.51100000000E-03 0.  1.
</event>
<event>
 8    1  0.1132492E+005  0.1043930E+01  0.7957747E-01            NaN
         13   -1    0    0    0    0  0.00000000000E+00  0.00000000000E+00  0.74505805969E-08  0.10566000000E+00  0.10566000000E+00 0.  1.
     999900   -1    0    0    0    0 -0.00000000000E+00 -0.00000000000E+00 -0.74505805969E-08  0.93827000000E+00  0.93827000000E+00 0. -1.
     999902    2    1    2    0    0 -0.10364789747E-02 -0.23129677437E-01  0.59259183632E-02  0.10200307788E+01  0.10197507621E+01 0.  0.
     999903    2    3    3    0    0  0.80998353926E-01  0.39956066765E-01 -0.89665783453E-01  0.12882524782E+00  0.19969254987E-01 0.  0.
         14    1    1    2    0    0  0.10364789747E-02  0.23129677437E-01 -0.59259183632E-02  0.23899221231E-01  0.00000000000E+00 0.  1.
     999901    1    3    3    0    0 -0.82034832900E-01 -0.63085744202E-01  0.95591701816E-01  0.89120553094E+00  0.88000000000E+00 0.  1.
        -11    1    4    4    0    0  0.57586665416E-01  0.20803479572E-01 -0.68650737885E-01  0.91990182787E-01  0.51100000000E-03 0. -1.
         11    1    4    4    0    0  0.23411688510E-01  0.19152587194E-01 -0.21015045568E-01  0.36835065038E-01  0.51100000000E-03 0.  1.
</event>
<event>
 8    1  0.1132492E+005  0.1043930E+01  0.7957747E-01            NaN
         13   -1    0    0    0    0  0.00000000000E+00  0.00000000000E+00  0.74505805969E-08  0.10566000000E+00  0.10566000000E+00 0.  1.
     999900   -1    0    0    0    0 -0.00000000000E+00 -0.00000000000E+00 -0.74505805969E-08  0.93827000000E+00  0.93827000000E+00 0.  1.
     999902    2    1    2    0    0 -0.38537994265E-02  0.15342199673E-01 -0.17042883348E-01  0.10206771564E+01  0.10204122515E+01 0.  0.
     999903    2    3    3    0    0 -0.96281599430E-01  0.72035245766E-02 -0.88800662915E-01  0.13289434788E+00  0.21291143911E-01 0.  0.
         14    1    1    2    0    0  0.38537994265E-02 -0.15342199673E-01  0.17042883348E-01  0.23252843560E-01  0.00000000000E+00 0.  1.
     999901    1    3    3    0    0  0.92427800004E-01  0.81386750963E-02  0.71757779567E-01  0.88778280856E+00  0.88000000000E+00 0. -1.
        -11    1    4    4    0    0 -0.38984462991E-01  0.13369942963E-01 -0.35601245739E-01  0.54463322968E-01  0.51100000000E-03 0.  1.
         11    1    4    4    0    0 -0.57297136439E-01 -0.61664183864E-02 -0.53199417176E-01  0.78431024912E-01  0.51100000000E-03 0. -1.
</event>
<event>
 8    1  0.1132492E+005  0.1043930E+01  0.7957747E-01            NaN
         13   -1    0    0    0    0  0.00000000000E+00  0.00000000000E+00  0.74505805969E-08  0.10566000000E+00  0.10566000000E+00 0. -1.
     999900   -1    0    0    0    0 -0.00000000000E+00 -0.00000000000E+00 -0.74505805969E-08  0.93827000000E+00  0.93827000000E+00 0. -1.
     999902    2    1    2    0    0 -0.15420469442E-01  0.53018496980E-02 -0.17816880447E-01  0.10197775319E+01  0.10194914775E+01 0.  0.
     999903    2    3    3    0    0  0.55397340749E-01  0.50158745693E-01  0.10170965269E+00  0.12774956399E+00  0.19756834679E-01 0.  0.
         14    1    1    2    0    0  0.15420469442E-01 -0.53018496980E-02  0.17816880447E-01  0.24152468132E-01  0.00000000000E+00 0.  1.
     999901    1    3    3    0    0 -0.70817810191E-01 -0.44856895995E-01 -0.11952653314E+00  0.89202796788E+00  0.88000000000E+00 0. -1.
        -11    1    4    4    0    0  0.96993293070E-02  0.17546383769E-01  0.36943661079E-01  0.42036267523E-01  0.51100000000E-03 0. -1.
         11    1    4    4    0    0  0.45698011442E-01  0.32612361924E-01  0.64765991612E-01  0.85713296463E-01  0.51100000000E-03 0.  1.
</event>
<event>
 8    1  0.1132492E+005  0.1043930E+01  0.7957747E-01            NaN
         13   -1    0    0    0    0  0.00000000000E+00  0.00000000000E+00  0.74505805969E-08  0.10566000000E+00  0.10566000000E+00 0. -1.
     999900   -1    0    0    0    0 -0.00000000000E+00 -0.00000000000E+00 -0.74505805969E-08  0.93827000000E+00  0.93827000000E+00 0.  1.
     999902    2    1    2    0    0  0.18478705200E-01  0.78376415385E-02 -0.11596362276E-01  0.10207488268E+01  0.10204855710E+01 0.  0.
     999903    2    3    3    0    0 -0.10863762734E+00  0.67378764477E-01 -0.86596137173E-02  0.12961902047E+00  0.19597693272E-01 0.  0.
         14    1    1    2    0    0 -0.18478705200E-01 -0.78376415385E-02  0.11596362276E-01  0.23181173154E-01  0.00000000000E+00 0. -1.
     999901    1    3    3    0    0  0.12711633254E+00 -0.59541122938E-01 -0.29367485584E-02  0.89112980638E+00  0.88000000000E+00 0.  1.
        -11    1    4    4    0    0 -0.12799828869E-01  0.15769851827E-01 -0.37255510083E-02  0.20655863502E-01  0.51100000000E-03 0. -1.
         11    1    4    4    0    0 -0.95837798471E-01  0.51608912650E-01 -0.49340627091E-02  0.10896315697E+00  0.51100000000E-03 0.  1.
</event>
<event>
 8    1  0.1132492E+005  0.1043930E+01  0.7957747E-01            NaN
         13   -1    0    0    0    0  0.00000000000E+00  0.00000000000E+00  0.74505805969E-08  0.10566000000E+00  0.10566000000E+00 0. -1.
     999900   -1    0    0    0    0 -0.00000000000E+00 -0.00000000000E+00 -0.74505805969E-08  0.93827000000E+00  0.93827000000E+00 0. -1.
     999902    2    1    2    0    0 -0.23778587260E-01 -0.28968377280E-02 -0.95216879463E-03  0.10199566918E+01  0.10196749157E+01 0.  0.
     999903    2    3    3    0    0 -0.63986408486E-01  0.54466054236E-01 -0.99025726544E-01  0.13174185686E+00  0.22113588516E-01 0.  0.
         14    1    1    2    0    0  0.23778587260E-01  0.28968377280E-02  0.95216879463E-03  0.23973308206E-01  0.00000000000E+00 0.  1.
     999901    1    3    3    0    0  0.40207821226E-01 -0.57362891965E-01  0.98073557749E-01  0.88821483493E+00  0.88000000000E+00 0.  1.
        -11    1    4    4    0    0 -0.49805283635E-01  0.36729308874E-01 -0.57838720303E-01  0.84706476114E-01  0.51100000000E-03 0.  1.
         11    1    4    4    0    0 -0.14181124851E-01  0.17736745362E-01 -0.41187006241E-01  0.47035380749E-01  0.51100000000E-03 0. -1.
</event>
<event>
 8    1  0.1132492E+005  0.1043930E+01  0.7957747E-01            NaN
         13   -1    0    0    0    0  0.00000000000E+00  0.00000000000E+00  0.74505805969E-08  0.10566000000E+00  0.10566000000E+00 0. -1.
     999900   -1    0    0    0    0 -0.00000000000E+00 -0.00000000000E+00 -0.74505805969E-08  0.93827000000E+00  0.93827000000E+00 0.  1.
     999902    2    1    2    0    0  0.58617538193E-02  0.16609987560E-01  0.14925572661E-01  0.10208426753E+01  0.10205815710E+01 0.  0.
     999903    2    3    3    0    0 -0.56608734137E-01  0.47645680483E-01  0.10883133115E+00  0.13310168399E+00  0.19928371535E-01 0.  0.
         14    1    1    2    0    0 -0.58617538193E-02 -0.16609987560E-01 -0.14925572661E-01  0.23087324744E-01  0.00000000000E+00 0. -1.
     999901    1    3    3    0    0  0.62470487956E-01 -0.31035692923E-01 -0.93905758486E-01  0.88774099127E+00  0.88000000000E+00 0.  1.
        -11    1    4    4    0    0 -0.50896102195E-01  0.33194927494E-01  0.91252786143E-01  0.10963415768E+00  0.51100000000E-03 0. -1.
         11    1    4    4    0    0 -0.57126319414E-02  0.14450752989E-01  0.17578545004E-01  0.23467526310E-01  0.51100000000E-03 0.  1.
</event>
<event>
 8    1  0.1132492E+005  0.1043930E+01  0.7957747E-01            NaN
         13   -1    0    0    0    0  0.00000000000E+00  0.00000000000E+00  0.74505805969E-08  0.10566000000E+00  0.10566000000E+00 0.  1.
     999900   -1    0    0    0    0 -0.00000000000E+00 -0.00000000000E+00 -0.74505805969E-08  0.93827000000E+00  0.93827000000E+00 0. -1.
     999902    2    1    2    0    0  0.25848632642E-02  0.13930123339E-01  0.19785430730E-01  0.10195949815E+01  0.10193045341E+01 0.  0.
     999903    2    3    3    0    0  0.75926314277E-01  0.74453676544E-01 -0.71640507932E-01  0.12976310349E+00  0.19948571384E-01 0.  0.
         14    1    1    2    0    0 -0.25848632642E-02 -0.13930123339E-01 -0.19785430730E-01  0.24335018461E-01  0.00000000000E+00 0. -1.
     999901    1    3    3    0    0 -0.73341451013E-01 -0.60523553205E-01  0.91425938662E-01  0.88983187805E+00  0.88000000000E+00 0.  1.
        -11    1    4    4    0    0  0.54318334260E-01  0.56510714510E-01 -0.62404744445E-01  0.10019259225E+00  0.51100000000E-03 0.  1.
         11    1    4    4    0    0  0.21607980017E-01  0.17942962035E-01 -0.92357634874E-02  0.29570511243E-01  0.51100000000E-03 0. -1.
</event>
<event>
 8    1  0.1132492E+005  0.1043930E+01  0.7957747E-01            NaN
         13   -1    0    0    0    0  0.00000000000E+00  0.00000000000E+00  0.74505805969E-08  0.10566000000E+00  0.10566000000E+00 0. -1.
     999900   -1    0    0    0    0 -0.00000000000E+00 -0.00000000000E+00 -0.74505805969E-08  0.93827000000E+00  0.93827000000E+00 0.  1.
     999902    2    1    2    0    0  0.46259219383E-02 -0.23385521549E-01 -0.29426651561E-02  0.10199104028E+01  0.10196275245E+01 0.  0.
     999903    2    3    3    0    0  0.86923104703E-01  0.18942563935E-01 -0.93244204708E-01  0.13046177518E+00  0.20281671820E-01 0.  0.
         14    1    1    2    0    0 -0.46259219383E-02  0.23385521549E-01  0.29426651561E-02  0.24019597210E-01  0.00000000000E+00 0. -1.
     999901    1    3    3    0    0 -0.82297182765E-01 -0.42328085484E-01  0.90301539552E-01  0.88944862761E+00  0.88000000000E+00 0. -1.
        -11    1    4    4    0    0  0.43087865316E-01 -0.81937179365E-03 -0.46446176338E-01  0.63362006953E-01  0.51100000000E-03 0.  1.
         11    1    4    4    0    0  0.43835239388E-01  0.19761935728E-01 -0.46798028369E-01  0.67099768227E-01  0.51100000000E-03 0. -1.
</event>
<event>
 8    1  0.1132492E+005  0.1043930E+01  0.7957747E-01            NaN
         13   -1    0    0    0    0  0.00000000000E+00  0.00000000000E+00  0.74505805969E-08  0.10566000000E+00  0.10566000000E+00 0.  1.
     999900   -1    0    0    0    0 -0.00000000000E+00 -0.00000000000E+00 -0.74505805969E-08  0.93827000000E+00  0.93827000000E+00 0. -1.
     999902    2    1    2    0    0  0.67324644399E-02 -0.12401430147E-01  0.57407881526E-02  0.10286958871E+01  0.10285830788E+01 0.  0.
     999903    2    3    3    0    0  0.50509514163E-01  0.12137504591E+00  0.33725328175E-01  0.13707056775E+00  0.19178894473E-01 0.  0.
         14    1    1    2    0    0 -0.67324644399E-02  0.12401430147E-01 -0.57407881526E-02  0.15234112896E-01  0.00000000000E+00 0.  1.
     999901    1    3    3    0    0 -0.43777049723E-01 -0.13377647606E+00 -0.27984540023E-01  0.89162531935E+00  0.88000000000E+00 0.  1.
        -11    1    4    4    0    0  0.39960100169E-01  0.10857574997E+00  0.25180080472E-01  0.11840523916E+00  0.51100000000E-03 0.  1.
         11    1    4    4    0    0  0.10549413993E-01  0.12799295937E-01  0.85452477029E-02  0.18665328590E-01  0.51100000000E-03 0. -1.
</event>
<event>
 8    1  0.1132492E+005  0.1043930E+01  0.7957747E-01            NaN
         13   -1    0    0    0    0  0.00000000000E+00  0.00000000000E+00  0.74505805969E-08  0.10566000000E+00  0.10566000000E+00 0.  1.
     999900   -1    0    0    0    0 -0.00000000000E+00 -0.00000000000E+00 -0.74505805969E-08  0.93827000000E+00  0.93827000000E+00 0. -1.
     999902    2    1    2    0    0  0.49957814682E-02 -0.91391170751E-04 -0.23971899527E-01  0.10194428983E+01  0.10191487647E+01 0.  0.
     999903    2    3    3    0    0  0.58887975393E-01 -0.87504326463E-01  0.70400566123E-01  0.12845942361E+00  0.20512996077E-01 0.  0.
         14    1    1    2    0    0 -0.49957814682E-02  0.91391170751E-04  0.23971899527E-01  0.24487101743E-01  0.00000000000E+00 0.  1.
     999901    1    3    3    0    0 -0.53892193924E-01  0.87412935292E-01 -0.94372465650E-01  0.89098347465E+00  0.88000000000E+00 0.  1.
        -11    1    4    4    0    0  0.41059335601E-01 -0.67257939472E-01  0.42042662495E-01  0.89315989905E-01  0.51100000000E-03 0. -1.
         11    1    4    4    0    0  0.17828639792E-01 -0.20246386990E-01  0.28357903628E-01  0.39143433704E-01  0.51100000000E-03 0.  1.
</event>
<event>
 8    1  0.1132492E+005  0.1043930E+01  0.7957747E-01            NaN
         13   -1    0    0    0    0  0.00000000000E+00  0.00000000000E+00  0.74505805969E-08  0.10566000000E+00  0.10566000000E+00 0. -1.
     999900   -1    0    0    0    0 -0.00000000000E+00 -0.00000000000E+00 -0.74505805969E-08  0.93827000000E+00  0.93827000000E+00 0. -1.
     999902    2    1    2    0    0 -0.66523735977E-02  0.69025424471E-03  0.24262744135E-01  0.10187623367E+01  0.10184514163E+01 0.  0.
     999903    2    3    3    0    0  0.75106595872E-01 -0.93156398032E-01 -0.39680160305E-01  0.12770654813E+00  0.20379697632E-01 0.  0.
         14    1    1    2    0    0  0.66523735977E-02 -0.69025424471E-03 -0.24262744135E-01  0.25167663347E-01  0.00000000000E+00 0.  1.
     999901    1    3    3    0    0 -0.81758969470E-01  0.93846652277E-01  0.63942904440E-01  0.89105578852E+00  0.88000000000E+00 0.  1.
        -11    1    4    4    0    0  0.43635420012E-01 -0.60863493363E-01 -0.15280704070E-01  0.76434126815E-01  0.51100000000E-03 0.  1.
         11    1    4    4    0    0  0.31471175859E-01 -0.32292904669E-01 -0.24399456235E-01  0.51272421315E-01  0.51100000000E-03 0. -1.
</event>
<event>
 8    1  0.1132492E+005  0.1043930E+01  0.7957747E-01            NaN
         13   -1    0    0    0    0  0.00000000000E+00  0.00000000000E+00  0.74505805969E-08  0.10566000000E+00  0.10566000000E+00 0.  1.
     999900   -1    0    0    0    0 -0.00000000000E+00 -0.00000000000E+00 -0.74505805969E-08  0.93827000000E+00  0.93827000000E+00 0.  1.
     999902    2    1    2    0    0  0.77708440743E-02 -0.51314169823E-02  0.21867121022E-01  0.10201626182E+01  0.10198857186E+01 0.  0.
     999903    2    3    3    0    0 -0.86267833403E-01 -0.45758478364E-01  0.86408135394E-01  0.13187247777E+00  0.19697896027E-01 0.  0.
         14    1    1    2    0    0 -0.77708440743E-02  0.51314169823E-02 -0.21867121022E-01  0.23767381843E-01  0.00000000000E+00 0. -1.
     999901    1    3    3    0    0  0.94038677477E-01  0.40627061381E-01 -0.64541014372E-01  0.88829014039E+00  0.88000000000E+00 0. -1.
        -11    1    4    4    0    0 -0.59002713212E-01 -0.28050268464E-01  0.45496659384E-01  0.79613722833E-01  0.51100000000E-03 0. -1.
         11    1    4    4    0    0 -0.27265120191E-01 -0.17708209899E-01  0.40911476010E-01  0.52258754934E-01  0.51100000000E-03 0.  1.
</event>
<event>
 8    1  0.1132492E+005  0.1043930E+01  0.7957747E-01            NaN
         13   -1    0    0    0    0  0.00000000000E+00  0.00000000000E+00  0.74505805969E-08  0.10566000000E+00  0.10566000000E+00 0.  1.
     999900   -1    0    0    0    0 -0.00000000000E+00 -0.00000000000E+00 -0.74505805969E-08  0.93827000000E+00  0.93827000000E+00 0. -1.
     999902    2    1    2    0    0  0.11640475861E-01  0.72869701371E-02 -0.85155417526E-02  0.10277709448E+01  0.10276439072E+01 0.  0.
     999903    2    3    3    0    0 -0.74624838859E-01  0.47129475254E-02  0.11095903076E+00  0.13551397312E+00  0.21472120396E-01 0.  0.
         14    1    1    2    0    0 -0.11640475861E-01 -0.72869701371E-02  0.85155417526E-02  0.16159055151E-01  0.00000000000E+00 0.  1.
     999901    1    3    3    0    0  0.86265314720E-01  0.25740226117E-02 -0.11947457252E+00  0.89225697173E+00  0.88000000000E+00 0. -1.
        -11    1    4    4    0    0 -0.18646414644E-01 -0.36961241689E-02  0.43333306380E-01  0.47322158401E-01  0.51100000000E-03 0. -1.
         11    1    4    4    0    0 -0.55978424215E-01  0.84090716943E-02  0.67625724384E-01  0.88191814721E-01  0.51100000000E-03 0.  1.
</event>
<event>
 8    1  0.1132492E+005  0.1043930E+01  0.7957747E-01            NaN
         13   -1    0    0    0    0  0.00000000000E+00  0.00000000000E+00  0.74505805969E-08  0.10566000000E+00  0.10566000000E+00 0.  1.
     999900   -1    0    0    0    0 -0.00000000000E+00 -0.00000000000E+00 -0.74505805969E-08  0.93827000000E+00  0.93827000000E+00 0. -1.
     999902    2    1    2    0    0  0.13031333101E-02  0.14034779933E-01  0.18319867956E-01  0.10208152695E+01  0.10205535379E+01 0.  0.
     999903    2    3    3    0    0  0.82666141769E-02  0.86716532566E-01 -0.95104677501E-01  0.13053651835E+00  0.20169011149E-01 0.  0.
         14    1    1    2    0    0 -0.13031333101E-02 -0.14034779933E-01 -0.18319867956E-01  0.23114730501E-01  0.00000000000E+00 0.  1.
     999901    1    3    3    0    0 -0.69634808667E-02 -0.72681752633E-01  0.11342454546E+00  0.89027875115E+00  0.88000000000E+00 0.  1.
        -11    1    4    4    0    0  0.63169484848E-02  0.61230694485E-01 -0.52765581181E-01  0.81077552156E-01  0.51100000000E-03 0.  1.
         11    1    4    4    0    0  0.19496656921E-02  0.25485838082E-01 -0.42339096319E-01  0.49458966196E-01  0.51100000000E-03 0. -1.
</event>
<event>
 8    1  0.1132492E+005  0.1043930E+01  0.7957747E-01            NaN
         13   -1    0    0    0    0  0.00000000000E+00  0.00000000000E+00  0.74505805969E-08  0.10566000000E+00  0.10566000000E+00 0.  1.
     999900   -1    0    0    0    0 -0.00000000000E+00 -0.00000000000E+00 -0.74505805969E-08  0.93827000000E+00  0.93827000000E+00 0.  1.
     999902    2    1    2    0    0  0.24544909901E-02  0.19748413292E-01  0.13916125922E-01  0.10196466124E+01  0.10193574109E+01 0.  0.
     999903    2    3    3    0    0  0.28025156399E-01  0.83533344791E-01 -0.94172451080E-01  0.13037414744E+00  0.19124295971E-01 0.  0.
         14    1    1    2    0    0 -0.24544909901E-02 -0.19748413292E-01 -0.13916125922E-01  0.24283387619E-01  0.00000000000E+00 0. -1.
     999901    1    3    3    0    0 -0.25570665409E-01 -0.63784931500E-01  0.10808857700E+00  0.88927246494E+00  0.88000000000E+00 0. -1.
        -11    1    4    4    0    0  0.57030584413E-02  0.81033683664E-02 -0.19657194170E-01  0.22019442729E-01  0.51100000000E-03 0. -1.
         11    1    4    4    0    0  0.22322097958E-01  0.75429976425E-01 -0.74515256910E-01  0.10835470472E+00  0.51100000000E-03 0.  1.
</event>
<event>
 8    1  0.1132492E+005  0.1043930E+01  0.7957747E-01            NaN
         13   -1    0    0    0    0  0.00000000000E+00  0.00000000000E+00  0.74505805969E-08  0.10566000000E+00  0.10566000000E+00 0.  1.
     999900   -1    0    0    0    0 -0.00000000000E+00 -0.00000000000E+00 -0.74505805969E-08  0.93827000000E+00  0.93827000000E+00 0. -1.
     999902    2    1    2    0    0  0.69907112836E-02  0.19744767855E-01 -0.11537296402E-01  0.10200169260E+01  0.10197365808E+01 0.  0.
     999903    2    3    3    0    0  0.37456612068E-01  0.50751618309E-01 -0.11508555576E+00  0.13288004931E+00  0.20825412676E-01 0.  0.
         14    1    1    2    0    0 -0.69907112836E-02 -0.19744767855E-01  0.11537296402E-01  0.23913074043E-01  0.00000000000E+00 0.  1.
     999901    1    3    3    0    0 -0.30465900784E-01 -0.31006850454E-01  0.10354825935E+00  0.88713687664E+00  0.88000000000E+00 0.  1.
        -11    1    4    4    0    0  0.99999527336E-02  0.97077881987E-02 -0.45232542456E-01  0.47333753543E-01  0.51100000000E-03 0.  1.
         11    1    4    4    0    0  0.27456659334E-01  0.41043830111E-01 -0.69853013301E-01  0.85546295771E-01  0.51100000000E-03 0. -1.
</event>
<event>
 8    1  0.1132492E+005  0.1043930E+01  0.7957747E-01            NaN
         13   -1    0    0    0    0  0.00000000000E+00  0.00000000000E+00  0.74505805969E-08  0.10566000000E+00  0.10566000000E+00 0. -1.
     999900   -1    0    0    0    0 -0.00000000000E+00 -0.00000000000E+00 -0.74505805969E-08  0.93827000000E+00  0.93827000000E+00 0. -1.
     999902    2    1    2    0    0 -0.21891128057E-01 -0.11939813273E-01 -0.59036850849E-02  0.10183051268E+01  0.10179826605E+01 0.  0.
     999903    2    3    3    0    0 -0.33467993111E-01  0.11912577905E+00 -0.27418005089E-01  0.12826294845E+00  0.19712410881E-01 0.  0.
         14    1    1    2    0    0  0.21891128057E-01  0.11939813273E-01  0.59036850849E-02  0.25624873194E-01  0.00000000000E+00 0. -1.
     999901    1    3    3    0    0  0.11576865054E-01 -0.13106559233E+00  0.21514320004E-01  0.89004217836E+00  0.88000000000E+00 0.  1.
        -11    1    4    4    0    0 -0.53533099347E-02  0.20381955728E-01 -0.12522475894E-01  0.24518474057E-01  0.51100000000E-03 0.  1.
         11    1    4    4    0    0 -0.28114683177E-01  0.98743823326E-01 -0.14895529195E-01  0.10374447439E+00  0.51100000000E-03 0. -1.
</event>
<event>
 8    1  0.1132492E+005  0.1043930E+01  0.7957747E-01            NaN
         13   -1    0    0    0    0  0.00000000000E+00  0.00000000000E+00  0.74505805969E-08  0.10566000000E+00  0.10566000000E+00 0. -1.
     999900   -1    0    0    0    0 -0.00000000000E+00 -0.00000000000E+00 -0.74505805969E-08  0.93827000000E+00  0.93827000000E+00 0.  1.
     999902    2    1    2    0    0  0.23032621547E-02  0.61402981680E-02 -0.28132252304E-01  0.10150434651E+01  0.10146323493E+01 0.  0.
     999903    2    3    3    0    0 -0.58703513045E-01 -0.10252798381E+00  0.32825136733E-01  0.12417511041E+00  0.19592818466E-01 0.  0.
         14    1    1    2    0    0 -0.23032621547E-02 -0.61402981680E-02  0.28132252304E-01  0.28886534889E-01  0.00000000000E+00 0. -1.
     999901    1    3    3    0    0  0.61006775199E-01  0.10866828198E+00 -0.60957389037E-01  0.89086835470E+00  0.88000000000E+00 0. -1.
        -11    1    4    4    0    0 -0.27940769548E-01 -0.37832465426E-01  0.21230679592E-01  0.51604117278E-01  0.51100000000E-03 0. -1.
         11    1    4    4    0    0 -0.30762743497E-01 -0.64695518387E-01  0.11594457141E-01  0.72570993133E-01  0.51100000000E-03 0.  1.
</event>
<event>
 8    1  0.1132492E+005  0.1043930E+01  0.7957747E-01            NaN
         13   -1    0    0    0    0  0.00000000000E+00  0.00000000000E+00  0.74505805969E-08  0.10566000000E+00  0.10566000000E+00 0. -1.
     999900   -1    0    0    0    0 -0.00000000000E+00 -0.00000000000E+00 -0.74505805969E-08  0.93827000000E+00  0.93827000000E+00 0.  1.
     999902    2    1    2    0    0  0.15334197077E-01  0.60529477071E-02 -0.22489564239E-01  0.10160453039E+01  0.10156625933E+01 0.  0.
     999903    2    3    3    0    0 -0.84319087175E-01  0.22677804171E-01  0.84453918651E-01  0.12383228482E+00  0.24041196398E-01 0.  0.
         14    1    1    2    0    0 -0.15334197077E-01 -0.60529477071E-02  0.22489564239E-01  0.27884696082E-01  0.00000000000E+00 0. -1.
     999901    1    3    3    0    0  0.99653284252E-01 -0.16624856464E-01 -0.10694348289E+00  0.89221301910E+00  0.88000000000E+00 0.  1.
        -11    1    4    4    0    0 -0.60029400423E-01  0.21390983101E-01  0.73115088007E-01  0.96990619590E-01  0.51100000000E-03 0. -1.
         11    1    4    4    0    0 -0.24289686751E-01  0.12868210705E-02  0.11338830644E-01  0.26841665230E-01  0.51100000000E-03 0.  1.
</event>
<event>
 8    1  0.1132492E+005  0.1043930E+01  0.7957747E-01            NaN
         13   -1    0    0    0    0  0.00000000000E+00  0.00000000000E+00  0.74505805969E-08  0.10566000000E+00  0.10566000000E+00 0.  1.
     999900   -1    0    0    0    0 -0.00000000000E+00 -0.00000000000E+00 -0.74505805969E-08  0.93827000000E+00  0.93827000000E+00 0.  1.
     999902    2    1    2    0    0  0.24951177734E-01 -0.29919316270E-02  0.52532802527E-03  0.10187945888E+01  0.10184844748E+01 0.  0.
     999903    2    3    3    0    0  0.90521208267E-02 -0.14653712050E-01 -0.12664164981E+00  0.12943514665E+00  0.20461611722E-01 0.  0.
         14    1    1    2    0    0 -0.24951177734E-01  0.29919316270E-02 -0.52532802527E-03  0.25135411170E-01  0.00000000000E+00 0.  1.
     999901    1    3    3    0    0  0.15899056907E-01  0.11661780423E-01  0.12716697784E+00  0.88935944217E+00  0.88000000000E+00 0. -1.
        -11    1    4    4    0    0  0.11771103594E-01 -0.67436209619E-02 -0.37162943721E-01  0.39564893662E-01  0.51100000000E-03 0.  1.
         11    1    4    4    0    0 -0.27189827671E-02 -0.79100910884E-02 -0.89478706091E-01  0.89870252993E-01  0.51100000000E-03 0. -1.
</event>
<event>
 8    1  0.1132492E+005  0.1043930E+01  0.7957747E-01            NaN
         13   -1    0    0    0    0  0.00000000000E+00  0.00000000000E+00  0.74505805969E-08  0.10566000000E+00  0.10566000000E+00 0.  1.
     999900   -1    0    0    0    0 -0.00000000000E+00 -0.00000000000E+00 -0.74505805969E-08  0.93827000000E+00  0.93827000000E+00 0. -1.
     999902    2    1    2    0    0 -0.36544149883E-02 -0.19817975529E-01  0.45699080462E-02  0.10232662404E+01  0.10230575779E+01 0.  0.
     999903    2    3    3    0    0 -0.11082776767E+00  0.68627111998E-01  0.88951378599E-02  0.13235245741E+00  0.21108645562E-01 0.  0.
         14    1    1    2    0    0  0.36544149883E-02  0.19817975529E-01 -0.45699080462E-02  0.20663759642E-01  0.00000000000E+00 0. -1.
     999901    1    3    3    0    0  0.10717335268E+00 -0.88445087528E-01 -0.43252298137E-02  0.89091378295E+00  0.88000000000E+00 0. -1.
        -11    1    4    4    0    0 -0.49292653774E-01  0.30968126609E-01  0.14484296015E-01  0.59990387011E-01  0.51100000000E-03 0. -1.
         11    1    4    4    0    0 -0.61535113895E-01  0.37658985389E-01 -0.55891581549E-02  0.72362070399E-01  0.51100000000E-03 0.  1.
</event>
<event>
 8    1  0.1132492E+005  0.1043930E+01  0.7957747E-01            NaN
         13   -1    0    0    0    0  0.00000000000E+00  0.00000000000E+00  0.74505805969E-08  0.10566000000E+00  0.10566000000E+00 0.  1.
     999900   -1    0    0    0    0 -0.00000000000E+00 -0.00000000000E+00 -0.74505805969E-08  0.93827000000E+00  0.93827000000E+00 0.  1.
     999902    2    1    2    0    0 -0.11183475801E-01 -0.28271655034E-02 -0.20087653548E-01  0.10207658721E+01  0.10205030078E+01 0.  0.
     999903    2    3    3    0    0  0.49637082113E-01  0.11805117743E+00  0.37456317109E-02  0.13010390506E+00  0.22651179710E-01 0.  0.
         14    1    1    2    0    0  0.11183475801E-01  0.28271655034E-02  0.20087653548E-01  0.23164127889E-01  0.00000000000E+00 0.  1.
     999901    1    3    3    0    0 -0.60820557914E-01 -0.12087834294E+00 -0.23833285259E-01  0.89066196705E+00  0.88000000000E+00 0.  1.
        -11    1    4    4    0    0  0.20756551924E-01  0.27077916303E-01 -0.39268942591E-02  0.34347192296E-01  0.51100000000E-03 0.  1.
         11    1    4    4    0    0  0.28880530189E-01  0.90973261130E-01  0.76725259700E-02  0.95756712769E-01  0.51100000000E-03 0. -1.
</event>
<event>
 8    1  0.1132492E+005  0.1043930E+01  0.7957747E-01            NaN
         13   -1    0    0    0    0  0.00000000000E+00  0.00000000000E+00  0.74505805969E-08  0.10566000000E+00  0.10566000000E+00 0. -1.
     999900   -1    0    0    0    0 -0.00000000000E+00 -0.00000000000E+00 -0.74505805969E-08  0.93827000000E+00  0.93827000000E+00 0.  1.
     999902    2    1    2    0    0 -0.36919051739E-02 -0.45711674707E-02 -0.22873100273E-01  0.10203142330E+01  0.10200408960E+01 0.  0.
     999903    2    3    3    0    0 -0.50797015162E-01 -0.61970976430E-01  0.98842776898E-01  0.12883883556E+00  0.20219108126E-01 0.  0.
         14    1    1    2    0    0  0.36919051739E-02  0.45711674707E-02  0.22873100273E-01  0.23615767021E-01  0.00000000000E+00 0. -1.
     999901    1    3    3    0    0  0.47105109988E-01  0.57399808960E-01 -0.12171587717E+00  0.89147539742E+00  0.88000000000E+00 0.  1.
        -11    1    4    4    0    0 -0.34873603214E-02 -0.16800482893E-01  0.18563992101E-01  0.25284398968E-01  0.51100000000E-03 0.  1.
         11    1    4    4    0    0 -0.47309654840E-01 -0.45170493537E-01  0.80278784797E-01  0.10355443659E+00  0.51100000000E-03 0. -1.
</event>
<event>
 8    1  0.1132492E+005  0.1043930E+01  0.7957747E-01            NaN
         13   -1    0    0    0    0  0.00000000000E+00  0.00000000000E+00  0.74505805969E-08  0.10566000000E+00  0.10566000000E+00 0. -1.
     999900   -1    0    0    0    0 -0.00000000000E+00 -0.00000000000E+00 -0.74505805969E-08  0.93827000000E+00  0.93827000000E+00 0. -1.
     999902    2    1    2    0    0 -0.14479291998E-01  0.18523826938E-01  0.14263295564E-02  0.10203754574E+01  0.10201035524E+01 0.  0.
     999903    2    3    3    0    0  0.20616530911E-01 -0.10880769086E+00  0.61698005806E-01  0.12847988774E+00  0.20887381264E-01 0.  0.
         14    1    1    2    0    0  0.14479291998E-01 -0.18523826938E-01 -0.14263295564E-02  0.23554542602E-01  0.00000000000E+00 0. -1.
     999901    1    3    3    0    0 -0.35095822909E-01  0.12733151780E+00 -0.60271676250E-01  0.89189556965E+00  0.88000000000E+00 0.  1.
        -11    1    4    4    0    0  0.62202059138E-02 -0.44368564232E-01  0.36553822467E-01  0.57824765556E-01  0.51100000000E-03 0. -1.
         11    1    4    4    0    0  0.14396324997E-01 -0.64439126632E-01  0.25144183339E-01  0.70655122187E-01  0.51100000000E-03 0.  1.
</event>
<event>
 8    1  0.1132492E+005  0.1043930E+01  0.7957747E-01            NaN
         13   -1    0    0    0    0  0.00000000000E+00  0.00000000000E+00  0.74505805969E-08  0.10566000000E+00  0.10566000000E+00 0.  1.
     999900   -1    0    0    0    0 -0.00000000000E+00 -0.00000000000E+00 -0.74505805969E-08  0.93827000000E+00  0.93827000000E+00 0. -1.
     999902    2    1    2    0    0  0.16206257214E-01  0.14978276763E-01  0.83276051125E-02  0.10203431275E+01  0.10200704668E+01 0.  0.
     999903    2    3    3    0    0  0.21618668272E-01 -0.90475121910E-01  0.88939166806E-01  0.13037237665E+00  0.20824665619E-01 0.  0.
         14    1    1    2    0    0 -0.16206257214E-01 -0.14978276763E-01 -0.83276051125E-02  0.23586872505E-01  0.00000000000E+00 0. -1.
     999901    1    3    3    0    0 -0.54124110579E-02  0.10545339867E+00 -0.80611561693E-01  0.88997075085E+00  0.88000000000E+00 0.  1.
        -11    1    4    4    0    0 -0.14767877006E-02 -0.13047663145E-01  0.21159064342E-01  0.24907620125E-01  0.51100000000E-03 0.  1.
         11    1    4    4    0    0  0.23095455972E-01 -0.77427458765E-01  0.67780102463E-01  0.10546475652E+00  0.51100000000E-03 0. -1.
</event>
<event>
 7    1  0.1132492E+005  0.1043930E+01  0.7957747E-01            NaN
         13   -1    0    0    0    0  0.00000000000E+00  0.00000000000E+00  0.74505805969E-08  0.10566000000E+00  0.10566000000E+00 0. -1.
     999900   -1    0    0    0    0 -0.00000000000E+00 -0.00000000000E+00 -0.74505805969E-08  0.93827000000E+00  0.93827000000E+00 0. -1.
     999903    2    1    2    0    0  0.85420761588E-01  0.48107169888E-01  0.28801036989E-01  0.10411335233E+00  0.19977089275E-01 0.  0.
         14    1    1    2    0    0 -0.53182019825E-01 -0.22054233960E-01 -0.11271933782E-01  0.58666625601E-01  0.00000000000E+00 0.  1.
     999901    1    1    2    0    0 -0.32238741764E-01 -0.26052935928E-01 -0.17529103207E-01  0.88115002207E+00  0.88000000000E+00 0. -1.
        -11    1    3    3    0    0  0.67986264232E-01  0.35743536057E-01  0.13914269884E-01  0.78061517545E-01  0.51100000000E-03 0. -1.
         11    1    3    3    0    0  0.17434497356E-01  0.12363633831E-01  0.14886767106E-01  0.26051834780E-01  0.51100000000E-03 0.  1.
</event>
<event>
 8    1  0.1132492E+005  0.1043930E+01  0.7957747E-01            NaN
         13   -1    0    0    0    0  0.00000000000E+00  0.00000000000E+00  0.74505805969E-08  0.10566000000E+00  0.10566000000E+00 0.  1.
     999900   -1    0    0    0    0 -0.00000000000E+00 -0.00000000000E+00 -0.74505805969E-08  0.93827000000E+00  0.93827000000E+00 0. -1.
     999902    2    1    2    0    0  0.10514258960E-01  0.32151493048E-02  0.20933490549E-01  0.10202847499E+01  0.10200107220E+01 0.  0.
     999903    2    3    3    0    0  0.10699256952E-02 -0.97331754788E-01 -0.81956330948E-01  0.12855318112E+00  0.18288383300E-01 0.  0.
         14    1    1    2    0    0 -0.10514258960E-01 -0.32151493048E-02 -0.20933490549E-01  0.23645250117E-01  0.00000000000E+00 0. -1.
     999901    1    3    3    0    0  0.94443332649E-02  0.10054690409E+00  0.10288982150E+00  0.89173156876E+00  0.88000000000E+00 0.  1.
        -11    1    4    4    0    0  0.28617236654E-02 -0.30501130997E-01 -0.15701717218E-01  0.34428382172E-01  0.51100000000E-03 0.  1.
         11    1    4    4    0    0 -0.17917979702E-02 -0.66830623791E-01 -0.66254613730E-01  0.94124798952E-01  0.51100000000E-03 0. -1.
</event>
<event>
 8    1  0.1132492E+005  0.1043930E+01  0.7957747E-01            NaN
         13   -1    0    0    0    0  0.00000000000E+00  0.00000000000E+00  0.74505805969E-08  0.10566000000E+00  0.10566000000E+00 0.  1.
     999900   -1    0    0    0    0 -0.00000000000E+00 -0.00000000000E+00 -0.74505805969E-08  0.93827000000E+00  0.93827000000E+00 0.  1.
     999902    2    1    2    0    0 -0.16003518438E-01 -0.38989435117E-02  0.15444540006E-01  0.10213501820E+01  0.10211005564E+01 0.  0.
     999903    2    3    3    0    0 -0.12480592460E+00 -0.36846611321E-01 -0.20485785663E-01  0.13331048659E+00  0.20440813094E-01 0.  0.
         14    1    1    2    0    0  0.16003518438E-01  0.38989435117E-02 -0.15444540006E-01  0.22579817956E-01  0.00000000000E+00 0. -1.
     999901    1    3    3    0    0  0.10880240616E+00  0.32947667810E-01  0.35930325669E-01  0.88803969545E+00  0.88000000000E+00 0. -1.
        -11    1    4    4    0    0 -0.38085155651E-01 -0.21230697977E-01 -0.62903413806E-02  0.44057361851E-01  0.51100000000E-03 0.  1.
         11    1    4    4    0    0 -0.86720768947E-01 -0.15615913344E-01 -0.14195444282E-01  0.89253124739E-01  0.51100000000E-03 0. -1.
</event>
<event>
 8    1  0.1132492E+005  0.1043930E+01  0.7957747E-01            NaN
         13   -1    0    0    0    0  0.00000000000E+00  0.00000000000E+00  0.74505805969E-08  0.10566000000E+00  0.10566000000E+00 0. -1.
     999900   -1    0    0    0    0 -0.00000000000E+00 -0.00000000000E+00 -0.74505805969E-08  0.93827000000E+00  0.93827000000E+00 0.  1.
     999902    2    1    2    0    0  0.16234563069E-02  0.24175476245E-01 -0.14871851349E-01  0.10155000646E+01  0.10151020245E+01 0.  0.
     999903    2    3    3    0    0 -0.11477918299E+00  0.48005211399E-01  0.13835753311E-01  0.12705110309E+00  0.21720809298E-01 0.  0.
         14    1    1    2    0    0 -0.16234563069E-02 -0.24175476245E-01  0.14871851349E-01  0.28429935361E-01  0.00000000000E+00 0. -1.
     999901    1    3    3    0    0  0.11640263930E+00 -0.23829735154E-01 -0.28707604660E-01  0.88844896155E+00  0.88000000000E+00 0. -1.
        -11    1    4    4    0    0 -0.46038101260E-01  0.26833520083E-01 -0.22794976083E-02  0.53338558267E-01  0.51100000000E-03 0.  1.
         11    1    4    4    0    0 -0.68741081733E-01  0.21171691316E-01  0.16115250919E-01  0.73712544823E-01  0.51100000000E-03 0. -1.
</event>
<event>
 8    1  0.1132492E+005  0.1043930E+01  0.7957747E-01            NaN
         13   -1    0    0    0    0  0.00000000000E+00  0.00000000000E+00  0.74505805969E-08  0.10566000000E+00  0.10566000000E+00 0.  1.
     999900   -1    0    0    0    0 -0.00000000000E+00 -0.00000000000E+00 -0.74505805969E-08  0.93827000000E+00  0.93827000000E+00 0. -1.
     999902    2    1    2    0    0 -0.58438144349E-02  0.21768790740E-01 -0.44088305641E-02  0.10209633240E+01  0.10207049725E+01 0.  0.
     999903    2    3    3    0    0 -0.33158376555E-01  0.12762286245E+00 -0.14006207930E-01  0.13414695103E+00  0.20301666295E-01 0.  0.
         14    1    1    2    0    0  0.58438144349E-02 -0.21768790740E-01  0.44088305641E-02  0.22966675954E-01  0.00000000000E+00 0. -1.
     999901    1    3    3    0    0  0.27314562120E-01 -0.10585407171E+00  0.95973773664E-02  0.88681637302E+00  0.88000000000E+00 0.  1.
        -11    1    4    4    0    0  0.23779134632E-03  0.33985677440E-01 -0.29419963532E-02  0.34117433657E-01  0.51100000000E-03 0. -1.
         11    1    4    4    0    0 -0.33396167901E-01  0.93637185007E-01 -0.11064211577E-01  0.10002951737E+00  0.51100000000E-03 0.  1.
</event>
<event>
 8    1  0.1132492E+005  0.1043930E+01  0.7957747E-01            NaN
         13   -1    0    0    0    0  0.00000000000E+00  0.00000000000E+00  0.74505805969E-08  0.10566000000E+00  0.10566000000E+00 0.  1.
     999900   -1    0    0    0    0 -0.00000000000E+00 -0.00000000000E+00 -0.74505805969E-08  0.93827000000E+00  0.93827000000E+00 0.  1.
     999902    2    1    2    0    0 -0.23934003436E-01 -0.32242712147E-02 -0.46448839499E-02  0.10193371679E+01  0.10190404577E+01 0.  0.
     999903    2    3    3    0    0  0.92674212638E-01 -0.51494080954E-01  0.67690409753E-01  0.12739555246E+00  0.20186261465E-01 0.  0.
         14    1    1    2    0    0  0.23934003436E-01  0.32242712147E-02  0.46448839499E-02  0.24592832131E-01  0.00000000000E+00 0. -1.
     999901    1    3    3    0    0 -0.11660821607E+00  0.48269809739E-01 -0.72335293703E-01  0.89194161541E+00  0.88000000000E+00 0.  1.
        -11    1    4    4    0    0  0.28567276950E-01 -0.57351853425E-02  0.17252965480E-01  0.33866024303E-01  0.51100000000E-03 0. -1.
         11    1    4    4    0    0  0.64106935688E-01 -0.45758895611E-01  0.50437444273E-01  0.93529528154E-01  0.51100000000E-03 0.  1.
</event>
<event>
 8    1  0.1132492E+005  0.1043930E+01  0.7957747E-01            NaN
         13   -1    0    0    0    0  0.00000000000E+00  0.00000000000E+00  0.74505805969E-08  0.10566000000E+00  0.10566000000E+00 0.  1.
     999900   -1    0    0    0    0 -0.00000000000E+00 -0.00000000000E+00 -0.74505805969E-08  0.93827000000E+00  0.93827000000E+00 0. -1.
     999902    2    1    2    0    0 -0.19860917868E-01 -0.83679405577E-02 -0.53392667841E-02  0.10217267062E+01  0.10214854261E+01 0.  0.
     999903    2    3    3    0    0 -0.15785329665E-01 -0.18308995458E-01  0.12784125070E+00  0.13164104442E+00  0.20039542132E-01 0.  0.
         14    1    1    2    0    0  0.19860917868E-01  0.83679405577E-02  0.53392667841E-02  0.22203293844E-01  0.00000000000E+00 0. -1.
     999901    1    3    3    0    0 -0.40755882031E-02  0.99410549005E-02 -0.13318051748E+00  0.89008566174E+00  0.88000000000E+00 0. -1.
        -11    1    4    4    0    0 -0.19928315105E-01 -0.13533643159E-01  0.85608208297E-01  0.88934378555E-01  0.51100000000E-03 0.  1.
         11    1    4    4    0    0  0.41429854409E-02 -0.47753522990E-02  0.42233042400E-01  0.42706665865E-01  0.51100000000E-03 0. -1.
</event>
<event>
 8    1  0.1132492E+005  0.1043930E+01  0.7957747E-01            NaN
         13   -1    0    0    0    0  0.00000000000E+00  0.00000000000E+00  0.74505805969E-08  0.10566000000E+00  0.10566000000E+00 0. -1.
     999900   -1    0    0    0    0 -0.00000000000E+00 -0.00000000000E+00 -0.74505805969E-08  0.93827000000E+00  0.93827000000E+00 0.  1.
     999902    2    1    2    0    0 -0.60639056663E-02  0.15327472326E-01 -0.15402222868E-01  0.10213705047E+01  0.10211213331E+01 0.  0.
     999903    2    3    3    0    0  0.12023355240E-02  0.13113625059E+00 -0.18019511424E-01  0.13374934586E+00  0.19131724868E-01 0.  0.
         14    1    1    2    0    0  0.60639056663E-02 -0.15327472326E-01  0.15402222868E-01  0.22559495320E-01  0.00000000000E+00 0.  1.
     999901    1    3    3    0    0 -0.72662411903E-02 -0.11580877826E+00  0.26172885564E-02  0.88762115882E+00  0.88000000000E+00 0. -1.
        -11    1    4    4    0    0  0.29914683756E-02  0.19786820318E-01  0.35066454471E-02  0.20323012194E-01  0.51100000000E-03 0. -1.
         11    1    4    4    0    0 -0.17891328516E-02  0.11134943027E+00 -0.21526156871E-01  0.11342633367E+00  0.51100000000E-03 0.  1.
</event>
<event>
 7    1  0.1132492E+005  0.1043930E+01  0.7957747E-01            NaN
         13   -1    0    0    0    0  0.00000000000E+00  0.00000000000E+00  0.74505805969E-08  0.10566000000E+00  0.10566000000E+00 0.  1.
     999900   -1    0    0    0    0 -0.00000000000E+00 -0.00000000000E+00 -0.74505805969E-08  0.93827000000E+00  0.93827000000E+00 0. -1.
     999903    2    1    2    0    0 -0.99156646194E-04  0.69684382300E-01 -0.49562209797E-01  0.88097202285E-01  0.21184462276E-01 0.  0.
         14    1    1    2    0    0 -0.18146581498E-03 -0.93116286619E-02 -0.65618249476E-01  0.66275893223E-01  0.00000000000E+00 0. -1.
     999901    1    1    2    0    0  0.28062246117E-03 -0.60372753638E-01  0.11518045927E+00  0.88955690449E+00  0.88000000000E+00 0.  1.
        -11    1    3    3    0    0  0.53299999967E-04  0.27349096284E-01 -0.32424674084E-01  0.42421651534E-01  0.51100000000E-03 0. -1.
         11    1    3    3    0    0 -0.15245664616E-03  0.42335286016E-01 -0.17137535713E-01  0.45675550751E-01  0.51100000000E-03 0.  1.
</event>
<event>
 8    1  0.1132492E+005  0.1043930E+01  0.7957747E-01            NaN
         13   -1    0    0    0    0  0.00000000000E+00  0.00000000000E+00  0.74505805969E-08  0.10566000000E+00  0.10566000000E+00 0. -1.
     999900   -1    0    0    0    0 -0.00000000000E+00 -0.00000000000E+00 -0.74505805969E-08  0.93827000000E+00  0.93827000000E+00 0. -1.
     999902    2    1    2    0    0 -0.43935955651E-02 -0.21775720072E-01 -0.36486599350E-03  0.10217124665E+01  0.10214708735E+01 0.  0.
     999903    2    3    3    0    0 -0.56877983754E-02  0.12528855961E+00  0.23471486817E-01  0.12918921807E+00  0.20232873065E-01 0.  0.
         14    1    1    2    0    0  0.43935955651E-02  0.21775720072E-01  0.36486599350E-03  0.22217533478E-01  0.00000000000E+00 0. -1.
     999901    1    3    3    0    0  0.12942028103E-02 -0.14706427968E+00 -0.23836352810E-01  0.89252324846E+00  0.88000000000E+00 0. -1.
        -11    1    4    4    0    0 -0.11578198380E-01  0.60354623753E-01  0.16376474644E-01  0.63601771429E-01  0.51100000000E-03 0. -1.
         11    1    4    4    0    0  0.58904000049E-02  0.64933935854E-01  0.70950121724E-02  0.65587446638E-01  0.51100000000E-03 0.  1.
</event>
<event>
 8    1  0.1132492E+005  0.1043930E+01  0.7957747E-01            NaN
         13   -1    0    0    0    0  0.00000000000E+00  0.00000000000E+00  0.74505805969E-08  0.10566000000E+00  0.10566000000E+00 0.  1.
     999900   -1    0    0    0    0 -0.00000000000E+00 -0.00000000000E+00 -0.74505805969E-08  0.93827000000E+00  0.93827000000E+00 0.  1.
     999902    2    1    2    0    0  0.69898741794E-02 -0.24714471807E-01 -0.20849716833E-02  0.10181615976E+01  0.10178354622E+01 0.  0.
     999903    2    3    3    0    0  0.67221847127E-01 -0.78604563903E-01  0.77610633092E-01  0.13087166635E+00  0.20162551605E-01 0.  0.
         14    1    1    2    0    0 -0.69898741794E-02  0.24714471807E-01  0.20849716833E-02  0.25768402447E-01  0.00000000000E+00 0.  1.
     999901    1    3    3    0    0 -0.60231972948E-01  0.53890092096E-01 -0.79695604775E-01  0.88728993120E+00  0.88000000000E+00 0.  1.
        -11    1    4    4    0    0  0.57212466991E-01 -0.53921147427E-01  0.55262549467E-01  0.96098735755E-01  0.51100000000E-03 0. -1.
         11    1    4    4    0    0  0.10009380137E-01 -0.24683416476E-01  0.22348083624E-01  0.34772930597E-01  0.51100000000E-03 0.  1.
</event>
<event>
 8    1  0.1132492E+005  0.1043930E+01  0.7957747E-01            NaN
         13   -1    0    0    0    0  0.00000000000E+00  0.00000000000E+00  0.74505805969E-08  0.10566000000E+00  0.10566000000E+00 0.  1.
     999900   -1    0    0    0    0 -0.00000000000E+00 -0.00000000000E+00 -0.74505805969E-08  0.93827000000E+00  0.93827000000E+00 0.  1.
     999902    2    1    2    0    0 -0.23255042798E-01 -0.30555932474E-02 -0.35808423823E-02  0.10202033041E+01  0.10199273629E+01 0.  0.
     999903    2    3    3    0    0  0.66573291421E-01 -0.71974995753E-01  0.81815982488E-01  0.12884948471E+00  0.17202661834E-01 0.  0.
         14    1    1    2    0    0  0.23255042798E-01  0.30555932474E-02  0.35808423823E-02  0.23726695888E-01  0.00000000000E+00 0. -1.
     999901    1    3    3    0    0 -0.89828334219E-01  0.68919402506E-01 -0.85396824871E-01  0.89135381941E+00  0.88000000000E+00 0.  1.
        -11    1    4    4    0    0  0.27567553546E-01 -0.36062824965E-01  0.28189466561E-01  0.53435985056E-01  0.51100000000E-03 0.  1.
         11    1    4    4    0    0  0.39005737875E-01 -0.35912170789E-01  0.53626515927E-01  0.75413499650E-01  0.51100000000E-03 0. -1.
</event>
<event>
 8    1  0.1132492E+005  0.1043930E+01  0.7957747E-01            NaN
         13   -1    0    0    0    0  0.00000000000E+00  0.00000000000E+00  0.74505805969E-08  0.10566000000E+00  0.10566000000E+00 0.  1.
     999900   -1    0    0    0    0 -0.00000000000E+00 -0.00000000000E+00 -0.74505805969E-08  0.93827000000E+00  0.93827000000E+00 0. -1.
     999902    2    1    2    0    0  0.14874123262E-01  0.70532804929E-03 -0.17303176941E-01  0.10211015756E+01  0.10208463600E+01 0.  0.
     999903    2    3    3    0    0  0.14034241439E-01  0.10997472319E+00  0.65219319341E-01  0.13051162024E+00  0.22098048089E-01 0.  0.
         14    1    1    2    0    0 -0.14874123262E-01 -0.70532804929E-03  0.17303176941E-01  0.22828424446E-01  0.00000000000E+00 0.  1.
     999901    1    3    3    0    0  0.83988182228E-03 -0.10926939514E+00 -0.82522496282E-01  0.89058995531E+00  0.88000000000E+00 0. -1.
        -11    1    4    4    0    0  0.70153449918E-02  0.79596110322E-01  0.35508993641E-01  0.87440869129E-01  0.51100000000E-03 0.  1.
         11    1    4    4    0    0  0.70188964476E-02  0.30378612865E-01  0.29710325701E-01  0.43070751110E-01  0.51100000000E-03 0. -1.
</event>
<event>
 8    1  0.1132492E+005  0.1043930E+01  0.7957747E-01            NaN
         13   -1    0    0    0    0  0.00000000000E+00  0.00000000000E+00  0.74505805969E-08  0.10566000000E+00  0.10566000000E+00 0. -1.
     999900   -1    0    0    0    0 -0.00000000000E+00 -0.00000000000E+00 -0.74505805969E-08  0.93827000000E+00  0.93827000000E+00 0.  1.
     999902    2    1    2    0    0 -0.50101230914E-02 -0.79501149843E-04  0.22655961186E-01  0.10207265470E+01  0.10204627791E+01 0.  0.
     999903    2    3    3    0    0 -0.76697551455E-01 -0.73784937377E-01  0.77355114612E-01  0.13305342242E+00  0.19815854220E-01 0.  0.
         14    1    1    2    0    0  0.50101230914E-02  0.79501149843E-04 -0.22655961186E-01  0.23203453000E-01  0.00000000000E+00 0.  1.
     999901    1    3    3    0    0  0.71687428364E-01  0.73705436227E-01 -0.54699153426E-01  0.88767312458E+00  0.88000000000E+00 0.  1.
        -11    1    4    4    0    0 -0.15875342873E-01 -0.24634196673E-01  0.14382315266E-01  0.32649383922E-01  0.51100000000E-03 0.  1.
         11    1    4    4    0    0 -0.60822208582E-01 -0.49150740704E-01  0.62972799346E-01  0.10040403850E+00  0.51100000000E-03 0. -1.
</event>
<event>
 8    1  0.1132492E+005  0.1043930E+01  0.7957747E-01            NaN
         13   -1    0    0    0    0  0.00000000000E+00  0.00000000000E+00  0.74505805969E-08  0.10566000000E+00  0.10566000000E+00 0. -1.
     999900   -1    0    0    0    0 -0.00000000000E+00 -0.00000000000E+00 -0.74505805969E-08  0.93827000000E+00  0.93827000000E+00 0. -1.
     999902    2    1    2    0    0  0.51025261682E-03  0.20439066719E-01 -0.81477764947E-02  0.10219208640E+01  0.10216838308E+01 0.  0.
     999903    2    3    3    0    0  0.86658702058E-01 -0.37743101422E-01 -0.89925821682E-01  0.13203639469E+00  0.20314619606E-01 0.  0.
         14    1    1    2    0    0 -0.51025261682E-03 -0.20439066719E-01  0.81477764947E-02  0.22009136009E-01  0.00000000000E+00 0.  1.
     999901    1    3    3    0    0 -0.86148449441E-01  0.58182168141E-01  0.81778045188E-01  0.88988446930E+00  0.88000000000E+00 0. -1.
        -11    1    4    4    0    0  0.25057148561E-01 -0.19894323686E-01 -0.36695067861E-01  0.48687102350E-01  0.51100000000E-03 0.  1.
         11    1    4    4    0    0  0.61601553497E-01 -0.17848777736E-01 -0.53230753821E-01  0.83349292338E-01  0.51100000000E-03 0. -1.
</event>
<event>
 8    1  0.1132492E+005  0.1043930E+01  0.7957747E-01            NaN
         13   -1    0    0    0    0  0.00000000000E+00  0.00000000000E+00  0.74505805969E-08  0.10566000000E+00  0.10566000000E+00 0. -1.
     999900   -1    0    0    0    0 -0.00000000000E+00 -0.00000000000E+00 -0.74505805969E-08  0.93827000000E+00  0.93827000000E+00 0. -1.
     999902    2    1    2    0    0  0.11955203997E-01 -0.18800048612E-01 -0.35756621909E-02  0.10213655569E+01  0.10211162749E+01 0.  0.
     999903    2    3    3    0    0 -0.70570002284E-01  0.76698512946E-01  0.73428712370E-01  0.12903150591E+00  0.19863700719E-01 0.  0.
         14    1    1    2    0    0 -0.11955203997E-01  0.18800048612E-01  0.35756621909E-02  0.22564443058E-01  0.00000000000E+00 0.  1.
     999901    1    3    3    0    0  0.82525206281E-01 -0.95498561558E-01 -0.77004374561E-01  0.89233405103E+00  0.88000000000E+00 0. -1.
        -11    1    4    4    0    0 -0.57456728498E-01  0.57433939966E-01  0.65671181573E-01  0.10446481858E+00  0.51100000000E-03 0. -1.
         11    1    4    4    0    0 -0.13113273785E-01  0.19264572980E-01  0.77575307973E-02  0.24566687334E-01  0.51100000000E-03 0.  1.
</event>
<event>
 8    1  0.1132492E+005  0.1043930E+01  0.7957747E-01            NaN
         13   -1    0    0    0    0  0.00000000000E+00  0.00000000000E+00  0.74505805969E-08  0.10566000000E+00  0.10566000000E+00 0.  1.
     999900   -1    0    0    0    0 -0.00000000000E+00 -0.00000000000E+00 -0.74505805969E-08  0.93827000000E+00  0.93827000000E+00 0. -1.
     999902    2    1    2    0    0 -0.13216557569E-01 -0.96186353682E-02 -0.16602047851E-01  0.10206314264E+01  0.10203654664E+01 0.  0.
     999903    2    3    3    0    0  0.48151130834E-01 -0.10732689699E+00 -0.59156134020E-01  0.13207993781E+00  0.10395554953E-01 0.  0.
         14    1    1    2    0    0  0.13216557569E-01  0.96186353682E-02  0.16602047851E-01  0.23298573629E-01  0.00000000000E+00 0.  1.
     999901    1    3    3    0    0 -0.61367688404E-01  0.97708261620E-01  0.42554086169E-01  0.88855148856E+00  0.88000000000E+00 0. -1.
        -11    1    4    4    0    0  0.42276683995E-01 -0.86654715538E-01 -0.45529325992E-01  0.10662803750E+00  0.51100000000E-03 0.  1.
         11    1    4    4    0    0  0.58744468395E-02 -0.20672181450E-01 -0.13626808027E-01  0.25451900314E-01  0.51100000000E-03 0. -1.
</event>
<event>
 8    1  0.1132492E+005  0.1043930E+01  0.7957747E-01            NaN
         13   -1    0    0    0    0  0.00000000000E+00  0.00000000000E+00  0.74505805969E-08  0.10566000000E+00  0.10566000000E+00 0.  1.
     999900   -1    0    0    0    0 -0.00000000000E+00 -0.00000000000E+00 -0.74505805969E-08  0.93827000000E+00  0.93827000000E+00 0. -1.
     999902    2    1    2    0    0 -0.18587096137E-01  0.14780172373E-01 -0.52662621400E-02  0.10196057908E+01  0.10193156044E+01 0.  0.
     999903    2    3    3    0    0 -0.94281980459E-01 -0.75987362429E-01  0.43770819913E-01  0.13035155473E+00  0.20309408062E-01 0.  0.
         14    1    1    2    0    0  0.18587096137E-01 -0.14780172373E-01  0.52662621400E-02  0.24324209239E-01  0.00000000000E+00 0. -1.
     999901    1    3    3    0    0  0.75694884323E-01  0.90767534803E-01 -0.49037082053E-01  0.88925423603E+00  0.88000000000E+00 0.  1.
        -11    1    4    4    0    0 -0.62936060066E-01 -0.57521665579E-01  0.22407854712E-01  0.88159303204E-01  0.51100000000E-03 0. -1.
         11    1    4    4    0    0 -0.31345920393E-01 -0.18465696850E-01  0.21362965201E-01  0.42192251524E-01  0.51100000000E-03 0.  1.
</event>
<event>
 8    1  0.1132492E+005  0.1043930E+01  0.7957747E-01            NaN
         13   -1    0    0    0    0  0.00000000000E+00  0.00000000000E+00  0.74505805969E-08  0.10566000000E+00  0.10566000000E+00 0.  1.
     999900   -1    0    0    0    0 -0.00000000000E+00 -0.00000000000E+00 -0.74505805969E-08  0.93827000000E+00  0.93827000000E+00 0. -1.
     999902    2    1    2    0    0  0.32983563209E-02 -0.40949917095E-02 -0.22928300147E-01  0.10204064999E+01  0.10201353194E+01 0.  0.
     999903    2    3    3    0    0 -0.97215647008E-01 -0.80713943551E-01  0.23248556232E-01  0.13017853427E+00  0.20984106136E-01 0.  0.
         14    1    1    2    0    0 -0.32983563209E-02  0.40949917095E-02  0.22928300147E-01  0.23523500147E-01  0.00000000000E+00 0.  1.
     999901    1    3    3    0    0  0.10051400333E+00  0.76618951842E-01 -0.46176856379E-01  0.89022796559E+00  0.88000000000E+00 0. -1.
        -11    1    4    4    0    0 -0.35470976585E-01 -0.33602634717E-01 -0.81347728750E-03  0.48869725865E-01  0.51100000000E-03 0. -1.
         11    1    4    4    0    0 -0.61744670423E-01 -0.47111308834E-01  0.24062033519E-01  0.81308808402E-01  0.51100000000E-03 0.  1.
</event>
<event>
 8    1  0.1132492E+005  0.1043930E+01  0.7957747E-01            NaN
         13   -1    0    0    0    0  0.00000000000E+00  0.00000000000E+00  0.74505805969E-08  0.10566000000E+00  0.10566000000E+00 0.  1.
     999900   -1    0    0    0    0 -0.00000000000E+00 -0.00000000000E+00 -0.74505805969E-08  0.93827000000E+00  0.93827000000E+00 0.  1.
     999902    2    1    2    0    0 -0.19905097695E-01  0.32892610788E-03 -0.12873881603E-01  0.10202222389E+01  0.10199467432E+01 0.  0.
     999903    2    3    3    0    0 -0.45831654019E-01  0.34629540166E-01  0.11480421563E+00  0.12996923280E+00  0.20303890911E-01 0.  0.
         14    1    1    2    0    0  0.19905097695E-01 -0.32892610788E-03  0.12873881603E-01  0.23707761053E-01  0.00000000000E+00 0.  1.
     999901    1    3    3    0    0  0.25926556324E-01 -0.34300614058E-01 -0.12767809723E+00  0.89025300615E+00  0.88000000000E+00 0.  1.
        -11    1    4    4    0    0 -0.98726596419E-02  0.17677734847E-01  0.28677173925E-01  0.35108590730E-01  0.51100000000E-03 0. -1.
         11    1    4    4    0    0 -0.35958994377E-01  0.16951805319E-01  0.86127041701E-01  0.94860642067E-01  0.51100000000E-03 0.  1.
</event>
<event>
 8    1  0.1132492E+005  0.1043930E+01  0.7957747E-01            NaN
         13   -1    0    0    0    0  0.00000000000E+00  0.00000000000E+00  0.74505805969E-08  0.10566000000E+00  0.10566000000E+00 0.  1.
     999900   -1    0    0    0    0 -0.00000000000E+00 -0.00000000000E+00 -0.74505805969E-08  0.93827000000E+00  0.93827000000E+00 0.  1.
     999902    2    1    2    0    0 -0.13525714045E-01  0.18223635914E-01 -0.63251111697E-02  0.10203704398E+01  0.10200984176E+01 0.  0.
     999903    2    3    3    0    0 -0.14278321946E-04 -0.70034788122E-01 -0.10730273735E+00  0.13010722629E+00  0.22564156062E-01 0.  0.
         14    1    1    2    0    0  0.13525714045E-01 -0.18223635914E-01  0.63251111697E-02  0.23559560218E-01  0.00000000000E+00 0.  1.
     999901    1    3    3    0    0 -0.13511435723E-01  0.88258424036E-01  0.10097762618E+00  0.89026321349E+00  0.88000000000E+00 0. -1.
        -11    1    4    4    0    0 -0.10411774962E-01 -0.40514715721E-01 -0.68346090064E-01  0.80132991931E-01  0.51100000000E-03 0. -1.
         11    1    4    4    0    0  0.10397496640E-01 -0.29520072401E-01 -0.38956647287E-01  0.49974234359E-01  0.51100000000E-03 0.  1.
</event>
<event>
 8    1  0.1132492E+005  0.1043930E+01  0.7957747E-01            NaN
         13   -1    0    0    0    0  0.00000000000E+00  0.00000000000E+00  0.74505805969E-08  0.10566000000E+00  0.10566000000E+00 0. -1.
     999900   -1    0    0    0    0 -0.00000000000E+00 -0.00000000000E+00 -0.74505805969E-08  0.93827000000E+00  0.93827000000E+00 0. -1.
     999902    2    1    2    0    0 -0.15633630523E-02 -0.21522098511E-01 -0.12597175488E-01  0.10189433304E+01  0.10186369210E+01 0.  0.
     999903    2    3    3    0    0  0.65750458170E-01 -0.46344523869E-01  0.98863623363E-01  0.12901591030E+00  0.20003785758E-01 0.  0.
         14    1    1    2    0    0  0.15633630523E-02  0.21522098511E-01  0.12597175488E-01  0.24986669618E-01  0.00000000000E+00 0. -1.
     999901    1    3    3    0    0 -0.67313821222E-01  0.24822425358E-01 -0.11146079885E+00  0.88992742008E+00  0.88000000000E+00 0. -1.
        -11    1    4    4    0    0  0.41440106419E-01 -0.40363952675E-01  0.69117370236E-01  0.90133251827E-01  0.51100000000E-03 0.  1.
         11    1    4    4    0    0  0.24310351751E-01 -0.59805711936E-02  0.29746253127E-01  0.38882658476E-01  0.51100000000E-03 0. -1.
</event>
<event>
 8    1  0.1132492E+005  0.1043930E+01  0.7957747E-01            NaN
         13   -1    0    0    0    0  0.00000000000E+00  0.00000000000E+00  0.74505805969E-08  0.10566000000E+00  0.10566000000E+00 0.  1.
     999900   -1    0    0    0    0 -0.00000000000E+00 -0.00000000000E+00 -0.74505805969E-08  0.93827000000E+00  0.93827000000E+00 0.  1.
     999902    2    1    2    0    0  0.47370097117E-02 -0.17160935184E-01 -0.15254502492E-01  0.10204856659E+01  0.10202163287E+01 0.  0.
     999903    2    3    3    0    0  0.56606340270E-01  0.10058270345E+00  0.53209246120E-01  0.12849840318E+00  0.18959371178E-01 0.  0.
         14    1    1    2    0    0 -0.47370097117E-02  0.17160935184E-01  0.15254502492E-01  0.23444334149E-01  0.00000000000E+00 0.  1.
     999901    1    3    3    0    0 -0.51869330558E-01 -0.11774363863E+00 -0.68463748612E-01  0.89198726267E+00  0.88000000000E+00 0.  1.
        -11    1    4    4    0    0  0.47891289784E-01  0.69667588831E-01  0.42592700267E-01  0.94665452028E-01  0.51100000000E-03 0. -1.
         11    1    4    4    0    0  0.87150504861E-02  0.30915114620E-01  0.10616545853E-01  0.33832951154E-01  0.51100000000E-03 0.  1.
</event>
<event>
 8    1  0.1132492E+005  0.1043930E+01  0.7957747E-01            NaN
         13   -1    0    0    0    0  0.00000000000E+00  0.00000000000E+00  0.74505805969E-08  0.10566000000E+00  0.10566000000E+00 0.  1.
     999900   -1    0    0    0    0 -0.00000000000E+00 -0.00000000000E+00 -0.74505805969E-08  0.93827000000E+00  0.93827000000E+00 0.  1.
     999902    2    1    2    0    0 -0.17008756210E-02  0.20126235406E-02  0.23306522630E-01  0.10204749871E+01  0.10202054017E+01 0.  0.
     999903    2    3    3    0    0 -0.13752143642E-01 -0.19005237582E-01  0.13010137007E+00  0.13368745735E+00  0.19890933784E-01 0.  0.
         14    1    1    2    0    0  0.17008756210E-02 -0.20126235406E-02 -0.23306522630E-01  0.23455012865E-01  0.00000000000E+00 0. -1.
     999901    1    3    3    0    0  0.12051268021E-01  0.21017861122E-01 -0.10679484744E+00  0.88678752979E+00  0.88000000000E+00 0.  1.
        -11    1    4    4    0    0 -0.77333764755E-02 -0.15726483008E-01  0.44782534669E-01  0.48092243780E-01  0.51100000000E-03 0.  1.
         11    1    4    4    0    0 -0.60187671666E-02 -0.32787545740E-02  0.85318835404E-01  0.85595213566E-01  0.51100000000E-03 0. -1.
</event>
<event>
 8    1  0.1132492E+005  0.1043930E+01  0.7957747E-01            NaN
         13   -1    0    0    0    0  0.00000000000E+00  0.00000000000E+00  0.74505805969E-08  0.10566000000E+00  0.10566000000E+00 0. -1.
     999900   -1    0    0    0    0 -0.00000000000E+00 -0.00000000000E+00 -0.74505805969E-08  0.93827000000E+00  0.93827000000E+00 0.  1.
     999902    2    1    2    0    0 -0.23379541365E-01 -0.43068827236E-02  0.34840816969E-02  0.10199031188E+01  0.10196200669E+01 0.  0.
     999903    2    3    3    0    0  0.94102030050E-01  0.45815140324E-01 -0.70108959605E-01  0.12764190566E+00  0.20566251975E-01 0.  0.
         14    1    1    2    0    0  0.23379541365E-01  0.43068827236E-02 -0.34840816969E-02  0.24026881164E-01  0.00000000000E+00 0. -1.
     999901    1    3    3    0    0 -0.11748157141E+00 -0.50122023047E-01  0.73593041301E-01  0.89226121318E+00  0.88000000000E+00 0. -1.
        -11    1    4    4    0    0  0.44377142564E-01  0.10451532429E-01 -0.31920843316E-01  0.55657584131E-01  0.51100000000E-03 0.  1.
         11    1    4    4    0    0  0.49724887487E-01  0.35363607895E-01 -0.38188116288E-01  0.71984321526E-01  0.51100000000E-03 0. -1.
</event>
<event>
 8    1  0.1132492E+005  0.1043930E+01  0.7957747E-01            NaN
         13   -1    0    0    0    0  0.00000000000E+00  0.00000000000E+00  0.74505805969E-08  0.10566000000E+00  0.10566000000E+00 0. -1.
     999900   -1    0    0    0    0 -0.00000000000E+00 -0.00000000000E+00 -0.74505805969E-08  0.93827000000E+00  0.93827000000E+00 0.  1.
     999902    2    1    2    0    0 -0.32802676755E-02  0.14310257070E-02  0.22770767741E-01  0.10208797103E+01  0.10206194526E+01 0.  0.
     999903    2    3    3    0    0  0.93840505157E-01 -0.52479661697E-01 -0.69335506329E-01  0.12912729376E+00  0.17501150112E-01 0.  0.
         14    1    1    2    0    0  0.32802676755E-02 -0.14310257070E-02 -0.22770767741E-01  0.23050289675E-01  0.00000000000E+00 0.  1.
     999901    1    3    3    0    0 -0.97120772832E-01  0.53910687404E-01  0.92106274069E-01  0.89175241657E+00  0.88000000000E+00 0. -1.
        -11    1    4    4    0    0  0.17350059930E-01 -0.17698834445E-01 -0.18325369697E-01  0.30827805887E-01  0.51100000000E-03 0. -1.
         11    1    4    4    0    0  0.76490445226E-01 -0.34780827252E-01 -0.51010136632E-01  0.98299487870E-01  0.51100000000E-03 0.  1.
</event>
<event>
 8    1  0.1132492E+005  0.1043930E+01  0.7957747E-01            NaN
         13   -1    0    0    0    0  0.00000000000E+00  0.00000000000E+00  0.74505805969E-08  0.10566000000E+00  0.10566000000E+00 0.  1.
     999900   -1    0    0    0    0 -0.00000000000E+00 -0.00000000000E+00 -0.74505805969E-08  0.93827000000E+00  0.93827000000E+00 0. -1.
     999902    2    1    2    0    0  0.13961349888E-01  0.13016285427E-01 -0.13765900086E-01  0.10203961312E+01  0.10201247088E+01 0.  0.
     999903    2    3    3    0    0  0.22112843924E-01 -0.11259448377E+00  0.54951226750E-01  0.12878716098E+00  0.19999996770E-01 0.  0.
         14    1    1    2    0    0 -0.13961349888E-01 -0.13016285427E-01  0.13765900086E-01  0.23533868832E-01  0.00000000000E+00 0. -1.
     999901    1    3    3    0    0 -0.81514940360E-02  0.12561076920E+00 -0.68717126836E-01  0.89160897018E+00  0.88000000000E+00 0. -1.
        -11    1    4    4    0    0  0.19161991470E-01 -0.46692662326E-01  0.22343262936E-01  0.55198452440E-01  0.51100000000E-03 0.  1.
         11    1    4    4    0    0  0.29508524549E-02 -0.65901821445E-01  0.32607963814E-01  0.73588708543E-01  0.51100000000E-03 0. -1.
</event>
<event>
 8    1  0.1132492E+005  0.1043930E+01  0.7957747E-01            NaN
         13   -1    0    0    0    0  0.00000000000E+00  0.00000000000E+00  0.74505805969E-08  0.10566000000E+00  0.10566000000E+00 0. -1.
     999900   -1    0    0    0    0 -0.00000000000E+00 -0.00000000000E+00 -0.74505805969E-08  0.93827000000E+00  0.93827000000E+00 0.  1.
     999902    2    1    2    0    0  0.19660561998E-02 -0.20408848772E-01  0.10771639320E-01  0.10207693718E+01  0.10205065878E+01 0.  0.
     999903    2    3    3    0    0  0.17671552250E-01  0.12276275574E+00 -0.25493429644E-01  0.12832333636E+00  0.20832324470E-01 0.  0.
         14    1    1    2    0    0 -0.19660561998E-02  0.20408848772E-01 -0.10771639320E-01  0.23160628204E-01  0.00000000000E+00 0.  1.
     999901    1    3    3    0    0 -0.15705496050E-01 -0.14317160451E+00  0.36265068964E-01  0.89244603544E+00  0.88000000000E+00 0. -1.
        -11    1    4    4    0    0  0.10120188455E-01  0.10315799050E+00 -0.27420843744E-01  0.10722011477E+00  0.51100000000E-03 0. -1.
         11    1    4    4    0    0  0.75513637950E-02  0.19604765242E-01  0.19274140995E-02  0.21103221589E-01  0.51100000000E-03 0.  1.
</event>
<event>
 8    1  0.1132492E+005  0.1043930E+01  0.7957747E-01            NaN
         13   -1    0    0    0    0  0.00000000000E+00  0.00000000000E+00  0.74505805969E-08  0.10566000000E+00  0.10566000000E+00 0.  1.
     999900   -1    0    0    0    0 -0.00000000000E+00 -0.00000000000E+00 -0.74505805969E-08  0.93827000000E+00  0.93827000000E+00 0. -1.
     999902    2    1    2    0    0 -0.19069745848E-01 -0.82738352674E-02 -0.66148564109E-02  0.10221156038E+01  0.10218827915E+01 0.  0.
     999903    2    3    3    0    0 -0.95629192136E-01 -0.45561680082E-01  0.79505138459E-01  0.13382039064E+00  0.19131670839E-01 0.  0.
         14    1    1    2    0    0  0.19069745848E-01  0.82738352674E-02  0.66148564109E-02  0.21814396211E-01  0.00000000000E+00 0.  1.
     999901    1    3    3    0    0  0.76559446288E-01  0.37287844815E-01 -0.86119994870E-01  0.88829521315E+00  0.88000000000E+00 0. -1.
        -11    1    4    4    0    0 -0.80616764132E-01 -0.45508054219E-01  0.67040728518E-01  0.11430120760E+00  0.51100000000E-03 0. -1.
         11    1    4    4    0    0 -0.15012428004E-01 -0.53625863369E-04  0.12464409941E-01  0.19519183038E-01  0.51100000000E-03 0.  1.
</event>
<event>
 8    1  0.1132492E+005  0.1043930E+01  0.7957747E-01            NaN
         13   -1    0    0    0    0  0.00000000000E+00  0.00000000000E+00  0.74505805969E-08  0.10566000000E+00  0.10566000000E+00 0.  1.
     999900   -1    0    0    0    0 -0.00000000000E+00 -0.00000000000E+00 -0.74505805969E-08  0.93827000000E+00  0.93827000000E+00 0.  1.
     999902    2    1    2    0    0 -0.17228154973E-02 -0.23633900786E-01  0.79495043618E-02  0.10189355210E+01  0.10186289177E+01 0.  0.
     999903    2    3    3    0    0  0.40521990656E-01 -0.24775694752E-01 -0.11825015819E+00  0.12892862096E+00  0.19586286380E-01 0.  0.
         14    1    1    2    0    0  0.17228154973E-02  0.23633900786E-01 -0.79495043618E-02  0.24994478974E-01  0.00000000000E+00 0. -1.
     999901    1    3    3    0    0 -0.42244806153E-01  0.11417939664E-02  0.12619966255E+00  0.89000690007E+00  0.88000000000E+00 0. -1.
        -11    1    4    4    0    0  0.33196015319E-01 -0.18564838819E-01 -0.69400604010E-01  0.79141225865E-01  0.51100000000E-03 0.  1.
         11    1    4    4    0    0  0.73259753371E-02 -0.62108559335E-02 -0.48849554176E-01  0.49787395094E-01  0.51100000000E-03 0. -1.
</event>
<event>
 8    1  0.1132492E+005  0.1043930E+01  0.7957747E-01            NaN
         13   -1    0    0    0    0  0.00000000000E+00  0.00000000000E+00  0.74505805969E-08  0.10566000000E+00  0.10566000000E+00 0.  1.
     999900   -1    0    0    0    0 -0.00000000000E+00 -0.00000000000E+00 -0.74505805969E-08  0.93827000000E+00  0.93827000000E+00 0.  1.
     999902    2    1    2    0    0 -0.21746977086E-01 -0.99624014701E-02  0.93848679826E-03  0.10199913030E+01  0.10197103496E+01 0.  0.
     999903    2    3    3    0    0  0.12098880662E+00  0.30005028155E-01  0.14979188141E-01  0.12748469763E+00  0.22121912466E-01 0.  0.
         14    1    1    2    0    0  0.21746977086E-01  0.99624014701E-02 -0.93848679826E-03  0.23938696976E-01  0.00000000000E+00 0. -1.
     999901    1    3    3    0    0 -0.14273578370E+00 -0.39967429625E-01 -0.14040701343E-01  0.89250660540E+00  0.88000000000E+00 0.  1.
        -11    1    4    4    0    0  0.81175071801E-01  0.27165691723E-01  0.17924444151E-01  0.87458069427E-01  0.51100000000E-03 0.  1.
         11    1    4    4    0    0  0.39813734815E-01  0.28393364322E-02 -0.29452560093E-02  0.40026628202E-01  0.51100000000E-03 0. -1.
</event>
<event>
 8    1  0.1132492E+005  0.1043930E+01  0.7957747E-01            NaN
         13   -1    0    0    0    0  0.00000000000E+00  0.00000000000E+00  0.74505805969E-08  0.10566000000E+00  0.10566000000E+00 0. -1.
     999900   -1    0    0    0    0 -0.00000000000E+00 -0.00000000000E+00 -0.74505805969E-08  0.93827000000E+00  0.93827000000E+00 0.  1.
     999902    2    1    2    0    0  0.12637355745E-02  0.22214380434E-01  0.89669572303E-02  0.10199407931E+01  0.10196586387E+01 0.  0.
     999903    2    3    3    0    0  0.89486549161E-01 -0.72730684007E-01  0.54386121738E-01  0.12928893597E+00  0.21451896203E-01 0.  0.
         14    1    1    2    0    0 -0.12637355745E-02 -0.22214380434E-01 -0.89669572303E-02  0.23989206899E-01  0.00000000000E+00 0. -1.
     999901    1    3    3    0    0 -0.88222813587E-01  0.94945064441E-01 -0.45419164508E-01  0.89065185713E+00  0.88000000000E+00 0. -1.
        -11    1    4    4    0    0  0.60359497809E-01 -0.58227909022E-01  0.31885887468E-01  0.89725856393E-01  0.51100000000E-03 0. -1.
         11    1    4    4    0    0  0.29127051352E-01 -0.14502774985E-01  0.22500234270E-01  0.39563079581E-01  0.51100000000E-03 0.  1.
</event>
<event>
 8    1  0.1132492E+005  0.1043930E+01  0.7957747E-01            NaN
         13   -1    0    0    0    0  0.00000000000E+00  0.00000000000E+00  0.74505805969E-08  0.10566000000E+00  0.10566000000E+00 0.  1.
     999900   -1    0    0    0    0 -0.00000000000E+00 -0.00000000000E+00 -0.74505805969E-08  0.93827000000E+00  0.93827000000E+00 0.  1.
     999902    2    1    2    0    0  0.64536869878E-02  0.22287042512E-01 -0.67292420026E-02  0.10197712534E+01  0.10194850485E+01 0.  0.
     999903    2    3    3    0    0 -0.11822545712E+00  0.46316402323E-01  0.20661496114E-01  0.13023623349E+00  0.20300523553E-01 0.  0.
         14    1    1    2    0    0 -0.64536869878E-02 -0.22287042512E-01  0.67292420026E-02  0.24158746606E-01  0.00000000000E+00 0.  1.
     999901    1    3    3    0    0  0.12467914410E+00 -0.24029359811E-01 -0.27390738117E-01  0.88953501991E+00  0.88000000000E+00 0.  1.
        -11    1    4    4    0    0 -0.64165844312E-01  0.34897231473E-01  0.16075272048E-01  0.74791362022E-01  0.51100000000E-03 0. -1.
         11    1    4    4    0    0 -0.54059612804E-01  0.11419170850E-01  0.45862240665E-02  0.55444871464E-01  0.51100000000E-03 0.  1.
</event>
<event>
 8    1  0.1132492E+005  0.1043930E+01  0.7957747E-01            NaN
         13   -1    0    0    0    0  0.00000000000E+00  0.00000000000E+00  0.74505805969E-08  0.10566000000E+00  0.10566000000E+00 0. -1.
     999900   -1    0    0    0    0 -0.00000000000E+00 -0.00000000000E+00 -0.74505805969E-08  0.93827000000E+00  0.93827000000E+00 0. -1.
     999902    2    1    2    0    0  0.93086110676E-02  0.20705682025E-01 -0.10791704448E-01  0.10187936440E+01  0.10184835063E+01 0.  0.
     999903    2    3    3    0    0  0.77743596345E-01  0.10536423123E+00 -0.48458829474E-02  0.13206608158E+00  0.16500888665E-01 0.  0.
         14    1    1    2    0    0 -0.93086110676E-02 -0.20705682025E-01  0.10791704448E-01  0.25136356001E-01  0.00000000000E+00 0. -1.
     999901    1    3    3    0    0 -0.68434985277E-01 -0.84658549204E-01 -0.59458215002E-02  0.88672756242E+00  0.88000000000E+00 0. -1.
        -11    1    4    4    0    0  0.57082347030E-01  0.81654608676E-01  0.29041736908E-02  0.99672287053E-01  0.51100000000E-03 0.  1.
         11    1    4    4    0    0  0.20661249315E-01  0.23709622553E-01 -0.77500566382E-02  0.32393794525E-01  0.51100000000E-03 0. -1.
</event>
<event>
 8    1  0.1132492E+005  0.1043930E+01  0.7957747E-01            NaN
         13   -1    0    0    0    0  0.00000000000E+00  0.00000000000E+00  0.74505805969E-08  0.10566000000E+00  0.10566000000E+00 0.  1.
     999900   -1    0    0    0    0 -0.00000000000E+00 -0.00000000000E+00 -0.74505805969E-08  0.93827000000E+00  0.93827000000E+00 0.  1.
     999902    2    1    2    0    0  0.14489969927E-01  0.17317204675E-02 -0.18337694515E-01  0.10204943621E+01  0.10202252271E+01 0.  0.
     999903    2    3    3    0    0  0.25464586060E-01 -0.26750195542E-01 -0.12657598616E+00  0.13333756111E+00  0.19834485766E-01 0.  0.
         14    1    1    2    0    0 -0.14489969927E-01 -0.17317204675E-02  0.18337694515E-01  0.23435637913E-01  0.00000000000E+00 0.  1.
     999901    1    3    3    0    0 -0.10974616133E-01  0.28481916010E-01  0.10823829165E+00  0.88715680098E+00  0.88000000000E+00 0. -1.
        -11    1    4    4    0    0 -0.23417578149E-03 -0.12524845208E-01 -0.36791945359E-01  0.38869460379E-01  0.51100000000E-03 0. -1.
         11    1    4    4    0    0  0.25698761842E-01 -0.14225350334E-01 -0.89784040802E-01  0.94468100733E-01  0.51100000000E-03 0.  1.
</event>
<event>
 8    1  0.1132492E+005  0.1043930E+01  0.7957747E-01            NaN
         13   -1    0    0    0    0  0.00000000000E+00  0.00000000000E+00  0.74505805969E-08  0.10566000000E+00  0.10566000000E+00 0. -1.
     999900   -1    0    0    0    0 -0.00000000000E+00 -0.00000000000E+00 -0.74505805969E-08  0.93827000000E+00  0.93827000000E+00 0.  1.
     999902    2    1    2    0    0  0.36228153898E-02  0.19692732864E-01 -0.13680719864E-01  0.10196794203E+01  0.10193910092E+01 0.  0.
     999903    2    3    3    0    0 -0.99433385419E-01 -0.88084401208E-02  0.77886189664E-01  0.12849066573E+00  0.21886203080E-01 0.  0.
         14    1    1    2    0    0 -0.36228153898E-02 -0.19692732864E-01  0.13680719864E-01  0.24250579684E-01  0.00000000000E+00 0. -1.
     999901    1    3    3    0    0  0.10305620081E+00  0.28501172985E-01 -0.91566909527E-01  0.89118875459E+00  0.88000000000E+00 0.  1.
        -11    1    4    4    0    0 -0.83560060452E-01 -0.15246962897E-01  0.62466252267E-01  0.10543740974E+00  0.51100000000E-03 0.  1.
         11    1    4    4    0    0 -0.15873324967E-01  0.64385227767E-02  0.15419937396E-01  0.23053255982E-01  0.51100000000E-03 0. -1.
</event>
<event>
 8    1  0.1132492E+005  0.1043930E+01  0.7957747E-01            NaN
         13   -1    0    0    0    0  0.00000000000E+00  0.00000000000E+00  0.74505805969E-08  0.10566000000E+00  0.10566000000E+00 0.  1.
     999900   -1    0    0    0    0 -0.00000000000E+00 -0.00000000000E+00 -0.74505805969E-08  0.93827000000E+00  0.93827000000E+00 0. -1.
     999902    2    1    2    0    0  0.12834084837E-01 -0.81776976150E-02  0.69573272264E-03  0.10286960735E+01  0.10285832680E+01 0.  0.
     999903    2    3    3    0    0 -0.11431769819E+00 -0.50177895362E-01 -0.52448298375E-01  0.13698093931E+00  0.20654210936E-01 0.  0.
         14    1    1    2    0    0 -0.12834084837E-01  0.81776976150E-02 -0.69573272264E-03  0.15233926477E-01  0.00000000000E+00 0.  1.
     999901    1    3    3    0    0  0.12715178303E+00  0.42000197747E-01  0.53144031097E-01  0.89171513421E+00  0.88000000000E+00 0.  1.
        -11    1    4    4    0    0 -0.77688244231E-01 -0.37810168753E-01 -0.45660511029E-01  0.97725204227E-01  0.51100000000E-03 0.  1.
         11    1    4    4    0    0 -0.36629453962E-01 -0.12367726609E-01 -0.67877873456E-02  0.39255735085E-01  0.51100000000E-03 0. -1.
</event>
<event>
 8    1  0.1399651E+005  0.1043930E+01  0.7957747E-01            NaN
         13   -1    0    0    0    0  0.00000000000E+00  0.00000000000E+00  0.74505805969E-08  0.10566000000E+00  0.10566000000E+00 0.  1.
     999900   -1    0    0    0    0 -0.00000000000E+00 -0.00000000000E+00 -0.74505805969E-08  0.93827000000E+00  0.93827000000E+00 0. -1.
     999902    2    1    2    0    0 -0.22487589347E-01  0.39496691102E-02 -0.61006533489E-02  0.10202971937E+01  0.10200234576E+01 0.  0.
     999903    2    3    3    0    0  0.12186171411E+00 -0.32794923436E-01 -0.28383242399E-02  0.12777406839E+00  0.19808384577E-01 0.  0.
         14    1    1    2    0    0  0.22487589347E-01 -0.39496691102E-02  0.61006533489E-02  0.23632806266E-01  0.00000000000E+00 0. -1.
     999901    1    3    3    0    0 -0.14434930345E+00  0.36744592546E-01 -0.32623291090E-02  0.89252312535E+00  0.88000000000E+00 0. -1.
        -11    1    4    4    0    0  0.72161937968E-01 -0.23884095882E-01  0.69806418036E-02  0.76333385936E-01  0.51100000000E-03 0. -1.
         11    1    4    4    0    0  0.49699776138E-01 -0.89108275539E-02 -0.98189660436E-02  0.51440682451E-01  0.51100000000E-03 0.  1.
</event>
<event>
 8    1  0.1132492E+005  0.1043930E+01  0.7957747E-01            NaN
         13   -1    0    0    0    0  0.00000000000E+00  0.00000000000E+00  0.74505805969E-08  0.10566000000E+00  0.10566000000E+00 0. -1.
     999900   -1    0    0    0    0 -0.00000000000E+00 -0.00000000000E+00 -0.74505805969E-08  0.93827000000E+00  0.93827000000E+00 0.  1.
     999902    2    1    2    0    0  0.99353630071E-02 -0.17991589241E-01  0.10730951785E-01  0.10207446156E+01  0.10204812631E+01 0.  0.
     999903    2    3    3    0    0  0.69126561768E-01  0.62539511283E-01  0.90467036914E-01  0.13150522187E+00  0.20485765758E-01 0.  0.
         14    1    1    2    0    0 -0.99353630071E-02  0.17991589241E-01 -0.10730951785E-01  0.23185384356E-01  0.00000000000E+00 0. -1.
     999901    1    3    3    0    0 -0.59191198761E-01 -0.80531100524E-01 -0.79736085129E-01  0.88923939377E+00  0.88000000000E+00 0. -1.
        -11    1    4    4    0    0  0.15641546041E-01  0.22264368765E-01  0.36382867772E-01  0.45434945442E-01  0.51100000000E-03 0.  1.
         11    1    4    4    0    0  0.53485015727E-01  0.40275142518E-01  0.54084169142E-01  0.86070276431E-01  0.51100000000E-03 0. -1.
</event>
<event>
 8    1  0.1132492E+005  0.1043930E+01  0.7957747E-01            NaN
         13   -1    0    0    0    0  0.00000000000E+00  0.00000000000E+00  0.74505805969E-08  0.10566000000E+00  0.10566000000E+00 0. -1.
     999900   -1    0    0    0    0 -0.00000000000E+00 -0.00000000000E+00 -0.74505805969E-08  0.93827000000E+00  0.93827000000E+00 0.  1.
     999902    2    1    2    0    0  0.23450872127E-01 -0.44835728477E-02 -0.33877032463E-02  0.10198152252E+01  0.10195300737E+01 0.  0.
     999903    2    3    3    0    0  0.42721850585E-01  0.10996502673E+00  0.52105279287E-01  0.13046190755E+00  0.19694810729E-01 0.  0.
         14    1    1    2    0    0 -0.23450872127E-01  0.44835728477E-02  0.33877032463E-02  0.24114774772E-01  0.00000000000E+00 0. -1.
     999901    1    3    3    0    0 -0.19270978457E-01 -0.11444859958E+00 -0.55492982533E-01  0.88935331768E+00  0.88000000000E+00 0.  1.
        -11    1    4    4    0    0  0.17047757198E-01  0.51437018240E-01  0.34227400169E-01  0.64094999136E-01  0.51100000000E-03 0. -1.
         11    1    4    4    0    0  0.25674093387E-01  0.58528008494E-01  0.17877879118E-01  0.66366908413E-01  0.51100000000E-03 0.  1.
</event>
<event>
 8    1  0.1132492E+005  0.1043930E+01  0.7957747E-01            NaN
         13   -1    0    0    0    0  0.00000000000E+00  0.00000000000E+00  0.74505805969E-08  0.10566000000E+00  0.10566000000E+00 0.  1.
     999900   -1    0    0    0    0 -0.00000000000E+00 -0.00000000000E+00 -0.74505805969E-08  0.93827000000E+00  0.93827000000E+00 0. -1.
     999902    2    1    2    0    0  0.13495175779E-01 -0.14399184087E-01  0.12675717145E-01  0.10204751481E+01  0.10202055665E+01 0.  0.
     999903    2    3    3    0    0  0.11334402486E+00 -0.46775779173E-01  0.48907393532E-01  0.13349669802E+00  0.19864383936E-01 0.  0.
         14    1    1    2    0    0 -0.13495175779E-01  0.14399184087E-01 -0.12675717145E-01  0.23454851882E-01  0.00000000000E+00 0. -1.
     999901    1    3    3    0    0 -0.99848849086E-01  0.32376595086E-01 -0.36231676387E-01  0.88697845010E+00  0.88000000000E+00 0.  1.
        -11    1    4    4    0    0  0.69789074931E-01 -0.19545676140E-01  0.23523283238E-01  0.76198126032E-01  0.51100000000E-03 0. -1.
         11    1    4    4    0    0  0.43554949933E-01 -0.27230103033E-01  0.25384110294E-01  0.57298571983E-01  0.51100000000E-03 0.  1.
</event>
<event>
 8    1  0.1132492E+005  0.1043930E+01  0.7957747E-01            NaN
         13   -1    0    0    0    0  0.00000000000E+00  0.00000000000E+00  0.74505805969E-08  0.10566000000E+00  0.10566000000E+00 0. -1.
     999900   -1    0    0    0    0 -0.00000000000E+00 -0.00000000000E+00 -0.74505805969E-08  0.93827000000E+00  0.93827000000E+00 0. -1.
     999902    2    1    2    0    0  0.25624455108E-02  0.22919793423E-01  0.72627554605E-02  0.10197508628E+01  0.10194641688E+01 0.  0.
     999903    2    3    3    0    0  0.24474955374E-01 -0.64026429911E-01 -0.10618937581E+00  0.12794864825E+00  0.19906428232E-01 0.  0.
         14    1    1    2    0    0 -0.25624455108E-02 -0.22919793423E-01 -0.72627554605E-02  0.24179137173E-01  0.00000000000E+00 0.  1.
     999901    1    3    3    0    0 -0.21912509863E-01  0.86946223334E-01  0.11345213127E+00  0.89180221458E+00  0.88000000000E+00 0.  1.
        -11    1    4    4    0    0  0.10606285143E-01 -0.41372772961E-01 -0.79745642516E-01  0.90464513751E-01  0.51100000000E-03 0.  1.
         11    1    4    4    0    0  0.13868670231E-01 -0.22653656950E-01 -0.26443733297E-01  0.37484134496E-01  0.51100000000E-03 0. -1.
</event>
<event>
 8    1  0.1132492E+005  0.1043930E+01  0.7957747E-01            NaN
         13   -1    0    0    0    0  0.00000000000E+00  0.00000000000E+00  0.74505805969E-08  0.10566000000E+00  0.10566000000E+00 0. -1.
     999900   -1    0    0    0    0 -0.00000000000E+00 -0.00000000000E+00 -0.74505805969E-08  0.93827000000E+00  0.93827000000E+00 0.  1.
     999902    2    1    2    0    0 -0.88810278121E-02 -0.70883570888E-02  0.22092791247E-01  0.10190863109E+01  0.10187834413E+01 0.  0.
     999903    2    3    3    0    0 -0.82612422245E-01  0.96057635051E-01 -0.13707599402E-01  0.12927898225E+00  0.21754893900E-01 0.  0.
         14    1    1    2    0    0  0.88810278121E-02  0.70883570888E-02 -0.22092791247E-01  0.24843689064E-01  0.00000000000E+00 0.  1.
     999901    1    3    3    0    0  0.73731394432E-01 -0.10314599214E+00  0.35800390648E-01  0.88980732869E+00  0.88000000000E+00 0.  1.
        -11    1    4    4    0    0 -0.61152767838E-01  0.58857394454E-01 -0.26009056748E-02  0.84916898951E-01  0.51100000000E-03 0.  1.
         11    1    4    4    0    0 -0.21459654406E-01  0.37200240598E-01 -0.11106693727E-01  0.44362083295E-01  0.51100000000E-03 0. -1.
</event>
<event>
 8    1  0.1132492E+005  0.1043930E+01  0.7957747E-01            NaN
         13   -1    0    0    0    0  0.00000000000E+00  0.00000000000E+00  0.74505805969E-08  0.10566000000E+00  0.10566000000E+00 0. -1.
     999900   -1    0    0    0    0 -0.00000000000E+00 -0.00000000000E+00 -0.74505805969E-08  0.93827000000E+00  0.93827000000E+00 0.  1.
     999902    2    1    2    0    0 -0.12243430546E-01  0.17073763802E-01  0.14312467027E-01  0.10185083220E+01  0.10181910136E+01 0.  0.
     999903    2    3    3    0    0  0.99815666510E-01 -0.44275117154E-01  0.63645454280E-01  0.12791600779E+00  0.19705530161E-01 0.  0.
         14    1    1    2    0    0  0.12243430546E-01 -0.17073763802E-01 -0.14312467027E-01  0.25421678039E-01  0.00000000000E+00 0.  1.
     999901    1    3    3    0    0 -0.11205909706E+00  0.61348880956E-01 -0.49332987253E-01  0.89059231417E+00  0.88000000000E+00 0.  1.
        -11    1    4    4    0    0  0.32092206576E-01 -0.15407878723E-01  0.31672091393E-01  0.47651809450E-01  0.51100000000E-03 0.  1.
         11    1    4    4    0    0  0.67723459934E-01 -0.28867238431E-01  0.31973362887E-01  0.80264198341E-01  0.51100000000E-03 0. -1.
</event>
<event>
 8    1  0.1132492E+005  0.1043930E+01  0.7957747E-01            NaN
         13   -1    0    0    0    0  0.00000000000E+00  0.00000000000E+00  0.74505805969E-08  0.10566000000E+00  0.10566000000E+00 0. -1.
     999900   -1    0    0    0    0 -0.00000000000E+00 -0.00000000000E+00 -0.74505805969E-08  0.93827000000E+00  0.93827000000E+00 0. -1.
     999902    2    1    2    0    0  0.15254341682E-01 -0.17467310676E-01 -0.49481234594E-02  0.10202174335E+01  0.10199418248E+01 0.  0.
     999903    2    3    3    0    0  0.11799732722E+00  0.38467773472E-01  0.38290823935E-01  0.13142360970E+00  0.20070853583E-01 0.  0.
         14    1    1    2    0    0 -0.15254341682E-01  0.17467310676E-01  0.49481234594E-02  0.23712566461E-01  0.00000000000E+00 0.  1.
     999901    1    3    3    0    0 -0.10274298554E+00 -0.55935084148E-01 -0.43238947394E-01  0.88879382383E+00  0.88000000000E+00 0. -1.
        -11    1    4    4    0    0  0.65859481077E-01  0.16728472700E-01  0.30180882526E-01  0.74353613481E-01  0.51100000000E-03 0.  1.
         11    1    4    4    0    0  0.52137846141E-01  0.21739300772E-01  0.81099414090E-02  0.57069996223E-01  0.51100000000E-03 0. -1.
</event>
<event>
 8    1  0.1132492E+005  0.1043930E+01  0.7957747E-01            NaN
         13   -1    0    0    0    0  0.00000000000E+00  0.00000000000E+00  0.74505805969E-08  0.10566000000E+00  0.10566000000E+00 0.  1.
     999900   -1    0    0    0    0 -0.00000000000E+00 -0.00000000000E+00 -0.74505805969E-08  0.93827000000E+00  0.93827000000E+00 0. -1.
     999902    2    1    2    0    0  0.14344171415E-01  0.52187588844E-02 -0.18756703800E-01  0.10197472658E+01  0.10194604854E+01 0.  0.
     999903    2    3    3    0    0  0.43887140083E-01  0.59313378175E-01 -0.10858000836E+00  0.13303015141E+00  0.21523128850E-01 0.  0.
         14    1    1    2    0    0 -0.14344171415E-01 -0.52187588844E-02  0.18756703800E-01  0.24182734240E-01  0.00000000000E+00 0.  1.
     999901    1    3    3    0    0 -0.29542968668E-01 -0.54094619291E-01  0.89823304555E-01  0.88671711435E+00  0.88000000000E+00 0.  1.
        -11    1    4    4    0    0  0.31759868946E-01  0.24983070285E-01 -0.59117983844E-01  0.71610335924E-01  0.51100000000E-03 0. -1.
         11    1    4    4    0    0  0.12127271137E-01  0.34330307890E-01 -0.49462024511E-01  0.61419815490E-01  0.51100000000E-03 0.  1.
</event>
<event>
 8    1  0.1132492E+005  0.1043930E+01  0.7957747E-01            NaN
         13   -1    0    0    0    0  0.00000000000E+00  0.00000000000E+00  0.74505805969E-08  0.10566000000E+00  0.10566000000E+00 0.  1.
     999900   -1    0    0    0    0 -0.00000000000E+00 -0.00000000000E+00 -0.74505805969E-08  0.93827000000E+00  0.93827000000E+00 0.  1.
     999902    2    1    2    0    0  0.16806088082E-01  0.11683666454E-01 -0.48791889959E-02  0.10228881573E+01  0.10226717084E+01 0.  0.
     999903    2    3    3    0    0  0.45766385349E-01  0.11239316128E+00  0.54888819515E-01  0.13465771649E+00  0.19827591138E-01 0.  0.
         14    1    1    2    0    0 -0.16806088082E-01 -0.11683666454E-01  0.48791889959E-02  0.21041842688E-01  0.00000000000E+00 0.  1.
     999901    1    3    3    0    0 -0.28960297267E-01 -0.10070949483E+00 -0.59768008511E-01  0.88823044083E+00  0.88000000000E+00 0.  1.
        -11    1    4    4    0    0  0.16905099946E-01  0.20212312014E-01  0.12585864969E-01  0.29205908292E-01  0.51100000000E-03 0.  1.
         11    1    4    4    0    0  0.28861285404E-01  0.92180849271E-01  0.42302954546E-01  0.10545180820E+00  0.51100000000E-03 0. -1.
</event>
<event>
 8    1  0.1132492E+005  0.1043930E+01  0.7957747E-01            NaN
         13   -1    0    0    0    0  0.00000000000E+00  0.00000000000E+00  0.74505805969E-08  0.10566000000E+00  0.10566000000E+00 0. -1.
     999900   -1    0    0    0    0 -0.00000000000E+00 -0.00000000000E+00 -0.74505805969E-08  0.93827000000E+00  0.93827000000E+00 0.  1.
     999902    2    1    2    0    0  0.12111203772E-01  0.12646413975E-01 -0.37682354058E-02  0.10260187566E+01  0.10258624061E+01 0.  0.
     999903    2    3    3    0    0  0.69517160272E-01  0.11601053851E+00 -0.17479537966E-01  0.13800547632E+00  0.21187180765E-01 0.  0.
         14    1    1    2    0    0 -0.12111203772E-01 -0.12646413975E-01  0.37682354058E-02  0.17911243433E-01  0.00000000000E+00 0. -1.
     999901    1    3    3    0    0 -0.57405956500E-01 -0.10336412453E+00  0.13711302560E-01  0.88801328025E+00  0.88000000000E+00 0. -1.
        -11    1    4    4    0    0  0.29853013376E-01  0.66429497295E-01 -0.15591257155E-01  0.74481064299E-01  0.51100000000E-03 0. -1.
         11    1    4    4    0    0  0.39664146896E-01  0.49581041213E-01 -0.18882808110E-02  0.63524412018E-01  0.51100000000E-03 0.  1.
</event>
<event>
 8    1  0.1132492E+005  0.1043930E+01  0.7957747E-01            NaN
         13   -1    0    0    0    0  0.00000000000E+00  0.00000000000E+00  0.74505805969E-08  0.10566000000E+00  0.10566000000E+00 0. -1.
     999900   -1    0    0    0    0 -0.00000000000E+00 -0.00000000000E+00 -0.74505805969E-08  0.93827000000E+00  0.93827000000E+00 0.  1.
     999902    2    1    2    0    0  0.11183596660E-01 -0.35158776188E-02 -0.20762743054E-01  0.10200862224E+01  0.10198075188E+01 0.  0.
     999903    2    3    3    0    0  0.10487462125E+00 -0.51502648153E-01 -0.60270553766E-01  0.13293256869E+00  0.19680427321E-01 0.  0.
         14    1    1    2    0    0 -0.11183596660E-01  0.35158776188E-02  0.20762743054E-01  0.23843777570E-01  0.00000000000E+00 0. -1.
     999901    1    3    3    0    0 -0.93691024585E-01  0.47986770534E-01  0.39507810712E-01  0.88715365374E+00  0.88000000000E+00 0. -1.
        -11    1    4    4    0    0  0.53777163302E-01 -0.17440091189E-01 -0.22595343149E-01  0.60884733115E-01  0.51100000000E-03 0.  1.
         11    1    4    4    0    0  0.51097457944E-01 -0.34062556964E-01 -0.37675210617E-01  0.72047835577E-01  0.51100000000E-03 0. -1.
</event>
<event>
 8    1  0.1132492E+005  0.1043930E+01  0.7957747E-01            NaN
         13   -1    0    0    0    0  0.00000000000E+00  0.00000000000E+00  0.74505805969E-08  0.10566000000E+00  0.10566000000E+00 0.  1.
     999900   -1    0    0    0    0 -0.00000000000E+00 -0.00000000000E+00 -0.74505805969E-08  0.93827000000E+00  0.93827000000E+00 0.  1.
     999902    2    1    2    0    0  0.40928409809E-02 -0.46012459907E-02 -0.29625019912E-01  0.10136717017E+01  0.10132199930E+01 0.  0.
     999903    2    3    3    0    0  0.86978491470E-02  0.66459867413E-01  0.99308201433E-01  0.12143033104E+00  0.19764611484E-01 0.  0.
         14    1    1    2    0    0 -0.40928409809E-02  0.46012459907E-02  0.29625019912E-01  0.30258298312E-01  0.00000000000E+00 0.  1.
     999901    1    3    3    0    0 -0.46050081660E-02 -0.71061113404E-01 -0.12893322134E+00  0.89224137065E+00  0.88000000000E+00 0.  1.
        -11    1    4    4    0    0  0.68822566626E-03  0.47193137518E-01  0.80587434369E-01  0.93393048898E-01  0.51100000000E-03 0. -1.
         11    1    4    4    0    0  0.80096234807E-02  0.19266729895E-01  0.18720767064E-01  0.28037282137E-01  0.51100000000E-03 0.  1.
</event>
<event>
 8    1  0.1132492E+005  0.1043930E+01  0.7957747E-01            NaN
         13   -1    0    0    0    0  0.00000000000E+00  0.00000000000E+00  0.74505805969E-08  0.10566000000E+00  0.10566000000E+00 0.  1.
     999900   -1    0    0    0    0 -0.00000000000E+00 -0.00000000000E+00 -0.74505805969E-08  0.93827000000E+00  0.93827000000E+00 0. -1.
     999902    2    1    2    0    0  0.37067414280E-02  0.17711281465E-01  0.15338747755E-01  0.10202085623E+01  0.10199327448E+01 0.  0.
     999903    2    3    3    0    0  0.48787982327E-01  0.11179682997E+00  0.49697949410E-01  0.13337996362E+00  0.21012617863E-01 0.  0.
         14    1    1    2    0    0 -0.37067414280E-02 -0.17711281465E-01 -0.15338747755E-01  0.23721437685E-01  0.00000000000E+00 0. -1.
     999901    1    3    3    0    0 -0.45081240899E-01 -0.94085548507E-01 -0.34359201655E-01  0.88682859869E+00  0.88000000000E+00 0.  1.
        -11    1    4    4    0    0  0.37387019592E-01  0.60038117871E-01  0.30168632674E-01  0.76894553448E-01  0.51100000000E-03 0.  1.
         11    1    4    4    0    0  0.11400962735E-01  0.51758712101E-01  0.19529316736E-01  0.56485410176E-01  0.51100000000E-03 0. -1.
</event>
<event>
 8    1  0.1132492E+005  0.1043930E+01  0.7957747E-01            NaN
         13   -1    0    0    0    0  0.00000000000E+00  0.00000000000E+00  0.74505805969E-08  0.10566000000E+00  0.10566000000E+00 0. -1.
     999900   -1    0    0    0    0 -0.00000000000E+00 -0.00000000000E+00 -0.74505805969E-08  0.93827000000E+00  0.93827000000E+00 0. -1.
     999902    2    1    2    0    0  0.21926784014E-01  0.37060705149E-02 -0.89782825628E-02  0.10199481658E+01  0.10196661868E+01 0.  0.
     999903    2    3    3    0    0  0.32377819895E-01  0.12288977694E+00 -0.28065750694E-01  0.13164736565E+00  0.19827305037E-01 0.  0.
         14    1    1    2    0    0 -0.21926784014E-01 -0.37060705149E-02  0.89782825628E-02  0.23981834242E-01  0.00000000000E+00 0. -1.
     999901    1    3    3    0    0 -0.10451035881E-01 -0.11918370642E+00  0.19087468131E-01  0.88830080010E+00  0.88000000000E+00 0.  1.
        -11    1    4    4    0    0  0.18395621431E-01  0.54976631247E-01 -0.34837489010E-02  0.58079484317E-01  0.51100000000E-03 0.  1.
         11    1    4    4    0    0  0.13982198464E-01  0.67913145688E-01 -0.24582001793E-01  0.73567881336E-01  0.51100000000E-03 0. -1.
</event>
<event>
 8    1  0.1132492E+005  0.1043930E+01  0.7957747E-01            NaN
         13   -1    0    0    0    0  0.00000000000E+00  0.00000000000E+00  0.74505805969E-08  0.10566000000E+00  0.10566000000E+00 0. -1.
     999900   -1    0    0    0    0 -0.00000000000E+00 -0.00000000000E+00 -0.74505805969E-08  0.93827000000E+00  0.93827000000E+00 0.  1.
     999902    2    1    2    0    0 -0.13180982739E-01 -0.18271897332E-01  0.62666415435E-02  0.10205447197E+01  0.10202767534E+01 0.  0.
     999903    2    3    3    0    0 -0.12979489186E-01 -0.52328906658E-01 -0.11788983484E+00  0.13117710668E+00  0.20065855244E-01 0.  0.
         14    1    1    2    0    0  0.13180982739E-01  0.18271897332E-01 -0.62666415435E-02  0.23385280291E-01  0.00000000000E+00 0.  1.
     999901    1    3    3    0    0 -0.20149355267E-03  0.34057009326E-01  0.12415647638E+00  0.88936761303E+00  0.88000000000E+00 0. -1.
        -11    1    4    4    0    0 -0.94614659243E-02 -0.47035412242E-01 -0.84393069796E-01  0.97078837513E-01  0.51100000000E-03 0.  1.
         11    1    4    4    0    0 -0.35180232619E-02 -0.52934944164E-02 -0.33496765040E-01  0.34098269163E-01  0.51100000000E-03 0. -1.
</event>
<event>
 8    1  0.1132492E+005  0.1043930E+01  0.7957747E-01            NaN
         13   -1    0    0    0    0  0.00000000000E+00  0.00000000000E+00  0.74505805969E-08  0.10566000000E+00  0.10566000000E+00 0. -1.
     999900   -1    0    0    0    0 -0.00000000000E+00 -0.00000000000E+00 -0.74505805969E-08  0.93827000000E+00  0.93827000000E+00 0. -1.
     999902    2    1    2    0    0  0.97486517614E-02 -0.74219929365E-02  0.18158543182E-01  0.10220244098E+01  0.10217896258E+01 0.  0.
     999903    2    3    3    0    0 -0.11146298331E+00  0.56950608597E-01 -0.29157799600E-01  0.13013039785E+00  0.20405261538E-01 0.  0.
         14    1    1    2    0    0 -0.97486517614E-02  0.74219929365E-02 -0.18158543182E-01  0.21905590173E-01  0.00000000000E+00 0.  1.
     999901    1    3    3    0    0  0.12121163508E+00 -0.64372601533E-01  0.47316342783E-01  0.89189401198E+00  0.88000000000E+00 0. -1.
        -11    1    4    4    0    0 -0.88324795619E-01  0.35330447227E-01 -0.20868287870E-01  0.97392281943E-01  0.51100000000E-03 0. -1.
         11    1    4    4    0    0 -0.23138187695E-01  0.21620161370E-01 -0.82895117307E-02  0.32738115908E-01  0.51100000000E-03 0.  1.
</event>
<event>
 8    1  0.1132492E+005  0.1043930E+01  0.7957747E-01            NaN
         13   -1    0    0    0    0  0.00000000000E+00  0.00000000000E+00  0.74505805969E-08  0.10566000000E+00  0.10566000000E+00 0.  1.
     999900   -1    0    0    0    0 -0.00000000000E+00 -0.00000000000E+00 -0.74505805969E-08  0.93827000000E+00  0.93827000000E+00 0. -1.
     999902    2    1    2    0    0 -0.92704444289E-02  0.82871156744E-02  0.19301128240E-01  0.10209702313E+01  0.10207120369E+01 0.  0.
     999903    2    3    3    0    0  0.96918218110E-01 -0.82549426604E-01 -0.11980230507E-01  0.12939531419E+00  0.19800822640E-01 0.  0.
         14    1    1    2    0    0  0.92704444289E-02 -0.82871156744E-02 -0.19301128240E-01  0.22959768671E-01  0.00000000000E+00 0. -1.
     999901    1    3    3    0    0 -0.10618866254E+00  0.90836542279E-01  0.31281358747E-01  0.89157491714E+00  0.88000000000E+00 0.  1.
        -11    1    4    4    0    0  0.81850031352E-01 -0.78059116441E-01 -0.10256672539E-01  0.11356986284E+00  0.51100000000E-03 0.  1.
         11    1    4    4    0    0  0.15068186757E-01 -0.44903101630E-02 -0.17235579681E-02  0.15825451355E-01  0.51100000000E-03 0. -1.
</event>
<event>
 8    1  0.1132492E+005  0.1043930E+01  0.7957747E-01            NaN
         13   -1    0    0    0    0  0.00000000000E+00  0.00000000000E+00  0.74505805969E-08  0.10566000000E+00  0.10566000000E+00 0. -1.
     999900   -1    0    0    0    0 -0.00000000000E+00 -0.00000000000E+00 -0.74505805969E-08  0.93827000000E+00  0.93827000000E+00 0.  1.
     999902    2    1    2    0    0 -0.17719466907E-02  0.48086041207E-02 -0.22283785348E-01  0.10210645335E+01  0.10208084796E+01 0.  0.
     999903    2    3    3    0    0  0.10882577852E+00  0.54646250151E-01  0.42420559792E-01  0.13038934015E+00  0.19303196754E-01 0.  0.
         14    1    1    2    0    0  0.17719466907E-02 -0.48086041207E-02  0.22283785348E-01  0.22865466497E-01  0.00000000000E+00 0. -1.
     999901    1    3    3    0    0 -0.11059772521E+00 -0.49837646030E-01 -0.64704345140E-01  0.89067519336E+00  0.88000000000E+00 0.  1.
        -11    1    4    4    0    0  0.24696101814E-01  0.84900887660E-02  0.16839548531E-01  0.31077492946E-01  0.51100000000E-03 0.  1.
         11    1    4    4    0    0  0.84129676704E-01  0.46156161385E-01  0.25581011261E-01  0.99311847199E-01  0.51100000000E-03 0. -1.
</event>
<event>
 8    1  0.1132492E+005  0.1043930E+01  0.7957747E-01            NaN
         13   -1    0    0    0    0  0.00000000000E+00  0.00000000000E+00  0.74505805969E-08  0.10566000000E+00  0.10566000000E+00 0.  1.
     999900   -1    0    0    0    0 -0.00000000000E+00 -0.00000000000E+00 -0.74505805969E-08  0.93827000000E+00  0.93827000000E+00 0. -1.
     999902    2    1    2    0    0 -0.21869210229E-01  0.39065313970E-02 -0.95203335157E-02  0.10197605959E+01  0.10194741355E+01 0.  0.
     999903    2    3    3    0    0  0.17621563637E-02 -0.80400269552E-01 -0.10108506769E+00  0.13068794494E+00  0.19845389985E-01 0.  0.
         14    1    1    2    0    0  0.21869210229E-01 -0.39065313970E-02  0.95203335157E-02  0.24169404085E-01  0.00000000000E+00 0.  1.
     999901    1    3    3    0    0 -0.23631366593E-01  0.84306800949E-01  0.91564734170E-01  0.88907265098E+00  0.88000000000E+00 0.  1.
        -11    1    4    4    0    0  0.72560165167E-02 -0.35755762083E-01 -0.57172501280E-01  0.67823891966E-01  0.51100000000E-03 0. -1.
         11    1    4    4    0    0 -0.54938601529E-02 -0.44644507469E-01 -0.43912566405E-01  0.62864052970E-01  0.51100000000E-03 0.  1.
</event>
<event>
 8    1  0.1132492E+005  0.1043930E+01  0.7957747E-01            NaN
         13   -1    0    0    0    0  0.00000000000E+00  0.00000000000E+00  0.74505805969E-08  0.10566000000E+00  0.10566000000E+00 0.  1.
     999900   -1    0    0    0    0 -0.00000000000E+00 -0.00000000000E+00 -0.74505805969E-08  0.93827000000E+00  0.93827000000E+00 0. -1.
     999902    2    1    2    0    0  0.10095591405E-01 -0.16075873512E-01  0.13900674492E-01  0.10204016463E+01  0.10201303527E+01 0.  0.
     999903    2    3    3    0    0  0.66520506001E-01  0.48254120004E-01  0.10126627749E+00  0.13194519403E+00  0.20030912499E-01 0.  0.
         14    1    1    2    0    0 -0.10095591405E-01  0.16075873512E-01 -0.13900674492E-01  0.23528353668E-01  0.00000000000E+00 0.  1.
     999901    1    3    3    0    0 -0.56424914596E-01 -0.64329993516E-01 -0.87365602993E-01  0.88845645230E+00  0.88000000000E+00 0. -1.
        -11    1    4    4    0    0  0.44161513660E-01  0.39203826139E-01  0.60291422252E-01  0.84394881307E-01  0.51100000000E-03 0.  1.
         11    1    4    4    0    0  0.22358992342E-01  0.90502938654E-02  0.40974855233E-01  0.47550312722E-01  0.51100000000E-03 0. -1.
</event>
<event>
 8    1  0.1132492E+005  0.1043930E+01  0.7957747E-01            NaN
         13   -1    0    0    0    0  0.00000000000E+00  0.00000000000E+00  0.74505805969E-08  0.10566000000E+00  0.10566000000E+00 0.  1.
     999900   -1    0    0    0    0 -0.00000000000E+00 -0.00000000000E+00 -0.74505805969E-08  0.93827000000E+00  0.93827000000E+00 0. -1.
     999902    2    1    2    0    0  0.88291946646E-02 -0.21075011330E-01 -0.48329191725E-02  0.10205747460E+01  0.10203074754E+01 0.  0.
     999903    2    3    3    0    0  0.99026848302E-01  0.63060160203E-01  0.52537265869E-01  0.13012223075E+00  0.19716240536E-01 0.  0.
         14    1    1    2    0    0 -0.88291946646E-02  0.21075011330E-01  0.48329191725E-02  0.23355253985E-01  0.00000000000E+00 0. -1.
     999901    1    3    3    0    0 -0.90197653638E-01 -0.84135171532E-01 -0.57370185042E-01  0.89045251527E+00  0.88000000000E+00 0.  1.
        -11    1    4    4    0    0  0.86482613963E-01  0.50657643852E-01  0.37761800976E-01  0.10710580812E+00  0.51100000000E-03 0.  1.
         11    1    4    4    0    0  0.12544234339E-01  0.12402516350E-01  0.14775464893E-01  0.23016422632E-01  0.51100000000E-03 0. -1.
</event>
<event>
 8    1  0.1132492E+005  0.1043930E+01  0.7957747E-01            NaN
         13   -1    0    0    0    0  0.00000000000E+00  0.00000000000E+00  0.74505805969E-08  0.10566000000E+00  0.10566000000E+00 0.  1.
     999900   -1    0    0    0    0 -0.00000000000E+00 -0.00000000000E+00 -0.74505805969E-08  0.93827000000E+00  0.93827000000E+00 0.  1.
     999902    2    1    2    0    0  0.20728009498E-01  0.11092245705E-02  0.10935505736E-01  0.10204679872E+01  0.10201982390E+01 0.  0.
     999903    2    3    3    0    0  0.12748878641E+00  0.32286578550E-02 -0.30266908910E-01  0.13305602290E+00  0.22891145975E-01 0.  0.
         14    1    1    2    0    0 -0.20728009498E-01 -0.11092245705E-02 -0.10935505736E-01  0.23462012757E-01  0.00000000000E+00 0. -1.
     999901    1    3    3    0    0 -0.10676077691E+00 -0.21194332845E-02  0.41202414646E-01  0.88741196434E+00  0.88000000000E+00 0.  1.
        -11    1    4    4    0    0  0.39961032527E-01  0.71757438510E-02 -0.18612550117E-01  0.44666134412E-01  0.51100000000E-03 0.  1.
         11    1    4    4    0    0  0.87527753881E-01 -0.39470859960E-02 -0.11654358793E-01  0.88389888489E-01  0.51100000000E-03 0. -1.
</event>
<event>
 8    1  0.1132492E+005  0.1043930E+01  0.7957747E-01            NaN
         13   -1    0    0    0    0  0.00000000000E+00  0.00000000000E+00  0.74505805969E-08  0.10566000000E+00  0.10566000000E+00 0. -1.
     999900   -1    0    0    0    0 -0.00000000000E+00 -0.00000000000E+00 -0.74505805969E-08  0.93827000000E+00  0.93827000000E+00 0. -1.
     999902    2    1    2    0    0  0.12451517230E-01 -0.16527556265E-01 -0.11464364429E-01  0.10202734565E+01  0.10199991637E+01 0.  0.
     999903    2    3    3    0    0 -0.10853889586E+00  0.56435538992E-01  0.31525173135E-01  0.12796723461E+00  0.20398887614E-01 0.  0.
         14    1    1    2    0    0 -0.12451517230E-01  0.16527556265E-01  0.11464364429E-01  0.23656543475E-01  0.00000000000E+00 0. -1.
     999901    1    3    3    0    0  0.12099041309E+00 -0.72963095257E-01 -0.42989537564E-01  0.89230622192E+00  0.88000000000E+00 0. -1.
        -11    1    4    4    0    0 -0.36152418628E-01  0.13944375243E-01  0.13667941168E-02  0.38775923210E-01  0.51100000000E-03 0. -1.
         11    1    4    4    0    0 -0.72386477234E-01  0.42491163750E-01  0.30158379018E-01  0.89191311400E-01  0.51100000000E-03 0.  1.
</event>
<event>
 8    1  0.1132492E+005  0.1043930E+01  0.7957747E-01            NaN
         13   -1    0    0    0    0  0.00000000000E+00  0.00000000000E+00  0.74505805969E-08  0.10566000000E+00  0.10566000000E+00 0. -1.
     999900   -1    0    0    0    0 -0.00000000000E+00 -0.00000000000E+00 -0.74505805969E-08  0.93827000000E+00  0.93827000000E+00 0.  1.
     999902    2    1    2    0    0  0.27855791993E-02  0.22806711859E-01 -0.48095134509E-03  0.10209487713E+01  0.10206900885E+01 0.  0.
     999903    2    3    3    0    0  0.28260559720E-01 -0.28147266994E-01  0.12270359045E+00  0.13054452946E+00  0.19868950332E-01 0.  0.
         14    1    1    2    0    0 -0.27855791993E-02 -0.22806711859E-01  0.48095134509E-03  0.22981228676E-01  0.00000000000E+00 0.  1.
     999901    1    3    3    0    0 -0.25474980521E-01  0.50953978852E-01 -0.12318454180E+00  0.89040424186E+00  0.88000000000E+00 0.  1.
        -11    1    4    4    0    0  0.14730701257E-02 -0.12597436932E-03  0.30262841402E-01  0.30303242332E-01  0.51100000000E-03 0.  1.
         11    1    4    4    0    0  0.26787489595E-01 -0.28021292624E-01  0.92440749048E-01  0.10024128713E+00  0.51100000000E-03 0. -1.
</event>
<event>
 8    1  0.1132492E+005  0.1043930E+01  0.7957747E-01            NaN
         13   -1    0    0    0    0  0.00000000000E+00  0.00000000000E+00  0.74505805969E-08  0.10566000000E+00  0.10566000000E+00 0. -1.
     999900   -1    0    0    0    0 -0.00000000000E+00 -0.00000000000E+00 -0.74505805969E-08  0.93827000000E+00  0.93827000000E+00 0.  1.
     999902    2    1    2    0    0  0.14019068309E-01  0.46555940110E-02  0.18538785351E-01  0.10202256672E+01  0.10199502520E+01 0.  0.
     999903    2    3    3    0    0  0.85530210801E-01 -0.37170959182E-01 -0.88145628862E-01  0.12991961403E+00  0.20306576669E-01 0.  0.
         14    1    1    2    0    0 -0.14019068309E-01 -0.46555940110E-02 -0.18538785351E-01  0.23704332813E-01  0.00000000000E+00 0.  1.
     999901    1    3    3    0    0 -0.71511142491E-01  0.41826553193E-01  0.10668441421E+00  0.89030605316E+00  0.88000000000E+00 0. -1.
        -11    1    4    4    0    0  0.33060310547E-01 -0.24126604482E-01 -0.31841308690E-01  0.51857566829E-01  0.51100000000E-03 0.  1.
         11    1    4    4    0    0  0.52469900253E-01 -0.13044354700E-01 -0.56304320171E-01  0.78062047200E-01  0.51100000000E-03 0. -1.
</event>
<event>
 8    1  0.1132492E+005  0.1043930E+01  0.7957747E-01            NaN
         13   -1    0    0    0    0  0.00000000000E+00  0.00000000000E+00  0.74505805969E-08  0.10566000000E+00  0.10566000000E+00 0.  1.
     999900   -1    0    0    0    0 -0.00000000000E+00 -0.00000000000E+00 -0.74505805969E-08  0.93827000000E+00  0.93827000000E+00 0. -1.
     999902    2    1    2    0    0  0.12624652889E-01  0.12049110358E-01  0.15904281141E-01  0.10203183698E+01  0.10200451297E+01 0.  0.
     999903    2    3    3    0    0  0.26774615549E-01  0.10631033899E+00 -0.69631205051E-01  0.13104803969E+00  0.17501879198E-01 0.  0.
         14    1    1    2    0    0 -0.12624652889E-01 -0.12049110358E-01 -0.15904281141E-01  0.23611630176E-01  0.00000000000E+00 0. -1.
     999901    1    3    3    0    0 -0.14149962660E-01 -0.94261228629E-01  0.85535486191E-01  0.88927033014E+00  0.88000000000E+00 0.  1.
        -11    1    4    4    0    0  0.17988730046E-02  0.27173722012E-01 -0.24225197476E-01  0.36452276003E-01  0.51100000000E-03 0.  1.
         11    1    4    4    0    0  0.24975742544E-01  0.79136616974E-01 -0.45406007575E-01  0.94595763683E-01  0.51100000000E-03 0. -1.
</event>
<event>
 8    1  0.1132492E+005  0.1043930E+01  0.7957747E-01            NaN
         13   -1    0    0    0    0  0.00000000000E+00  0.00000000000E+00  0.74505805969E-08  0.10566000000E+00  0.10566000000E+00 0.  1.
     999900   -1    0    0    0    0 -0.00000000000E+00 -0.00000000000E+00 -0.74505805969E-08  0.93827000000E+00  0.93827000000E+00 0. -1.
     999902    2    1    2    0    0 -0.33100697103E-02  0.20682668394E-01 -0.49414739162E-02  0.10224091381E+01  0.10221826149E+01 0.  0.
     999903    2    3    3    0    0  0.74652886695E-01  0.68007745548E-03 -0.10795455545E+00  0.13275188881E+00  0.19883710475E-01 0.  0.
         14    1    1    2    0    0  0.33100697103E-02 -0.20682668394E-01  0.49414739162E-02  0.21520861921E-01  0.00000000000E+00 0.  1.
     999901    1    3    3    0    0 -0.77962956405E-01  0.20002590938E-01  0.10301308153E+00  0.88965724927E+00  0.88000000000E+00 0.  1.
        -11    1    4    4    0    0  0.38699202194E-01  0.10243814093E-01 -0.54612198968E-01  0.67714971570E-01  0.51100000000E-03 0. -1.
         11    1    4    4    0    0  0.35953684501E-01 -0.95637366375E-02 -0.53342356481E-01  0.65036917237E-01  0.51100000000E-03 0.  1.
</event>
<event>
 8    1  0.1132492E+005  0.1043930E+01  0.7957747E-01            NaN
         13   -1    0    0    0    0  0.00000000000E+00  0.00000000000E+00  0.74505805969E-08  0.10566000000E+00  0.10566000000E+00 0. -1.
     999900   -1    0    0    0    0 -0.00000000000E+00 -0.00000000000E+00 -0.74505805969E-08  0.93827000000E+00  0.93827000000E+00 0.  1.
     999902    2    1    2    0    0 -0.19117960265E-02 -0.14303268347E-01  0.19679865727E-01  0.10195264026E+01  0.10192342960E+01 0.  0.
     999903    2    3    3    0    0 -0.14141724697E-01  0.74400354594E-02  0.12981607606E+00  0.13231034820E+00  0.19961766764E-01 0.  0.
         14    1    1    2    0    0  0.19117960265E-02  0.14303268347E-01 -0.19679865727E-01  0.24403597368E-01  0.00000000000E+00 0.  1.
     999901    1    3    3    0    0  0.12229928671E-01 -0.21743303806E-01 -0.11013621033E+00  0.88721605443E+00  0.88000000000E+00 0.  1.
        -11    1    4    4    0    0 -0.17352415607E-01  0.23129137161E-02  0.68841375235E-01  0.71034160532E-01  0.51100000000E-03 0.  1.
         11    1    4    4    0    0  0.32106909103E-02  0.51271217433E-02  0.60974700825E-01  0.61276187668E-01  0.51100000000E-03 0. -1.
</event>
<event>
 8    1  0.1132492E+005  0.1043930E+01  0.7957747E-01            NaN
         13   -1    0    0    0    0  0.00000000000E+00  0.00000000000E+00  0.74505805969E-08  0.10566000000E+00  0.10566000000E+00 0. -1.
     999900   -1    0    0    0    0 -0.00000000000E+00 -0.00000000000E+00 -0.74505805969E-08  0.93827000000E+00  0.93827000000E+00 0.  1.
     999902    2    1    2    0    0 -0.21600514011E-01 -0.17222076051E-01 -0.38064382278E-03  0.10163016269E+01  0.10159260160E+01 0.  0.
     999903    2    3    3    0    0  0.66239067284E-01 -0.10713614221E+00  0.10138964816E-01  0.12730725490E+00  0.15445761233E-01 0.  0.
         14    1    1    2    0    0  0.21600514011E-01  0.17222076051E-01  0.38064382278E-03  0.27628373075E-01  0.00000000000E+00 0.  1.
     999901    1    3    3    0    0 -0.87839581296E-01  0.89914066154E-01 -0.10519608639E-01  0.88899437203E+00  0.88000000000E+00 0.  1.
        -11    1    4    4    0    0  0.27752491562E-01 -0.55759034644E-01  0.10175374091E-01  0.63111568601E-01  0.51100000000E-03 0. -1.
         11    1    4    4    0    0  0.38486575722E-01 -0.51377107561E-01 -0.36409275021E-04  0.64195686294E-01  0.51100000000E-03 0.  1.
</event>
<event>
 8    1  0.1132492E+005  0.1043930E+01  0.7957747E-01            NaN
         13   -1    0    0    0    0  0.00000000000E+00  0.00000000000E+00  0.74505805969E-08  0.10566000000E+00  0.10566000000E+00 0. -1.
     999900   -1    0    0    0    0 -0.00000000000E+00 -0.00000000000E+00 -0.74505805969E-08  0.93827000000E+00  0.93827000000E+00 0.  1.
     999902    2    1    2    0    0 -0.11573520604E-01  0.16384619635E-01 -0.12316483139E-01  0.10203907159E+01  0.10201191671E+01 0.  0.
     999903    2    3    3    0    0  0.10089575813E+00 -0.43081883717E-01  0.63250229574E-01  0.12803656436E+00  0.18888291532E-01 0.  0.
         14    1    1    2    0    0  0.11573520604E-01 -0.16384619635E-01  0.12316483139E-01  0.23539284116E-01  0.00000000000E+00 0. -1.
     999901    1    3    3    0    0 -0.11246927874E+00  0.59466503352E-01 -0.75566712713E-01  0.89235415153E+00  0.88000000000E+00 0. -1.
        -11    1    4    4    0    0  0.97071628038E-01 -0.40158013037E-01  0.55272529423E-01  0.11870501510E+00  0.51100000000E-03 0.  1.
         11    1    4    4    0    0  0.38241300945E-02 -0.29238706794E-02  0.79777001505E-02  0.93315492508E-02  0.51100000000E-03 0. -1.
</event>
<event>
 8    1  0.1132492E+005  0.1043930E+01  0.7957747E-01            NaN
         13   -1    0    0    0    0  0.00000000000E+00  0.00000000000E+00  0.74505805969E-08  0.10566000000E+00  0.10566000000E+00 0.  1.
     999900   -1    0    0    0    0 -0.00000000000E+00 -0.00000000000E+00 -0.74505805969E-08  0.93827000000E+00  0.93827000000E+00 0. -1.
     999902    2    1    2    0    0 -0.16832817795E-01  0.22011301050E-02  0.16848268172E-01  0.10200123733E+01  0.10197319200E+01 0.  0.
     999903    2    3    3    0    0  0.87479258916E-01 -0.17559509834E-01 -0.88706080861E-01  0.12736842809E+00  0.19823989678E-01 0.  0.
         14    1    1    2    0    0  0.16832817795E-01 -0.22011301050E-02 -0.16848268172E-01  0.23917626744E-01  0.00000000000E+00 0. -1.
     999901    1    3    3    0    0 -0.10431207671E+00  0.19760639939E-01  0.10555434903E+00  0.89264394516E+00  0.88000000000E+00 0.  1.
        -11    1    4    4    0    0  0.40717607039E-01 -0.91241240649E-02 -0.55315155277E-01  0.69290696975E-01  0.51100000000E-03 0. -1.
         11    1    4    4    0    0  0.46761651877E-01 -0.84353857695E-02 -0.33390925584E-01  0.58077731117E-01  0.51100000000E-03 0.  1.
</event>
<event>
 8    1  0.1132492E+005  0.1043930E+01  0.7957747E-01            NaN
         13   -1    0    0    0    0  0.00000000000E+00  0.00000000000E+00  0.74505805969E-08  0.10566000000E+00  0.10566000000E+00 0. -1.
     999900   -1    0    0    0    0 -0.00000000000E+00 -0.00000000000E+00 -0.74505805969E-08  0.93827000000E+00  0.93827000000E+00 0.  1.
     999902    2    1    2    0    0 -0.49189293100E-02 -0.96842052420E-02  0.10413459523E-01  0.10288827466E+01  0.10287727088E+01 0.  0.
     999903    2    3    3    0    0 -0.81678429339E-01 -0.42894054685E-01  0.10423777686E+00  0.13995197453E+00  0.14483621945E-01 0.  0.
         14    1    1    2    0    0  0.49189293100E-02  0.96842052420E-02 -0.10413459523E-01  0.15047253436E-01  0.00000000000E+00 0.  1.
     999901    1    3    3    0    0  0.76759500029E-01  0.33209849443E-01 -0.93824317334E-01  0.88893077203E+00  0.88000000000E+00 0.  1.
        -11    1    4    4    0    0 -0.16388337708E-01 -0.98369314706E-02  0.13634967668E-01  0.23484384128E-01  0.51100000000E-03 0.  1.
         11    1    4    4    0    0 -0.65290091631E-01 -0.33057123215E-01  0.90602809189E-01  0.11646759040E+00  0.51100000000E-03 0. -1.
</event>
<event>
 8    1  0.1132492E+005  0.1043930E+01  0.7957747E-01            NaN
         13   -1    0    0    0    0  0.00000000000E+00  0.00000000000E+00  0.74505805969E-08  0.10566000000E+00  0.10566000000E+00 0. -1.
     999900   -1    0    0    0    0 -0.00000000000E+00 -0.00000000000E+00 -0.74505805969E-08  0.93827000000E+00  0.93827000000E+00 0. -1.
     999902    2    1    2    0    0 -0.22806621566E-01 -0.17402267018E-02 -0.26647929698E-02  0.10209023753E+01  0.10206426350E+01 0.  0.
     999903    2    3    3    0    0  0.21695863672E-01  0.12672259977E+00  0.45681202331E-02  0.13043312600E+00  0.21508250598E-01 0.  0.
         14    1    1    2    0    0  0.22806621566E-01  0.17402267018E-02  0.26647929698E-02  0.23027624667E-01  0.00000000000E+00 0.  1.
     999901    1    3    3    0    0 -0.44502485237E-01 -0.12846282647E+00 -0.72329132029E-02  0.89046924933E+00  0.88000000000E+00 0. -1.
        -11    1    4    4    0    0  0.14823656951E-01  0.84054153656E-01  0.13173500655E-01  0.86363440140E-01  0.51100000000E-03 0.  1.
         11    1    4    4    0    0  0.68722067202E-02  0.42668446109E-01 -0.86053804216E-02  0.44069685860E-01  0.51100000000E-03 0. -1.
</event>
<event>
 8    1  0.1132492E+005  0.1043930E+01  0.7957747E-01            NaN
         13   -1    0    0    0    0  0.00000000000E+00  0.00000000000E+00  0.74505805969E-08  0.10566000000E+00  0.10566000000E+00 0. -1.
     999900   -1    0    0    0    0 -0.00000000000E+00 -0.00000000000E+00 -0.74505805969E-08  0.93827000000E+00  0.93827000000E+00 0.  1.
     999902    2    1    2    0    0  0.22121510279E-01 -0.66332064585E-02 -0.85057936860E-02  0.10193188405E+01  0.10190216825E+01 0.  0.
     999903    2    3    3    0    0 -0.19008131268E-01 -0.17607286682E-01 -0.12626592974E+00  0.13045466220E+00  0.20099957149E-01 0.  0.
         14    1    1    2    0    0 -0.22121510279E-01  0.66332064585E-02  0.85057936860E-02  0.24611159485E-01  0.00000000000E+00 0. -1.
     999901    1    3    3    0    0  0.41129641548E-01  0.10974080223E-01  0.11776013606E+00  0.88886417832E+00  0.88000000000E+00 0.  1.
        -11    1    4    4    0    0 -0.15749165076E-01 -0.93977090364E-03 -0.58776926141E-01  0.60859736588E-01  0.51100000000E-03 0.  1.
         11    1    4    4    0    0 -0.32589661921E-02 -0.16667515778E-01 -0.67489003600E-01  0.69594925611E-01  0.51100000000E-03 0. -1.
</event>
<event>
 8    1  0.1132492E+005  0.1043930E+01  0.7957747E-01            NaN
         13   -1    0    0    0    0  0.00000000000E+00  0.00000000000E+00  0.74505805969E-08  0.10566000000E+00  0.10566000000E+00 0. -1.
     999900   -1    0    0    0    0 -0.00000000000E+00 -0.00000000000E+00 -0.74505805969E-08  0.93827000000E+00  0.93827000000E+00 0. -1.
     999902    2    1    2    0    0 -0.26549440142E-02 -0.81901430354E-02 -0.21684504584E-01  0.10205987997E+01  0.10203320856E+01 0.  0.
     999903    2    3    3    0    0 -0.14683183929E-01 -0.12834212921E+00  0.15650814957E-01  0.13156837024E+00  0.19441965400E-01 0.  0.
         14    1    1    2    0    0  0.26549440142E-02  0.81901430354E-02  0.21684504584E-01  0.23331200349E-01  0.00000000000E+00 0. -1.
     999901    1    3    3    0    0  0.12028239915E-01  0.12015198617E+00 -0.37335319541E-01  0.88903042941E+00  0.88000000000E+00 0. -1.
        -11    1    4    4    0    0 -0.14137762465E-01 -0.74086740598E-01  0.12765023905E-02  0.75436145443E-01  0.51100000000E-03 0. -1.
         11    1    4    4    0    0 -0.54542146430E-03 -0.54255388609E-01  0.14374312567E-01  0.56132224795E-01  0.51100000000E-03 0.  1.
</event>
<event>
 8    1  0.1132492E+005  0.1043930E+01  0.7957747E-01            NaN
         13   -1    0    0    0    0  0.00000000000E+00  0.00000000000E+00  0.74505805969E-08  0.10566000000E+00  0.10566000000E+00 0. -1.
     999900   -1    0    0    0    0 -0.00000000000E+00 -0.00000000000E+00 -0.74505805969E-08  0.93827000000E+00  0.93827000000E+00 0.  1.
     999902    2    1    2    0    0 -0.21698094363E-01  0.93337487684E-02  0.45647695036E-02  0.10198725004E+01  0.10195887180E+01 0.  0.
     999903    2    3    3    0    0  0.12493719925E+00  0.79076004667E-02  0.15623930522E-01  0.12766946957E+00  0.19584492667E-01 0.  0.
         14    1    1    2    0    0  0.21698094363E-01 -0.93337487684E-02 -0.45647695036E-02  0.24057499573E-01  0.00000000000E+00 0. -1.
     999901    1    3    3    0    0 -0.14663529361E+00  0.14261483017E-02 -0.11059161018E-01  0.89220303086E+00  0.88000000000E+00 0. -1.
        -11    1    4    4    0    0  0.34654930784E-01  0.49121557694E-02 -0.39884676660E-02  0.35231555420E-01  0.51100000000E-03 0.  1.
         11    1    4    4    0    0  0.90282268466E-01  0.29954446973E-02  0.19612398188E-01  0.92437914148E-01  0.51100000000E-03 0. -1.
</event>
<event>
 8    1  0.1132492E+005  0.1043930E+01  0.7957747E-01            NaN
         13   -1    0    0    0    0  0.00000000000E+00  0.00000000000E+00  0.74505805969E-08  0.10566000000E+00  0.10566000000E+00 0.  1.
     999900   -1    0    0    0    0 -0.00000000000E+00 -0.00000000000E+00 -0.74505805969E-08  0.93827000000E+00  0.93827000000E+00 0.  1.
     999902    2    1    2    0    0  0.21105008958E-01  0.87848186569E-02 -0.67645179501E-02  0.10200898418E+01  0.10198112238E+01 0.  0.
     999903    2    3    3    0    0 -0.10225324312E+00 -0.47310816775E-02 -0.75433341561E-01  0.12873393907E+00  0.20102964666E-01 0.  0.
         14    1    1    2    0    0 -0.21105008958E-01 -0.87848186569E-02  0.67645179501E-02  0.23840158243E-01  0.00000000000E+00 0. -1.
     999901    1    3    3    0    0  0.12335825207E+00  0.13515900334E-01  0.68668823611E-01  0.89135590269E+00  0.88000000000E+00 0. -1.
        -11    1    4    4    0    0 -0.78268481616E-01  0.47962268520E-03 -0.66174582594E-01  0.10249644752E+00  0.51100000000E-03 0. -1.
         11    1    4    4    0    0 -0.23984761499E-01 -0.52107043627E-02 -0.92587589668E-02  0.26237491548E-01  0.51100000000E-03 0.  1.
</event>
<event>
 8    1  0.1132492E+005  0.1043930E+01  0.7957747E-01            NaN
         13   -1    0    0    0    0  0.00000000000E+00  0.00000000000E+00  0.74505805969E-08  0.10566000000E+00  0.10566000000E+00 0. -1.
     999900   -1    0    0    0    0 -0.00000000000E+00 -0.00000000000E+00 -0.74505805969E-08  0.93827000000E+00  0.93827000000E+00 0. -1.
     999902    2    1    2    0    0 -0.20365434941E-01  0.20658432797E-03  0.10229775567E-01  0.10211387314E+01  0.10208843552E+01 0.  0.
     999903    2    3    3    0    0 -0.11347153396E+00 -0.49650019890E-01  0.47372134485E-01  0.13404573654E+00  0.19576181023E-01 0.  0.
         14    1    1    2    0    0  0.20365434941E-01 -0.20658432797E-03 -0.10229775567E-01  0.22791268626E-01  0.00000000000E+00 0. -1.
     999901    1    3    3    0    0  0.93106099022E-01  0.49856604218E-01 -0.37142358918E-01  0.88709299483E+00  0.88000000000E+00 0.  1.
        -11    1    4    4    0    0 -0.65893281049E-01 -0.32562221004E-01  0.18374043801E-01  0.75763377240E-01  0.51100000000E-03 0. -1.
         11    1    4    4    0    0 -0.47578252915E-01 -0.17087798885E-01  0.28998090685E-01  0.58282359299E-01  0.51100000000E-03 0.  1.
</event>
<event>
 8    1  0.1132492E+005  0.1043930E+01  0.7957747E-01            NaN
         13   -1    0    0    0    0  0.00000000000E+00  0.00000000000E+00  0.74505805969E-08  0.10566000000E+00  0.10566000000E+00 0. -1.
     999900   -1    0    0    0    0 -0.00000000000E+00 -0.00000000000E+00 -0.74505805969E-08  0.93827000000E+00  0.93827000000E+00 0.  1.
     999902    2    1    2    0    0  0.17567748040E-01 -0.84104586704E-02  0.49387803219E-02  0.10238363906E+01  0.10236391951E+01 0.  0.
     999903    2    3    3    0    0  0.78566570784E-01 -0.14366511670E-02 -0.10735819310E+00  0.13457821631E+00  0.20266836628E-01 0.  0.
         14    1    1    2    0    0 -0.17567748040E-01  0.84104586704E-02 -0.49387803219E-02  0.20093609365E-01  0.00000000000E+00 0. -1.
     999901    1    3    3    0    0 -0.60998822745E-01 -0.69738075035E-02  0.11229697342E+00  0.88925817433E+00  0.88000000000E+00 0. -1.
        -11    1    4    4    0    0  0.27347847684E-01  0.39911241228E-02 -0.52475152777E-01  0.59310510238E-01  0.51100000000E-03 0.  1.
         11    1    4    4    0    0  0.51218723101E-01 -0.54277752898E-02 -0.54883040326E-01  0.75267706071E-01  0.51100000000E-03 0. -1.
</event>
<event>
 8    1  0.1132492E+005  0.1043930E+01  0.7957747E-01            NaN
         13   -1    0    0    0    0  0.00000000000E+00  0.00000000000E+00  0.74505805969E-08  0.10566000000E+00  0.10566000000E+00 0.  1.
     999900   -1    0    0    0    0 -0.00000000000E+00 -0.00000000000E+00 -0.74505805969E-08  0.93827000000E+00  0.93827000000E+00 0.  1.
     999902    2    1    2    0    0 -0.30200254537E-02  0.17266416685E-01  0.16828810860E-01  0.10196306466E+01  0.10193410602E+01 0.  0.
     999903    2    3    3    0    0 -0.94725410520E-01 -0.82813132591E-01 -0.16801205116E-01  0.12858812700E+00  0.20535520038E-01 0.  0.
         14    1    1    2    0    0  0.30200254537E-02 -0.17266416685E-01 -0.16828810860E-01  0.24299353363E-01  0.00000000000E+00 0.  1.
     999901    1    3    3    0    0  0.91705385066E-01  0.10007954928E+00  0.33630015976E-01  0.89104251964E+00  0.88000000000E+00 0. -1.
        -11    1    4    4    0    0 -0.10243497565E-01 -0.19067097757E-01 -0.27257698239E-02  0.21821420700E-01  0.51100000000E-03 0.  1.
         11    1    4    4    0    0 -0.84481912955E-01 -0.63746034834E-01 -0.14075435292E-01  0.10676670630E+00  0.51100000000E-03 0. -1.
</event>
<event>
 8    1  0.1132492E+005  0.1043930E+01  0.7957747E-01            NaN
         13   -1    0    0    0    0  0.00000000000E+00  0.00000000000E+00  0.74505805969E-08  0.10566000000E+00  0.10566000000E+00 0. -1.
     999900   -1    0    0    0    0 -0.00000000000E+00 -0.00000000000E+00 -0.74505805969E-08  0.93827000000E+00  0.93827000000E+00 0.  1.
     999902    2    1    2    0    0 -0.10470891368E-01  0.19301244737E-01  0.78306582251E-02  0.10206169817E+01  0.10203506880E+01 0.  0.
     999903    2    3    3    0    0  0.71187756575E-01 -0.81879048320E-01 -0.66549880489E-01  0.12795912393E+00  0.13144411871E-01 0.  0.
         14    1    1    2    0    0  0.10470891368E-01 -0.19301244737E-01 -0.78306582251E-02  0.23313018309E-01  0.00000000000E+00 0.  1.
     999901    1    3    3    0    0 -0.81658647943E-01  0.10118029306E+00  0.74380538714E-01  0.89265785776E+00  0.88000000000E+00 0.  1.
        -11    1    4    4    0    0  0.47133063066E-01 -0.62895062831E-01 -0.46193564140E-01  0.91166995407E-01  0.51100000000E-03 0.  1.
         11    1    4    4    0    0  0.24054693509E-01 -0.18983985488E-01 -0.20356316349E-01  0.36792128521E-01  0.51100000000E-03 0. -1.
</event>
<event>
 8    1  0.1132492E+005  0.1043930E+01  0.7957747E-01            NaN
         13   -1    0    0    0    0  0.00000000000E+00  0.00000000000E+00  0.74505805969E-08  0.10566000000E+00  0.10566000000E+00 0.  1.
     999900   -1    0    0    0    0 -0.00000000000E+00 -0.00000000000E+00 -0.74505805969E-08  0.93827000000E+00  0.93827000000E+00 0.  1.
     999902    2    1    2    0    0  0.22815184658E-01 -0.73011198200E-02  0.14263768673E-02  0.10199326345E+01  0.10196502858E+01 0.  0.
     999903    2    3    3    0    0  0.55363319945E-01 -0.11036814430E-01 -0.11703714908E+00  0.13139060197E+00  0.19465034163E-01 0.  0.
         14    1    1    2    0    0 -0.22815184658E-01  0.73011198200E-02 -0.14263768673E-02  0.23997365534E-01  0.00000000000E+00 0.  1.
     999901    1    3    3    0    0 -0.32548135288E-01  0.37356946104E-02  0.11846352594E+00  0.88854203249E+00  0.88000000000E+00 0. -1.
        -11    1    4    4    0    0  0.75556652954E-02 -0.76252185108E-02 -0.32241442898E-01  0.33985346791E-01  0.51100000000E-03 0. -1.
         11    1    4    4    0    0  0.47807654650E-01 -0.34115959196E-02 -0.84795706180E-01  0.97405255183E-01  0.51100000000E-03 0.  1.
</event>
<event>
 8    1  0.1132492E+005  0.1043930E+01  0.7957747E-01            NaN
         13   -1    0    0    0    0  0.00000000000E+00  0.00000000000E+00  0.74505805969E-08  0.10566000000E+00  0.10566000000E+00 0.  1.
     999900   -1    0    0    0    0 -0.00000000000E+00 -0.00000000000E+00 -0.74505805969E-08  0.93827000000E+00  0.93827000000E+00 0. -1.
     999902    2    1    2    0    0 -0.82647699079E-02 -0.16556742377E-01 -0.93683517258E-02  0.10231887813E+01  0.10229785355E+01 0.  0.
     999903    2    3    3    0    0  0.10367025723E+00 -0.54853924029E-01  0.58656620319E-01  0.13267010027E+00  0.20106744707E-01 0.  0.
         14    1    1    2    0    0  0.82647699079E-02  0.16556742377E-01  0.93683517258E-02  0.20741218716E-01  0.00000000000E+00 0.  1.
     999901    1    3    3    0    0 -0.11193502713E+00  0.38297181652E-01 -0.68024972045E-01  0.89051868102E+00  0.88000000000E+00 0. -1.
        -11    1    4    4    0    0  0.90234682399E-01 -0.50316575188E-01  0.57957568079E-01  0.11846263742E+00  0.51100000000E-03 0.  1.
         11    1    4    4    0    0  0.13435574827E-01 -0.45373488408E-02  0.69905223961E-03  0.14207462844E-01  0.51100000000E-03 0. -1.
</event>
<event>
 8    1  0.1132492E+005  0.1043930E+01  0.7957747E-01            NaN
         13   -1    0    0    0    0  0.00000000000E+00  0.00000000000E+00  0.74505805969E-08  0.10566000000E+00  0.10566000000E+00 0.  1.
     999900   -1    0    0    0    0 -0.00000000000E+00 -0.00000000000E+00 -0.74505805969E-08  0.93827000000E+00  0.93827000000E+00 0.  1.
     999902    2    1    2    0    0 -0.13443762164E-01  0.44164173344E-02 -0.19723511854E-01  0.10196553959E+01  0.10193664062E+01 0.  0.
     999903    2    3    3    0    0  0.10862773489E-01  0.75602610840E-01 -0.10615719702E+00  0.13222705304E+00  0.19516363984E-01 0.  0.
         14    1    1    2    0    0  0.13443762164E-01 -0.44164173344E-02  0.19723511854E-01  0.24274604076E-01  0.00000000000E+00 0.  1.
     999901    1    3    3    0    0 -0.24306535653E-01 -0.71186193506E-01  0.86433685166E-01  0.88742834288E+00  0.88000000000E+00 0. -1.
        -11    1    4    4    0    0  0.94803159034E-02  0.67840784590E-01 -0.10304264223E+00  0.12373477960E+00  0.51100000000E-03 0. -1.
         11    1    4    4    0    0  0.13824575858E-02  0.77618262503E-02 -0.31145547921E-02  0.84922734453E-02  0.51100000000E-03 0.  1.
</event>
<event>
 8    1  0.1132492E+005  0.1043930E+01  0.7957747E-01            NaN
         13   -1    0    0    0    0  0.00000000000E+00  0.00000000000E+00  0.74505805969E-08  0.10566000000E+00  0.10566000000E+00 0. -1.
     999900   -1    0    0    0    0 -0.00000000000E+00 -0.00000000000E+00 -0.74505805969E-08  0.93827000000E+00  0.93827000000E+00 0. -1.
     999902    2    1    2    0    0  0.20815856761E-01 -0.20856732400E-01 -0.76221295300E-02  0.10134931796E+01  0.10130360433E+01 0.  0.
     999903    2    3    3    0    0 -0.32481827465E-02 -0.60863088423E-01 -0.10862705125E+00  0.12648608787E+00  0.22000634934E-01 0.  0.
         14    1    1    2    0    0 -0.20815856761E-01  0.20856732400E-01  0.76221295300E-02  0.30436820427E-01  0.00000000000E+00 0. -1.
     999901    1    3    3    0    0  0.24064039507E-01  0.40006356023E-01  0.10100492172E+00  0.88700709170E+00  0.88000000000E+00 0.  1.
        -11    1    4    4    0    0 -0.12451444103E-01 -0.31694252967E-01 -0.52886945166E-01  0.62903531073E-01  0.51100000000E-03 0.  1.
         11    1    4    4    0    0  0.92032613569E-02 -0.29168835456E-01 -0.55740106086E-01  0.63582556798E-01  0.51100000000E-03 0. -1.
</event>
<event>
 8    1  0.1132492E+005  0.1043930E+01  0.7957747E-01            NaN
         13   -1    0    0    0    0  0.00000000000E+00  0.00000000000E+00  0.74505805969E-08  0.10566000000E+00  0.10566000000E+00 0. -1.
     999900   -1    0    0    0    0 -0.00000000000E+00 -0.00000000000E+00 -0.74505805969E-08  0.93827000000E+00  0.93827000000E+00 0. -1.
     999902    2    1    2    0    0 -0.20557851668E-01 -0.17711952934E-01 -0.16595179751E-01  0.10121221624E+01  0.10116222284E+01 0.  0.
     999903    2    3    3    0    0 -0.40313541615E-01 -0.11390579132E+00  0.27748141019E-01  0.12555018454E+00  0.19828731054E-01 0.  0.
         14    1    1    2    0    0  0.20557851668E-01  0.17711952934E-01  0.16595179751E-01  0.31807837601E-01  0.00000000000E+00 0.  1.
     999901    1    3    3    0    0  0.19755689948E-01  0.96193838381E-01 -0.44343320770E-01  0.88657197786E+00  0.88000000000E+00 0. -1.
        -11    1    4    4    0    0 -0.23574717440E-01 -0.42604487943E-01  0.55011576432E-02  0.49004423797E-01  0.51100000000E-03 0. -1.
         11    1    4    4    0    0 -0.16738824175E-01 -0.71301303373E-01  0.22246983376E-01  0.76545760743E-01  0.51100000000E-03 0.  1.
</event>
<event>
 8    1  0.1132492E+005  0.1043930E+01  0.7957747E-01            NaN
         13   -1    0    0    0    0  0.00000000000E+00  0.00000000000E+00  0.74505805969E-08  0.10566000000E+00  0.10566000000E+00 0. -1.
     999900   -1    0    0    0    0 -0.00000000000E+00 -0.00000000000E+00 -0.74505805969E-08  0.93827000000E+00  0.93827000000E+00 0.  1.
     999902    2    1    2    0    0  0.87298822888E-03 -0.18986415349E-01 -0.12181859735E-01  0.10213547086E+01  0.10211051841E+01 0.  0.
     999903    2    3    3    0    0  0.12547284066E+00  0.15795454924E-01 -0.32830666862E-01  0.13165741457E+00  0.16213944194E-01 0.  0.
         14    1    1    2    0    0 -0.87298822888E-03  0.18986415349E-01  0.12181859735E-01  0.22575291424E-01  0.00000000000E+00 0.  1.
     999901    1    3    3    0    0 -0.12459985243E+00 -0.34781870274E-01  0.20648807127E-01  0.88969729401E+00  0.88000000000E+00 0.  1.
        -11    1    4    4    0    0  0.31141402562E-01  0.92220696239E-02 -0.13301945718E-01  0.35100376102E-01  0.51100000000E-03 0. -1.
         11    1    4    4    0    0  0.94331438094E-01  0.65733853005E-02 -0.19528721145E-01  0.96557038468E-01  0.51100000000E-03 0.  1.
</event>
<event>
 8    1  0.1132492E+005  0.1043930E+01  0.7957747E-01            NaN
         13   -1    0    0    0    0  0.00000000000E+00  0.00000000000E+00  0.74505805969E-08  0.10566000000E+00  0.10566000000E+00 0. -1.
     999900   -1    0    0    0    0 -0.00000000000E+00 -0.00000000000E+00 -0.74505805969E-08  0.93827000000E+00  0.93827000000E+00 0. -1.
     999902    2    1    2    0    0 -0.19817362908E-01 -0.12691804757E-01 -0.30555805861E-02  0.10201992951E+01  0.10199232596E+01 0.  0.
     999903    2    3    3    0    0 -0.51289323445E-03 -0.13031486999E+00 -0.18002668148E-03  0.13215868974E+00  0.21992236463E-01 0.  0.
         14    1    1    2    0    0  0.19817362908E-01  0.12691804757E-01  0.30555805861E-02  0.23730704864E-01  0.00000000000E+00 0. -1.
     999901    1    3    3    0    0 -0.19304469674E-01  0.11762306523E+00 -0.28755539046E-02  0.88804060540E+00  0.88000000000E+00 0.  1.
        -11    1    4    4    0    0 -0.40915483154E-02 -0.11758476308E+00 -0.57577195732E-02  0.11779783416E+00  0.51100000000E-03 0.  1.
         11    1    4    4    0    0  0.35786550809E-02 -0.12730106902E-01  0.55776928917E-02  0.14360855578E-01  0.51100000000E-03 0. -1.
</event>
<event>
 8    1  0.1132492E+005  0.1043930E+01  0.7957747E-01            NaN
         13   -1    0    0    0    0  0.00000000000E+00  0.00000000000E+00  0.74505805969E-08  0.10566000000E+00  0.10566000000E+00 0. -1.
     999900   -1    0    0    0    0 -0.00000000000E+00 -0.00000000000E+00 -0.74505805969E-08  0.93827000000E+00  0.93827000000E+00 0. -1.
     999902    2    1    2    0    0 -0.17619770161E-01 -0.11087289196E-01  0.13286790976E-01  0.10192333788E+01  0.10189341281E+01 0.  0.
     999903    2    3    3    0    0 -0.91008628021E-02  0.12292594244E+00 -0.28470374506E-01  0.12806797393E+00  0.19930647124E-01 0.  0.
         14    1    1    2    0    0  0.17619770161E-01  0.11087289196E-01 -0.13286790976E-01  0.24696621159E-01  0.00000000000E+00 0.  1.
     999901    1    3    3    0    0 -0.85189073588E-02 -0.13401323163E+00  0.41757165483E-01  0.89116540491E+00  0.88000000000E+00 0.  1.
        -11    1    4    4    0    0 -0.70877219558E-02  0.67887380964E-01 -0.25648389350E-01  0.72917990194E-01  0.51100000000E-03 0.  1.
         11    1    4    4    0    0 -0.20131408463E-02  0.55038561474E-01 -0.28219851561E-02  0.55149983739E-01  0.51100000000E-03 0. -1.
</event>
<event>
 8    1  0.1132492E+005  0.1043930E+01  0.7957747E-01            NaN
         13   -1    0    0    0    0  0.00000000000E+00  0.00000000000E+00  0.74505805969E-08  0.10566000000E+00  0.10566000000E+00 0.  1.
     999900   -1    0    0    0    0 -0.00000000000E+00 -0.00000000000E+00 -0.74505805969E-08  0.93827000000E+00  0.93827000000E+00 0. -1.
     999902    2    1    2    0    0  0.82269062646E-02  0.16448246085E-01  0.15054189555E-01  0.10201633130E+01  0.10198864299E+01 0.  0.
     999903    2    3    3    0    0 -0.11966280948E-01  0.91466228826E-01 -0.90244437732E-01  0.13048738133E+00  0.19329646941E-01 0.  0.
         14    1    1    2    0    0 -0.82269062646E-02 -0.16448246085E-01 -0.15054189555E-01  0.23766686961E-01  0.00000000000E+00 0.  1.
     999901    1    3    3    0    0  0.20193187213E-01 -0.75017982741E-01  0.10529862729E+00  0.88967593170E+00  0.88000000000E+00 0. -1.
        -11    1    4    4    0    0 -0.56039512725E-02  0.23705556007E-01 -0.35925802976E-01  0.43408318281E-01  0.51100000000E-03 0. -1.
         11    1    4    4    0    0 -0.63623296760E-02  0.67760672818E-01 -0.54318634755E-01  0.87079063054E-01  0.51100000000E-03 0.  1.
</event>
<event>
 8    1  0.1132492E+005  0.1043930E+01  0.7957747E-01            NaN
         13   -1    0    0    0    0  0.00000000000E+00  0.00000000000E+00  0.74505805969E-08  0.10566000000E+00  0.10566000000E+00 0.  1.
     999900   -1    0    0    0    0 -0.00000000000E+00 -0.00000000000E+00 -0.74505805969E-08  0.93827000000E+00  0.93827000000E+00 0. -1.
     999902    2    1    2    0    0 -0.96437099704E-02  0.18886632546E-01  0.10222773885E-01  0.10203883107E+01  0.10201167058E+01 0.  0.
     999903    2    3    3    0    0 -0.93599728410E-02 -0.10926603320E+00  0.65648471323E-01  0.12938034539E+00  0.20071793208E-01 0.  0.
         14    1    1    2    0    0  0.96437099704E-02 -0.18886632546E-01 -0.10222773885E-01  0.23541689337E-01  0.00000000000E+00 0. -1.
     999901    1    3    3    0    0 -0.28373712943E-03  0.12815266575E+00 -0.55425697438E-01  0.89100796527E+00  0.88000000000E+00 0. -1.
        -11    1    4    4    0    0 -0.10312131178E-01 -0.99287265148E-01  0.52342833261E-01  0.11271350578E+00  0.51100000000E-03 0. -1.
         11    1    4    4    0    0  0.95215833675E-03 -0.99787680544E-02  0.13305638062E-01  0.16666839611E-01  0.51100000000E-03 0.  1.
</event>
<event>
 8    1  0.1132492E+005  0.1043930E+01  0.7957747E-01            NaN
         13   -1    0    0    0    0  0.00000000000E+00  0.00000000000E+00  0.74505805969E-08  0.10566000000E+00  0.10566000000E+00 0. -1.
     999900   -1    0    0    0    0 -0.00000000000E+00 -0.00000000000E+00 -0.74505805969E-08  0.93827000000E+00  0.93827000000E+00 0. -1.
     999902    2    1    2    0    0  0.68383856489E-02 -0.51468327852E-02  0.20825480606E-01  0.10214143599E+01  0.10211661670E+01 0.  0.
     999903    2    3    3    0    0 -0.12205739784E+00 -0.43244394530E-01  0.27852779475E-02  0.13102624447E+00  0.19799821705E-01 0.  0.
         14    1    1    2    0    0 -0.68383856489E-02  0.51468327852E-02 -0.20825480606E-01  0.22515640086E-01  0.00000000000E+00 0.  1.
     999901    1    3    3    0    0  0.12889578349E+00  0.38097561744E-01  0.18040202659E-01  0.89038811544E+00  0.88000000000E+00 0. -1.
        -11    1    4    4    0    0 -0.77410878382E-01 -0.19729277925E-01  0.80377344721E-02  0.80290440252E-01  0.51100000000E-03 0.  1.
         11    1    4    4    0    0 -0.44646519463E-01 -0.23515116604E-01 -0.52524565246E-02  0.50735804218E-01  0.51100000000E-03 0. -1.
</event>
<event>
 8    1  0.1132492E+005  0.1043930E+01  0.7957747E-01            NaN
         13   -1    0    0    0    0  0.00000000000E+00  0.00000000000E+00  0.74505805969E-08  0.10566000000E+00  0.10566000000E+00 0. -1.
     999900   -1    0    0    0    0 -0.00000000000E+00 -0.00000000000E+00 -0.74505805969E-08  0.93827000000E+00  0.93827000000E+00 0.  1.
     999902    2    1    2    0    0 -0.11112113617E-01  0.75550761320E-02  0.18895049233E-01  0.10207442041E+01  0.10204808421E+01 0.  0.
     999903    2    3    3    0    0  0.10512098895E+00  0.60563514704E-01  0.45381517950E-01  0.13112543089E+00  0.20396931712E-01 0.  0.
         14    1    1    2    0    0  0.11112113617E-01 -0.75550761320E-02 -0.18895049233E-01  0.23185795866E-01  0.00000000000E+00 0.  1.
     999901    1    3    3    0    0 -0.11623310256E+00 -0.53008438572E-01 -0.26486468717E-01  0.88961877325E+00  0.88000000000E+00 0. -1.
        -11    1    4    4    0    0  0.36550374697E-01  0.32392679982E-01  0.19801360615E-01  0.52702662268E-01  0.51100000000E-03 0. -1.
         11    1    4    4    0    0  0.68570614249E-01  0.28170834721E-01  0.25580157335E-01  0.78422768618E-01  0.51100000000E-03 0.  1.
</event>
<event>
 8    1  0.1132492E+005  0.1043930E+01  0.7957747E-01            NaN
         13   -1    0    0    0    0  0.00000000000E+00  0.00000000000E+00  0.74505805969E-08  0.10566000000E+00  0.10566000000E+00 0. -1.
     999900   -1    0    0    0    0 -0.00000000000E+00 -0.00000000000E+00 -0.74505805969E-08  0.93827000000E+00  0.93827000000E+00 0.  1.
     999902    2    1    2    0    0  0.72513796004E-02 -0.20816647274E-01  0.96643391584E-02  0.10198610415E+01  0.10195769855E+01 0.  0.
     999903    2    3    3    0    0 -0.66971968263E-02  0.11440720873E+00  0.54169366138E-01  0.12831140667E+00  0.19890575647E-01 0.  0.
         14    1    1    2    0    0 -0.72513796004E-02  0.20816647274E-01 -0.96643391584E-02  0.24068958457E-01  0.00000000000E+00 0. -1.
     999901    1    3    3    0    0  0.13948576427E-01 -0.13522385600E+00 -0.44505026979E-01  0.89154963487E+00  0.88000000000E+00 0.  1.
        -11    1    4    4    0    0  0.64343133710E-02  0.58668594473E-01  0.28874033774E-01  0.65706737200E-01  0.51100000000E-03 0.  1.
         11    1    4    4    0    0 -0.13131510197E-01  0.55738614254E-01  0.25295332364E-01  0.62604669470E-01  0.51100000000E-03 0. -1.
</event>
<event>
 8    1  0.1132492E+005  0.1043930E+01  0.7957747E-01            NaN
         13   -1    0    0    0    0  0.00000000000E+00  0.00000000000E+00  0.74505805969E-08  0.10566000000E+00  0.10566000000E+00 0.  1.
     999900   -1    0    0    0    0 -0.00000000000E+00 -0.00000000000E+00 -0.74505805969E-08  0.93827000000E+00  0.93827000000E+00 0. -1.
     999902    2    1    2    0    0  0.18841264145E-02 -0.18490136481E-01  0.14648299351E-01  0.10202655170E+01  0.10199910380E+01 0.  0.
     999903    2    3    3    0    0 -0.11174575915E+00 -0.28107993423E-01  0.60851996649E-01  0.13170542583E+00  0.19135822809E-01 0.  0.
         14    1    1    2    0    0 -0.18841264145E-02  0.18490136481E-01 -0.14648299351E-01  0.23664482950E-01  0.00000000000E+00 0. -1.
     999901    1    3    3    0    0  0.11362988556E+00  0.96178569423E-02 -0.46203697298E-01  0.88856009122E+00  0.88000000000E+00 0. -1.
        -11    1    4    4    0    0 -0.88925461834E-01 -0.14399360754E-01  0.49153428784E-01  0.10262260976E+00  0.51100000000E-03 0.  1.
         11    1    4    4    0    0 -0.22820297316E-01 -0.13708632669E-01  0.11698567865E-01  0.29082816066E-01  0.51100000000E-03 0. -1.
</event>
<event>
 8    1  0.1132492E+005  0.1043930E+01  0.7957747E-01            NaN
         13   -1    0    0    0    0  0.00000000000E+00  0.00000000000E+00  0.74505805969E-08  0.10566000000E+00  0.10566000000E+00 0.  1.
     999900   -1    0    0    0    0 -0.00000000000E+00 -0.00000000000E+00 -0.74505805969E-08  0.93827000000E+00  0.93827000000E+00 0. -1.
     999902    2    1    2    0    0 -0.23561143381E-01  0.18649142790E-02 -0.40340303387E-02  0.10199533701E+01  0.10196715149E+01 0.  0.
     999903    2    3    3    0    0 -0.99621366262E-01  0.81420724702E-01  0.25537756585E-01  0.13260407296E+00  0.19439962114E-01 0.  0.
         14    1    1    2    0    0  0.23561143381E-01 -0.18649142790E-02  0.40340303387E-02  0.23976629944E-01  0.00000000000E+00 0.  1.
     999901    1    3    3    0    0  0.76060222882E-01 -0.79555810423E-01 -0.29571786923E-01  0.88734929710E+00  0.88000000000E+00 0. -1.
        -11    1    4    4    0    0 -0.31566595341E-01  0.15391125313E-01  0.99721492922E-02  0.36510841709E-01  0.51100000000E-03 0. -1.
         11    1    4    4    0    0 -0.68054770922E-01  0.66029599389E-01  0.15565607292E-01  0.96093231250E-01  0.51100000000E-03 0.  1.
</event>
<event>
 7    1  0.1132492E+005  0.1043930E+01  0.7957747E-01            NaN
         13   -1    0    0    0    0  0.00000000000E+00  0.00000000000E+00  0.74505805969E-08  0.10566000000E+00  0.10566000000E+00 0.  1.
     999900   -1    0    0    0    0 -0.00000000000E+00 -0.00000000000E+00 -0.74505805969E-08  0.93827000000E+00  0.93827000000E+00 0.  1.
     999903    2    1    2    0    0 -0.82297128296E-01  0.21843290185E-01 -0.47912931360E-01  0.99715369012E-01  0.19938885974E-01 0.  0.
         14    1    1    2    0    0  0.16540212092E-01 -0.45255509173E-01  0.38049754412E-01  0.61395631257E-01  0.00000000000E+00 0.  1.
     999901    1    1    2    0    0  0.65756916204E-01  0.23412218989E-01  0.98631769474E-02  0.88281899973E+00  0.88000000000E+00 0. -1.
        -11    1    3    3    0    0 -0.51805120596E-01  0.14804127875E-01 -0.40887028999E-01  0.67638324813E-01  0.51100000000E-03 0.  1.
         11    1    3    3    0    0 -0.30492007700E-01  0.70391623092E-02 -0.70259023611E-02  0.32077044199E-01  0.51100000000E-03 0. -1.
</event>
<event>
 8    1  0.1132492E+005  0.1043930E+01  0.7957747E-01            NaN
         13   -1    0    0    0    0  0.00000000000E+00  0.00000000000E+00  0.74505805969E-08  0.10566000000E+00  0.10566000000E+00 0. -1.
     999900   -1    0    0    0    0 -0.00000000000E+00 -0.00000000000E+00 -0.74505805969E-08  0.93827000000E+00  0.93827000000E+00 0. -1.
     999902    2    1    2    0    0 -0.21342253519E-01 -0.92307473509E-02 -0.29989083802E-02  0.10204844901E+01  0.10202151257E+01 0.  0.
     999903    2    3    3    0    0 -0.31113028454E-01 -0.12663800665E+00  0.11783937879E-01  0.13251012950E+00  0.20368307754E-01 0.  0.
         14    1    1    2    0    0  0.21342253519E-01  0.92307473509E-02  0.29989083802E-02  0.23445509877E-01  0.00000000000E+00 0. -1.
     999901    1    3    3    0    0  0.97707749343E-02  0.11740725930E+00 -0.14782846259E-01  0.88797436062E+00  0.88000000000E+00 0. -1.
        -11    1    4    4    0    0 -0.28725256134E-01 -0.92769050206E-01  0.15520572245E-01  0.98348290783E-01  0.51100000000E-03 0.  1.
         11    1    4    4    0    0 -0.23877723193E-02 -0.33868956443E-01 -0.37366343665E-02  0.34161838717E-01  0.51100000000E-03 0. -1.
</event>
<event>
 8    1  0.1132492E+005  0.1043930E+01  0.7957747E-01            NaN
         13   -1    0    0    0    0  0.00000000000E+00  0.00000000000E+00  0.74505805969E-08  0.10566000000E+00  0.10566000000E+00 0.  1.
     999900   -1    0    0    0    0 -0.00000000000E+00 -0.00000000000E+00 -0.74505805969E-08  0.93827000000E+00  0.93827000000E+00 0.  1.
     999902    2    1    2    0    0 -0.23253240040E-01 -0.25262125905E-02 -0.17142045237E-02  0.10204772087E+01  0.10202076750E+01 0.  0.
     999903    2    3    3    0    0  0.34431477178E-01 -0.68735387390E-01 -0.10321292789E+00  0.13030128661E+00  0.20382264571E-01 0.  0.
         14    1    1    2    0    0  0.23253240040E-01  0.25262125905E-02  0.17142045237E-02  0.23452791296E-01  0.00000000000E+00 0.  1.
     999901    1    3    3    0    0 -0.57684717218E-01  0.66209174800E-01  0.10149872336E+00  0.89017592209E+00  0.88000000000E+00 0. -1.
        -11    1    4    4    0    0  0.57767293628E-02 -0.29914863601E-01 -0.31157461783E-01  0.43581168091E-01  0.51100000000E-03 0.  1.
         11    1    4    4    0    0  0.28654747815E-01 -0.38820523789E-01 -0.72055466105E-01  0.86720118521E-01  0.51100000000E-03 0. -1.
</event>
<event>
 8    1  0.1132492E+005  0.1043930E+01  0.7957747E-01            NaN
         13   -1    0    0    0    0  0.00000000000E+00  0.00000000000E+00  0.74505805969E-08  0.10566000000E+00  0.10566000000E+00 0.  1.
     999900   -1    0    0    0    0 -0.00000000000E+00 -0.00000000000E+00 -0.74505805969E-08  0.93827000000E+00  0.93827000000E+00 0. -1.
     999902    2    1    2    0    0  0.21435325756E-01  0.63256137652E-02 -0.39161815711E-02  0.10212402874E+01  0.10209881985E+01 0.  0.
     999903    2    3    3    0    0  0.37619479323E-01  0.14073967998E-01 -0.12518040934E+00  0.13274325490E+00  0.18366682874E-01 0.  0.
         14    1    1    2    0    0 -0.21435325756E-01 -0.63256137652E-02  0.39161815711E-02  0.22689712600E-01  0.00000000000E+00 0. -1.
     999901    1    3    3    0    0 -0.16184153567E-01 -0.77483542327E-02  0.12126422777E+00  0.88849703250E+00  0.88000000000E+00 0.  1.
        -11    1    4    4    0    0  0.13611958451E-01  0.13043086777E-01 -0.71170116827E-01  0.73626450246E-01  0.51100000000E-03 0. -1.
         11    1    4    4    0    0  0.24007520872E-01  0.10308812204E-02 -0.54010292513E-01  0.59116804657E-01  0.51100000000E-03 0.  1.
</event>
<event>
 8    1  0.1132492E+005  0.1043930E+01  0.7957747E-01            NaN
         13   -1    0    0    0    0  0.00000000000E+00  0.00000000000E+00  0.74505805969E-08  0.10566000000E+00  0.10566000000E+00 0. -1.
     999900   -1    0    0    0    0 -0.00000000000E+00 -0.00000000000E+00 -0.74505805969E-08  0.93827000000E+00  0.93827000000E+00 0.  1.
     999902    2    1    2    0    0 -0.86090917650E-02 -0.19517335900E-01 -0.11179629320E-01  0.10198462508E+01  0.10195618414E+01 0.  0.
     999903    2    3    3    0    0 -0.12280295866E+00  0.39129944248E-01  0.17617921517E-02  0.13043789520E+00  0.19980525487E-01 0.  0.
         14    1    1    2    0    0  0.86090917650E-02  0.19517335900E-01  0.11179629320E-01  0.24083749156E-01  0.00000000000E+00 0. -1.
     999901    1    3    3    0    0  0.11419386690E+00 -0.58647280148E-01 -0.12941421472E-01  0.88940835565E+00  0.88000000000E+00 0.  1.
        -11    1    4    4    0    0 -0.96992692104E-01  0.34524447818E-01  0.86718710284E-02  0.10331980588E+00  0.51100000000E-03 0.  1.
         11    1    4    4    0    0 -0.25810266558E-01  0.46054964300E-02 -0.69100788767E-02  0.27118089318E-01  0.51100000000E-03 0. -1.
</event>
<event>
 8    1  0.1132492E+005  0.1043930E+01  0.7957747E-01            NaN
         13   -1    0    0    0    0  0.00000000000E+00  0.00000000000E+00  0.74505805969E-08  0.10566000000E+00  0.10566000000E+00 0.  1.
     999900   -1    0    0    0    0 -0.00000000000E+00 -0.00000000000E+00 -0.74505805969E-08  0.93827000000E+00  0.93827000000E+00 0.  1.
     999902    2    1    2    0    0  0.18845739309E-02 -0.13992672595E-01 -0.17769449708E-01  0.10212341888E+01  0.10209819628E+01 0.  0.
     999903    2    3    3    0    0 -0.10701558846E+00  0.62405997657E-01 -0.37981876393E-01  0.13100694564E+00  0.19322322681E-01 0.  0.
         14    1    1    2    0    0 -0.18845739309E-02  0.13992672595E-01  0.17769449708E-01  0.22695811247E-01  0.00000000000E+00 0. -1.
     999901    1    3    3    0    0  0.10890016240E+00 -0.76398670251E-01  0.20212426685E-01  0.89022724311E+00  0.88000000000E+00 0. -1.
        -11    1    4    4    0    0 -0.56166710622E-01  0.34482726055E-01 -0.10234238458E-01  0.66699014506E-01  0.51100000000E-03 0. -1.
         11    1    4    4    0    0 -0.50848877843E-01  0.27923271602E-01 -0.27747637936E-01  0.64307931135E-01  0.51100000000E-03 0.  1.
</event>
<event>
 8    1  0.1132492E+005  0.1043930E+01  0.7957747E-01            NaN
         13   -1    0    0    0    0  0.00000000000E+00  0.00000000000E+00  0.74505805969E-08  0.10566000000E+00  0.10566000000E+00 0.  1.
     999900   -1    0    0    0    0 -0.00000000000E+00 -0.00000000000E+00 -0.74505805969E-08  0.93827000000E+00  0.93827000000E+00 0. -1.
     999902    2    1    2    0    0 -0.12808813041E-01 -0.68288086180E-02  0.17839630110E-01  0.10209310713E+01  0.10206719853E+01 0.  0.
     999903    2    3    3    0    0 -0.12309160533E+00 -0.44569561087E-02  0.47226470360E-01  0.13355769649E+00  0.20878482403E-01 0.  0.
         14    1    1    2    0    0  0.12808813041E-01  0.68288086180E-02 -0.17839630110E-01  0.22998928695E-01  0.00000000000E+00 0. -1.
     999901    1    3    3    0    0  0.11028279229E+00 -0.23718525093E-02 -0.29386840251E-01  0.88737337482E+00  0.88000000000E+00 0. -1.
        -11    1    4    4    0    0 -0.29035661042E-01 -0.37595432422E-02  0.20597050005E-01  0.35800885010E-01  0.51100000000E-03 0.  1.
         11    1    4    4    0    0 -0.94055944287E-01 -0.69741286650E-03  0.26629420355E-01  0.97756811476E-01  0.51100000000E-03 0. -1.
</event>
<event>
 8    1  0.1132492E+005  0.1043930E+01  0.7957747E-01            NaN
         13   -1    0    0    0    0  0.00000000000E+00  0.00000000000E+00  0.74505805969E-08  0.10566000000E+00  0.10566000000E+00 0. -1.
     999900   -1    0    0    0    0 -0.00000000000E+00 -0.00000000000E+00 -0.74505805969E-08  0.93827000000E+00  0.93827000000E+00 0. -1.
     999902    2    1    2    0    0  0.17082647465E-01 -0.14204064988E-01  0.60054559471E-02  0.10209161388E+01  0.10206567124E+01 0.  0.
     999903    2    3    3    0    0 -0.11118617705E+00 -0.53765265008E-01 -0.35443486712E-01  0.12977305559E+00  0.18213608091E-01 0.  0.
         14    1    1    2    0    0 -0.17082647465E-01  0.14204064988E-01 -0.60054559471E-02  0.23013861208E-01  0.00000000000E+00 0.  1.
     999901    1    3    3    0    0  0.12826882451E+00  0.39561200020E-01  0.41448942659E-01  0.89114308320E+00  0.88000000000E+00 0.  1.
        -11    1    4    4    0    0 -0.68319260840E-01 -0.23569731832E-01 -0.17612412488E-01  0.74387578634E-01  0.51100000000E-03 0.  1.
         11    1    4    4    0    0 -0.42866916206E-01 -0.30195533177E-01 -0.17831074224E-01  0.55385476957E-01  0.51100000000E-03 0. -1.
</event>
<event>
 8    1  0.1132492E+005  0.1043930E+01  0.7957747E-01            NaN
         13   -1    0    0    0    0  0.00000000000E+00  0.00000000000E+00  0.74505805969E-08  0.10566000000E+00  0.10566000000E+00 0. -1.
     999900   -1    0    0    0    0 -0.00000000000E+00 -0.00000000000E+00 -0.74505805969E-08  0.93827000000E+00  0.93827000000E+00 0.  1.
     999902    2    1    2    0    0  0.14185064284E-01 -0.17820624365E-01 -0.59276980029E-02  0.10203943185E+01  0.10201228538E+01 0.  0.
     999903    2    3    3    0    0  0.17623217492E-01  0.12554395068E+00  0.14849695560E-02  0.12875528281E+00  0.22446745201E-01 0.  0.
         14    1    1    2    0    0 -0.14185064284E-01  0.17820624365E-01  0.59276980029E-02  0.23535681531E-01  0.00000000000E+00 0. -1.
     999901    1    3    3    0    0 -0.34381532078E-02 -0.14336457504E+00 -0.74126675589E-02  0.89163903566E+00  0.88000000000E+00 0. -1.
        -11    1    4    4    0    0  0.89872728171E-03  0.83313378916E-01  0.58822183591E-03  0.83321869537E-01  0.51100000000E-03 0.  1.
         11    1    4    4    0    0  0.16724490210E-01  0.42230571761E-01  0.89674772013E-03  0.45433413271E-01  0.51100000000E-03 0. -1.
</event>
<event>
 8    1  0.1132492E+005  0.1043930E+01  0.7957747E-01            NaN
         13   -1    0    0    0    0  0.00000000000E+00  0.00000000000E+00  0.74505805969E-08  0.10566000000E+00  0.10566000000E+00 0. -1.
     999900   -1    0    0    0    0 -0.00000000000E+00 -0.00000000000E+00 -0.74505805969E-08  0.93827000000E+00  0.93827000000E+00 0. -1.
     999902    2    1    2    0    0 -0.23022131487E-01  0.69562773759E-03 -0.15314216189E-02  0.10208465061E+01  0.10205854895E+01 0.  0.
     999903    2    3    3    0    0 -0.11077166610E+00  0.69348595134E-01 -0.19401527722E-01  0.13364159665E+00  0.20101428277E-01 0.  0.
         14    1    1    2    0    0  0.23022131487E-01 -0.69562773759E-03  0.15314216189E-02  0.23083493850E-01  0.00000000000E+00 0. -1.
     999901    1    3    3    0    0  0.87749534611E-01 -0.68652967397E-01  0.17870106103E-01  0.88720490950E+00  0.88000000000E+00 0. -1.
        -11    1    4    4    0    0 -0.21640509881E-01  0.15356501813E-01  0.39890831961E-02  0.26838549171E-01  0.51100000000E-03 0.  1.
         11    1    4    4    0    0 -0.89131156216E-01  0.53992093321E-01 -0.23390610918E-01  0.10680304747E+00  0.51100000000E-03 0. -1.
</event>
<event>
 8    1  0.1132492E+005  0.1043930E+01  0.7957747E-01            NaN
         13   -1    0    0    0    0  0.00000000000E+00  0.00000000000E+00  0.74505805969E-08  0.10566000000E+00  0.10566000000E+00 0.  1.
     999900   -1    0    0    0    0 -0.00000000000E+00 -0.00000000000E+00 -0.74505805969E-08  0.93827000000E+00  0.93827000000E+00 0. -1.
     999902    2    1    2    0    0  0.21487692309E-02 -0.11678480081E-01  0.19437260152E-01  0.10211525728E+01  0.10208985091E+01 0.  0.
     999903    2    3    3    0    0 -0.82140049630E-01  0.95572581925E-01 -0.21596917156E-01  0.12969803165E+00  0.21772606964E-01 0.  0.
         14    1    1    2    0    0 -0.21487692309E-02  0.11678480081E-01 -0.19437260152E-01  0.22777427169E-01  0.00000000000E+00 0. -1.
     999901    1    3    3    0    0  0.84288818861E-01 -0.10725106201E+00  0.41034177308E-01  0.89145454118E+00  0.88000000000E+00 0.  1.
        -11    1    4    4    0    0 -0.50625905686E-01  0.73736132565E-01 -0.12765673074E-01  0.90350556734E-01  0.51100000000E-03 0. -1.
         11    1    4    4    0    0 -0.31514143943E-01  0.21836449361E-01 -0.88312440815E-02  0.39347474915E-01  0.51100000000E-03 0.  1.
</event>
<event>
 8    1  0.1132492E+005  0.1043930E+01  0.7957747E-01            NaN
         13   -1    0    0    0    0  0.00000000000E+00  0.00000000000E+00  0.74505805969E-08  0.10566000000E+00  0.10566000000E+00 0. -1.
     999900   -1    0    0    0    0 -0.00000000000E+00 -0.00000000000E+00 -0.74505805969E-08  0.93827000000E+00  0.93827000000E+00 0.  1.
     999902    2    1    2    0    0  0.17803696535E-01 -0.27163627624E-02 -0.15541082524E-01  0.10201418626E+01  0.10198644735E+01 0.  0.
     999903    2    3    3    0    0  0.60049123580E-01 -0.11502005816E+00  0.62866432830E-02  0.13173134612E+00  0.21865832788E-01 0.  0.
         14    1    1    2    0    0 -0.17803696535E-01  0.27163627624E-02  0.15541082524E-01  0.23788137443E-01  0.00000000000E+00 0. -1.
     999901    1    3    3    0    0 -0.42245427044E-01  0.11230369540E+00 -0.21827725807E-01  0.88841051644E+00  0.88000000000E+00 0.  1.
        -11    1    4    4    0    0  0.32351158432E-01 -0.42523513972E-01 -0.32852378281E-02  0.53534106895E-01  0.51100000000E-03 0.  1.
         11    1    4    4    0    0  0.27697965147E-01 -0.72496544192E-01  0.95718811111E-02  0.78197239223E-01  0.51100000000E-03 0. -1.
</event>
<event>
 8    1  0.1132492E+005  0.1043930E+01  0.7957747E-01            NaN
         13   -1    0    0    0    0  0.00000000000E+00  0.00000000000E+00  0.74505805969E-08  0.10566000000E+00  0.10566000000E+00 0.  1.
     999900   -1    0    0    0    0 -0.00000000000E+00 -0.00000000000E+00 -0.74505805969E-08  0.93827000000E+00  0.93827000000E+00 0.  1.
     999902    2    1    2    0    0  0.33447836468E-02 -0.15866590565E-01  0.17412501550E-01  0.10201364823E+01  0.10198589663E+01 0.  0.
     999903    2    3    3    0    0 -0.41194876764E-01  0.11991414133E+00  0.50191759708E-02  0.12852345918E+00  0.20412453794E-01 0.  0.
         14    1    1    2    0    0 -0.33447836468E-02  0.15866590565E-01 -0.17412501550E-01  0.23793517689E-01  0.00000000000E+00 0. -1.
     999901    1    3    3    0    0  0.44539660411E-01 -0.13578073189E+00  0.12393325579E-01  0.89161302313E+00  0.88000000000E+00 0.  1.
        -11    1    4    4    0    0 -0.10033529463E-01  0.43275683446E-01  0.10359266412E-01  0.45618329789E-01  0.51100000000E-03 0.  1.
         11    1    4    4    0    0 -0.31161347301E-01  0.76638457880E-01 -0.53400904416E-02  0.82905129388E-01  0.51100000000E-03 0. -1.
</event>
<event>
 8    1  0.1132492E+005  0.1043930E+01  0.7957747E-01            NaN
         13   -1    0    0    0    0  0.00000000000E+00  0.00000000000E+00  0.74505805969E-08  0.10566000000E+00  0.10566000000E+00 0. -1.
     999900   -1    0    0    0    0 -0.00000000000E+00 -0.00000000000E+00 -0.74505805969E-08  0.93827000000E+00  0.93827000000E+00 0. -1.
     999902    2    1    2    0    0 -0.14681201889E-01  0.18832648258E-01 -0.48909253745E-02  0.10195552696E+01  0.10192638620E+01 0.  0.
     999903    2    3    3    0    0  0.98527614458E-01 -0.43174836771E-01 -0.66327479379E-01  0.12801973222E+00  0.20444069487E-01 0.  0.
         14    1    1    2    0    0  0.14681201889E-01 -0.18832648258E-01  0.48909253745E-02  0.24374730364E-01  0.00000000000E+00 0.  1.
     999901    1    3    3    0    0 -0.11320881635E+00  0.62007485029E-01  0.61436554004E-01  0.89153553741E+00  0.88000000000E+00 0.  1.
        -11    1    4    4    0    0  0.13165954185E-01 -0.80013692127E-02 -0.21148951745E-02  0.15559503896E-01  0.51100000000E-03 0.  1.
         11    1    4    4    0    0  0.85361660272E-01 -0.35173467558E-01 -0.64212584204E-01  0.11246022833E+00  0.51100000000E-03 0. -1.
</event>
<event>
 8    1  0.1132492E+005  0.1043930E+01  0.7957747E-01            NaN
         13   -1    0    0    0    0  0.00000000000E+00  0.00000000000E+00  0.74505805969E-08  0.10566000000E+00  0.10566000000E+00 0. -1.
     999900   -1    0    0    0    0 -0.00000000000E+00 -0.00000000000E+00 -0.74505805969E-08  0.93827000000E+00  0.93827000000E+00 0.  1.
     999902    2    1    2    0    0 -0.23019477307E-01 -0.46382509536E-02 -0.54591591157E-02  0.10198216586E+01  0.10195366610E+01 0.  0.
     999903    2    3    3    0    0 -0.48380430507E-01 -0.71599905916E-01  0.96400087861E-01  0.13105715245E+00  0.20390872582E-01 0.  0.
         14    1    1    2    0    0  0.23019477307E-01  0.46382509536E-02  0.54591591157E-02  0.24108341412E-01  0.00000000000E+00 0. -1.
     999901    1    3    3    0    0  0.25360953200E-01  0.66961654963E-01 -0.10185924698E+00  0.88876450614E+00  0.88000000000E+00 0.  1.
        -11    1    4    4    0    0 -0.14429783555E-01 -0.39512738765E-01  0.45964158692E-01  0.62309230323E-01  0.51100000000E-03 0. -1.
         11    1    4    4    0    0 -0.33950646952E-01 -0.32087167151E-01  0.50435929169E-01  0.68747922124E-01  0.51100000000E-03 0.  1.
</event>
<event>
 8    1  0.1132492E+005  0.1043930E+01  0.7957747E-01            NaN
         13   -1    0    0    0    0  0.00000000000E+00  0.00000000000E+00  0.74505805969E-08  0.10566000000E+00  0.10566000000E+00 0. -1.
     999900   -1    0    0    0    0 -0.00000000000E+00 -0.00000000000E+00 -0.74505805969E-08  0.93827000000E+00  0.93827000000E+00 0. -1.
     999902    2    1    2    0    0  0.20056967963E-01 -0.25118340179E-02  0.11958622306E-01  0.10204438355E+01  0.10201735252E+01 0.  0.
     999903    2    3    3    0    0  0.93762180401E-01 -0.40248910530E-01  0.83999892815E-01  0.13362565240E+00  0.19710700463E-01 0.  0.
         14    1    1    2    0    0 -0.20056967963E-01  0.25118340179E-02 -0.11958622306E-01  0.23486164469E-01  0.00000000000E+00 0.  1.
     999901    1    3    3    0    0 -0.73705212439E-01  0.37737076512E-01 -0.72041270509E-01  0.88681818314E+00  0.88000000000E+00 0. -1.
        -11    1    4    4    0    0  0.42930377025E-01 -0.28676315349E-01  0.38116623960E-01  0.64175435149E-01  0.51100000000E-03 0. -1.
         11    1    4    4    0    0  0.50831803377E-01 -0.11572595181E-01  0.45883268854E-01  0.69450217246E-01  0.51100000000E-03 0.  1.
</event>
<event>
 8    1  0.1132492E+005  0.1043930E+01  0.7957747E-01            NaN
         13   -1    0    0    0    0  0.00000000000E+00  0.00000000000E+00  0.74505805969E-08  0.10566000000E+00  0.10566000000E+00 0.  1.
     999900   -1    0    0    0    0 -0.00000000000E+00 -0.00000000000E+00 -0.74505805969E-08  0.93827000000E+00  0.93827000000E+00 0. -1.
     999902    2    1    2    0    0 -0.82352282178E-02 -0.21708988391E-01 -0.15861133450E-02  0.10206573784E+01  0.10203920174E+01 0.  0.
     999903    2    3    3    0    0 -0.58179828922E-01 -0.60418196018E-01 -0.10100107984E+00  0.13280817867E+00  0.20038545098E-01 0.  0.
         14    1    1    2    0    0  0.82352282178E-02  0.21708988391E-01  0.15861133450E-02  0.23272621604E-01  0.00000000000E+00 0. -1.
     999901    1    3    3    0    0  0.49944600704E-01  0.38709207627E-01  0.99414966491E-01  0.88784919973E+00  0.88000000000E+00 0. -1.
        -11    1    4    4    0    0 -0.41051396207E-01 -0.41761371463E-01 -0.55245361371E-01  0.80508014203E-01  0.51100000000E-03 0. -1.
         11    1    4    4    0    0 -0.17128432714E-01 -0.18656824556E-01 -0.45755718466E-01  0.52300164465E-01  0.51100000000E-03 0.  1.
</event>
<event>
 8    1  0.1132492E+005  0.1043930E+01  0.7957747E-01            NaN
         13   -1    0    0    0    0  0.00000000000E+00  0.00000000000E+00  0.74505805969E-08  0.10566000000E+00  0.10566000000E+00 0.  1.
     999900   -1    0    0    0    0 -0.00000000000E+00 -0.00000000000E+00 -0.74505805969E-08  0.93827000000E+00  0.93827000000E+00 0.  1.
     999902    2    1    2    0    0  0.15542007015E-01 -0.30020829331E-02  0.26929522908E-01  0.10126927516E+01  0.10122108691E+01 0.  0.
     999903    2    3    3    0    0  0.45636428774E-01 -0.62189653674E-01 -0.92527255485E-01  0.12214305357E+00  0.20184049936E-01 0.  0.
         14    1    1    2    0    0 -0.15542007015E-01  0.30020829331E-02 -0.26929522908E-01  0.31237248407E-01  0.00000000000E+00 0. -1.
     999901    1    3    3    0    0 -0.30094421759E-01  0.59187570741E-01  0.11945677839E+00  0.89054969803E+00  0.88000000000E+00 0. -1.
        -11    1    4    4    0    0  0.25999729226E-01 -0.19957078800E-01 -0.44140974280E-01  0.54981430005E-01  0.51100000000E-03 0. -1.
         11    1    4    4    0    0  0.19636699548E-01 -0.42232574874E-01 -0.48386281205E-01  0.67161623562E-01  0.51100000000E-03 0.  1.
</event>
<event>
 8    1  0.1132492E+005  0.1043930E+01  0.7957747E-01            NaN
         13   -1    0    0    0    0  0.00000000000E+00  0.00000000000E+00  0.74505805969E-08  0.10566000000E+00  0.10566000000E+00 0.  1.
     999900   -1    0    0    0    0 -0.00000000000E+00 -0.00000000000E+00 -0.74505805969E-08  0.93827000000E+00  0.93827000000E+00 0. -1.
     999902    2    1    2    0    0  0.14954085126E-01 -0.17920181289E-01 -0.84222470602E-02  0.10191168623E+01  0.10188147462E+01 0.  0.
     999903    2    3    3    0    0  0.44093648329E-01  0.96839075008E-01 -0.70169690051E-01  0.12904296208E+00  0.20155505191E-01 0.  0.
         14    1    1    2    0    0 -0.14954085126E-01  0.17920181289E-01  0.84222470602E-02  0.24813137748E-01  0.00000000000E+00 0. -1.
     999901    1    3    3    0    0 -0.29139563203E-01 -0.11475925630E+00  0.61747442991E-01  0.89007390017E+00  0.88000000000E+00 0.  1.
        -11    1    4    4    0    0  0.24731925174E-01  0.74578714263E-01 -0.54580832732E-01  0.95671213887E-01  0.51100000000E-03 0. -1.
         11    1    4    4    0    0  0.19361723155E-01  0.22260360744E-01 -0.15588857319E-01  0.33371748194E-01  0.51100000000E-03 0.  1.
</event>
<event>
 7    1  0.1132492E+005  0.1043930E+01  0.7957747E-01            NaN
         13   -1    0    0    0    0  0.00000000000E+00  0.00000000000E+00  0.74505805969E-08  0.10566000000E+00  0.10566000000E+00 0.  1.
     999900   -1    0    0    0    0 -0.00000000000E+00 -0.00000000000E+00 -0.74505805969E-08  0.93827000000E+00  0.93827000000E+00 0.  1.
     999903    2    1    2    0    0 -0.31235329243E-01  0.60489092272E-03  0.10176862293E-01  0.37956415981E-01  0.19002876152E-01 0.  0.
         14    1    1    2    0    0  0.24207739597E-01  0.10403962736E+00  0.49516503816E-01  0.11773760176E+00  0.00000000000E+00 0.  1.
     999901    1    1    2    0    0  0.70275896451E-02 -0.10464451828E+00 -0.59693366109E-01  0.88823598226E+00  0.88000000000E+00 0.  1.
        -11    1    3    3    0    0 -0.15188615100E-01  0.46758879124E-02  0.13740117363E-01  0.21014516473E-01  0.51100000000E-03 0. -1.
         11    1    3    3    0    0 -0.16046714142E-01 -0.40709969896E-02 -0.35632550700E-02  0.16941899508E-01  0.51100000000E-03 0.  1.
</event>
<event>
 8    1  0.1132492E+005  0.1043930E+01  0.7957747E-01            NaN
         13   -1    0    0    0    0  0.00000000000E+00  0.00000000000E+00  0.74505805969E-08  0.10566000000E+00  0.10566000000E+00 0. -1.
     999900   -1    0    0    0    0 -0.00000000000E+00 -0.00000000000E+00 -0.74505805969E-08  0.93827000000E+00  0.93827000000E+00 0. -1.
     999902    2    1    2    0    0  0.11630603694E-01  0.20520909291E-01 -0.23946448832E-03  0.10203411042E+01  0.10200683962E+01 0.  0.
     999903    2    3    3    0    0  0.11305471848E+00  0.38746794403E-01 -0.54165614286E-01  0.13268854631E+00  0.19739632792E-01 0.  0.
         14    1    1    2    0    0 -0.11630603694E-01 -0.20520909291E-01  0.23946448832E-03  0.23588895770E-01  0.00000000000E+00 0.  1.
     999901    1    3    3    0    0 -0.10142411479E+00 -0.18225885112E-01  0.53926149798E-01  0.88765255792E+00  0.88000000000E+00 0.  1.
        -11    1    4    4    0    0  0.80126410117E-01  0.26970534026E-01 -0.47854526230E-01  0.97149205378E-01  0.51100000000E-03 0. -1.
         11    1    4    4    0    0  0.32928308368E-01  0.11776260378E-01 -0.63110880556E-02  0.35539340932E-01  0.51100000000E-03 0.  1.
</event>
<event>
 8    1  0.1132492E+005  0.1043930E+01  0.7957747E-01            NaN
         13   -1    0    0    0    0  0.00000000000E+00  0.00000000000E+00  0.74505805969E-08  0.10566000000E+00  0.10566000000E+00 0.  1.
     999900   -1    0    0    0    0 -0.00000000000E+00 -0.00000000000E+00 -0.74505805969E-08  0.93827000000E+00  0.93827000000E+00 0.  1.
     999902    2    1    2    0    0 -0.21529563210E-01 -0.84904834147E-02 -0.14964472305E-02  0.10207384120E+01  0.10204749169E+01 0.  0.
     999903    2    3    3    0    0 -0.30288383435E-01  0.24378387523E-01  0.12371545821E+00  0.13122444308E+00  0.20066088618E-01 0.  0.
         14    1    1    2    0    0  0.21529563210E-01  0.84904834147E-02  0.14964472305E-02  0.23191588021E-01  0.00000000000E+00 0. -1.
     999901    1    3    3    0    0  0.87588202256E-02 -0.32868870938E-01 -0.12521190544E+00  0.88951396890E+00  0.88000000000E+00 0.  1.
        -11    1    4    4    0    0 -0.31003202916E-02  0.22618265400E-02  0.43666253263E-01  0.43837548292E-01  0.51100000000E-03 0. -1.
         11    1    4    4    0    0 -0.27188063144E-01  0.22116560983E-01  0.80049204943E-01  0.87386894786E-01  0.51100000000E-03 0.  1.
</event>
<event>
 8    1  0.1132492E+005  0.1043930E+01  0.7957747E-01            NaN
         13   -1    0    0    0    0  0.00000000000E+00  0.00000000000E+00  0.74505805969E-08  0.10566000000E+00  0.10566000000E+00 0. -1.
     999900   -1    0    0    0    0 -0.00000000000E+00 -0.00000000000E+00 -0.74505805969E-08  0.93827000000E+00  0.93827000000E+00 0. -1.
     999902    2    1    2    0    0  0.18613224287E-01  0.12973633326E-01 -0.73981730703E-02  0.10200657957E+01  0.10197866088E+01 0.  0.
     999903    2    3    3    0    0  0.76871865981E-01  0.10444244026E+00 -0.23039669871E-01  0.13327085417E+00  0.20317162160E-01 0.  0.
         14    1    1    2    0    0 -0.18613224287E-01 -0.12973633326E-01  0.73981730703E-02  0.23864204257E-01  0.00000000000E+00 0. -1.
     999901    1    3    3    0    0 -0.58258641693E-01 -0.91468806929E-01  0.15641496800E-01  0.88679494157E+00  0.88000000000E+00 0.  1.
        -11    1    4    4    0    0  0.56668960985E-01  0.62198162541E-01 -0.10538788677E-01  0.84801590494E-01  0.51100000000E-03 0.  1.
         11    1    4    4    0    0  0.20202904996E-01  0.42244277714E-01 -0.12500881193E-01  0.48469263678E-01  0.51100000000E-03 0. -1.
</event>
<event>
 8    1  0.1132492E+005  0.1043930E+01  0.7957747E-01            NaN
         13   -1    0    0    0    0  0.00000000000E+00  0.00000000000E+00  0.74505805969E-08  0.10566000000E+00  0.10566000000E+00 0. -1.
     999900   -1    0    0    0    0 -0.00000000000E+00 -0.00000000000E+00 -0.74505805969E-08  0.93827000000E+00  0.93827000000E+00 0. -1.
     999902    2    1    2    0    0  0.13844634100E-02 -0.18942372164E-01 -0.13941935948E-01  0.10203692746E+01  0.10200972252E+01 0.  0.
     999903    2    3    3    0    0  0.11298810990E+00  0.25078417201E-01 -0.58281371594E-01  0.13112285807E+00  0.20031116895E-01 0.  0.
         14    1    1    2    0    0 -0.13844634100E-02  0.18942372164E-01  0.13941935948E-01  0.23560725373E-01  0.00000000000E+00 0. -1.
     999901    1    3    3    0    0 -0.11160364649E+00 -0.44020789366E-01  0.44339435646E-01  0.88924641656E+00  0.88000000000E+00 0.  1.
        -11    1    4    4    0    0  0.31733697226E-01  0.68772096534E-02 -0.66594093761E-02  0.33150149419E-01  0.51100000000E-03 0. -1.
         11    1    4    4    0    0  0.81254412678E-01  0.18201207548E-01 -0.51621962218E-01  0.97972708650E-01  0.51100000000E-03 0.  1.
</event>
<event>
 8    1  0.1132492E+005  0.1043930E+01  0.7957747E-01            NaN
         13   -1    0    0    0    0  0.00000000000E+00  0.00000000000E+00  0.74505805969E-08  0.10566000000E+00  0.10566000000E+00 0.  1.
     999900   -1    0    0    0    0 -0.00000000000E+00 -0.00000000000E+00 -0.74505805969E-08  0.93827000000E+00  0.93827000000E+00 0.  1.
     999902    2    1    2    0    0  0.23452986537E-01  0.19767673147E-01 -0.27313124198E-02  0.10131361119E+01  0.10126680194E+01 0.  0.
     999903    2    3    3    0    0 -0.45657314639E-02 -0.92797316605E-01 -0.77171340377E-01  0.12240762167E+00  0.19900306392E-01 0.  0.
         14    1    1    2    0    0 -0.23452986537E-01 -0.19767673147E-01  0.27313124198E-02  0.30793888138E-01  0.00000000000E+00 0.  1.
     999901    1    3    3    0    0  0.28018718001E-01  0.11256498975E+00  0.74440027958E-01  0.89072849019E+00  0.88000000000E+00 0. -1.
        -11    1    4    4    0    0 -0.53543890727E-02 -0.68654465247E-01 -0.45361401454E-01  0.82462251628E-01  0.51100000000E-03 0. -1.
         11    1    4    4    0    0  0.78865760889E-03 -0.24142851358E-01 -0.31809938923E-01  0.39945370042E-01  0.51100000000E-03 0.  1.
</event>
<event>
 8    1  0.1132492E+005  0.1043930E+01  0.7957747E-01            NaN
         13   -1    0    0    0    0  0.00000000000E+00  0.00000000000E+00  0.74505805969E-08  0.10566000000E+00  0.10566000000E+00 0. -1.
     999900   -1    0    0    0    0 -0.00000000000E+00 -0.00000000000E+00 -0.74505805969E-08  0.93827000000E+00  0.93827000000E+00 0.  1.
     999902    2    1    2    0    0 -0.14140523640E-01 -0.14951394400E-01 -0.12220715963E-01  0.10199958298E+01  0.10197149839E+01 0.  0.
     999903    2    3    3    0    0  0.95010091180E-01 -0.33607278269E-01 -0.80500144819E-01  0.13043190344E+00  0.19386633043E-01 0.  0.
         14    1    1    2    0    0  0.14140523640E-01  0.14951394400E-01  0.12220715963E-01  0.23934170175E-01  0.00000000000E+00 0. -1.
     999901    1    3    3    0    0 -0.10915061482E+00  0.18655883869E-01  0.68279428856E-01  0.88956392638E+00  0.88000000000E+00 0.  1.
        -11    1    4    4    0    0  0.91219788878E-01 -0.35374266573E-01 -0.73945623007E-01  0.12264014392E+00  0.51100000000E-03 0. -1.
         11    1    4    4    0    0  0.37903023019E-02  0.17669883041E-02 -0.65545218120E-02  0.77917595183E-02  0.51100000000E-03 0.  1.
</event>
<event>
 8    1  0.1132492E+005  0.1043930E+01  0.7957747E-01            NaN
         13   -1    0    0    0    0  0.00000000000E+00  0.00000000000E+00  0.74505805969E-08  0.10566000000E+00  0.10566000000E+00 0.  1.
     999900   -1    0    0    0    0 -0.00000000000E+00 -0.00000000000E+00 -0.74505805969E-08  0.93827000000E+00  0.93827000000E+00 0.  1.
     999902    2    1    2    0    0  0.17158248888E-01 -0.37885578067E-02  0.15813329051E-01  0.10202906250E+01  0.10200167349E+01 0.  0.
     999903    2    3    3    0    0 -0.11680741340E+00  0.38729651722E-01  0.32623029410E-01  0.12897857927E+00  0.20670126189E-01 0.  0.
         14    1    1    2    0    0 -0.17158248888E-01  0.37885578067E-02 -0.15813329051E-01  0.23639375009E-01  0.00000000000E+00 0. -1.
     999901    1    3    3    0    0  0.13396566228E+00 -0.42518209529E-01 -0.16809700359E-01  0.89131204572E+00  0.88000000000E+00 0.  1.
        -11    1    4    4    0    0 -0.57277219774E-01  0.21767468072E-01  0.59150798783E-02  0.61560960537E-01  0.51100000000E-03 0.  1.
         11    1    4    4    0    0 -0.59530193623E-01  0.16962183651E-01  0.26707949532E-01  0.67417618737E-01  0.51100000000E-03 0. -1.
</event>
<event>
 8    1  0.1132492E+005  0.1043930E+01  0.7957747E-01            NaN
         13   -1    0    0    0    0  0.00000000000E+00  0.00000000000E+00  0.74505805969E-08  0.10566000000E+00  0.10566000000E+00 0. -1.
     999900   -1    0    0    0    0 -0.00000000000E+00 -0.00000000000E+00 -0.74505805969E-08  0.93827000000E+00  0.93827000000E+00 0.  1.
     999902    2    1    2    0    0  0.13268869416E-01  0.56026579739E-02 -0.19461501184E-01  0.10197183768E+01  0.10194309026E+01 0.  0.
     999903    2    3    3    0    0  0.19019416879E-01 -0.45508142739E-02 -0.12992688367E+00  0.13273542172E+00  0.18848048945E-01 0.  0.
         14    1    1    2    0    0 -0.13268869416E-01 -0.56026579739E-02  0.19461501184E-01  0.24211623248E-01  0.00000000000E+00 0.  1.
     999901    1    3    3    0    0 -0.57505474628E-02  0.10153472248E-01  0.11046538249E+00  0.88698295504E+00  0.88000000000E+00 0. -1.
        -11    1    4    4    0    0  0.22504974983E-01 -0.60691755081E-02 -0.11278400986E+00  0.11516858422E+00  0.51100000000E-03 0.  1.
         11    1    4    4    0    0 -0.34855581035E-02  0.15183612341E-02 -0.17142873810E-01  0.17566837495E-01  0.51100000000E-03 0. -1.
</event>
<event>
 8    1  0.1132492E+005  0.1043930E+01  0.7957747E-01            NaN
         13   -1    0    0    0    0  0.00000000000E+00  0.00000000000E+00  0.74505805969E-08  0.10566000000E+00  0.10566000000E+00 0. -1.
     999900   -1    0    0    0    0 -0.00000000000E+00 -0.00000000000E+00 -0.74505805969E-08  0.93827000000E+00  0.93827000000E+00 0.  1.
     999902    2    1    2    0    0  0.17868209982E-01  0.14699250798E-01  0.34609908704E-02  0.10205351424E+01  0.10202669541E+01 0.  0.
     999903    2    3    3    0    0 -0.20808684202E-01 -0.63510430695E-01 -0.10819137877E+00  0.12919967919E+00  0.22816803382E-01 0.  0.
         14    1    1    2    0    0 -0.17868209982E-01 -0.14699250798E-01 -0.34609908704E-02  0.23394857550E-01  0.00000000000E+00 0.  1.
     999901    1    3    3    0    0  0.38676894184E-01  0.78209681494E-01  0.11165236964E+00  0.89133546326E+00  0.88000000000E+00 0. -1.
        -11    1    4    4    0    0  0.22726298357E-02 -0.29027207631E-01 -0.44994876574E-01  0.53596116167E-01  0.51100000000E-03 0. -1.
         11    1    4    4    0    0 -0.23081314038E-01 -0.34483223064E-01 -0.63196502196E-01  0.75603563021E-01  0.51100000000E-03 0.  1.
</event>
<event>
 8    1  0.1132492E+005  0.1043930E+01  0.7957747E-01            NaN
         13   -1    0    0    0    0  0.00000000000E+00  0.00000000000E+00  0.74505805969E-08  0.10566000000E+00  0.10566000000E+00 0.  1.
     999900   -1    0    0    0    0 -0.00000000000E+00 -0.00000000000E+00 -0.74505805969E-08  0.93827000000E+00  0.93827000000E+00 0.  1.
     999902    2    1    2    0    0  0.95811779456E-02 -0.19937514179E-01  0.12150893680E-01  0.10186921780E+01  0.10183794999E+01 0.  0.
     999903    2    3    3    0    0 -0.45180540301E-01 -0.30050774778E-01  0.11723389712E+00  0.13069242493E+00  0.19808912498E-01 0.  0.
         14    1    1    2    0    0 -0.95811779456E-02  0.19937514179E-01 -0.12150893680E-01  0.25237822007E-01  0.00000000000E+00 0.  1.
     999901    1    3    3    0    0  0.54761718247E-01  0.10113260600E-01 -0.10508300344E+00  0.88799975306E+00  0.88000000000E+00 0.  1.
        -11    1    4    4    0    0 -0.24201043474E-01 -0.17574363696E-01  0.41762807400E-01  0.51370633318E-01  0.51100000000E-03 0.  1.
         11    1    4    4    0    0 -0.20979496827E-01 -0.12476411082E-01  0.75471089717E-01  0.79321791613E-01  0.51100000000E-03 0. -1.
</event>
<event>
 8    1  0.1132492E+005  0.1043930E+01  0.7957747E-01            NaN
         13   -1    0    0    0    0  0.00000000000E+00  0.00000000000E+00  0.74505805969E-08  0.10566000000E+00  0.10566000000E+00 0.  1.
     999900   -1    0    0    0    0 -0.00000000000E+00 -0.00000000000E+00 -0.74505805969E-08  0.93827000000E+00  0.93827000000E+00 0.  1.
     999902    2    1    2    0    0  0.10390799143E-01  0.16868848706E-01  0.54133258544E-02  0.10233914786E+01  0.10231853633E+01 0.  0.
     999903    2    3    3    0    0 -0.12704148199E-01  0.12667529498E+00  0.42553898506E-01  0.13548931376E+00  0.18398209821E-01 0.  0.
         14    1    1    2    0    0 -0.10390799143E-01 -0.16868848706E-01 -0.54133258544E-02  0.20538521376E-01  0.00000000000E+00 0. -1.
     999901    1    3    3    0    0  0.23094947342E-01 -0.10980644628E+00 -0.37140572651E-01  0.88790216487E+00  0.88000000000E+00 0.  1.
        -11    1    4    4    0    0 -0.37155420422E-02  0.10230439700E+00  0.37476178758E-01  0.10901706286E+00  0.51100000000E-03 0.  1.
         11    1    4    4    0    0 -0.89886061569E-02  0.24370897980E-01  0.50777197473E-02  0.26472250902E-01  0.51100000000E-03 0. -1.
</event>
<event>
 8    1  0.1132492E+005  0.1043930E+01  0.7957747E-01            NaN
         13   -1    0    0    0    0  0.00000000000E+00  0.00000000000E+00  0.74505805969E-08  0.10566000000E+00  0.10566000000E+00 0. -1.
     999900   -1    0    0    0    0 -0.00000000000E+00 -0.00000000000E+00 -0.74505805969E-08  0.93827000000E+00  0.93827000000E+00 0.  1.
     999902    2    1    2    0    0 -0.41856921225E-03 -0.19991246158E-01 -0.11989107370E-01  0.10206155449E+01  0.10203492180E+01 0.  0.
     999903    2    3    3    0    0 -0.19788026666E-01  0.12518922859E+00 -0.65082249701E-02  0.12849302737E+00  0.20104530288E-01 0.  0.
         14    1    1    2    0    0  0.41856921225E-03  0.19991246158E-01  0.11989107370E-01  0.23314455144E-01  0.00000000000E+00 0. -1.
     999901    1    3    3    0    0  0.19369457454E-01 -0.14518047474E+00 -0.54808824001E-02  0.89212251748E+00  0.88000000000E+00 0. -1.
        -11    1    4    4    0    0 -0.21415531858E-01  0.96497217120E-01  0.74559482456E-03  0.98849152496E-01  0.51100000000E-03 0.  1.
         11    1    4    4    0    0  0.16275051917E-02  0.28692011465E-01 -0.72538197946E-02  0.29643874876E-01  0.51100000000E-03 0. -1.
</event>
<event>
 8    1  0.1132492E+005  0.1043930E+01  0.7957747E-01            NaN
         13   -1    0    0    0    0  0.00000000000E+00  0.00000000000E+00  0.74505805969E-08  0.10566000000E+00  0.10566000000E+00 0.  1.
     999900   -1    0    0    0    0 -0.00000000000E+00 -0.00000000000E+00 -0.74505805969E-08  0.93827000000E+00  0.93827000000E+00 0. -1.
     999902    2    1    2    0    0 -0.87142250854E-02 -0.21872022454E-01  0.74677495456E-02  0.10192299925E+01  0.10189306587E+01 0.  0.
     999903    2    3    3    0    0 -0.79922201402E-01 -0.36598594553E-01 -0.93537118942E-01  0.13047275276E+00  0.23386560066E-01 0.  0.
         14    1    1    2    0    0  0.87142250854E-02  0.21872022454E-01 -0.74677495456E-02  0.24700007456E-01  0.00000000000E+00 0. -1.
     999901    1    3    3    0    0  0.71207976316E-01  0.14726572100E-01  0.10100486849E+00  0.88875723979E+00  0.88000000000E+00 0.  1.
        -11    1    4    4    0    0 -0.18139817634E-01 -0.19792304991E-01 -0.30157183827E-01  0.40379514336E-01  0.51100000000E-03 0. -1.
         11    1    4    4    0    0 -0.61782383768E-01 -0.16806289562E-01 -0.63379935115E-01  0.90093238421E-01  0.51100000000E-03 0.  1.
</event>
<event>
 8    1  0.1132492E+005  0.1043930E+01  0.7957747E-01            NaN
         13   -1    0    0    0    0  0.00000000000E+00  0.00000000000E+00  0.74505805969E-08  0.10566000000E+00  0.10566000000E+00 0. -1.
     999900   -1    0    0    0    0 -0.00000000000E+00 -0.00000000000E+00 -0.74505805969E-08  0.93827000000E+00  0.93827000000E+00 0.  1.
     999902    2    1    2    0    0 -0.89099475745E-02  0.14119855153E-02  0.20941253025E-01  0.10211283126E+01  0.10208737012E+01 0.  0.
     999903    2    3    3    0    0 -0.30432783034E-01 -0.51368832343E-01  0.11816853939E+00  0.13394051267E+00  0.20281666890E-01 0.  0.
         14    1    1    2    0    0  0.89099475745E-02 -0.14119855153E-02 -0.20941253025E-01  0.22801687374E-01  0.00000000000E+00 0.  1.
     999901    1    3    3    0    0  0.21522835459E-01  0.52780817859E-01 -0.97227286369E-01  0.88718779996E+00  0.88000000000E+00 0.  1.
        -11    1    4    4    0    0 -0.20490310426E-01 -0.18341923186E-01  0.40506728998E-01  0.48962589623E-01  0.51100000000E-03 0. -1.
         11    1    4    4    0    0 -0.99424726081E-02 -0.33026909158E-01  0.77661810395E-01  0.84977923044E-01  0.51100000000E-03 0.  1.
</event>
<event>
 8    1  0.1132492E+005  0.1043930E+01  0.7957747E-01            NaN
         13   -1    0    0    0    0  0.00000000000E+00  0.00000000000E+00  0.74505805969E-08  0.10566000000E+00  0.10566000000E+00 0. -1.
     999900   -1    0    0    0    0 -0.00000000000E+00 -0.00000000000E+00 -0.74505805969E-08  0.93827000000E+00  0.93827000000E+00 0.  1.
     999902    2    1    2    0    0 -0.92192544767E-02 -0.13207078403E-01 -0.16656269842E-01  0.10207599137E+01  0.10204969126E+01 0.  0.
     999903    2    3    3    0    0  0.72455322306E-02  0.19860591875E-01 -0.12961122749E+00  0.13277152277E+00  0.19551627037E-01 0.  0.
         14    1    1    2    0    0  0.92192544767E-02  0.13207078403E-01  0.16656269842E-01  0.23170086277E-01  0.00000000000E+00 0. -1.
     999901    1    3    3    0    0 -0.16464786707E-01 -0.33067670277E-01  0.11295495765E+00  0.88798839096E+00  0.88000000000E+00 0. -1.
        -11    1    4    4    0    0  0.30682975552E-02  0.15702917784E-01 -0.41787379743E-01  0.44748657004E-01  0.51100000000E-03 0.  1.
         11    1    4    4    0    0  0.41772346754E-02  0.41576740909E-02 -0.87823847744E-01  0.88022865762E-01  0.51100000000E-03 0. -1.
</event>
<event>
 8    1  0.1132492E+005  0.1043930E+01  0.7957747E-01            NaN
         13   -1    0    0    0    0  0.00000000000E+00  0.00000000000E+00  0.74505805969E-08  0.10566000000E+00  0.10566000000E+00 0.  1.
     999900   -1    0    0    0    0 -0.00000000000E+00 -0.00000000000E+00 -0.74505805969E-08  0.93827000000E+00  0.93827000000E+00 0. -1.
     999902    2    1    2    0    0  0.15788556524E-01  0.74916196443E-03  0.16352873403E-01  0.10211867322E+01  0.10209334385E+01 0.  0.
     999903    2    3    3    0    0  0.90422715643E-01  0.53371367562E-01  0.80901453220E-01  0.13410958034E+00  0.20385387574E-01 0.  0.
         14    1    1    2    0    0 -0.15788556524E-01 -0.74916196443E-03 -0.16352873403E-01  0.22743267780E-01  0.00000000000E+00 0. -1.
     999901    1    3    3    0    0 -0.74634159119E-01 -0.52622205597E-01 -0.64548579817E-01  0.88707715188E+00  0.88000000000E+00 0. -1.
        -11    1    4    4    0    0  0.52685875920E-01  0.19936441547E-01  0.46825901764E-01  0.73254279193E-01  0.51100000000E-03 0.  1.
         11    1    4    4    0    0  0.37736839723E-01  0.33434926014E-01  0.34075551456E-01  0.60855301148E-01  0.51100000000E-03 0. -1.
</event>
<event>
 8    1  0.1132492E+005  0.1043930E+01  0.7957747E-01            NaN
         13   -1    0    0    0    0  0.00000000000E+00  0.00000000000E+00  0.74505805969E-08  0.10566000000E+00  0.10566000000E+00 0.  1.
     999900   -1    0    0    0    0 -0.00000000000E+00 -0.00000000000E+00 -0.74505805969E-08  0.93827000000E+00  0.93827000000E+00 0.  1.
     999902    2    1    2    0    0  0.47479151826E-02 -0.35220768891E-02 -0.22227895374E-01  0.10209294118E+01  0.10206702880E+01 0.  0.
     999903    2    3    3    0    0 -0.11468102450E+00  0.58064202499E-01 -0.12626047730E-01  0.13067757277E+00  0.19849986178E-01 0.  0.
         14    1    1    2    0    0 -0.47479151826E-02  0.35220768891E-02  0.22227895374E-01  0.23000588187E-01  0.00000000000E+00 0.  1.
     999901    1    3    3    0    0  0.11942893968E+00 -0.61586279389E-01 -0.96018476440E-02  0.89025183904E+00  0.88000000000E+00 0.  1.
        -11    1    4    4    0    0 -0.68715220823E-01  0.42098068058E-01 -0.14939236987E-01  0.81960178317E-01  0.51100000000E-03 0. -1.
         11    1    4    4    0    0 -0.45965803677E-01  0.15966134441E-01  0.23131892568E-02  0.48717394452E-01  0.51100000000E-03 0.  1.
</event>
<event>
 8    1  0.1132492E+005  0.1043930E+01  0.7957747E-01            NaN
         13   -1    0    0    0    0  0.00000000000E+00  0.00000000000E+00  0.74505805969E-08  0.10566000000E+00  0.10566000000E+00 0.  1.
     999900   -1    0    0    0    0 -0.00000000000E+00 -0.00000000000E+00 -0.74505805969E-08  0.93827000000E+00  0.93827000000E+00 0. -1.
     999902    2    1    2    0    0  0.87766051483E-02  0.92203856376E-03  0.21967002569E-01  0.10202566362E+01  0.10199819486E+01 0.  0.
     999903    2    3    3    0    0 -0.79878568970E-01 -0.75492868858E-01  0.68958380821E-01  0.13126441596E+00  0.19882896720E-01 0.  0.
         14    1    1    2    0    0 -0.87766051483E-02 -0.92203856376E-03 -0.21967002569E-01  0.23673363827E-01  0.00000000000E+00 0. -1.
     999901    1    3    3    0    0  0.88655174118E-01  0.76414907422E-01 -0.46991378252E-01  0.88899222022E+00  0.88000000000E+00 0.  1.
        -11    1    4    4    0    0 -0.40254490742E-01 -0.33711803718E-01  0.21881764667E-01  0.56885696628E-01  0.51100000000E-03 0.  1.
         11    1    4    4    0    0 -0.39624078227E-01 -0.41781065140E-01  0.47076616153E-01  0.74378719329E-01  0.51100000000E-03 0. -1.
</event>
<event>
 8    1  0.1132492E+005  0.1043930E+01  0.7957747E-01            NaN
         13   -1    0    0    0    0  0.00000000000E+00  0.00000000000E+00  0.74505805969E-08  0.10566000000E+00  0.10566000000E+00 0. -1.
     999900   -1    0    0    0    0 -0.00000000000E+00 -0.00000000000E+00 -0.74505805969E-08  0.93827000000E+00  0.93827000000E+00 0.  1.
     999902    2    1    2    0    0 -0.29045432783E-02  0.23660541851E-01  0.15879260038E-02  0.10200390159E+01  0.10197591945E+01 0.  0.
     999903    2    3    3    0    0 -0.40853444599E-02  0.10171081253E+00 -0.82972422619E-01  0.13254609108E+00  0.17951710788E-01 0.  0.
         14    1    1    2    0    0  0.29045432783E-02 -0.23660541851E-01 -0.15879260038E-02  0.23890984101E-01  0.00000000000E+00 0. -1.
     999901    1    3    3    0    0  0.11808011816E-02 -0.78050270680E-01  0.84560348623E-01  0.88749292482E+00  0.88000000000E+00 0. -1.
        -11    1    4    4    0    0 -0.96286429386E-02  0.51158435904E-01 -0.48119245775E-01  0.70891602210E-01  0.51100000000E-03 0. -1.
         11    1    4    4    0    0  0.55432984787E-02  0.50552376626E-01 -0.34853176845E-01  0.61654488869E-01  0.51100000000E-03 0.  1.
</event>
<event>
 8    1  0.1132492E+005  0.1043930E+01  0.7957747E-01            NaN
         13   -1    0    0    0    0  0.00000000000E+00  0.00000000000E+00  0.74505805969E-08  0.10566000000E+00  0.10566000000E+00 0.  1.
     999900   -1    0    0    0    0 -0.00000000000E+00 -0.00000000000E+00 -0.74505805969E-08  0.93827000000E+00  0.93827000000E+00 0.  1.
     999902    2    1    2    0    0  0.23201694945E-01 -0.43267657838E-04 -0.35153870193E-02  0.10204634607E+01  0.10201936072E+01 0.  0.
     999903    2    3    3    0    0  0.74848118536E-02  0.10832788251E+00 -0.71071104632E-01  0.13110689465E+00  0.18626952913E-01 0.  0.
         14    1    1    2    0    0 -0.23201694945E-01  0.43267657838E-04  0.35153870193E-02  0.23466539291E-01  0.00000000000E+00 0. -1.
     999901    1    3    3    0    0  0.15716883091E-01 -0.10837115017E+00  0.67555717612E-01  0.88935656605E+00  0.88000000000E+00 0. -1.
        -11    1    4    4    0    0 -0.57266878553E-02  0.40614230804E-01 -0.29949484874E-01  0.50789206164E-01  0.51100000000E-03 0. -1.
         11    1    4    4    0    0  0.13211499709E-01  0.67713651706E-01 -0.41121619758E-01  0.80317688490E-01  0.51100000000E-03 0.  1.
</event>
<event>
 8    1  0.1132492E+005  0.1043930E+01  0.7957747E-01            NaN
         13   -1    0    0    0    0  0.00000000000E+00  0.00000000000E+00  0.74505805969E-08  0.10566000000E+00  0.10566000000E+00 0. -1.
     999900   -1    0    0    0    0 -0.00000000000E+00 -0.00000000000E+00 -0.74505805969E-08  0.93827000000E+00  0.93827000000E+00 0. -1.
     999902    2    1    2    0    0 -0.19877980011E-01  0.40414886958E-02  0.12274150831E-01  0.10202208773E+01  0.10199453495E+01 0.  0.
     999903    2    3    3    0    0  0.82551571829E-01  0.94823787625E-01  0.24071310540E-01  0.12956246250E+00  0.20017267227E-01 0.  0.
         14    1    1    2    0    0  0.19877980011E-01 -0.40414886958E-02 -0.12274150831E-01  0.23709122692E-01  0.00000000000E+00 0.  1.
     999901    1    3    3    0    0 -0.10242955184E+00 -0.90782298929E-01 -0.11797159710E-01  0.89065841481E+00  0.88000000000E+00 0.  1.
        -11    1    4    4    0    0  0.38752173057E-01  0.55334542320E-01  0.19963336414E-01  0.70444576883E-01  0.51100000000E-03 0.  1.
         11    1    4    4    0    0  0.43799398772E-01  0.39489245305E-01  0.41079741258E-02  0.59117885618E-01  0.51100000000E-03 0. -1.
</event>
<event>
 8    1  0.1132492E+005  0.1043930E+01  0.7957747E-01            NaN
         13   -1    0    0    0    0  0.00000000000E+00  0.00000000000E+00  0.74505805969E-08  0.10566000000E+00  0.10566000000E+00 0. -1.
     999900   -1    0    0    0    0 -0.00000000000E+00 -0.00000000000E+00 -0.74505805969E-08  0.93827000000E+00  0.93827000000E+00 0.  1.
     999902    2    1    2    0    0  0.36241243962E-02  0.22225250050E-01 -0.71959429484E-02  0.10202894075E+01  0.10200154889E+01 0.  0.
     999903    2    3    3    0    0 -0.49100093846E-01 -0.11214009001E+00  0.30158448306E-01  0.12774851864E+00  0.20589633501E-01 0.  0.
         14    1    1    2    0    0 -0.36241243962E-02 -0.22225250050E-01  0.71959429484E-02  0.23640592471E-01  0.00000000000E+00 0. -1.
     999901    1    3    3    0    0  0.52724218242E-01  0.13436534006E+00 -0.37354391255E-01  0.89254088889E+00  0.88000000000E+00 0.  1.
        -11    1    4    4    0    0 -0.24330240004E-01 -0.32790631845E-01  0.13145560830E-01  0.42898170194E-01  0.51100000000E-03 0. -1.
         11    1    4    4    0    0 -0.24769853842E-01 -0.79349458161E-01  0.17012887477E-01  0.84850348444E-01  0.51100000000E-03 0.  1.
</event>
<event>
 8    1  0.1132492E+005  0.1043930E+01  0.7957747E-01            NaN
         13   -1    0    0    0    0  0.00000000000E+00  0.00000000000E+00  0.74505805969E-08  0.10566000000E+00  0.10566000000E+00 0. -1.
     999900   -1    0    0    0    0 -0.00000000000E+00 -0.00000000000E+00 -0.74505805969E-08  0.93827000000E+00  0.93827000000E+00 0. -1.
     999902    2    1    2    0    0 -0.39358208073E-02 -0.21756264095E-01 -0.80890839507E-02  0.10203872943E+01  0.10201156657E+01 0.  0.
     999903    2    3    3    0    0  0.68859260624E-01  0.10234738362E-01  0.10716212011E+00  0.12931749447E+00  0.19822884436E-01 0.  0.
         14    1    1    2    0    0  0.39358208073E-02  0.21756264095E-01  0.80890839507E-02  0.23542705706E-01  0.00000000000E+00 0. -1.
     999901    1    3    3    0    0 -0.72795081431E-01 -0.31991002457E-01 -0.11525120406E+00  0.89106979982E+00  0.88000000000E+00 0. -1.
        -11    1    4    4    0    0  0.26556091633E-01  0.35895969789E-02  0.59404395202E-01  0.65170963623E-01  0.51100000000E-03 0.  1.
         11    1    4    4    0    0  0.42303168991E-01  0.66451413832E-02  0.47757724906E-01  0.64146530848E-01  0.51100000000E-03 0. -1.
</event>
<event>
 8    1  0.1132492E+005  0.1043930E+01  0.7957747E-01            NaN
         13   -1    0    0    0    0  0.00000000000E+00  0.00000000000E+00  0.74505805969E-08  0.10566000000E+00  0.10566000000E+00 0. -1.
     999900   -1    0    0    0    0 -0.00000000000E+00 -0.00000000000E+00 -0.74505805969E-08  0.93827000000E+00  0.93827000000E+00 0. -1.
     999902    2    1    2    0    0  0.75775927222E-02 -0.13927635701E-01 -0.17243772706E-01  0.10205046581E+01  0.10202357622E+01 0.  0.
     999903    2    3    3    0    0 -0.92897893932E-01 -0.89767844332E-01 -0.15561191462E-01  0.13154465236E+00  0.19327708384E-01 0.  0.
         14    1    1    2    0    0 -0.75775927222E-02  0.13927635701E-01  0.17243772706E-01  0.23425341936E-01  0.00000000000E+00 0.  1.
     999901    1    3    3    0    0  0.10047548665E+00  0.75840208630E-01 -0.16825812442E-02  0.88896000571E+00  0.88000000000E+00 0.  1.
        -11    1    4    4    0    0 -0.39947249960E-01 -0.37935813949E-01 -0.16263619946E-01  0.57442799498E-01  0.51100000000E-03 0.  1.
         11    1    4    4    0    0 -0.52950643972E-01 -0.51832030383E-01  0.70242848414E-03  0.74101852861E-01  0.51100000000E-03 0. -1.
</event>
<event>
 8    1  0.1132492E+005  0.1043930E+01  0.7957747E-01            NaN
         13   -1    0    0    0    0  0.00000000000E+00  0.00000000000E+00  0.74505805969E-08  0.10566000000E+00  0.10566000000E+00 0. -1.
     999900   -1    0    0    0    0 -0.00000000000E+00 -0.00000000000E+00 -0.74505805969E-08  0.93827000000E+00  0.93827000000E+00 0. -1.
     999902    2    1    2    0    0 -0.12926067660E-01 -0.12715796939E-01 -0.15116930488E-01  0.10203228760E+01  0.10200497414E+01 0.  0.
     999903    2    3    3    0    0 -0.61947927494E-02  0.63211221337E-01  0.11097514005E+00  0.12807322907E+00  0.72963233399E-02 0.  0.
         14    1    1    2    0    0  0.12926067660E-01  0.12715796939E-01  0.15116930488E-01  0.23607124016E-01  0.00000000000E+00 0.  1.
     999901    1    3    3    0    0 -0.67312749104E-02 -0.75927018276E-01 -0.12609207054E+00  0.89224964691E+00  0.88000000000E+00 0. -1.
        -11    1    4    4    0    0 -0.39103829387E-02  0.57613558154E-01  0.10253066642E+00  0.11767502647E+00  0.51100000000E-03 0.  1.
         11    1    4    4    0    0 -0.22844098107E-02  0.55976631832E-02  0.84444736350E-02  0.10398202598E-01  0.51100000000E-03 0. -1.
</event>
<event>
 8    1  0.1132492E+005  0.1043930E+01  0.7957747E-01            NaN
         13   -1    0    0    0    0  0.00000000000E+00  0.00000000000E+00  0.74505805969E-08  0.10566000000E+00  0.10566000000E+00 0.  1.
     999900   -1    0    0    0    0 -0.00000000000E+00 -0.00000000000E+00 -0.74505805969E-08  0.93827000000E+00  0.93827000000E+00 0. -1.
     999902    2    1    2    0    0 -0.10596239307E-01  0.19443131209E-01  0.59359837271E-03  0.10217789730E+01  0.10215388400E+01 0.  0.
     999903    2    3    3    0    0  0.11051383948E+00 -0.60895723015E-01  0.21594571160E-01  0.12961137464E+00  0.20277700400E-01 0.  0.
         14    1    1    2    0    0  0.10596239307E-01 -0.19443131209E-01 -0.59359837271E-03  0.22151027012E-01  0.00000000000E+00 0. -1.
     999901    1    3    3    0    0 -0.12111007879E+00  0.80338854224E-01 -0.21000972787E-01  0.89216759835E+00  0.88000000000E+00 0. -1.
        -11    1    4    4    0    0  0.37869730210E-01 -0.10459708118E-01  0.46520022790E-02  0.39565442071E-01  0.51100000000E-03 0. -1.
         11    1    4    4    0    0  0.72644109275E-01 -0.50436014897E-01  0.16942568881E-01  0.90045932570E-01  0.51100000000E-03 0.  1.
</event>
<event>
 8    1  0.1132492E+005  0.1043930E+01  0.7957747E-01            NaN
         13   -1    0    0    0    0  0.00000000000E+00  0.00000000000E+00  0.74505805969E-08  0.10566000000E+00  0.10566000000E+00 0.  1.
     999900   -1    0    0    0    0 -0.00000000000E+00 -0.00000000000E+00 -0.74505805969E-08  0.93827000000E+00  0.93827000000E+00 0. -1.
     999902    2    1    2    0    0  0.18625162883E-01  0.12453588848E-01  0.71733417321E-02  0.10204045797E+01  0.10201333545E+01 0.  0.
     999903    2    3    3    0    0  0.99872030339E-01  0.83435970722E-01 -0.21236587772E-01  0.13336079495E+00  0.19953077845E-01 0.  0.
         14    1    1    2    0    0 -0.18625162883E-01 -0.12453588848E-01 -0.71733417321E-02  0.23525420277E-01  0.00000000000E+00 0. -1.
     999901    1    3    3    0    0 -0.81246867456E-01 -0.70982381874E-01  0.28409929504E-01  0.88704378477E+00  0.88000000000E+00 0.  1.
        -11    1    4    4    0    0  0.58075401013E-01  0.37872676015E-01 -0.16969178598E-01  0.71381411688E-01  0.51100000000E-03 0.  1.
         11    1    4    4    0    0  0.41796629326E-01  0.45563294707E-01 -0.42674091733E-02  0.61979383263E-01  0.51100000000E-03 0. -1.
</event>
<event>
 8    1  0.1132492E+005  0.1043930E+01  0.7957747E-01            NaN
         13   -1    0    0    0    0  0.00000000000E+00  0.00000000000E+00  0.74505805969E-08  0.10566000000E+00  0.10566000000E+00 0.  1.
     999900   -1    0    0    0    0 -0.00000000000E+00 -0.00000000000E+00 -0.74505805969E-08  0.93827000000E+00  0.93827000000E+00 0.  1.
     999902    2    1    2    0    0  0.12624600727E-01  0.19446186193E-01  0.30057276835E-02  0.10205511827E+01  0.10202833662E+01 0.  0.
     999903    2    3    3    0    0  0.11569970443E+00  0.54718606022E-01  0.31552778854E-01  0.13337388656E+00  0.20309315856E-01 0.  0.
         14    1    1    2    0    0 -0.12624600727E-01 -0.19446186193E-01 -0.30057276835E-02  0.23378817333E-01  0.00000000000E+00 0. -1.
     999901    1    3    3    0    0 -0.10307510371E+00 -0.35272419828E-01 -0.28547051170E-01  0.88717729611E+00  0.88000000000E+00 0.  1.
        -11    1    4    4    0    0  0.42635274688E-01  0.10184833284E-01  0.73607041718E-02  0.44451530498E-01  0.51100000000E-03 0.  1.
         11    1    4    4    0    0  0.73064429746E-01  0.44533772738E-01  0.24192074682E-01  0.88922356057E-01  0.51100000000E-03 0. -1.
</event>
<event>
 8    1  0.1132492E+005  0.1043930E+01  0.7957747E-01            NaN
         13   -1    0    0    0    0  0.00000000000E+00  0.00000000000E+00  0.74505805969E-08  0.10566000000E+00  0.10566000000E+00 0. -1.
     999900   -1    0    0    0    0 -0.00000000000E+00 -0.00000000000E+00 -0.74505805969E-08  0.93827000000E+00  0.93827000000E+00 0.  1.
     999902    2    1    2    0    0  0.20325083951E-01 -0.12172432256E-01 -0.22215331087E-02  0.10201347830E+01  0.10198572268E+01 0.  0.
     999903    2    3    3    0    0 -0.76425102781E-01  0.40080531398E-01  0.92627567388E-01  0.12823382281E+00  0.20415722888E-01 0.  0.
         14    1    1    2    0    0 -0.20325083951E-01  0.12172432256E-01  0.22215331087E-02  0.23795217040E-01  0.00000000000E+00 0.  1.
     999901    1    3    3    0    0  0.96750186732E-01 -0.52252963654E-01 -0.94849100497E-01  0.89190096015E+00  0.88000000000E+00 0.  1.
        -11    1    4    4    0    0 -0.32173908993E-01  0.77798567181E-02  0.43349100203E-01  0.54544405762E-01  0.51100000000E-03 0. -1.
         11    1    4    4    0    0 -0.44251193788E-01  0.32300674680E-01  0.49278467185E-01  0.73689417053E-01  0.51100000000E-03 0.  1.
</event>
<event>
 8    1  0.1132492E+005  0.1043930E+01  0.7957747E-01            NaN
         13   -1    0    0    0    0  0.00000000000E+00  0.00000000000E+00  0.74505805969E-08  0.10566000000E+00  0.10566000000E+00 0. -1.
     999900   -1    0    0    0    0 -0.00000000000E+00 -0.00000000000E+00 -0.74505805969E-08  0.93827000000E+00  0.93827000000E+00 0. -1.
     999902    2    1    2    0    0  0.90418192974E-02 -0.17667209580E-01  0.14324448077E-01  0.10194539994E+01  0.10191601358E+01 0.  0.
     999903    2    3    3    0    0  0.67019915440E-01  0.32250607967E-01 -0.10278181897E+00  0.12840566971E+00  0.19802598870E-01 0.  0.
         14    1    1    2    0    0 -0.90418192974E-02  0.17667209580E-01 -0.14324448077E-01  0.24476000557E-01  0.00000000000E+00 0.  1.
     999901    1    3    3    0    0 -0.57978096143E-01 -0.49917817547E-01  0.11710626705E+00  0.89104832973E+00  0.88000000000E+00 0.  1.
        -11    1    4    4    0    0  0.14849431139E-01  0.10016720022E-01 -0.39827928122E-01  0.43673393097E-01  0.51100000000E-03 0. -1.
         11    1    4    4    0    0  0.52170484302E-01  0.22233887944E-01 -0.62953890851E-01  0.84732276611E-01  0.51100000000E-03 0.  1.
</event>
<event>
 7    1  0.1749029E+005  0.1043930E+01  0.7957747E-01            NaN
         13   -1    0    0    0    0  0.00000000000E+00  0.00000000000E+00  0.74505805969E-08  0.10566000000E+00  0.10566000000E+00 0.  1.
     999900   -1    0    0    0    0 -0.00000000000E+00 -0.00000000000E+00 -0.74505805969E-08  0.93827000000E+00  0.93827000000E+00 0. -1.
     999903    2    1    2    0    0  0.88133508529E-01  0.36810890899E-01 -0.51982532243E-01  0.11076752212E+00  0.21087989074E-01 0.  0.
         14    1    1    2    0    0 -0.13500188106E-01 -0.43768880910E-01  0.18329444546E-01  0.49334962779E-01  0.00000000000E+00 0.  1.
     999901    1    1    2    0    0 -0.74633320423E-01  0.69579900113E-02  0.33653087696E-01  0.88382751510E+00  0.88000000000E+00 0. -1.
        -11    1    3    3    0    0  0.55009968247E-01  0.17907142252E-01 -0.20723478475E-01  0.61453120598E-01  0.51100000000E-03 0. -1.
         11    1    3    3    0    0  0.33123540283E-01  0.18903748647E-01 -0.31259053768E-01  0.49314401519E-01  0.51100000000E-03 0.  1.
</event>
<event>
 8    1  0.1132492E+005  0.1043930E+01  0.7957747E-01            NaN
         13   -1    0    0    0    0  0.00000000000E+00  0.00000000000E+00  0.74505805969E-08  0.10566000000E+00  0.10566000000E+00 0. -1.
     999900   -1    0    0    0    0 -0.00000000000E+00 -0.00000000000E+00 -0.74505805969E-08  0.93827000000E+00  0.93827000000E+00 0. -1.
     999902    2    1    2    0    0  0.21135897215E-01  0.72027852523E-02 -0.38328912595E-02  0.10212739341E+01  0.10210226007E+01 0.  0.
     999903    2    3    3    0    0  0.31493575107E-01  0.61635940369E-01  0.11066091935E+00  0.13212879267E+00  0.20526674397E-01 0.  0.
         14    1    1    2    0    0 -0.21135897215E-01 -0.72027852523E-02  0.38328912595E-02  0.22656065896E-01  0.00000000000E+00 0.  1.
     999901    1    3    3    0    0 -0.10357677893E-01 -0.54433155117E-01 -0.11449381061E+00  0.88914514143E+00  0.88000000000E+00 0. -1.
        -11    1    4    4    0    0  0.30395377643E-01  0.50566217482E-01  0.79240651847E-01  0.98793539053E-01  0.51100000000E-03 0. -1.
         11    1    4    4    0    0  0.10981974646E-02  0.11069722888E-01  0.31420267507E-01  0.33335253617E-01  0.51100000000E-03 0.  1.
</event>
<event>
 8    1  0.1132492E+005  0.1043930E+01  0.7957747E-01            NaN
         13   -1    0    0    0    0  0.00000000000E+00  0.00000000000E+00  0.74505805969E-08  0.10566000000E+00  0.10566000000E+00 0. -1.
     999900   -1    0    0    0    0 -0.00000000000E+00 -0.00000000000E+00 -0.74505805969E-08  0.93827000000E+00  0.93827000000E+00 0. -1.
     999902    2    1    2    0    0 -0.20475462421E-01  0.52217804528E-02 -0.10003415354E-01  0.10205509523E+01  0.10202831305E+01 0.  0.
     999903    2    3    3    0    0  0.59817072988E-01  0.10265994964E+00  0.47511255624E-01  0.12968113834E+00  0.21041167936E-01 0.  0.
         14    1    1    2    0    0  0.20475462421E-01 -0.52217804528E-02  0.10003415354E-01  0.23379047697E-01  0.00000000000E+00 0. -1.
     999901    1    3    3    0    0 -0.80292535410E-01 -0.97438169189E-01 -0.57514670978E-01  0.89086981397E+00  0.88000000000E+00 0. -1.
        -11    1    4    4    0    0  0.26021354084E-02  0.57099244094E-02  0.84173620682E-02  0.10511301091E-01  0.51100000000E-03 0. -1.
         11    1    4    4    0    0  0.57214937580E-01  0.96950025233E-01  0.39093893556E-01  0.11916983725E+00  0.51100000000E-03 0.  1.
</event>
<event>
 8    1  0.1132492E+005  0.1043930E+01  0.7957747E-01            NaN
         13   -1    0    0    0    0  0.00000000000E+00  0.00000000000E+00  0.74505805969E-08  0.10566000000E+00  0.10566000000E+00 0. -1.
     999900   -1    0    0    0    0 -0.00000000000E+00 -0.00000000000E+00 -0.74505805969E-08  0.93827000000E+00  0.93827000000E+00 0. -1.
     999902    2    1    2    0    0  0.19035279418E-01  0.82377666224E-02  0.10756998353E-01  0.10205651616E+01  0.10202976690E+01 0.  0.
     999903    2    3    3    0    0 -0.85980545774E-01  0.62594651804E-02 -0.94086886198E-01  0.12813898684E+00  0.11637123221E-01 0.  0.
         14    1    1    2    0    0 -0.19035279418E-01 -0.82377666224E-02 -0.10756998353E-01  0.23364838433E-01  0.00000000000E+00 0. -1.
     999901    1    3    3    0    0  0.10501582519E+00  0.19783014420E-02  0.10484388455E+00  0.89242617473E+00  0.88000000000E+00 0.  1.
        -11    1    4    4    0    0 -0.73395264989E-01  0.92707382783E-02 -0.78341722181E-01  0.10775202117E+00  0.51100000000E-03 0. -1.
         11    1    4    4    0    0 -0.12585280785E-01 -0.30112730979E-02 -0.15745164017E-01  0.20386965665E-01  0.51100000000E-03 0.  1.
</event>
<event>
 8    1  0.1132492E+005  0.1043930E+01  0.7957747E-01            NaN
         13   -1    0    0    0    0  0.00000000000E+00  0.00000000000E+00  0.74505805969E-08  0.10566000000E+00  0.10566000000E+00 0. -1.
     999900   -1    0    0    0    0 -0.00000000000E+00 -0.00000000000E+00 -0.74505805969E-08  0.93827000000E+00  0.93827000000E+00 0. -1.
     999902    2    1    2    0    0  0.18086963180E-01 -0.13409863266E-01 -0.71111550048E-02  0.10203179015E+01  0.10200446505E+01 0.  0.
     999903    2    3    3    0    0 -0.89558303825E-01  0.69228403692E-01 -0.57518416371E-01  0.12848973494E+00  0.19697261282E-01 0.  0.
         14    1    1    2    0    0 -0.18086963180E-01  0.13409863266E-01  0.71111550048E-02  0.23612098496E-01  0.00000000000E+00 0.  1.
     999901    1    3    3    0    0  0.10764526700E+00 -0.82638266958E-01  0.50407261367E-01  0.89182816656E+00  0.88000000000E+00 0.  1.
        -11    1    4    4    0    0 -0.65279132476E-01  0.57631571081E-01 -0.36846656777E-01  0.94555276737E-01  0.51100000000E-03 0. -1.
         11    1    4    4    0    0 -0.24279171349E-01  0.11596832610E-01 -0.20671759594E-01  0.33934458206E-01  0.51100000000E-03 0.  1.
</event>
<event>
 8    1  0.1132492E+005  0.1043930E+01  0.7957747E-01            NaN
         13   -1    0    0    0    0  0.00000000000E+00  0.00000000000E+00  0.74505805969E-08  0.10566000000E+00  0.10566000000E+00 0. -1.
     999900   -1    0    0    0    0 -0.00000000000E+00 -0.00000000000E+00 -0.74505805969E-08  0.93827000000E+00  0.93827000000E+00 0.  1.
     999902    2    1    2    0    0 -0.53900219081E-02  0.78247041947E-02 -0.18291745988E-01  0.10233177148E+01  0.10231101011E+01 0.  0.
     999903    2    3    3    0    0 -0.89770561674E-03  0.32016865933E-01  0.12557128408E+00  0.13129640726E+00  0.21088233588E-01 0.  0.
         14    1    1    2    0    0  0.53900219081E-02 -0.78247041947E-02  0.18291745988E-01  0.20612285249E-01  0.00000000000E+00 0. -1.
     999901    1    3    3    0    0 -0.44923162914E-02 -0.24192161738E-01 -0.14386303006E+00  0.89202130749E+00  0.88000000000E+00 0.  1.
        -11    1    4    4    0    0 -0.20247823114E-02  0.30235252683E-02  0.53155570424E-01  0.53282428966E-01  0.51100000000E-03 0. -1.
         11    1    4    4    0    0  0.11270766947E-02  0.28993340665E-01  0.72415713652E-01  0.78013978296E-01  0.51100000000E-03 0.  1.
</event>
<event>
 8    1  0.1132492E+005  0.1043930E+01  0.7957747E-01            NaN
         13   -1    0    0    0    0  0.00000000000E+00  0.00000000000E+00  0.74505805969E-08  0.10566000000E+00  0.10566000000E+00 0.  1.
     999900   -1    0    0    0    0 -0.00000000000E+00 -0.00000000000E+00 -0.74505805969E-08  0.93827000000E+00  0.93827000000E+00 0. -1.
     999902    2    1    2    0    0  0.23795370825E-02  0.22699682167E-01 -0.62386196696E-02  0.10202686783E+01  0.10199942734E+01 0.  0.
     999903    2    3    3    0    0 -0.62777404342E-01 -0.10981963000E+00 -0.14734819554E-01  0.12792402490E+00  0.12086670754E-01 0.  0.
         14    1    1    2    0    0 -0.23795370825E-02 -0.22699682167E-01  0.62386196696E-02  0.23661321658E-01  0.00000000000E+00 0.  1.
     999901    1    3    3    0    0  0.65156941425E-01  0.13251931217E+00  0.84961998847E-02  0.89234465344E+00  0.88000000000E+00 0.  1.
        -11    1    4    4    0    0 -0.50485210250E-01 -0.81277965502E-01 -0.14947847799E-01  0.96842983251E-01  0.51100000000E-03 0. -1.
         11    1    4    4    0    0 -0.12292194092E-01 -0.28541664499E-01  0.21302824500E-03  0.31081041649E-01  0.51100000000E-03 0.  1.
</event>
<event>
 8    1  0.1132492E+005  0.1043930E+01  0.7957747E-01            NaN
         13   -1    0    0    0    0  0.00000000000E+00  0.00000000000E+00  0.74505805969E-08  0.10566000000E+00  0.10566000000E+00 0.  1.
     999900   -1    0    0    0    0 -0.00000000000E+00 -0.00000000000E+00 -0.74505805969E-08  0.93827000000E+00  0.93827000000E+00 0. -1.
     999902    2    1    2    0    0 -0.88208052999E-02 -0.95490183857E-02 -0.20122294717E-01  0.10199738504E+01  0.10196924823E+01 0.  0.
     999903    2    3    3    0    0  0.10522261284E+00 -0.61152619137E-01  0.38144999762E-01  0.12920793816E+00  0.20693216210E-01 0.  0.
         14    1    1    2    0    0  0.88208052999E-02  0.95490183857E-02  0.20122294717E-01  0.23956149585E-01  0.00000000000E+00 0.  1.
     999901    1    3    3    0    0 -0.11404341814E+00  0.51603600751E-01 -0.58267294480E-01  0.89076591226E+00  0.88000000000E+00 0. -1.
        -11    1    4    4    0    0  0.35456965132E-01 -0.17166737279E-01  0.22144402462E-01  0.45194346179E-01  0.51100000000E-03 0.  1.
         11    1    4    4    0    0  0.69765647704E-01 -0.43985881858E-01  0.16000597301E-01  0.84013591980E-01  0.51100000000E-03 0. -1.
</event>
<event>
 8    1  0.1132492E+005  0.1043930E+01  0.7957747E-01            NaN
         13   -1    0    0    0    0  0.00000000000E+00  0.00000000000E+00  0.74505805969E-08  0.10566000000E+00  0.10566000000E+00 0. -1.
     999900   -1    0    0    0    0 -0.00000000000E+00 -0.00000000000E+00 -0.74505805969E-08  0.93827000000E+00  0.93827000000E+00 0. -1.
     999902    2    1    2    0    0  0.55663575786E-02 -0.14930707012E-01  0.17518677649E-01  0.10202484795E+01  0.10199736004E+01 0.  0.
     999903    2    3    3    0    0  0.11221497726E+00  0.95631156122E-02  0.66497826407E-01  0.13211964171E+00  0.18707872888E-01 0.  0.
         14    1    1    2    0    0 -0.55663575786E-02  0.14930707012E-01 -0.17518677649E-01  0.23681520541E-01  0.00000000000E+00 0.  1.
     999901    1    3    3    0    0 -0.10664861968E+00 -0.24493822624E-01 -0.48979148758E-01  0.88812883775E+00  0.88000000000E+00 0. -1.
        -11    1    4    4    0    0  0.10422076289E+00  0.10451008181E-01  0.66478865879E-01  0.12406003272E+00  0.51100000000E-03 0.  1.
         11    1    4    4    0    0  0.79942143664E-02 -0.88789256913E-03  0.18960528241E-04  0.80596089888E-02  0.51100000000E-03 0. -1.
</event>
<event>
 8    1  0.1132492E+005  0.1043930E+01  0.7957747E-01            NaN
         13   -1    0    0    0    0  0.00000000000E+00  0.00000000000E+00  0.74505805969E-08  0.10566000000E+00  0.10566000000E+00 0.  1.
     999900   -1    0    0    0    0 -0.00000000000E+00 -0.00000000000E+00 -0.74505805969E-08  0.93827000000E+00  0.93827000000E+00 0. -1.
     999902    2    1    2    0    0 -0.20218275613E-03  0.24012319477E-01 -0.11901564949E-03  0.10199165344E+01  0.10196338022E+01 0.  0.
     999903    2    3    3    0    0  0.11715325590E+00  0.21923705051E-01  0.49268404009E-01  0.13075075769E+00  0.21513967362E-01 0.  0.
         14    1    1    2    0    0  0.20218275613E-03 -0.24012319477E-01  0.11901564949E-03  0.24013465582E-01  0.00000000000E+00 0. -1.
     999901    1    3    3    0    0 -0.11735543865E+00  0.20886144252E-02 -0.49387419658E-01  0.88916577673E+00  0.88000000000E+00 0.  1.
        -11    1    4    4    0    0  0.56066089254E-01  0.20183675565E-01  0.18961837724E-01  0.62534786594E-01  0.51100000000E-03 0.  1.
         11    1    4    4    0    0  0.61087166643E-01  0.17400294860E-02  0.30306566285E-01  0.68215971092E-01  0.51100000000E-03 0. -1.
</event>
<event>
 8    1  0.1132492E+005  0.1043930E+01  0.7957747E-01            NaN
         13   -1    0    0    0    0  0.00000000000E+00  0.00000000000E+00  0.74505805969E-08  0.10566000000E+00  0.10566000000E+00 0. -1.
     999900   -1    0    0    0    0 -0.00000000000E+00 -0.00000000000E+00 -0.74505805969E-08  0.93827000000E+00  0.93827000000E+00 0.  1.
     999902    2    1    2    0    0  0.57586999961E-02  0.10935350453E-03  0.22669654192E-01  0.10205400918E+01  0.10202720182E+01 0.  0.
     999903    2    3    3    0    0  0.78851439520E-01  0.91786168442E-01  0.49676351766E-01  0.13235286567E+00  0.20181449269E-01 0.  0.
         14    1    1    2    0    0 -0.57586999961E-02 -0.10935350453E-03 -0.22669654192E-01  0.23389908188E-01  0.00000000000E+00 0.  1.
     999901    1    3    3    0    0 -0.73092739524E-01 -0.91676814938E-01 -0.27006697574E-01  0.88818722614E+00  0.88000000000E+00 0. -1.
        -11    1    4    4    0    0  0.57091853747E-01  0.59482206261E-01  0.24655546299E-01  0.86056781896E-01  0.51100000000E-03 0.  1.
         11    1    4    4    0    0  0.21759585773E-01  0.32303962181E-01  0.25020805467E-01  0.46296083774E-01  0.51100000000E-03 0. -1.
</event>
<event>
 8    1  0.1132492E+005  0.1043930E+01  0.7957747E-01            NaN
         13   -1    0    0    0    0  0.00000000000E+00  0.00000000000E+00  0.74505805969E-08  0.10566000000E+00  0.10566000000E+00 0. -1.
     999900   -1    0    0    0    0 -0.00000000000E+00 -0.00000000000E+00 -0.74505805969E-08  0.93827000000E+00  0.93827000000E+00 0.  1.
     999902    2    1    2    0    0 -0.41535547810E-02 -0.34062432706E-01  0.11934132781E-01  0.10075992298E+01  0.10069440317E+01 0.  0.
     999903    2    3    3    0    0 -0.10338411368E+00  0.46830915888E-01 -0.23644694630E-01  0.11762378595E+00  0.19871431601E-01 0.  0.
         14    1    1    2    0    0  0.41535547810E-02  0.34062432706E-01 -0.11934132781E-01  0.36330770214E-01  0.00000000000E+00 0.  1.
     999901    1    3    3    0    0  0.99230558897E-01 -0.80893348593E-01  0.35578827411E-01  0.88997544383E+00  0.88000000000E+00 0.  1.
        -11    1    4    4    0    0 -0.65970188776E-01  0.37027407512E-01 -0.86785914747E-02  0.76149023534E-01  0.51100000000E-03 0. -1.
         11    1    4    4    0    0 -0.37413924901E-01  0.98035083760E-02 -0.14966103156E-01  0.41474762418E-01  0.51100000000E-03 0.  1.
</event>
<event>
 8    1  0.1132492E+005  0.1043930E+01  0.7957747E-01            NaN
         13   -1    0    0    0    0  0.00000000000E+00  0.00000000000E+00  0.74505805969E-08  0.10566000000E+00  0.10566000000E+00 0.  1.
     999900   -1    0    0    0    0 -0.00000000000E+00 -0.00000000000E+00 -0.74505805969E-08  0.93827000000E+00  0.93827000000E+00 0. -1.
     999902    2    1    2    0    0  0.12472923226E-01  0.15386575887E-01  0.21866582268E-02  0.10240025816E+01  0.10238086662E+01 0.  0.
     999903    2    3    3    0    0  0.80673808706E-01 -0.68338807099E-01  0.79937913796E-01  0.13399889715E+00  0.19676849527E-01 0.  0.
         14    1    1    2    0    0 -0.12472923226E-01 -0.15386575887E-01 -0.21866582268E-02  0.19927418436E-01  0.00000000000E+00 0.  1.
     999901    1    3    3    0    0 -0.68200885480E-01  0.83725382986E-01 -0.77751255569E-01  0.89000368442E+00  0.88000000000E+00 0. -1.
        -11    1    4    4    0    0  0.23138792715E-01 -0.31588708031E-01  0.26227508107E-01  0.47131661395E-01  0.51100000000E-03 0.  1.
         11    1    4    4    0    0  0.57535015991E-01 -0.36750099068E-01  0.53710405689E-01  0.86867235750E-01  0.51100000000E-03 0. -1.
</event>
<event>
 8    1  0.1132492E+005  0.1043930E+01  0.7957747E-01            NaN
         13   -1    0    0    0    0  0.00000000000E+00  0.00000000000E+00  0.74505805969E-08  0.10566000000E+00  0.10566000000E+00 0.  1.
     999900   -1    0    0    0    0 -0.00000000000E+00 -0.00000000000E+00 -0.74505805969E-08  0.93827000000E+00  0.93827000000E+00 0.  1.
     999902    2    1    2    0    0 -0.18525630295E-01  0.20399552341E-01  0.15001977185E-01  0.10125548501E+01  0.10120686362E+01 0.  0.
     999903    2    3    3    0    0  0.13232434888E-02 -0.95349208407E-01  0.74439713918E-01  0.12276577509E+00  0.20903157864E-01 0.  0.
         14    1    1    2    0    0  0.18525630295E-01 -0.20399552341E-01 -0.15001977185E-01  0.31375149928E-01  0.00000000000E+00 0. -1.
     999901    1    3    3    0    0 -0.19848873783E-01  0.11574876075E+00 -0.59437736732E-01  0.88978907498E+00  0.88000000000E+00 0. -1.
        -11    1    4    4    0    0 -0.11806666617E-02 -0.49920325733E-02 -0.72306891926E-03  0.52056039650E-02  0.51100000000E-03 0.  1.
         11    1    4    4    0    0  0.25039101505E-02 -0.90357175834E-01  0.75162782837E-01  0.11756017113E+00  0.51100000000E-03 0. -1.
</event>
<event>
 8    1  0.1132492E+005  0.1043930E+01  0.7957747E-01            NaN
         13   -1    0    0    0    0  0.00000000000E+00  0.00000000000E+00  0.74505805969E-08  0.10566000000E+00  0.10566000000E+00 0. -1.
     999900   -1    0    0    0    0 -0.00000000000E+00 -0.00000000000E+00 -0.74505805969E-08  0.93827000000E+00  0.93827000000E+00 0.  1.
     999902    2    1    2    0    0 -0.14762753972E-02 -0.89140574601E-02  0.22011258225E-01  0.10201364022E+01  0.10198588842E+01 0.  0.
     999903    2    3    3    0    0 -0.40283110983E-01 -0.97707155134E-01  0.78634248443E-01  0.13300825600E+00  0.18396574195E-01 0.  0.
         14    1    1    2    0    0  0.14762753972E-02  0.89140574601E-02 -0.22011258225E-01  0.23793597838E-01  0.00000000000E+00 0.  1.
     999901    1    3    3    0    0  0.38806835586E-01  0.88793097674E-01 -0.56622990218E-01  0.88712814616E+00  0.88000000000E+00 0. -1.
        -11    1    4    4    0    0 -0.31622513685E-01 -0.61168011356E-01  0.58733408981E-01  0.90506261864E-01  0.51100000000E-03 0.  1.
         11    1    4    4    0    0 -0.86605972985E-02 -0.36539143779E-01  0.19900839462E-01  0.42501994141E-01  0.51100000000E-03 0. -1.
</event>
<event>
 8    1  0.1132492E+005  0.1043930E+01  0.7957747E-01            NaN
         13   -1    0    0    0    0  0.00000000000E+00  0.00000000000E+00  0.74505805969E-08  0.10566000000E+00  0.10566000000E+00 0. -1.
     999900   -1    0    0    0    0 -0.00000000000E+00 -0.00000000000E+00 -0.74505805969E-08  0.93827000000E+00  0.93827000000E+00 0.  1.
     999902    2    1    2    0    0 -0.19961999046E-01 -0.10594125962E-01  0.61611135156E-02  0.10205061611E+01  0.10202373001E+01 0.  0.
     999903    2    3    3    0    0 -0.83424907056E-01 -0.24232436445E-01 -0.97693745404E-01  0.13202466102E+00  0.18425990663E-01 0.  0.
         14    1    1    2    0    0  0.19961999046E-01  0.10594125962E-01 -0.61611135156E-02  0.23423838937E-01  0.00000000000E+00 0.  1.
     999901    1    3    3    0    0  0.63462908010E-01  0.13638310483E-01  0.10385485892E+00  0.88848150005E+00  0.88000000000E+00 0.  1.
        -11    1    4    4    0    0 -0.79484347753E-01 -0.24785929811E-01 -0.86173650580E-01  0.11982596976E+00  0.51100000000E-03 0. -1.
         11    1    4    4    0    0 -0.39405593025E-02  0.55349336640E-03 -0.11520094824E-01  0.12198691252E-01  0.51100000000E-03 0.  1.
</event>
<event>
 8    1  0.1132492E+005  0.1043930E+01  0.7957747E-01            NaN
         13   -1    0    0    0    0  0.00000000000E+00  0.00000000000E+00  0.74505805969E-08  0.10566000000E+00  0.10566000000E+00 0. -1.
     999900   -1    0    0    0    0 -0.00000000000E+00 -0.00000000000E+00 -0.74505805969E-08  0.93827000000E+00  0.93827000000E+00 0.  1.
     999902    2    1    2    0    0 -0.15684641974E-01 -0.12453634513E-01 -0.12191355356E-01  0.10204836751E+01  0.10202142917E+01 0.  0.
     999903    2    3    3    0    0  0.26216330033E-01 -0.12402480495E+00  0.29167105635E-01  0.13148742098E+00  0.19203479361E-01 0.  0.
         14    1    1    2    0    0  0.15684641974E-01  0.12453634513E-01  0.12191355356E-01  0.23446324912E-01  0.00000000000E+00 0. -1.
     999901    1    3    3    0    0 -0.41900972008E-01  0.11157117044E+00 -0.41358460991E-01  0.88899625411E+00  0.88000000000E+00 0.  1.
        -11    1    4    4    0    0  0.26096099079E-01 -0.84411804951E-01  0.23836443144E-01  0.91513913396E-01  0.51100000000E-03 0.  1.
         11    1    4    4    0    0  0.12023095478E-03 -0.39613000003E-01  0.53306624911E-02  0.39973507581E-01  0.51100000000E-03 0. -1.
</event>
<event>
 8    1  0.1132492E+005  0.1043930E+01  0.7957747E-01            NaN
         13   -1    0    0    0    0  0.00000000000E+00  0.00000000000E+00  0.74505805969E-08  0.10566000000E+00  0.10566000000E+00 0.  1.
     999900   -1    0    0    0    0 -0.00000000000E+00 -0.00000000000E+00 -0.74505805969E-08  0.93827000000E+00  0.93827000000E+00 0.  1.
     999902    2    1    2    0    0 -0.19587386071E-01  0.45456651850E-02 -0.10905200985E-01  0.10210552940E+01  0.10207990308E+01 0.  0.
     999903    2    3    3    0    0  0.10461946054E+00  0.69553235189E-01  0.22945288603E-01  0.12931588110E+00  0.20327980395E-01 0.  0.
         14    1    1    2    0    0  0.19587386071E-01 -0.45456651850E-02  0.10905200985E-01  0.22874705978E-01  0.00000000000E+00 0. -1.
     999901    1    3    3    0    0 -0.12420684662E+00 -0.65007570004E-01 -0.33850489588E-01  0.89173941292E+00  0.88000000000E+00 0.  1.
        -11    1    4    4    0    0  0.31201130281E-01  0.31501994082E-01  0.43325145332E-02  0.44552418174E-01  0.51100000000E-03 0. -1.
         11    1    4    4    0    0  0.73418330263E-01  0.38051241107E-01  0.18612774070E-01  0.84763462930E-01  0.51100000000E-03 0.  1.
</event>
<event>
 8    1  0.1132492E+005  0.1043930E+01  0.7957747E-01            NaN
         13   -1    0    0    0    0  0.00000000000E+00  0.00000000000E+00  0.74505805969E-08  0.10566000000E+00  0.10566000000E+00 0.  1.
     999900   -1    0    0    0    0 -0.00000000000E+00 -0.00000000000E+00 -0.74505805969E-08  0.93827000000E+00  0.93827000000E+00 0. -1.
     999902    2    1    2    0    0  0.60424025400E-03 -0.21382466925E-01  0.94932157012E-02  0.10205270912E+01  0.10202587160E+01 0.  0.
     999903    2    3    3    0    0  0.20581678438E-01 -0.52827767372E-01 -0.11623117086E+00  0.13081111044E+00  0.19684588964E-01 0.  0.
         14    1    1    2    0    0 -0.60424025400E-03  0.21382466925E-01 -0.94932157012E-02  0.23402908846E-01  0.00000000000E+00 0. -1.
     999901    1    3    3    0    0 -0.19977438184E-01  0.31445300447E-01  0.12572438656E+00  0.88971598071E+00  0.88000000000E+00 0.  1.
        -11    1    4    4    0    0  0.40073679829E-02 -0.15805064844E-01 -0.16771722810E-01  0.23396813456E-01  0.51100000000E-03 0.  1.
         11    1    4    4    0    0  0.16574310455E-01 -0.37022702528E-01 -0.99459448052E-01  0.10741429699E+00  0.51100000000E-03 0. -1.
</event>
<event>
 8    1  0.1132492E+005  0.1043930E+01  0.7957747E-01            NaN
         13   -1    0    0    0    0  0.00000000000E+00  0.00000000000E+00  0.74505805969E-08  0.10566000000E+00  0.10566000000E+00 0.  1.
     999900   -1    0    0    0    0 -0.00000000000E+00 -0.00000000000E+00 -0.74505805969E-08  0.93827000000E+00  0.93827000000E+00 0.  1.
     999902    2    1    2    0    0 -0.69170579953E-02 -0.88475515850E-02  0.21506979729E-01  0.10196673736E+01  0.10193786725E+01 0.  0.
     999903    2    3    3    0    0  0.32344486560E-01 -0.72680669830E-01 -0.98654475742E-01  0.12834537165E+00  0.20277654266E-01 0.  0.
         14    1    1    2    0    0  0.69170579953E-02  0.88475515850E-02 -0.21506979729E-01  0.24262626350E-01  0.00000000000E+00 0. -1.
     999901    1    3    3    0    0 -0.39261544556E-01  0.63833118245E-01  0.12016145547E+00  0.89132200200E+00  0.88000000000E+00 0.  1.
        -11    1    4    4    0    0  0.83895802905E-02 -0.53825594309E-02 -0.18170213765E-01  0.20731010413E-01  0.51100000000E-03 0.  1.
         11    1    4    4    0    0  0.23954906270E-01 -0.67298110399E-01 -0.80484261977E-01  0.10761436124E+00  0.51100000000E-03 0. -1.
</event>
<event>
 8    1  0.1132492E+005  0.1043930E+01  0.7957747E-01            NaN
         13   -1    0    0    0    0  0.00000000000E+00  0.00000000000E+00  0.74505805969E-08  0.10566000000E+00  0.10566000000E+00 0.  1.
     999900   -1    0    0    0    0 -0.00000000000E+00 -0.00000000000E+00 -0.74505805969E-08  0.93827000000E+00  0.93827000000E+00 0. -1.
     999902    2    1    2    0    0  0.18738983303E-01 -0.75731297062E-02  0.60619574777E-02  0.10228290731E+01  0.10226113942E+01 0.  0.
     999903    2    3    3    0    0 -0.94607651109E-01  0.44637827131E-01 -0.75662089189E-01  0.13027528570E+00  0.17428570356E-01 0.  0.
         14    1    1    2    0    0 -0.18738983303E-01  0.75731297062E-02 -0.60619574777E-02  0.21100926929E-01  0.00000000000E+00 0. -1.
     999901    1    3    3    0    0  0.11334663441E+00 -0.52210956837E-01  0.81724046667E-01  0.89255378737E+00  0.88000000000E+00 0.  1.
        -11    1    4    4    0    0 -0.43577669594E-01  0.17050675231E-01 -0.43762018132E-01  0.64071164848E-01  0.51100000000E-03 0.  1.
         11    1    4    4    0    0 -0.51029981515E-01  0.27587151900E-01 -0.31900071057E-01  0.66204120852E-01  0.51100000000E-03 0. -1.
</event>
<event>
 8    1  0.1132492E+005  0.1043930E+01  0.7957747E-01            NaN
         13   -1    0    0    0    0  0.00000000000E+00  0.00000000000E+00  0.74505805969E-08  0.10566000000E+00  0.10566000000E+00 0.  1.
     999900   -1    0    0    0    0 -0.00000000000E+00 -0.00000000000E+00 -0.74505805969E-08  0.93827000000E+00  0.93827000000E+00 0.  1.
     999902    2    1    2    0    0 -0.95539699111E-02 -0.18237664685E-01 -0.91868018172E-02  0.10213847548E+01  0.10211359014E+01 0.  0.
     999903    2    3    3    0    0 -0.85984299741E-01 -0.10093249945E+00 -0.10233306092E-01  0.13420882737E+00  0.18072618602E-01 0.  0.
         14    1    1    2    0    0  0.95539699111E-02  0.18237664685E-01  0.91868018172E-02  0.22545245216E-01  0.00000000000E+00 0.  1.
     999901    1    3    3    0    0  0.76430329830E-01  0.82694834763E-01  0.10465042752E-02  0.88717592742E+00  0.88000000000E+00 0.  1.
        -11    1    4    4    0    0 -0.29881487110E-01 -0.46868253235E-01  0.28857742698E-03  0.55586696530E-01  0.51100000000E-03 0. -1.
         11    1    4    4    0    0 -0.56102812630E-01 -0.54064246213E-01 -0.10521883519E-01  0.78622130838E-01  0.51100000000E-03 0.  1.
</event>
<event>
 8    1  0.1132492E+005  0.1043930E+01  0.7957747E-01            NaN
         13   -1    0    0    0    0  0.00000000000E+00  0.00000000000E+00  0.74505805969E-08  0.10566000000E+00  0.10566000000E+00 0. -1.
     999900   -1    0    0    0    0 -0.00000000000E+00 -0.00000000000E+00 -0.74505805969E-08  0.93827000000E+00  0.93827000000E+00 0.  1.
     999902    2    1    2    0    0 -0.31158427724E-03  0.30200292076E-02 -0.23692437047E-01  0.10200438275E+01  0.10197641202E+01 0.  0.
     999903    2    3    3    0    0 -0.77685823997E-01  0.54532669817E-02 -0.10621405029E+00  0.13279949239E+00  0.17013386738E-01 0.  0.
         14    1    1    2    0    0  0.31158427724E-03 -0.30200292076E-02  0.23692437047E-01  0.23886172452E-01  0.00000000000E+00 0. -1.
     999901    1    3    3    0    0  0.77374239719E-01 -0.24332377741E-02  0.82521613247E-01  0.88724433516E+00  0.88000000000E+00 0. -1.
        -11    1    4    4    0    0 -0.52702561425E-01  0.50604369493E-02 -0.84365453822E-01  0.99604010574E-01  0.51100000000E-03 0.  1.
         11    1    4    4    0    0 -0.24983262572E-01  0.39283003239E-03 -0.21848596472E-01  0.33195481815E-01  0.51100000000E-03 0. -1.
</event>
<event>
 8    1  0.1132492E+005  0.1043930E+01  0.7957747E-01            NaN
         13   -1    0    0    0    0  0.00000000000E+00  0.00000000000E+00  0.74505805969E-08  0.10566000000E+00  0.10566000000E+00 0. -1.
     999900   -1    0    0    0    0 -0.00000000000E+00 -0.00000000000E+00 -0.74505805969E-08  0.93827000000E+00  0.93827000000E+00 0. -1.
     999902    2    1    2    0    0  0.88225550386E-02  0.15138815712E-03 -0.22149644908E-01  0.10200874505E+01  0.10198087760E+01 0.  0.
     999903    2    3    3    0    0 -0.64106623994E-01 -0.11127314724E+00 -0.94334298024E-06  0.12979274807E+00  0.18835735024E-01 0.  0.
         14    1    1    2    0    0 -0.88225550386E-02 -0.15138815712E-03  0.22149644908E-01  0.23842549473E-01  0.00000000000E+00 0. -1.
     999901    1    3    3    0    0  0.72929179032E-01  0.11142453540E+00 -0.22148701565E-01  0.89029470246E+00  0.88000000000E+00 0. -1.
        -11    1    4    4    0    0 -0.35464459943E-01 -0.58764460314E-01 -0.92784851694E-02  0.69262840853E-01  0.51100000000E-03 0.  1.
         11    1    4    4    0    0 -0.28642164051E-01 -0.52508686927E-01  0.92775418264E-02  0.60529907217E-01  0.51100000000E-03 0. -1.
</event>
<event>
 8    1  0.1132492E+005  0.1043930E+01  0.7957747E-01            NaN
         13   -1    0    0    0    0  0.00000000000E+00  0.00000000000E+00  0.74505805969E-08  0.10566000000E+00  0.10566000000E+00 0. -1.
     999900   -1    0    0    0    0 -0.00000000000E+00 -0.00000000000E+00 -0.74505805969E-08  0.93827000000E+00  0.93827000000E+00 0.  1.
     999902    2    1    2    0    0 -0.94302962448E-02 -0.60727960306E-02  0.21148825831E-01  0.10199908652E+01  0.10197099014E+01 0.  0.
     999903    2    3    3    0    0 -0.62871751742E-01  0.80684252287E-01  0.81178659716E-01  0.13207963344E+00  0.19805278164E-01 0.  0.
         14    1    1    2    0    0  0.94302962448E-02  0.60727960306E-02 -0.21148825831E-01  0.23939134757E-01  0.00000000000E+00 0.  1.
     999901    1    3    3    0    0  0.53441455497E-01 -0.86757048318E-01 -0.60029833886E-01  0.88791123180E+00  0.88000000000E+00 0. -1.
        -11    1    4    4    0    0 -0.44275021688E-01  0.47257732536E-01  0.60355420564E-01  0.88524622237E-01  0.51100000000E-03 0. -1.
         11    1    4    4    0    0 -0.18596730054E-01  0.33426519752E-01  0.20823239153E-01  0.43555011207E-01  0.51100000000E-03 0.  1.
</event>
<event>
 8    1  0.1132492E+005  0.1043930E+01  0.7957747E-01            NaN
         13   -1    0    0    0    0  0.00000000000E+00  0.00000000000E+00  0.74505805969E-08  0.10566000000E+00  0.10566000000E+00 0.  1.
     999900   -1    0    0    0    0 -0.00000000000E+00 -0.00000000000E+00 -0.74505805969E-08  0.93827000000E+00  0.93827000000E+00 0. -1.
     999902    2    1    2    0    0  0.75227632882E-02  0.80950233431E-02  0.20385497570E-01  0.10207418590E+01  0.10204784431E+01 0.  0.
     999903    2    3    3    0    0  0.94824089912E-01 -0.56229096890E-01 -0.65685023673E-01  0.12991794338E+00  0.20268949443E-01 0.  0.
         14    1    1    2    0    0 -0.75227632882E-02 -0.80950233431E-02 -0.20385497570E-01  0.23188140969E-01  0.00000000000E+00 0. -1.
     999901    1    3    3    0    0 -0.87301326624E-01  0.64324120233E-01  0.86070521244E-01  0.89082391565E+00  0.88000000000E+00 0.  1.
        -11    1    4    4    0    0  0.63887366018E-01 -0.26614456436E-01 -0.38698304555E-01  0.79295300772E-01  0.51100000000E-03 0.  1.
         11    1    4    4    0    0  0.30936723895E-01 -0.29614640454E-01 -0.26986719118E-01  0.50622642605E-01  0.51100000000E-03 0. -1.
</event>
<event>
 8    1  0.1132492E+005  0.1043930E+01  0.7957747E-01            NaN
         13   -1    0    0    0    0  0.00000000000E+00  0.00000000000E+00  0.74505805969E-08  0.10566000000E+00  0.10566000000E+00 0. -1.
     999900   -1    0    0    0    0 -0.00000000000E+00 -0.00000000000E+00 -0.74505805969E-08  0.93827000000E+00  0.93827000000E+00 0. -1.
     999902    2    1    2    0    0  0.19709953233E-01 -0.50434757657E-02  0.10694053876E-01  0.10209456207E+01  0.10206868661E+01 0.  0.
     999903    2    3    3    0    0 -0.12067665267E-01  0.11328268677E+00  0.61415486946E-01  0.13101103795E+00  0.20333085340E-01 0.  0.
         14    1    1    2    0    0 -0.19709953233E-01  0.50434757657E-02 -0.10694053876E-01  0.22984379316E-01  0.00000000000E+00 0.  1.
     999901    1    3    3    0    0  0.31777618500E-01 -0.11832616254E+00 -0.50721433070E-01  0.88993458274E+00  0.88000000000E+00 0.  1.
        -11    1    4    4    0    0 -0.17364296364E-01  0.92979012265E-01  0.47668824437E-01  0.10592069417E+00  0.51100000000E-03 0.  1.
         11    1    4    4    0    0  0.52966310966E-02  0.20303674508E-01  0.13746662509E-01  0.25090343773E-01  0.51100000000E-03 0. -1.
</event>
<event>
 8    1  0.1132492E+005  0.1043930E+01  0.7957747E-01            NaN
         13   -1    0    0    0    0  0.00000000000E+00  0.00000000000E+00  0.74505805969E-08  0.10566000000E+00  0.10566000000E+00 0. -1.
     999900   -1    0    0    0    0 -0.00000000000E+00 -0.00000000000E+00 -0.74505805969E-08  0.93827000000E+00  0.93827000000E+00 0. -1.
     999902    2    1    2    0    0  0.73638462137E-02  0.85154484952E-04 -0.21390776258E-01  0.10213070296E+01  0.10210564381E+01 0.  0.
     999903    2    3    3    0    0  0.56834241561E-01 -0.11221602665E+00 -0.37062717923E-01  0.13265384353E+00  0.20020726553E-01 0.  0.
         14    1    1    2    0    0 -0.73638462137E-02 -0.85154484952E-04  0.21390776258E-01  0.22622970434E-01  0.00000000000E+00 0. -1.
     999901    1    3    3    0    0 -0.49470395347E-01  0.11230118114E+00  0.15671941665E-01  0.88865318604E+00  0.88000000000E+00 0.  1.
        -11    1    4    4    0    0  0.20872088449E-01 -0.25090891426E-01 -0.14598503768E-01  0.35757157914E-01  0.51100000000E-03 0.  1.
         11    1    4    4    0    0  0.35962153112E-01 -0.87125135225E-01 -0.22464214154E-01  0.96896685614E-01  0.51100000000E-03 0. -1.
</event>
<event>
 8    1  0.1132492E+005  0.1043930E+01  0.7957747E-01            NaN
         13   -1    0    0    0    0  0.00000000000E+00  0.00000000000E+00  0.74505805969E-08  0.10566000000E+00  0.10566000000E+00 0.  1.
     999900   -1    0    0    0    0 -0.00000000000E+00 -0.00000000000E+00 -0.74505805969E-08  0.93827000000E+00  0.93827000000E+00 0. -1.
     999902    2    1    2    0    0  0.21962043605E-01 -0.25167630441E-02 -0.35961646892E-02  0.10215336196E+01  0.10212880779E+01 0.  0.
     999903    2    3    3    0    0 -0.79864398524E-01  0.96303804752E-01 -0.28092748387E-01  0.12983063565E+00  0.20348132090E-01 0.  0.
         14    1    1    2    0    0 -0.21962043605E-01  0.25167630441E-02  0.35961646892E-02  0.22396380422E-01  0.00000000000E+00 0.  1.
     999901    1    3    3    0    0  0.10182644213E+00 -0.98820567796E-01  0.24496583698E-01  0.89170298393E+00  0.88000000000E+00 0.  1.
        -11    1    4    4    0    0 -0.38769121866E-01  0.58084966602E-01 -0.83384175536E-02  0.70332769629E-01  0.51100000000E-03 0. -1.
         11    1    4    4    0    0 -0.41095276659E-01  0.38218838151E-01 -0.19754330834E-01  0.59497866020E-01  0.51100000000E-03 0.  1.
</event>
<event>
 8    1  0.1132492E+005  0.1043930E+01  0.7957747E-01            NaN
         13   -1    0    0    0    0  0.00000000000E+00  0.00000000000E+00  0.74505805969E-08  0.10566000000E+00  0.10566000000E+00 0. -1.
     999900   -1    0    0    0    0 -0.00000000000E+00 -0.00000000000E+00 -0.74505805969E-08  0.93827000000E+00  0.93827000000E+00 0. -1.
     999902    2    1    2    0    0  0.11424956787E-01 -0.81771172843E-02 -0.19070158338E-01  0.10202431719E+01  0.10199681682E+01 0.  0.
     999903    2    3    3    0    0 -0.20501903125E-01 -0.86707382689E-01 -0.96493801012E-01  0.13278570962E+00  0.19557423200E-01 0.  0.
         14    1    1    2    0    0 -0.11424956787E-01  0.81771172843E-02  0.19070158338E-01  0.23686828063E-01  0.00000000000E+00 0. -1.
     999901    1    3    3    0    0  0.31926859912E-01  0.78530265405E-01  0.77423642674E-01  0.88745746231E+00  0.88000000000E+00 0.  1.
        -11    1    4    4    0    0 -0.13054259202E-01 -0.80308700714E-01 -0.85148143503E-01  0.11777252887E+00  0.51100000000E-03 0.  1.
         11    1    4    4    0    0 -0.74476439232E-02 -0.63986819751E-02 -0.11345657510E-01  0.15013180754E-01  0.51100000000E-03 0. -1.
</event>
<event>
 8    1  0.1132492E+005  0.1043930E+01  0.7957747E-01            NaN
         13   -1    0    0    0    0  0.00000000000E+00  0.00000000000E+00  0.74505805969E-08  0.10566000000E+00  0.10566000000E+00 0. -1.
     999900   -1    0    0    0    0 -0.00000000000E+00 -0.00000000000E+00 -0.74505805969E-08  0.93827000000E+00  0.93827000000E+00 0.  1.
     999902    2    1    2    0    0 -0.17873403997E-01  0.14886650763E-02 -0.15400548958E-01  0.10202899576E+01  0.10200160519E+01 0.  0.
     999903    2    3    3    0    0 -0.58005792711E-02 -0.57079404733E-01 -0.11753359294E+00  0.13236702711E+00  0.20375947434E-01 0.  0.
         14    1    1    2    0    0  0.17873403997E-01 -0.14886650763E-02  0.15400548958E-01  0.23640042351E-01  0.00000000000E+00 0. -1.
     999901    1    3    3    0    0 -0.12072824726E-01  0.58568069809E-01  0.10213304398E+00  0.88792293054E+00  0.88000000000E+00 0. -1.
        -11    1    4    4    0    0 -0.12884318393E-01 -0.38964223430E-01 -0.86410223227E-01  0.95661926424E-01  0.51100000000E-03 0.  1.
         11    1    4    4    0    0  0.70837391223E-02 -0.18115181303E-01 -0.31123369710E-01  0.36705100690E-01  0.51100000000E-03 0. -1.
</event>
<event>
 8    1  0.1132492E+005  0.1043930E+01  0.7957747E-01            NaN
         13   -1    0    0    0    0  0.00000000000E+00  0.00000000000E+00  0.74505805969E-08  0.10566000000E+00  0.10566000000E+00 0.  1.
     999900   -1    0    0    0    0 -0.00000000000E+00 -0.00000000000E+00 -0.74505805969E-08  0.93827000000E+00  0.93827000000E+00 0.  1.
     999902    2    1    2    0    0 -0.20506443528E-01  0.11315305168E-01 -0.48621356431E-02  0.10200094916E+01  0.10197289700E+01 0.  0.
     999903    2    3    3    0    0  0.68349815479E-02 -0.11336588311E+00  0.56877233013E-01  0.12865955930E+00  0.20487121302E-01 0.  0.
         14    1    1    2    0    0  0.20506443528E-01 -0.11315305168E-01  0.48621356431E-02  0.23920508361E-01  0.00000000000E+00 0.  1.
     999901    1    3    3    0    0 -0.27341425076E-01  0.12468118828E+00 -0.61739368656E-01  0.89134993234E+00  0.88000000000E+00 0.  1.
        -11    1    4    4    0    0  0.13732866795E-01 -0.88797516553E-01  0.43138725541E-01  0.99673473596E-01  0.51100000000E-03 0. -1.
         11    1    4    4    0    0 -0.68978852471E-02 -0.24568366554E-01  0.13738507472E-01  0.28986085706E-01  0.51100000000E-03 0.  1.
</event>
<event>
 8    1  0.1132492E+005  0.1043930E+01  0.7957747E-01            NaN
         13   -1    0    0    0    0  0.00000000000E+00  0.00000000000E+00  0.74505805969E-08  0.10566000000E+00  0.10566000000E+00 0. -1.
     999900   -1    0    0    0    0 -0.00000000000E+00 -0.00000000000E+00 -0.74505805969E-08  0.93827000000E+00  0.93827000000E+00 0. -1.
     999902    2    1    2    0    0 -0.10509992028E-01  0.20318166229E-01 -0.15240669979E-02  0.10210038012E+01  0.10207463698E+01 0.  0.
     999903    2    3    3    0    0 -0.33915333806E-01 -0.10330884722E+00  0.67649322407E-01  0.12936687605E+00  0.18340938247E-01 0.  0.
         14    1    1    2    0    0  0.10509992028E-01 -0.20318166229E-01  0.15240669979E-02  0.22926198803E-01  0.00000000000E+00 0. -1.
     999901    1    3    3    0    0  0.23405341777E-01  0.12362701345E+00 -0.69173389405E-01  0.89163692514E+00  0.88000000000E+00 0. -1.
        -11    1    4    4    0    0 -0.10626940758E-02 -0.26963005354E-01  0.19677000565E-01  0.33400276176E-01  0.51100000000E-03 0.  1.
         11    1    4    4    0    0 -0.32852639730E-01 -0.76345841870E-01  0.47972321842E-01  0.95966599877E-01  0.51100000000E-03 0. -1.
</event>
<event>
 8    1  0.1132492E+005  0.1043930E+01  0.7957747E-01            NaN
         13   -1    0    0    0    0  0.00000000000E+00  0.00000000000E+00  0.74505805969E-08  0.10566000000E+00  0.10566000000E+00 0.  1.
     999900   -1    0    0    0    0 -0.00000000000E+00 -0.00000000000E+00 -0.74505805969E-08  0.93827000000E+00  0.93827000000E+00 0.  1.
     999902    2    1    2    0    0 -0.15979968181E-01  0.39909025948E-02 -0.16753615477E-01  0.10204359514E+01  0.10201654575E+01 0.  0.
     999903    2    3    3    0    0  0.94923041793E-01  0.69880430706E-01  0.47648735374E-01  0.12870248770E+00  0.20006746353E-01 0.  0.
         14    1    1    2    0    0  0.15979968181E-01 -0.39909025948E-02  0.16753615477E-01  0.23494048568E-01  0.00000000000E+00 0.  1.
     999901    1    3    3    0    0 -0.11090300997E+00 -0.65889528112E-01 -0.64402350851E-01  0.89173346373E+00  0.88000000000E+00 0.  1.
        -11    1    4    4    0    0  0.33857671113E-01  0.33427871516E-01  0.11632867466E-01  0.48983152346E-01  0.51100000000E-03 0. -1.
         11    1    4    4    0    0  0.61065370680E-01  0.36452559191E-01  0.36015867908E-01  0.79719335359E-01  0.51100000000E-03 0.  1.
</event>
<event>
 8    1  0.1132492E+005  0.1043930E+01  0.7957747E-01            NaN
         13   -1    0    0    0    0  0.00000000000E+00  0.00000000000E+00  0.74505805969E-08  0.10566000000E+00  0.10566000000E+00 0.  1.
     999900   -1    0    0    0    0 -0.00000000000E+00 -0.00000000000E+00 -0.74505805969E-08  0.93827000000E+00  0.93827000000E+00 0.  1.
     999902    2    1    2    0    0  0.24605478345E-02  0.19594533545E-01  0.17151717877E-01  0.10177731373E+01  0.10174369649E+01 0.  0.
     999903    2    3    3    0    0  0.84032325018E-01 -0.49553070484E-01  0.81562596485E-01  0.12896263597E+00  0.21493391754E-01 0.  0.
         14    1    1    2    0    0 -0.24605478345E-02 -0.19594533545E-01 -0.17151717877E-01  0.26156862707E-01  0.00000000000E+00 0. -1.
     999901    1    3    3    0    0 -0.81571777184E-01  0.69147604029E-01 -0.64410878608E-01  0.88881050132E+00  0.88000000000E+00 0.  1.
        -11    1    4    4    0    0  0.31330926485E-01 -0.10905520623E-01  0.17783813653E-01  0.37644156034E-01  0.51100000000E-03 0. -1.
         11    1    4    4    0    0  0.52701398533E-01 -0.38647549861E-01  0.63778782832E-01  0.91318479938E-01  0.51100000000E-03 0.  1.
</event>
<event>
 8    1  0.1132492E+005  0.1043930E+01  0.7957747E-01            NaN
         13   -1    0    0    0    0  0.00000000000E+00  0.00000000000E+00  0.74505805969E-08  0.10566000000E+00  0.10566000000E+00 0. -1.
     999900   -1    0    0    0    0 -0.00000000000E+00 -0.00000000000E+00 -0.74505805969E-08  0.93827000000E+00  0.93827000000E+00 0. -1.
     999902    2    1    2    0    0  0.10030717951E-01 -0.19984996425E-01  0.65144565627E-02  0.10206393682E+01  0.10203735916E+01 0.  0.
     999903    2    3    3    0    0  0.37774795036E-01 -0.10024357173E+00 -0.75862604340E-01  0.13272205625E+00  0.19603588041E-01 0.  0.
         14    1    1    2    0    0 -0.10030717951E-01  0.19984996425E-01 -0.65144565627E-02  0.23290631787E-01  0.00000000000E+00 0. -1.
     999901    1    3    3    0    0 -0.27744077085E-01  0.80258575306E-01  0.82377060903E-01  0.88791731196E+00  0.88000000000E+00 0.  1.
        -11    1    4    4    0    0  0.34795454415E-01 -0.86492251739E-01 -0.57326908127E-01  0.10944527754E+00  0.51100000000E-03 0. -1.
         11    1    4    4    0    0  0.29793406209E-02 -0.13751319992E-01 -0.18535696213E-01  0.23276778711E-01  0.51100000000E-03 0.  1.
</event>
<event>
 8    1  0.1132492E+005  0.1043930E+01  0.7957747E-01            NaN
         13   -1    0    0    0    0  0.00000000000E+00  0.00000000000E+00  0.74505805969E-08  0.10566000000E+00  0.10566000000E+00 0. -1.
     999900   -1    0    0    0    0 -0.00000000000E+00 -0.00000000000E+00 -0.74505805969E-08  0.93827000000E+00  0.93827000000E+00 0. -1.
     999902    2    1    2    0    0 -0.15106178001E-02 -0.23763356059E-01 -0.81962373063E-02  0.10187475187E+01  0.10184362275E+01 0.  0.
     999903    2    3    3    0    0 -0.15362572025E-01 -0.87558477811E-02  0.12549216376E+00  0.12841629355E+00  0.20731323998E-01 0.  0.
         14    1    1    2    0    0  0.15106178001E-02  0.23763356059E-01  0.81962373063E-02  0.25182481277E-01  0.00000000000E+00 0. -1.
     999901    1    3    3    0    0  0.13851954225E-01 -0.15007508278E-01 -0.13368840106E+00  0.89033122517E+00  0.88000000000E+00 0. -1.
        -11    1    4    4    0    0 -0.55292453669E-02  0.67138050201E-02  0.33514239451E-01  0.34628212474E-01  0.51100000000E-03 0.  1.
         11    1    4    4    0    0 -0.98333266584E-02 -0.15469652801E-01  0.91977924306E-01  0.93788081074E-01  0.51100000000E-03 0. -1.
</event>
<event>
 8    1  0.1132492E+005  0.1043930E+01  0.7957747E-01            NaN
         13   -1    0    0    0    0  0.00000000000E+00  0.00000000000E+00  0.74505805969E-08  0.10566000000E+00  0.10566000000E+00 0. -1.
     999900   -1    0    0    0    0 -0.00000000000E+00 -0.00000000000E+00 -0.74505805969E-08  0.93827000000E+00  0.93827000000E+00 0.  1.
     999902    2    1    2    0    0  0.22742436198E-01 -0.45463277131E-02  0.54632313051E-02  0.10201028223E+01  0.10198245112E+01 0.  0.
     999903    2    3    3    0    0 -0.75771444307E-01  0.59522088172E-01 -0.81572038350E-01  0.12803506439E+00  0.21325794736E-01 0.  0.
         14    1    1    2    0    0 -0.22742436198E-01  0.45463277131E-02 -0.54632313051E-02  0.23827177680E-01  0.00000000000E+00 0. -1.
     999901    1    3    3    0    0  0.98513880505E-01 -0.64068415886E-01  0.87035269655E-01  0.89206775793E+00  0.88000000000E+00 0. -1.
        -11    1    4    4    0    0 -0.36048373913E-01  0.34408124056E-01 -0.29601033050E-01  0.57964528303E-01  0.51100000000E-03 0.  1.
         11    1    4    4    0    0 -0.39723070394E-01  0.25113964117E-01 -0.51971005300E-01  0.70070536091E-01  0.51100000000E-03 0. -1.
</event>
<event>
 8    1  0.1132492E+005  0.1043930E+01  0.7957747E-01            NaN
         13   -1    0    0    0    0  0.00000000000E+00  0.00000000000E+00  0.74505805969E-08  0.10566000000E+00  0.10566000000E+00 0.  1.
     999900   -1    0    0    0    0 -0.00000000000E+00 -0.00000000000E+00 -0.74505805969E-08  0.93827000000E+00  0.93827000000E+00 0. -1.
     999902    2    1    2    0    0  0.12945456428E-01  0.16188915764E-01  0.10452116529E-01  0.10207155094E+01  0.10204514876E+01 0.  0.
     999903    2    3    3    0    0  0.61119786616E-01 -0.11283271888E+00  0.54802648825E-02  0.12998992446E+00  0.20012405944E-01 0.  0.
         14    1    1    2    0    0 -0.12945456428E-01 -0.16188915764E-01 -0.10452116529E-01  0.23214490640E-01  0.00000000000E+00 0.  1.
     999901    1    3    3    0    0 -0.48174330188E-01  0.12902163464E+00  0.49718516469E-02  0.89072558490E+00  0.88000000000E+00 0.  1.
        -11    1    4    4    0    0  0.34611450325E-01 -0.76287216094E-01  0.11045189955E-01  0.84498219953E-01  0.51100000000E-03 0. -1.
         11    1    4    4    0    0  0.26508336290E-01 -0.36545502782E-01 -0.55649250720E-02  0.45491704503E-01  0.51100000000E-03 0.  1.
</event>
<event>
 8    1  0.1132492E+005  0.1043930E+01  0.7957747E-01            NaN
         13   -1    0    0    0    0  0.00000000000E+00  0.00000000000E+00  0.74505805969E-08  0.10566000000E+00  0.10566000000E+00 0. -1.
     999900   -1    0    0    0    0 -0.00000000000E+00 -0.00000000000E+00 -0.74505805969E-08  0.93827000000E+00  0.93827000000E+00 0.  1.
     999902    2    1    2    0    0  0.95094835765E-02 -0.20257667966E-01  0.55141601671E-02  0.10208820207E+01  0.10206218157E+01 0.  0.
     999903    2    3    3    0    0  0.12491008694E+00 -0.34447910353E-01  0.22333343584E-01  0.13307486414E+00  0.20517136333E-01 0.  0.
         14    1    1    2    0    0 -0.95094835765E-02  0.20257667966E-01 -0.55141601671E-02  0.23047979340E-01  0.00000000000E+00 0. -1.
     999901    1    3    3    0    0 -0.11540060336E+00  0.14190242387E-01 -0.16819183417E-01  0.88780715652E+00  0.88000000000E+00 0.  1.
        -11    1    4    4    0    0  0.71296144427E-01 -0.90841511305E-02  0.12284501537E-01  0.72916610666E-01  0.51100000000E-03 0.  1.
         11    1    4    4    0    0  0.53613942513E-01 -0.25363759222E-01  0.10048842047E-01  0.60158253475E-01  0.51100000000E-03 0. -1.
</event>
<event>
 8    1  0.1132492E+005  0.1043930E+01  0.7957747E-01            NaN
         13   -1    0    0    0    0  0.00000000000E+00  0.00000000000E+00  0.74505805969E-08  0.10566000000E+00  0.10566000000E+00 0. -1.
     999900   -1    0    0    0    0 -0.00000000000E+00 -0.00000000000E+00 -0.74505805969E-08  0.93827000000E+00  0.93827000000E+00 0.  1.
     999902    2    1    2    0    0 -0.14862691847E-01  0.17527151372E-01  0.62196747796E-02  0.10201227532E+01  0.10198449130E+01 0.  0.
     999903    2    3    3    0    0  0.68085541982E-02 -0.11486773053E+00  0.53999649489E-01  0.12867394728E+00  0.20001765830E-01 0.  0.
         14    1    1    2    0    0  0.14862691847E-01 -0.17527151372E-01 -0.62196747796E-02  0.23807246764E-01  0.00000000000E+00 0.  1.
     999901    1    3    3    0    0 -0.21671246045E-01  0.13239488190E+00 -0.47779974710E-01  0.89144880596E+00  0.88000000000E+00 0.  1.
        -11    1    4    4    0    0 -0.62471324770E-02 -0.27731429429E-01  0.16874463682E-01  0.33061571165E-01  0.51100000000E-03 0.  1.
         11    1    4    4    0    0  0.13055686675E-01 -0.87136301099E-01  0.37125185807E-01  0.95612376114E-01  0.51100000000E-03 0. -1.
</event>
<event>
 8    1  0.1132492E+005  0.1043930E+01  0.7957747E-01            NaN
         13   -1    0    0    0    0  0.00000000000E+00  0.00000000000E+00  0.74505805969E-08  0.10566000000E+00  0.10566000000E+00 0.  1.
     999900   -1    0    0    0    0 -0.00000000000E+00 -0.00000000000E+00 -0.74505805969E-08  0.93827000000E+00  0.93827000000E+00 0.  1.
     999902    2    1    2    0    0  0.44598824786E-02  0.37381104201E-02  0.20104752641E-01  0.10229999952E+01  0.10227858647E+01 0.  0.
     999903    2    3    3    0    0  0.75979074315E-01  0.10771119771E+00 -0.11219594059E-01  0.13344583027E+00  0.17532497836E-01 0.  0.
         14    1    1    2    0    0 -0.44598824786E-02 -0.37381104201E-02 -0.20104752641E-01  0.20930004777E-01  0.00000000000E+00 0. -1.
     999901    1    3    3    0    0 -0.71519191837E-01 -0.10397308729E+00  0.31324346699E-01  0.88955416495E+00  0.88000000000E+00 0.  1.
        -11    1    4    4    0    0  0.22414209328E-01  0.26336756161E-01  0.40858578183E-02  0.34827817330E-01  0.51100000000E-03 0. -1.
         11    1    4    4    0    0  0.53564864988E-01  0.81374441551E-01 -0.15305451877E-01  0.98618012944E-01  0.51100000000E-03 0.  1.
</event>
<event>
 8    1  0.1132492E+005  0.1043930E+01  0.7957747E-01            NaN
         13   -1    0    0    0    0  0.00000000000E+00  0.00000000000E+00  0.74505805969E-08  0.10566000000E+00  0.10566000000E+00 0. -1.
     999900   -1    0    0    0    0 -0.00000000000E+00 -0.00000000000E+00 -0.74505805969E-08  0.93827000000E+00  0.93827000000E+00 0.  1.
     999902    2    1    2    0    0 -0.29669356277E-02  0.88393209808E-02 -0.21542330154E-01  0.10204564342E+01  0.10201864172E+01 0.  0.
     999903    2    3    3    0    0 -0.50390367718E-01 -0.23182631383E-01 -0.11936533239E+00  0.13318887191E+00  0.20360979043E-01 0.  0.
         14    1    1    2    0    0  0.29669356277E-02 -0.88393209808E-02  0.21542330154E-01  0.23473565789E-01  0.00000000000E+00 0. -1.
     999901    1    3    3    0    0  0.47423432090E-01  0.32021952364E-01  0.97823002236E-01  0.88726756230E+00  0.88000000000E+00 0. -1.
        -11    1    4    4    0    0 -0.39389000226E-01 -0.20863622333E-01 -0.73484213621E-01  0.85947512170E-01  0.51100000000E-03 0. -1.
         11    1    4    4    0    0 -0.11001367492E-01 -0.23190090499E-02 -0.45881118768E-01  0.47241359740E-01  0.51100000000E-03 0.  1.
</event>
<event>
 8    1  0.1132492E+005  0.1043930E+01  0.7957747E-01            NaN
         13   -1    0    0    0    0  0.00000000000E+00  0.00000000000E+00  0.74505805969E-08  0.10566000000E+00  0.10566000000E+00 0.  1.
     999900   -1    0    0    0    0 -0.00000000000E+00 -0.00000000000E+00 -0.74505805969E-08  0.93827000000E+00  0.93827000000E+00 0.  1.
     999902    2    1    2    0    0  0.19895373143E-01  0.47152505065E-02 -0.12812803681E-01  0.10198006113E+01  0.10195151100E+01 0.  0.
     999903    2    3    3    0    0 -0.89006572504E-01 -0.86531514900E-01 -0.24887853406E-01  0.12832351527E+00  0.20919997699E-01 0.  0.
         14    1    1    2    0    0 -0.19895373143E-01 -0.47152505065E-02  0.12812803681E-01  0.24129388678E-01  0.00000000000E+00 0.  1.
     999901    1    3    3    0    0  0.10890194565E+00  0.91246765407E-01  0.12075049725E-01  0.89147709605E+00  0.88000000000E+00 0.  1.
        -11    1    4    4    0    0 -0.74972153503E-01 -0.81538287311E-01 -0.19481013428E-01  0.11246816040E+00  0.51100000000E-03 0. -1.
         11    1    4    4    0    0 -0.14034419001E-01 -0.49932275893E-02 -0.54068399780E-02  0.15855354868E-01  0.51100000000E-03 0.  1.
</event>
<event>
 8    1  0.1132492E+005  0.1043930E+01  0.7957747E-01            NaN
         13   -1    0    0    0    0  0.00000000000E+00  0.00000000000E+00  0.74505805969E-08  0.10566000000E+00  0.10566000000E+00 0. -1.
     999900   -1    0    0    0    0 -0.00000000000E+00 -0.00000000000E+00 -0.74505805969E-08  0.93827000000E+00  0.93827000000E+00 0. -1.
     999902    2    1    2    0    0  0.16029784413E-01  0.18037250207E-01 -0.69000853793E-03  0.10197893187E+01  0.10195035468E+01 0.  0.
     999903    2    3    3    0    0 -0.14860885169E-01  0.27616195028E-01  0.12464447507E+00  0.13032053201E+00  0.21533596128E-01 0.  0.
         14    1    1    2    0    0 -0.16029784413E-01 -0.18037250207E-01  0.69000853793E-03  0.24140681331E-01  0.00000000000E+00 0.  1.
     999901    1    3    3    0    0  0.30890669582E-01 -0.95789448216E-02 -0.12533448361E+00  0.88946878665E+00  0.88000000000E+00 0. -1.
        -11    1    4    4    0    0 -0.18622845851E-01  0.25616526231E-01  0.89995139274E-01  0.95406514545E-01  0.51100000000E-03 0.  1.
         11    1    4    4    0    0  0.37619606815E-02  0.19996687975E-02  0.34649335799E-01  0.34914017468E-01  0.51100000000E-03 0. -1.
</event>
<event>
 8    1  0.1132492E+005  0.1043930E+01  0.7957747E-01            NaN
         13   -1    0    0    0    0  0.00000000000E+00  0.00000000000E+00  0.74505805969E-08  0.10566000000E+00  0.10566000000E+00 0.  1.
     999900   -1    0    0    0    0 -0.00000000000E+00 -0.00000000000E+00 -0.74505805969E-08  0.93827000000E+00  0.93827000000E+00 0.  1.
     999902    2    1    2    0    0 -0.21460082841E-01 -0.96644119842E-02  0.10550178448E-01  0.10181377089E+01  0.10178109608E+01 0.  0.
     999903    2    3    3    0    0 -0.67932836333E-01 -0.92992815319E-01  0.60342630756E-01  0.13158109598E+00  0.20243956612E-01 0.  0.
         14    1    1    2    0    0  0.21460082841E-01  0.96644119842E-02 -0.10550178448E-01  0.25792291093E-01  0.00000000000E+00 0.  1.
     999901    1    3    3    0    0  0.46472753492E-01  0.83328403335E-01 -0.49792452309E-01  0.88655661293E+00  0.88000000000E+00 0.  1.
        -11    1    4    4    0    0 -0.67444266995E-02 -0.20349372948E-01  0.16022550841E-01  0.26768778966E-01  0.51100000000E-03 0.  1.
         11    1    4    4    0    0 -0.61188409634E-01 -0.72643442371E-01  0.44320079916E-01  0.10481231701E+00  0.51100000000E-03 0. -1.
</event>
<event>
 8    1  0.1132492E+005  0.1043930E+01  0.7957747E-01            NaN
         13   -1    0    0    0    0  0.00000000000E+00  0.00000000000E+00  0.74505805969E-08  0.10566000000E+00  0.10566000000E+00 0. -1.
     999900   -1    0    0    0    0 -0.00000000000E+00 -0.00000000000E+00 -0.74505805969E-08  0.93827000000E+00  0.93827000000E+00 0. -1.
     999902    2    1    2    0    0 -0.15142779595E-01  0.15826240154E-01 -0.39462606264E-02  0.10216736161E+01  0.10214311681E+01 0.  0.
     999903    2    3    3    0    0 -0.91727023392E-01 -0.86421156245E-01 -0.32161281714E-01  0.13200189918E+00  0.22531983489E-01 0.  0.
         14    1    1    2    0    0  0.15142779595E-01 -0.15826240154E-01  0.39462606264E-02  0.22256383897E-01  0.00000000000E+00 0.  1.
     999901    1    3    3    0    0  0.76584243797E-01  0.10224739640E+00  0.28215021087E-01  0.88967171692E+00  0.88000000000E+00 0. -1.
        -11    1    4    4    0    0 -0.87155508336E-01 -0.75179685659E-01 -0.33247987656E-01  0.11980716829E+00  0.51100000000E-03 0.  1.
         11    1    4    4    0    0 -0.45715150558E-02 -0.11241470585E-01  0.10867059423E-02  0.12194730896E-01  0.51100000000E-03 0. -1.
</event>
<event>
 8    1  0.1132492E+005  0.1043930E+01  0.7957747E-01            NaN
         13   -1    0    0    0    0  0.00000000000E+00  0.00000000000E+00  0.74505805969E-08  0.10566000000E+00  0.10566000000E+00 0. -1.
     999900   -1    0    0    0    0 -0.00000000000E+00 -0.00000000000E+00 -0.74505805969E-08  0.93827000000E+00  0.93827000000E+00 0. -1.
     999902    2    1    2    0    0  0.11477628555E-01  0.14901985319E-01  0.10413231819E-01  0.10224302205E+01  0.10222041455E+01 0.  0.
     999903    2    3    3    0    0  0.33697258788E-01 -0.11996154439E+00 -0.34192892978E-01  0.13076235068E+00  0.20083850310E-01 0.  0.
         14    1    1    2    0    0 -0.11477628555E-01 -0.14901985319E-01 -0.10413231819E-01  0.21499779547E-01  0.00000000000E+00 0.  1.
     999901    1    3    3    0    0 -0.22219630233E-01  0.13486352971E+00  0.44606124796E-01  0.89166786977E+00  0.88000000000E+00 0.  1.
        -11    1    4    4    0    0  0.92015562485E-02 -0.14664509798E-01  0.17612081921E-03  0.17320757044E-01  0.51100000000E-03 0. -1.
         11    1    4    4    0    0  0.24495702539E-01 -0.10529703459E+00 -0.34369013797E-01  0.11344159364E+00  0.51100000000E-03 0.  1.
</event>
<event>
 8    1  0.1132492E+005  0.1043930E+01  0.7957747E-01            NaN
         13   -1    0    0    0    0  0.00000000000E+00  0.00000000000E+00  0.74505805969E-08  0.10566000000E+00  0.10566000000E+00 0.  1.
     999900   -1    0    0    0    0 -0.00000000000E+00 -0.00000000000E+00 -0.74505805969E-08  0.93827000000E+00  0.93827000000E+00 0.  1.
     999902    2    1    2    0    0  0.14734633069E-01  0.63992497184E-03  0.20236781328E-01  0.10188891088E+01  0.10185813515E+01 0.  0.
     999903    2    3    3    0    0  0.11451630275E+00 -0.13025742430E-01 -0.56280114719E-01  0.12984582103E+00  0.20219603496E-01 0.  0.
         14    1    1    2    0    0 -0.14734633069E-01 -0.63992497184E-03 -0.20236781328E-01  0.25040891241E-01  0.00000000000E+00 0. -1.
     999901    1    3    3    0    0 -0.99781669681E-01  0.13665667402E-01  0.76516896047E-01  0.88904328773E+00  0.88000000000E+00 0.  1.
        -11    1    4    4    0    0  0.78410392832E-01  0.35652192325E-04 -0.41343474010E-01  0.88643865774E-01  0.51100000000E-03 0. -1.
         11    1    4    4    0    0  0.36105909917E-01 -0.13061394622E-01 -0.14936640710E-01  0.41201955259E-01  0.51100000000E-03 0.  1.
</event>
<event>
 8    1  0.1132492E+005  0.1043930E+01  0.7957747E-01            NaN
         13   -1    0    0    0    0  0.00000000000E+00  0.00000000000E+00  0.74505805969E-08  0.10566000000E+00  0.10566000000E+00 0. -1.
     999900   -1    0    0    0    0 -0.00000000000E+00 -0.00000000000E+00 -0.74505805969E-08  0.93827000000E+00  0.93827000000E+00 0. -1.
     999902    2    1    2    0    0 -0.14579903492E-01 -0.67270151564E-02  0.18200042156E-01  0.10196592799E+01  0.10193703838E+01 0.  0.
     999903    2    3    3    0    0 -0.17790097018E-01 -0.92065158540E-01  0.91516322403E-01  0.13249064826E+00  0.19648247763E-01 0.  0.
         14    1    1    2    0    0  0.14579903492E-01  0.67270151564E-02 -0.18200042156E-01  0.24270720081E-01  0.00000000000E+00 0.  1.
     999901    1    3    3    0    0  0.32101935259E-02  0.85338143384E-01 -0.73316280246E-01  0.88716863166E+00  0.88000000000E+00 0. -1.
        -11    1    4    4    0    0 -0.75536188855E-03 -0.52161715511E-01  0.54651112310E-01  0.75554088800E-01  0.51100000000E-03 0.  1.
         11    1    4    4    0    0 -0.17034735129E-01 -0.39903443029E-01  0.36865210093E-01  0.56936559456E-01  0.51100000000E-03 0. -1.
</event>
<event>
 8    1  0.1132492E+005  0.1043930E+01  0.7957747E-01            NaN
         13   -1    0    0    0    0  0.00000000000E+00  0.00000000000E+00  0.74505805969E-08  0.10566000000E+00  0.10566000000E+00 0.  1.
     999900   -1    0    0    0    0 -0.00000000000E+00 -0.00000000000E+00 -0.74505805969E-08  0.93827000000E+00  0.93827000000E+00 0. -1.
     999902    2    1    2    0    0  0.21323019400E-02  0.20797269726E-01 -0.15273476894E-02  0.10229679884E+01  0.10227531957E+01 0.  0.
     999903    2    3    3    0    0  0.83720591968E-01  0.81383997027E-01  0.64086507056E-01  0.13469293047E+00  0.20065209700E-01 0.  0.
         14    1    1    2    0    0 -0.21323019400E-02 -0.20797269726E-01  0.15273476894E-02  0.20962011606E-01  0.00000000000E+00 0.  1.
     999901    1    3    3    0    0 -0.81588290028E-01 -0.60586727301E-01 -0.65613854745E-01  0.88827505792E+00  0.88000000000E+00 0.  1.
        -11    1    4    4    0    0  0.61967752707E-01  0.63909473414E-01  0.39079444860E-01  0.97220817211E-01  0.51100000000E-03 0.  1.
         11    1    4    4    0    0  0.21752839261E-01  0.17474523614E-01  0.25007062195E-01  0.37472113259E-01  0.51100000000E-03 0. -1.
</event>
<event>
 8    1  0.1132492E+005  0.1043930E+01  0.7957747E-01            NaN
         13   -1    0    0    0    0  0.00000000000E+00  0.00000000000E+00  0.74505805969E-08  0.10566000000E+00  0.10566000000E+00 0. -1.
     999900   -1    0    0    0    0 -0.00000000000E+00 -0.00000000000E+00 -0.74505805969E-08  0.93827000000E+00  0.93827000000E+00 0. -1.
     999902    2    1    2    0    0 -0.15670047863E-01  0.15915541466E-01 -0.52206079477E-02  0.10209929207E+01  0.10207352421E+01 0.  0.
     999903    2    3    3    0    0  0.10687171695E+00  0.23027906290E-01  0.66432089700E-01  0.12958887148E+00  0.20693107957E-01 0.  0.
         14    1    1    2    0    0  0.15670047863E-01 -0.15915541466E-01  0.52206079477E-02  0.22937079316E-01  0.00000000000E+00 0. -1.
     999901    1    3    3    0    0 -0.12254176482E+00 -0.71123648243E-02 -0.71652697648E-01  0.89140404920E+00  0.88000000000E+00 0. -1.
        -11    1    4    4    0    0  0.60976777781E-01  0.16730781407E-01  0.49355159596E-01  0.80213959975E-01  0.51100000000E-03 0. -1.
         11    1    4    4    0    0  0.45894939172E-01  0.62971248830E-02  0.17076930104E-01  0.49374911505E-01  0.51100000000E-03 0.  1.
</event>
<event>
 8    1  0.1132492E+005  0.1043930E+01  0.7957747E-01            NaN
         13   -1    0    0    0    0  0.00000000000E+00  0.00000000000E+00  0.74505805969E-08  0.10566000000E+00  0.10566000000E+00 0. -1.
     999900   -1    0    0    0    0 -0.00000000000E+00 -0.00000000000E+00 -0.74505805969E-08  0.93827000000E+00  0.93827000000E+00 0.  1.
     999902    2    1    2    0    0  0.19312156769E-01 -0.44115757903E-02  0.16724468759E-01  0.10180045443E+01  0.10176743698E+01 0.  0.
     999903    2    3    3    0    0  0.24380085978E-01 -0.67912386044E-02  0.12776951970E+00  0.13100829284E+00  0.14057493103E-01 0.  0.
         14    1    1    2    0    0 -0.19312156769E-01  0.44115757903E-02 -0.16724468759E-01  0.25925455740E-01  0.00000000000E+00 0.  1.
     999901    1    3    3    0    0 -0.50679292082E-02  0.23796628141E-02 -0.11104505094E+00  0.88699625142E+00  0.88000000000E+00 0.  1.
        -11    1    4    4    0    0  0.13846553945E-01 -0.10140981546E-01  0.62885540524E-01  0.65187566996E-01  0.51100000000E-03 0. -1.
         11    1    4    4    0    0  0.10533532033E-01  0.33497429420E-02  0.64883979179E-01  0.65820725839E-01  0.51100000000E-03 0.  1.
</event>
<event>
 8    1  0.1132492E+005  0.1043930E+01  0.7957747E-01            NaN
         13   -1    0    0    0    0  0.00000000000E+00  0.00000000000E+00  0.74505805969E-08  0.10566000000E+00  0.10566000000E+00 0.  1.
     999900   -1    0    0    0    0 -0.00000000000E+00 -0.00000000000E+00 -0.74505805969E-08  0.93827000000E+00  0.93827000000E+00 0. -1.
     999902    2    1    2    0    0 -0.23660907369E-01 -0.56604301321E-02  0.17101459062E-02  0.10195414042E+01  0.10192496609E+01 0.  0.
     999903    2    3    3    0    0 -0.12763133036E-01 -0.12621527675E+00 -0.25522367060E-01  0.13083794279E+00  0.19338624692E-01 0.  0.
         14    1    1    2    0    0  0.23660907369E-01  0.56604301321E-02 -0.17101459062E-02  0.24388595815E-01  0.00000000000E+00 0. -1.
     999901    1    3    3    0    0 -0.10897774333E-01  0.12055484661E+00  0.27232512966E-01  0.88870346139E+00  0.88000000000E+00 0.  1.
        -11    1    4    4    0    0 -0.16630223386E-01 -0.75029973246E-01 -0.12321775428E-01  0.77834108756E-01  0.51100000000E-03 0.  1.
         11    1    4    4    0    0  0.38670903502E-02 -0.51185303500E-01 -0.13200591632E-01  0.53003834037E-01  0.51100000000E-03 0. -1.
</event>
<event>
 8    1  0.1132492E+005  0.1043930E+01  0.7957747E-01            NaN
         13   -1    0    0    0    0  0.00000000000E+00  0.00000000000E+00  0.74505805969E-08  0.10566000000E+00  0.10566000000E+00 0. -1.
     999900   -1    0    0    0    0 -0.00000000000E+00 -0.00000000000E+00 -0.74505805969E-08  0.93827000000E+00  0.93827000000E+00 0. -1.
     999902    2    1    2    0    0 -0.78231597705E-03  0.16581863082E-01  0.17020089459E-01  0.10201549365E+01  0.10198778558E+01 0.  0.
     999903    2    3    3    0    0 -0.92442672459E-01  0.72371334451E-01  0.59270683958E-01  0.13263074027E+00  0.17165125892E-01 0.  0.
         14    1    1    2    0    0  0.78231597705E-03 -0.16581863082E-01 -0.17020089459E-01  0.23775063549E-01  0.00000000000E+00 0.  1.
     999901    1    3    3    0    0  0.91660356482E-01 -0.55789471368E-01 -0.42250594498E-01  0.88752419618E+00  0.88000000000E+00 0. -1.
        -11    1    4    4    0    0 -0.59082124732E-01  0.37374405117E-01  0.40251386661E-01  0.80672045157E-01  0.51100000000E-03 0.  1.
         11    1    4    4    0    0 -0.33360547727E-01  0.34996929334E-01  0.19019297297E-01  0.51958695116E-01  0.51100000000E-03 0. -1.
</event>
<event>
 8    1  0.1132492E+005  0.1043930E+01  0.7957747E-01            NaN
         13   -1    0    0    0    0  0.00000000000E+00  0.00000000000E+00  0.74505805969E-08  0.10566000000E+00  0.10566000000E+00 0.  1.
     999900   -1    0    0    0    0 -0.00000000000E+00 -0.00000000000E+00 -0.74505805969E-08  0.93827000000E+00  0.93827000000E+00 0. -1.
     999902    2    1    2    0    0 -0.21714978485E-01  0.67425039693E-02  0.63171497949E-02  0.10203311010E+01  0.10200581590E+01 0.  0.
     999903    2    3    3    0    0  0.90558870705E-01 -0.67819020166E-01 -0.53764458420E-01  0.12804491504E+00  0.26543449629E-01 0.  0.
         14    1    1    2    0    0  0.21714978485E-01 -0.67425039693E-02 -0.63171497949E-02  0.23598898955E-01  0.00000000000E+00 0.  1.
     999901    1    3    3    0    0 -0.11227384919E+00  0.74561524135E-01  0.60081608215E-01  0.89228618601E+00  0.88000000000E+00 0.  1.
        -11    1    4    4    0    0  0.10756345457E-01 -0.72938072922E-02 -0.16879825762E-01  0.21309346099E-01  0.51100000000E-03 0. -1.
         11    1    4    4    0    0  0.79802525247E-01 -0.60525212874E-01 -0.36884632658E-01  0.10673556894E+00  0.51100000000E-03 0.  1.
</event>
<event>
 8    1  0.1132492E+005  0.1043930E+01  0.7957747E-01            NaN
         13   -1    0    0    0    0  0.00000000000E+00  0.00000000000E+00  0.74505805969E-08  0.10566000000E+00  0.10566000000E+00 0. -1.
     999900   -1    0    0    0    0 -0.00000000000E+00 -0.00000000000E+00 -0.74505805969E-08  0.93827000000E+00  0.93827000000E+00 0. -1.
     999902    2    1    2    0    0  0.21987694353E-01 -0.40644367127E-02  0.29522259789E-02  0.10213757546E+01  0.10211267003E+01 0.  0.
     999903    2    3    3    0    0 -0.83739827729E-01 -0.55394352185E-01  0.80837331581E-01  0.13015234889E+00  0.18001853891E-01 0.  0.
         14    1    1    2    0    0 -0.21987694353E-01  0.40644367127E-02 -0.29522259789E-02  0.22554245431E-01  0.00000000000E+00 0.  1.
     999901    1    3    3    0    0  0.10572752208E+00  0.51329915472E-01 -0.77885105602E-01  0.89122340567E+00  0.88000000000E+00 0. -1.
        -11    1    4    4    0    0 -0.54603920978E-01 -0.25537521232E-01  0.47425672620E-01  0.76702077686E-01  0.51100000000E-03 0.  1.
         11    1    4    4    0    0 -0.29135906750E-01 -0.29856830952E-01  0.33411658962E-01  0.53450271208E-01  0.51100000000E-03 0. -1.
</event>
<event>
 8    1  0.1132492E+005  0.1043930E+01  0.7957747E-01            NaN
         13   -1    0    0    0    0  0.00000000000E+00  0.00000000000E+00  0.74505805969E-08  0.10566000000E+00  0.10566000000E+00 0.  1.
     999900   -1    0    0    0    0 -0.00000000000E+00 -0.00000000000E+00 -0.74505805969E-08  0.93827000000E+00  0.93827000000E+00 0.  1.
     999902    2    1    2    0    0 -0.15443428226E-01  0.16137319310E-01  0.81024071524E-02  0.10201694960E+01  0.10198927586E+01 0.  0.
     999903    2    3    3    0    0  0.13798545867E-01  0.26243583248E-01  0.12670328124E+00  0.13167447801E+00  0.20132589313E-01 0.  0.
         14    1    1    2    0    0  0.15443428226E-01 -0.16137319310E-01 -0.81024071524E-02  0.23760504025E-01  0.00000000000E+00 0.  1.
     999901    1    3    3    0    0 -0.29241974093E-01 -0.10106263938E-01 -0.11860087408E+00  0.88849501797E+00  0.88000000000E+00 0.  1.
        -11    1    4    4    0    0 -0.45828247377E-02  0.78596159354E-02  0.45718391080E-01  0.46617681722E-01  0.51100000000E-03 0. -1.
         11    1    4    4    0    0  0.18381370605E-01  0.18383967312E-01  0.80984890158E-01  0.85056796285E-01  0.51100000000E-03 0.  1.
</event>
<event>
 8    1  0.1132492E+005  0.1043930E+01  0.7957747E-01            NaN
         13   -1    0    0    0    0  0.00000000000E+00  0.00000000000E+00  0.74505805969E-08  0.10566000000E+00  0.10566000000E+00 0. -1.
     999900   -1    0    0    0    0 -0.00000000000E+00 -0.00000000000E+00 -0.74505805969E-08  0.93827000000E+00  0.93827000000E+00 0. -1.
     999902    2    1    2    0    0  0.83071439456E-02 -0.10174639999E-01 -0.20644310592E-01  0.10194612546E+01  0.10191675673E+01 0.  0.
     999903    2    3    3    0    0  0.85986839712E-01  0.91307447789E-01  0.21792527607E-01  0.12921767308E+00  0.22169938000E-01 0.  0.
         14    1    1    2    0    0 -0.83071439456E-02  0.10174639999E-01  0.20644310592E-01  0.24468745359E-01  0.00000000000E+00 0. -1.
     999901    1    3    3    0    0 -0.77679695766E-01 -0.10148208779E+00 -0.42436838199E-01  0.89024358156E+00  0.88000000000E+00 0.  1.
        -11    1    4    4    0    0  0.49900583421E-01  0.64191457482E-01  0.21392294471E-01  0.84074388628E-01  0.51100000000E-03 0. -1.
         11    1    4    4    0    0  0.36086256291E-01  0.27115990307E-01  0.40023313629E-03  0.45143284450E-01  0.51100000000E-03 0.  1.
</event>
<event>
 8    1  0.1132492E+005  0.1043930E+01  0.7957747E-01            NaN
         13   -1    0    0    0    0  0.00000000000E+00  0.00000000000E+00  0.74505805969E-08  0.10566000000E+00  0.10566000000E+00 0.  1.
     999900   -1    0    0    0    0 -0.00000000000E+00 -0.00000000000E+00 -0.74505805969E-08  0.93827000000E+00  0.93827000000E+00 0.  1.
     999902    2    1    2    0    0  0.39999843413E-02  0.38831431823E-02  0.22471521082E-01  0.10207772910E+01  0.10205146887E+01 0.  0.
     999903    2    3    3    0    0  0.77755987209E-02 -0.11820569469E+00  0.53340008039E-01  0.13180439876E+00  0.22230539421E-01 0.  0.
         14    1    1    2    0    0 -0.39999843413E-02 -0.38831431823E-02 -0.22471521082E-01  0.23152709030E-01  0.00000000000E+00 0. -1.
     999901    1    3    3    0    0 -0.37756143796E-02  0.12208883787E+00 -0.30868486957E-01  0.88897289221E+00  0.88000000000E+00 0.  1.
        -11    1    4    4    0    0 -0.61392065293E-02 -0.57414962231E-01  0.31140569442E-01  0.65606127237E-01  0.51100000000E-03 0.  1.
         11    1    4    4    0    0  0.13914805250E-01 -0.60790732456E-01  0.22199438598E-01  0.66198271524E-01  0.51100000000E-03 0. -1.
</event>
<event>
 8    1  0.1132492E+005  0.1043930E+01  0.7957747E-01            NaN
         13   -1    0    0    0    0  0.00000000000E+00  0.00000000000E+00  0.74505805969E-08  0.10566000000E+00  0.10566000000E+00 0.  1.
     999900   -1    0    0    0    0 -0.00000000000E+00 -0.00000000000E+00 -0.74505805969E-08  0.93827000000E+00  0.93827000000E+00 0.  1.
     999902    2    1    2    0    0  0.16630111987E-01  0.66792467257E-02 -0.16371649560E-01  0.10196564780E+01  0.10193675143E+01 0.  0.
     999903    2    3    3    0    0  0.84792679417E-01  0.26469641928E-01  0.92728852067E-01  0.13008314498E+00  0.20797696415E-01 0.  0.
         14    1    1    2    0    0 -0.16630111987E-01 -0.66792467257E-02  0.16371649560E-01  0.24273522012E-01  0.00000000000E+00 0.  1.
     999901    1    3    3    0    0 -0.68162567430E-01 -0.19790395203E-01 -0.10910050163E+00  0.88957333301E+00  0.88000000000E+00 0.  1.
        -11    1    4    4    0    0  0.56602419838E-01  0.25429461510E-01  0.72129167797E-01  0.95149195542E-01  0.51100000000E-03 0. -1.
         11    1    4    4    0    0  0.28190259579E-01  0.10401804185E-02  0.20599684270E-01  0.34933949440E-01  0.51100000000E-03 0.  1.
</event>
<event>
 8    1  0.1132492E+005  0.1043930E+01  0.7957747E-01            NaN
         13   -1    0    0    0    0  0.00000000000E+00  0.00000000000E+00  0.74505805969E-08  0.10566000000E+00  0.10566000000E+00 0.  1.
     999900   -1    0    0    0    0 -0.00000000000E+00 -0.00000000000E+00 -0.74505805969E-08  0.93827000000E+00  0.93827000000E+00 0.  1.
     999902    2    1    2    0    0  0.22229996968E-01  0.38223762405E-02 -0.23868319525E-02  0.10212478420E+01  0.10209959228E+01 0.  0.
     999903    2    3    3    0    0  0.12502904455E+00  0.37226085338E-01  0.24484337734E-01  0.13422726065E+00  0.19985777351E-01 0.  0.
         14    1    1    2    0    0 -0.22229996968E-01 -0.38223762405E-02  0.23868319525E-02  0.22682158012E-01  0.00000000000E+00 0.  1.
     999901    1    3    3    0    0 -0.10279904758E+00 -0.33403709098E-01 -0.26871169687E-01  0.88702058134E+00  0.88000000000E+00 0.  1.
        -11    1    4    4    0    0  0.76060252865E-01  0.28805342588E-01  0.73467973338E-02  0.81664841759E-01  0.51100000000E-03 0. -1.
         11    1    4    4    0    0  0.48968791682E-01  0.84207427507E-02  0.17137540400E-01  0.52562418887E-01  0.51100000000E-03 0.  1.
</event>
<event>
 8    1  0.1132492E+005  0.1043930E+01  0.7957747E-01            NaN
         13   -1    0    0    0    0  0.00000000000E+00  0.00000000000E+00  0.74505805969E-08  0.10566000000E+00  0.10566000000E+00 0.  1.
     999900   -1    0    0    0    0 -0.00000000000E+00 -0.00000000000E+00 -0.74505805969E-08  0.93827000000E+00  0.93827000000E+00 0.  1.
     999902    2    1    2    0    0  0.79212416260E-02  0.97563107351E-02  0.20829263931E-01  0.10196032677E+01  0.10193130204E+01 0.  0.
     999903    2    3    3    0    0 -0.12163561762E+00  0.33865137780E-01  0.18512171505E-01  0.12978779008E+00  0.23666409263E-01 0.  0.
         14    1    1    2    0    0 -0.79212416260E-02 -0.97563107351E-02 -0.20829263931E-01  0.24326732291E-01  0.00000000000E+00 0. -1.
     999901    1    3    3    0    0  0.12955685925E+00 -0.24108827045E-01  0.23170924259E-02  0.88981547763E+00  0.88000000000E+00 0. -1.
        -11    1    4    4    0    0 -0.10151826361E+00  0.35931531659E-01  0.19886545422E-01  0.10951149996E+00  0.51100000000E-03 0.  1.
         11    1    4    4    0    0 -0.20117354016E-01 -0.20663938792E-02 -0.13743739171E-02  0.20276290117E-01  0.51100000000E-03 0. -1.
</event>
<event>
 8    1  0.1132492E+005  0.1043930E+01  0.7957747E-01            NaN
         13   -1    0    0    0    0  0.00000000000E+00  0.00000000000E+00  0.74505805969E-08  0.10566000000E+00  0.10566000000E+00 0. -1.
     999900   -1    0    0    0    0 -0.00000000000E+00 -0.00000000000E+00 -0.74505805969E-08  0.93827000000E+00  0.93827000000E+00 0. -1.
     999902    2    1    2    0    0 -0.50366910160E-02 -0.74318095385E-02 -0.22793091051E-01  0.10194325502E+01  0.10191381650E+01 0.  0.
     999903    2    3    3    0    0 -0.12318264778E+00  0.26046965514E-01  0.24385655669E-01  0.12965441510E+00  0.19057754977E-01 0.  0.
         14    1    1    2    0    0  0.50366910160E-02  0.74318095385E-02  0.22793091051E-01  0.24497449848E-01  0.00000000000E+00 0. -1.
     999901    1    3    3    0    0  0.11814595677E+00 -0.33478775052E-01 -0.47178746720E-01  0.88977813505E+00  0.88000000000E+00 0. -1.
        -11    1    4    4    0    0 -0.15102765751E-01  0.98417745998E-02  0.42078030068E-02  0.18518120524E-01  0.51100000000E-03 0. -1.
         11    1    4    4    0    0 -0.10807988203E+00  0.16205190914E-01  0.20177852662E-01  0.11113629457E+00  0.51100000000E-03 0.  1.
</event>
<event>
 7    1  0.1414023E+005  0.1043930E+01  0.7957747E-01            NaN
         13   -1    0    0    0    0  0.00000000000E+00  0.00000000000E+00  0.74505805969E-08  0.10566000000E+00  0.10566000000E+00 0.  1.
     999900   -1    0    0    0    0 -0.00000000000E+00 -0.00000000000E+00 -0.74505805969E-08  0.93827000000E+00  0.93827000000E+00 0.  1.
     999903    2    1    2    0    0  0.69796369078E-01  0.58234449048E-01 -0.58510679183E-01  0.10949999464E+00  0.17434593628E-01 0.  0.
         14    1    1    2    0    0 -0.78975296360E-02 -0.13435973353E-01 -0.42589984909E-01  0.45351991895E-01  0.00000000000E+00 0. -1.
     999901    1    1    2    0    0 -0.61898839443E-01 -0.44798475694E-01  0.10110066409E+00  0.88907801347E+00  0.88000000000E+00 0. -1.
        -11    1    3    3    0    0  0.34581743841E-01  0.33394045610E-01 -0.21389099093E-01  0.52619520810E-01  0.51100000000E-03 0. -1.
         11    1    3    3    0    0  0.35214625237E-01  0.24840403438E-01 -0.37121580091E-01  0.56880473829E-01  0.51100000000E-03 0.  1.
</event>
<event>
 8    1  0.1132492E+005  0.1043930E+01  0.7957747E-01            NaN
         13   -1    0    0    0    0  0.00000000000E+00  0.00000000000E+00  0.74505805969E-08  0.10566000000E+00  0.10566000000E+00 0. -1.
     999900   -1    0    0    0    0 -0.00000000000E+00 -0.00000000000E+00 -0.74505805969E-08  0.93827000000E+00  0.93827000000E+00 0.  1.
     999902    2    1    2    0    0 -0.53845168158E-02  0.21373820227E-01  0.64827520812E-02  0.10209548115E+01  0.10206962662E+01 0.  0.
     999903    2    3    3    0    0 -0.82432396262E-01  0.51013692033E-01 -0.87491184766E-01  0.13210949394E+00  0.20017848262E-01 0.  0.
         14    1    1    2    0    0  0.53845168158E-02 -0.21373820227E-01 -0.64827520812E-02  0.22975188508E-01  0.00000000000E+00 0.  1.
     999901    1    3    3    0    0  0.77047879446E-01 -0.29639871806E-01  0.93973936847E-01  0.88884531755E+00  0.88000000000E+00 0. -1.
        -11    1    4    4    0    0 -0.17504306056E-01  0.13493708051E-01 -0.31671566944E-01  0.38624217289E-01  0.51100000000E-03 0. -1.
         11    1    4    4    0    0 -0.64928090206E-01  0.37519983981E-01 -0.55819617821E-01  0.93485276651E-01  0.51100000000E-03 0.  1.
</event>
<event>
 8    1  0.1132492E+005  0.1043930E+01  0.7957747E-01            NaN
         13   -1    0    0    0    0  0.00000000000E+00  0.00000000000E+00  0.74505805969E-08  0.10566000000E+00  0.10566000000E+00 0.  1.
     999900   -1    0    0    0    0 -0.00000000000E+00 -0.00000000000E+00 -0.74505805969E-08  0.93827000000E+00  0.93827000000E+00 0. -1.
     999902    2    1    2    0    0 -0.21680415216E-01  0.72902832398E-03  0.87644225318E-02  0.10205336971E+01  0.10202654752E+01 0.  0.
     999903    2    3    3    0    0 -0.57164132695E-01  0.11100475511E+00  0.39274050173E-01  0.13241733790E+00  0.20052596773E-01 0.  0.
         14    1    1    2    0    0  0.21680415216E-01 -0.72902832398E-03 -0.87644225318E-02  0.23396302882E-01  0.00000000000E+00 0.  1.
     999901    1    3    3    0    0  0.35483717479E-01 -0.11027572678E+00 -0.30509627641E-01  0.88811635921E+00  0.88000000000E+00 0. -1.
        -11    1    4    4    0    0 -0.11469032302E-01  0.42994102130E-01  0.12668971558E-01  0.46268731140E-01  0.51100000000E-03 0.  1.
         11    1    4    4    0    0 -0.45695100393E-01  0.68010652978E-01  0.26605078615E-01  0.86148606765E-01  0.51100000000E-03 0. -1.
</event>
<event>
 8    1  0.1132492E+005  0.1043930E+01  0.7957747E-01            NaN
         13   -1    0    0    0    0  0.00000000000E+00  0.00000000000E+00  0.74505805969E-08  0.10566000000E+00  0.10566000000E+00 0. -1.
     999900   -1    0    0    0    0 -0.00000000000E+00 -0.00000000000E+00 -0.74505805969E-08  0.93827000000E+00  0.93827000000E+00 0. -1.
     999902    2    1    2    0    0  0.37792288293E-02 -0.88243561721E-03 -0.17934650323E-01  0.10255802603E+01  0.10254160899E+01 0.  0.
     999903    2    3    3    0    0 -0.87070854577E-01 -0.75281028470E-01  0.66223508765E-01  0.13380030766E+00  0.16382986671E-01 0.  0.
         14    1    1    2    0    0 -0.37792288293E-02  0.88243561721E-03  0.17934650323E-01  0.18349739654E-01  0.00000000000E+00 0. -1.
     999901    1    3    3    0    0  0.90850083406E-01  0.74398592852E-01 -0.84158159088E-01  0.89177995269E+00  0.88000000000E+00 0. -1.
        -11    1    4    4    0    0 -0.70603583192E-01 -0.60867377237E-01  0.60644485301E-01  0.11121024364E+00  0.51100000000E-03 0.  1.
         11    1    4    4    0    0 -0.16467271385E-01 -0.14413651232E-01  0.55790234636E-02  0.22590064022E-01  0.51100000000E-03 0. -1.
</event>
<event>
 8    1  0.1132492E+005  0.1043930E+01  0.7957747E-01            NaN
         13   -1    0    0    0    0  0.00000000000E+00  0.00000000000E+00  0.74505805969E-08  0.10566000000E+00  0.10566000000E+00 0.  1.
     999900   -1    0    0    0    0 -0.00000000000E+00 -0.00000000000E+00 -0.74505805969E-08  0.93827000000E+00  0.93827000000E+00 0. -1.
     999902    2    1    2    0    0  0.41348389149E-02  0.21387085488E-01 -0.83434277565E-02  0.10206036821E+01  0.10203370810E+01 0.  0.
     999903    2    3    3    0    0  0.59809692911E-01 -0.52650813706E-02 -0.11574979445E+00  0.13192705086E+00  0.20045233454E-01 0.  0.
         14    1    1    2    0    0 -0.41348389149E-02 -0.21387085488E-01  0.83434277565E-02  0.23326317868E-01  0.00000000000E+00 0.  1.
     999901    1    3    3    0    0 -0.55674853996E-01  0.26652166859E-01  0.10740636670E+00  0.88867663127E+00  0.88000000000E+00 0.  1.
        -11    1    4    4    0    0  0.38885660296E-01 -0.85437899454E-03 -0.92438031261E-01  0.10028895894E+00  0.51100000000E-03 0. -1.
         11    1    4    4    0    0  0.20924032615E-01 -0.44107023760E-02 -0.23311763191E-01  0.31638091921E-01  0.51100000000E-03 0.  1.
</event>
<event>
 8    1  0.1132492E+005  0.1043930E+01  0.7957747E-01            NaN
         13   -1    0    0    0    0  0.00000000000E+00  0.00000000000E+00  0.74505805969E-08  0.10566000000E+00  0.10566000000E+00 0.  1.
     999900   -1    0    0    0    0 -0.00000000000E+00 -0.00000000000E+00 -0.74505805969E-08  0.93827000000E+00  0.93827000000E+00 0.  1.
     999902    2    1    2    0    0  0.16465562600E-02  0.14929491570E-01 -0.21005073766E-01  0.10181072583E+01  0.10177797283E+01 0.  0.
     999903    2    3    3    0    0  0.74166508559E-02  0.11580587910E+00  0.53349639316E-01  0.12921020973E+00  0.19572581325E-01 0.  0.
         14    1    1    2    0    0 -0.16465562600E-02 -0.14929491570E-01  0.21005073766E-01  0.25822741721E-01  0.00000000000E+00 0.  1.
     999901    1    3    3    0    0 -0.57700945958E-02 -0.10087638753E+00 -0.74354713082E-01  0.88889704854E+00  0.88000000000E+00 0.  1.
        -11    1    4    4    0    0  0.62982678673E-02  0.84775493055E-01  0.48221280206E-01  0.97734872929E-01  0.51100000000E-03 0. -1.
         11    1    4    4    0    0  0.11183829886E-02  0.31030386049E-01  0.51283591093E-02  0.31475336805E-01  0.51100000000E-03 0.  1.
</event>
<event>
 8    1  0.1132492E+005  0.1043930E+01  0.7957747E-01            NaN
         13   -1    0    0    0    0  0.00000000000E+00  0.00000000000E+00  0.74505805969E-08  0.10566000000E+00  0.10566000000E+00 0. -1.
     999900   -1    0    0    0    0 -0.00000000000E+00 -0.00000000000E+00 -0.74505805969E-08  0.93827000000E+00  0.93827000000E+00 0.  1.
     999902    2    1    2    0    0  0.30138166729E-01  0.15016401162E-01 -0.11674717926E-01  0.10082915315E+01  0.10076615067E+01 0.  0.
     999903    2    3    3    0    0 -0.50388359326E-01  0.72840114395E-01  0.76015937616E-01  0.11839392264E+00  0.19850166872E-01 0.  0.
         14    1    1    2    0    0 -0.30138166729E-01 -0.15016401162E-01  0.11674717926E-01  0.35638468490E-01  0.00000000000E+00 0. -1.
     999901    1    3    3    0    0  0.80526526055E-01 -0.57823713233E-01 -0.87690655542E-01  0.88989760887E+00  0.88000000000E+00 0.  1.
        -11    1    4    4    0    0 -0.21430483120E-01  0.15517774657E-01  0.24469431937E-01  0.36042768448E-01  0.51100000000E-03 0. -1.
         11    1    4    4    0    0 -0.28957876206E-01  0.57322339738E-01  0.51546505679E-01  0.82351154188E-01  0.51100000000E-03 0.  1.
</event>
<event>
 8    1  0.1132492E+005  0.1043930E+01  0.7957747E-01            NaN
         13   -1    0    0    0    0  0.00000000000E+00  0.00000000000E+00  0.74505805969E-08  0.10566000000E+00  0.10566000000E+00 0.  1.
     999900   -1    0    0    0    0 -0.00000000000E+00 -0.00000000000E+00 -0.74505805969E-08  0.93827000000E+00  0.93827000000E+00 0.  1.
     999902    2    1    2    0    0  0.19693485724E-01 -0.95493659197E-02  0.16382929345E-01  0.10165909411E+01  0.10162232615E+01 0.  0.
     999903    2    3    3    0    0  0.10483944461E+00 -0.61673555418E-01  0.43070952441E-01  0.13054409353E+00  0.19791837438E-01 0.  0.
         14    1    1    2    0    0 -0.19693485724E-01  0.95493659197E-02 -0.16382929345E-01  0.27339058934E-01  0.00000000000E+00 0.  1.
     999901    1    3    3    0    0 -0.85145958883E-01  0.52124189498E-01 -0.26688023096E-01  0.88604684753E+00  0.88000000000E+00 0.  1.
        -11    1    4    4    0    0  0.38494928022E-01 -0.29491440039E-01  0.90438925942E-02  0.49332115638E-01  0.51100000000E-03 0. -1.
         11    1    4    4    0    0  0.66344516584E-01 -0.32182115379E-01  0.34027059847E-01  0.81211977897E-01  0.51100000000E-03 0.  1.
</event>
<event>
 8    1  0.1132492E+005  0.1043930E+01  0.7957747E-01            NaN
         13   -1    0    0    0    0  0.00000000000E+00  0.00000000000E+00  0.74505805969E-08  0.10566000000E+00  0.10566000000E+00 0.  1.
     999900   -1    0    0    0    0 -0.00000000000E+00 -0.00000000000E+00 -0.74505805969E-08  0.93827000000E+00  0.93827000000E+00 0. -1.
     999902    2    1    2    0    0 -0.87362987813E-03  0.17545595709E-01  0.31983796256E-02  0.10260738865E+01  0.10259185054E+01 0.  0.
     999903    2    3    3    0    0  0.58220348929E-01 -0.80204562500E-01  0.88851362092E-01  0.13456750671E+00  0.19785561426E-01 0.  0.
         14    1    1    2    0    0  0.87362987813E-03 -0.17545595709E-01 -0.31983796256E-02  0.17856113524E-01  0.00000000000E+00 0. -1.
     999901    1    3    3    0    0 -0.59093978807E-01  0.97750158209E-01 -0.85652982466E-01  0.89150637977E+00  0.88000000000E+00 0. -1.
        -11    1    4    4    0    0  0.29958710250E-01 -0.24937009677E-01  0.33649740784E-01  0.51497038239E-01  0.51100000000E-03 0. -1.
         11    1    4    4    0    0  0.28261638679E-01 -0.55267552822E-01  0.55201621307E-01  0.83070468469E-01  0.51100000000E-03 0.  1.
</event>
<event>
 8    1  0.1132492E+005  0.1043930E+01  0.7957747E-01            NaN
         13   -1    0    0    0    0  0.00000000000E+00  0.00000000000E+00  0.74505805969E-08  0.10566000000E+00  0.10566000000E+00 0. -1.
     999900   -1    0    0    0    0 -0.00000000000E+00 -0.00000000000E+00 -0.74505805969E-08  0.93827000000E+00  0.93827000000E+00 0. -1.
     999902    2    1    2    0    0  0.10597909734E-01 -0.65012139264E-02 -0.19200393334E-01  0.10210556349E+01  0.10207993794E+01 0.  0.
     999903    2    3    3    0    0 -0.57727735835E-01 -0.30605734056E-01 -0.11404107229E+00  0.13299923125E+00  0.20352565003E-01 0.  0.
         14    1    1    2    0    0 -0.10597909734E-01  0.65012139264E-02  0.19200393334E-01  0.22874365072E-01  0.00000000000E+00 0.  1.
     999901    1    3    3    0    0  0.68325645569E-01  0.24104520130E-01  0.94840678954E-01  0.88805640368E+00  0.88000000000E+00 0.  1.
        -11    1    4    4    0    0 -0.37844072552E-01 -0.28384088418E-01 -0.90346762636E-01  0.10198347387E+00  0.51100000000E-03 0. -1.
         11    1    4    4    0    0 -0.19883663283E-01 -0.22216456381E-02 -0.23694309652E-01  0.31015757378E-01  0.51100000000E-03 0.  1.
</event>
<event>
 8    1  0.1132492E+005  0.1043930E+01  0.7957747E-01            NaN
         13   -1    0    0    0    0  0.00000000000E+00  0.00000000000E+00  0.74505805969E-08  0.10566000000E+00  0.10566000000E+00 0.  1.
     999900   -1    0    0    0    0 -0.00000000000E+00 -0.00000000000E+00 -0.74505805969E-08  0.93827000000E+00  0.93827000000E+00 0.  1.
     999902    2    1    2    0    0 -0.85302151933E-02  0.39141407782E-02 -0.21907167401E-01  0.10200970595E+01  0.10198186122E+01 0.  0.
     999903    2    3    3    0    0  0.95016394691E-01 -0.40433386864E-01 -0.78298125862E-01  0.13112656290E+00  0.20015118084E-01 0.  0.
         14    1    1    2    0    0  0.85302151933E-02 -0.39141407782E-02  0.21907167401E-01  0.23832940498E-01  0.00000000000E+00 0.  1.
     999901    1    3    3    0    0 -0.10354660988E+00  0.44347527642E-01  0.56390958461E-01  0.88897049660E+00  0.88000000000E+00 0. -1.
        -11    1    4    4    0    0  0.51451695201E-01 -0.21361149901E-01 -0.54535239749E-01  0.77961074644E-01  0.51100000000E-03 0.  1.
         11    1    4    4    0    0  0.43564699490E-01 -0.19072236962E-01 -0.23762886113E-01  0.53165488259E-01  0.51100000000E-03 0. -1.
</event>
<event>
 8    1  0.1132492E+005  0.1043930E+01  0.7957747E-01            NaN
         13   -1    0    0    0    0  0.00000000000E+00  0.00000000000E+00  0.74505805969E-08  0.10566000000E+00  0.10566000000E+00 0. -1.
     999900   -1    0    0    0    0 -0.00000000000E+00 -0.00000000000E+00 -0.74505805969E-08  0.93827000000E+00  0.93827000000E+00 0.  1.
     999902    2    1    2    0    0 -0.14547535867E-01  0.11028004016E-02 -0.18599697201E-01  0.10202911399E+01  0.10200172619E+01 0.  0.
     999903    2    3    3    0    0  0.11935453834E+00  0.11407609477E-01 -0.45427550643E-01  0.12969825412E+00  0.19553398368E-01 0.  0.
         14    1    1    2    0    0  0.14547535867E-01 -0.11028004016E-02  0.18599697201E-01  0.23638860050E-01  0.00000000000E+00 0. -1.
     999901    1    3    3    0    0 -0.13390207421E+00 -0.10304809075E-01  0.26827853442E-01  0.89059288583E+00  0.88000000000E+00 0. -1.
        -11    1    4    4    0    0  0.16886285790E-01 -0.20487428303E-02 -0.12888570132E-01  0.21347607736E-01  0.51100000000E-03 0.  1.
         11    1    4    4    0    0  0.10246825255E+00  0.13456352307E-01 -0.32538980510E-01  0.10835064639E+00  0.51100000000E-03 0. -1.
</event>
<event>
 8    1  0.1132492E+005  0.1043930E+01  0.7957747E-01            NaN
         13   -1    0    0    0    0  0.00000000000E+00  0.00000000000E+00  0.74505805969E-08  0.10566000000E+00  0.10566000000E+00 0.  1.
     999900   -1    0    0    0    0 -0.00000000000E+00 -0.00000000000E+00 -0.74505805969E-08  0.93827000000E+00  0.93827000000E+00 0. -1.
     999902    2    1    2    0    0  0.20143497361E-01 -0.12625229190E-01 -0.20942185120E-02  0.10200649073E+01  0.10197856993E+01 0.  0.
     999903    2    3    3    0    0 -0.74971653718E-01  0.10109267418E+00 -0.54527909459E-02  0.12765808667E+00  0.20648886879E-01 0.  0.
         14    1    1    2    0    0 -0.20143497361E-01  0.12625229190E-01  0.20942185120E-02  0.23865092692E-01  0.00000000000E+00 0. -1.
     999901    1    3    3    0    0  0.95115151079E-01 -0.11371790337E+00  0.33585724339E-02  0.89240682064E+00  0.88000000000E+00 0.  1.
        -11    1    4    4    0    0 -0.19100170766E-01  0.12637666693E-01 -0.38584608744E-03  0.22911506737E-01  0.51100000000E-03 0.  1.
         11    1    4    4    0    0 -0.55871482952E-01  0.88455007486E-01 -0.50669448585E-02  0.10474657993E+00  0.51100000000E-03 0. -1.
</event>
<event>
 8    1  0.1132492E+005  0.1043930E+01  0.7957747E-01            NaN
         13   -1    0    0    0    0  0.00000000000E+00  0.00000000000E+00  0.74505805969E-08  0.10566000000E+00  0.10566000000E+00 0.  1.
     999900   -1    0    0    0    0 -0.00000000000E+00 -0.00000000000E+00 -0.74505805969E-08  0.93827000000E+00  0.93827000000E+00 0.  1.
     999902    2    1    2    0    0  0.22966395026E-01 -0.14109783913E-02  0.68758288510E-02  0.10199149384E+01  0.10196321682E+01 0.  0.
     999903    2    3    3    0    0 -0.10020573961E+00 -0.77658863865E-01  0.21436890436E-02  0.12805872358E+00  0.17954160930E-01 0.  0.
         14    1    1    2    0    0 -0.22966395026E-01  0.14109783913E-02 -0.68758288510E-02  0.24015061585E-01  0.00000000000E+00 0.  1.
     999901    1    3    3    0    0  0.12317213464E+00  0.76247885474E-01  0.47321398074E-02  0.89185621483E+00  0.88000000000E+00 0. -1.
        -11    1    4    4    0    0 -0.94956813656E-01 -0.77525363145E-01  0.34114477376E-02  0.12263310111E+00  0.51100000000E-03 0. -1.
         11    1    4    4    0    0 -0.52489259558E-02 -0.13350072019E-03 -0.12677586939E-02  0.54256224747E-02  0.51100000000E-03 0.  1.
</event>
<event>
 8    1  0.1132492E+005  0.1043930E+01  0.7957747E-01            NaN
         13   -1    0    0    0    0  0.00000000000E+00  0.00000000000E+00  0.74505805969E-08  0.10566000000E+00  0.10566000000E+00 0. -1.
     999900   -1    0    0    0    0 -0.00000000000E+00 -0.00000000000E+00 -0.74505805969E-08  0.93827000000E+00  0.93827000000E+00 0.  1.
     999902    2    1    2    0    0  0.14471596849E-01  0.10310575505E-01 -0.15848643582E-01  0.10201200318E+01  0.10198421273E+01 0.  0.
     999903    2    3    3    0    0  0.12584693517E+00  0.34707911194E-01  0.97991157324E-02  0.13239400225E+00  0.19749910629E-01 0.  0.
         14    1    1    2    0    0 -0.14471596849E-01 -0.10310575505E-01  0.15848643582E-01  0.23809968207E-01  0.00000000000E+00 0. -1.
     999901    1    3    3    0    0 -0.11137533832E+00 -0.24397335689E-01 -0.25647759315E-01  0.88772602955E+00  0.88000000000E+00 0.  1.
        -11    1    4    4    0    0  0.39513134030E-01  0.11519365003E-01 -0.60540379991E-02  0.41604038603E-01  0.51100000000E-03 0. -1.
         11    1    4    4    0    0  0.86333801144E-01  0.23188546191E-01  0.15853153732E-01  0.90789963645E-01  0.51100000000E-03 0.  1.
</event>
<event>
 8    1  0.1132492E+005  0.1043930E+01  0.7957747E-01            NaN
         13   -1    0    0    0    0  0.00000000000E+00  0.00000000000E+00  0.74505805969E-08  0.10566000000E+00  0.10566000000E+00 0.  1.
     999900   -1    0    0    0    0 -0.00000000000E+00 -0.00000000000E+00 -0.74505805969E-08  0.93827000000E+00  0.93827000000E+00 0. -1.
     999902    2    1    2    0    0  0.77580876476E-02 -0.21134746972E-01  0.74307864274E-02  0.10202217305E+01  0.10199462228E+01 0.  0.
     999903    2    3    3    0    0  0.11798179705E+00 -0.24292134691E-01 -0.48937654689E-01  0.13155045478E+00  0.20020386202E-01 0.  0.
         14    1    1    2    0    0 -0.77580876476E-02  0.21134746972E-01 -0.74307864274E-02  0.23708269452E-01  0.00000000000E+00 0.  1.
     999901    1    3    3    0    0 -0.11022370941E+00  0.31573877197E-02  0.56368441117E-01  0.88867127576E+00  0.88000000000E+00 0.  1.
        -11    1    4    4    0    0  0.22054997131E-01  0.15527667812E-02 -0.14303168014E-01  0.26337724263E-01  0.51100000000E-03 0. -1.
         11    1    4    4    0    0  0.95926799922E-01 -0.25844901473E-01 -0.34634486675E-01  0.10521273052E+00  0.51100000000E-03 0.  1.
</event>
<event>
 8    1  0.1132492E+005  0.1043930E+01  0.7957747E-01            NaN
         13   -1    0    0    0    0  0.00000000000E+00  0.00000000000E+00  0.74505805969E-08  0.10566000000E+00  0.10566000000E+00 0.  1.
     999900   -1    0    0    0    0 -0.00000000000E+00 -0.00000000000E+00 -0.74505805969E-08  0.93827000000E+00  0.93827000000E+00 0. -1.
     999902    2    1    2    0    0 -0.28702351140E-02 -0.20055165532E-01  0.13270793796E-01  0.10197109603E+01  0.10194233079E+01 0.  0.
     999903    2    3    3    0    0  0.45827925934E-01  0.43439106056E-01 -0.10914910228E+00  0.12764052345E+00  0.19784386996E-01 0.  0.
         14    1    1    2    0    0  0.28702351140E-02  0.20055165532E-01 -0.13270793796E-01  0.24219039661E-01  0.00000000000E+00 0. -1.
     999901    1    3    3    0    0 -0.48698161048E-01 -0.63494271587E-01  0.12241989607E+00  0.89207043689E+00  0.88000000000E+00 0.  1.
        -11    1    4    4    0    0  0.16266890171E-01  0.17332715180E-01 -0.60547363096E-01  0.65048282301E-01  0.51100000000E-03 0. -1.
         11    1    4    4    0    0  0.29561035763E-01  0.26106390875E-01 -0.48601739181E-01  0.62592241151E-01  0.51100000000E-03 0.  1.
</event>
<event>
 8    1  0.1132492E+005  0.1043930E+01  0.7957747E-01            NaN
         13   -1    0    0    0    0  0.00000000000E+00  0.00000000000E+00  0.74505805969E-08  0.10566000000E+00  0.10566000000E+00 0. -1.
     999900   -1    0    0    0    0 -0.00000000000E+00 -0.00000000000E+00 -0.74505805969E-08  0.93827000000E+00  0.93827000000E+00 0.  1.
     999902    2    1    2    0    0  0.47190970243E-02 -0.18712347533E-01  0.12661399304E-01  0.10208489935E+01  0.10205880338E+01 0.  0.
     999903    2    3    3    0    0  0.49030603780E-01  0.55932835735E-01 -0.10351678028E+00  0.12897860922E+00  0.19679319486E-01 0.  0.
         14    1    1    2    0    0 -0.47190970243E-02  0.18712347533E-01 -0.12661399304E-01  0.23081006461E-01  0.00000000000E+00 0.  1.
     999901    1    3    3    0    0 -0.44311506756E-01 -0.74645183268E-01  0.11617817959E+00  0.89187038432E+00  0.88000000000E+00 0. -1.
        -11    1    4    4    0    0  0.38791503458E-01  0.51979100366E-01 -0.79755958209E-01  0.10280020236E+00  0.51100000000E-03 0.  1.
         11    1    4    4    0    0  0.10239100322E-01  0.39537353686E-02 -0.23760822074E-01  0.26178406854E-01  0.51100000000E-03 0. -1.
</event>
<event>
 8    1  0.1132492E+005  0.1043930E+01  0.7957747E-01            NaN
         13   -1    0    0    0    0  0.00000000000E+00  0.00000000000E+00  0.74505805969E-08  0.10566000000E+00  0.10566000000E+00 0. -1.
     999900   -1    0    0    0    0 -0.00000000000E+00 -0.00000000000E+00 -0.74505805969E-08  0.93827000000E+00  0.93827000000E+00 0. -1.
     999902    2    1    2    0    0 -0.11869251705E-01  0.19611685036E-01  0.53747130436E-02  0.10203846211E+01  0.10201129301E+01 0.  0.
     999903    2    3    3    0    0  0.28577339701E-01 -0.48239146280E-01 -0.11409235224E+00  0.12880622202E+00  0.20743635497E-01 0.  0.
         14    1    1    2    0    0  0.11869251705E-01 -0.19611685036E-01 -0.53747130436E-02  0.23545378873E-01  0.00000000000E+00 0.  1.
     999901    1    3    3    0    0 -0.40446591406E-01  0.67850831316E-01  0.11946706528E+00  0.89157839911E+00  0.88000000000E+00 0.  1.
        -11    1    4    4    0    0  0.60894405427E-02 -0.13598472495E-02 -0.23828395002E-01  0.24637045278E-01  0.51100000000E-03 0.  1.
         11    1    4    4    0    0  0.22487899158E-01 -0.46879299031E-01 -0.90263957236E-01  0.10416917674E+00  0.51100000000E-03 0. -1.
</event>
<event>
 8    1  0.1132492E+005  0.1043930E+01  0.7957747E-01            NaN
         13   -1    0    0    0    0  0.00000000000E+00  0.00000000000E+00  0.74505805969E-08  0.10566000000E+00  0.10566000000E+00 0.  1.
     999900   -1    0    0    0    0 -0.00000000000E+00 -0.00000000000E+00 -0.74505805969E-08  0.93827000000E+00  0.93827000000E+00 0. -1.
     999902    2    1    2    0    0  0.20249439108E-01  0.10025576785E-01 -0.40118904785E-02  0.10209812040E+01  0.10207232591E+01 0.  0.
     999903    2    3    3    0    0 -0.52070628047E-01  0.10699581073E+00  0.50968252786E-01  0.13100579165E+00  0.20132084696E-01 0.  0.
         14    1    1    2    0    0 -0.20249439108E-01 -0.10025576785E-01  0.40118904785E-02  0.22948796031E-01  0.00000000000E+00 0. -1.
     999901    1    3    3    0    0  0.72320067155E-01 -0.96970233944E-01 -0.54980143265E-01  0.88997541232E+00  0.88000000000E+00 0. -1.
        -11    1    4    4    0    0 -0.23704499684E-01  0.50007455182E-01  0.34621822159E-01  0.65280782545E-01  0.51100000000E-03 0.  1.
         11    1    4    4    0    0 -0.28366128363E-01  0.56988355547E-01  0.16346430627E-01  0.65725009102E-01  0.51100000000E-03 0. -1.
</event>
<event>
 8    1  0.1132492E+005  0.1043930E+01  0.7957747E-01            NaN
         13   -1    0    0    0    0  0.00000000000E+00  0.00000000000E+00  0.74505805969E-08  0.10566000000E+00  0.10566000000E+00 0. -1.
     999900   -1    0    0    0    0 -0.00000000000E+00 -0.00000000000E+00 -0.74505805969E-08  0.93827000000E+00  0.93827000000E+00 0.  1.
     999902    2    1    2    0    0  0.11734382330E-01  0.10383686051E-01  0.17551849694E-01  0.10204016322E+01  0.10201303382E+01 0.  0.
     999903    2    3    3    0    0 -0.21102370526E-01 -0.10262116503E+00 -0.70900497913E-01  0.12817286863E+00  0.20615287900E-01 0.  0.
         14    1    1    2    0    0 -0.11734382330E-01 -0.10383686051E-01 -0.17551849694E-01  0.23528367822E-01  0.00000000000E+00 0.  1.
     999901    1    3    3    0    0  0.32836752855E-01  0.11300485108E+00  0.88452347607E-01  0.89222876355E+00  0.88000000000E+00 0.  1.
        -11    1    4    4    0    0 -0.11958390992E-01 -0.26219633068E-01 -0.11786850086E-01  0.31139416008E-01  0.51100000000E-03 0.  1.
         11    1    4    4    0    0 -0.91439795333E-02 -0.76401531960E-01 -0.59113647826E-01  0.97033452622E-01  0.51100000000E-03 0. -1.
</event>
<event>
 8    1  0.1132492E+005  0.1043930E+01  0.7957747E-01            NaN
         13   -1    0    0    0    0  0.00000000000E+00  0.00000000000E+00  0.74505805969E-08  0.10566000000E+00  0.10566000000E+00 0.  1.
     999900   -1    0    0    0    0 -0.00000000000E+00 -0.00000000000E+00 -0.74505805969E-08  0.93827000000E+00  0.93827000000E+00 0. -1.
     999902    2    1    2    0    0  0.18571436802E-01 -0.16922763793E-02 -0.13111077596E-01  0.10211338946E+01  0.10208794093E+01 0.  0.
     999903    2    3    3    0    0  0.89401921433E-01 -0.75163431451E-01 -0.62394637522E-01  0.13386627015E+00  0.19617403195E-01 0.  0.
         14    1    1    2    0    0 -0.18571436802E-01  0.16922763793E-02  0.13111077596E-01  0.22796105368E-01  0.00000000000E+00 0.  1.
     999901    1    3    3    0    0 -0.70830484631E-01  0.73471155072E-01  0.49283559926E-01  0.88726762449E+00  0.88000000000E+00 0.  1.
        -11    1    4    4    0    0  0.33737487276E-01 -0.16538278413E-01 -0.20820478682E-01  0.42959121896E-01  0.51100000000E-03 0. -1.
         11    1    4    4    0    0  0.55664434157E-01 -0.58625153039E-01 -0.41574158839E-01  0.90907148250E-01  0.51100000000E-03 0.  1.
</event>
<event>
 8    1  0.1132492E+005  0.1043930E+01  0.7957747E-01            NaN
         13   -1    0    0    0    0  0.00000000000E+00  0.00000000000E+00  0.74505805969E-08  0.10566000000E+00  0.10566000000E+00 0.  1.
     999900   -1    0    0    0    0 -0.00000000000E+00 -0.00000000000E+00 -0.74505805969E-08  0.93827000000E+00  0.93827000000E+00 0.  1.
     999902    2    1    2    0    0  0.17781610181E-01 -0.52653698884E-02  0.14315872154E-01  0.10205023673E+01  0.10202334182E+01 0.  0.
     999903    2    3    3    0    0 -0.78306542350E-01 -0.10093368638E+00 -0.11268961226E-01  0.12974990807E+00  0.19711051098E-01 0.  0.
         14    1    1    2    0    0 -0.17781610181E-01  0.52653698884E-02 -0.14315872154E-01  0.23427632748E-01  0.00000000000E+00 0.  1.
     999901    1    3    3    0    0  0.96088152531E-01  0.95668316495E-01  0.25584833380E-01  0.89075245918E+00  0.88000000000E+00 0. -1.
        -11    1    4    4    0    0 -0.35222690815E-01 -0.50833455018E-01 -0.14743034289E-01  0.63579055343E-01  0.51100000000E-03 0. -1.
         11    1    4    4    0    0 -0.43083851535E-01 -0.50100231366E-01  0.34740730630E-02  0.66170852727E-01  0.51100000000E-03 0.  1.
</event>
<event>
 8    1  0.1132492E+005  0.1043930E+01  0.7957747E-01            NaN
         13   -1    0    0    0    0  0.00000000000E+00  0.00000000000E+00  0.74505805969E-08  0.10566000000E+00  0.10566000000E+00 0.  1.
     999900   -1    0    0    0    0 -0.00000000000E+00 -0.00000000000E+00 -0.74505805969E-08  0.93827000000E+00  0.93827000000E+00 0. -1.
     999902    2    1    2    0    0 -0.15637857873E-01 -0.15640525538E-01  0.86487858020E-02  0.10201819446E+01  0.10199055005E+01 0.  0.
     999903    2    3    3    0    0 -0.10260852119E+00  0.78171779538E-01 -0.65923766181E-02  0.13080185834E+00  0.20647783856E-01 0.  0.
         14    1    1    2    0    0  0.15637857873E-01  0.15640525538E-01 -0.86487858020E-02  0.23748055369E-01  0.00000000000E+00 0. -1.
     999901    1    3    3    0    0  0.86970663318E-01 -0.93812305076E-01  0.15241162420E-01  0.88938008629E+00  0.88000000000E+00 0. -1.
        -11    1    4    4    0    0 -0.76976594041E-01  0.47690157252E-01 -0.83172890108E-02  0.90935062250E-01  0.51100000000E-03 0.  1.
         11    1    4    4    0    0 -0.25631927149E-01  0.30481622286E-01  0.17249123927E-02  0.39866796088E-01  0.51100000000E-03 0. -1.
</event>
<event>
 8    1  0.1132492E+005  0.1043930E+01  0.7957747E-01            NaN
         13   -1    0    0    0    0  0.00000000000E+00  0.00000000000E+00  0.74505805969E-08  0.10566000000E+00  0.10566000000E+00 0. -1.
     999900   -1    0    0    0    0 -0.00000000000E+00 -0.00000000000E+00 -0.74505805969E-08  0.93827000000E+00  0.93827000000E+00 0. -1.
     999902    2    1    2    0    0  0.21512649170E-01  0.38974597941E-02  0.13023989021E-01  0.10184818457E+01  0.10181638677E+01 0.  0.
     999903    2    3    3    0    0 -0.22774898197E-01  0.70103116130E-02  0.12630415522E+00  0.13011059856E+00  0.20203657474E-01 0.  0.
         14    1    1    2    0    0 -0.21512649170E-01 -0.38974597941E-02 -0.13023989021E-01  0.25448154298E-01  0.00000000000E+00 0.  1.
     999901    1    3    3    0    0  0.44287547367E-01 -0.31128518189E-02 -0.11328016620E+00  0.88837124714E+00  0.88000000000E+00 0. -1.
        -11    1    4    4    0    0 -0.30142669011E-02  0.85305175709E-02  0.66290689184E-01  0.66907190409E-01  0.51100000000E-03 0. -1.
         11    1    4    4    0    0 -0.19760631296E-01 -0.15202059579E-02  0.60013466033E-01  0.63203408149E-01  0.51100000000E-03 0.  1.
</event>
<event>
 8    1  0.1132492E+005  0.1043930E+01  0.7957747E-01            NaN
         13   -1    0    0    0    0  0.00000000000E+00  0.00000000000E+00  0.74505805969E-08  0.10566000000E+00  0.10566000000E+00 0.  1.
     999900   -1    0    0    0    0 -0.00000000000E+00 -0.00000000000E+00 -0.74505805969E-08  0.93827000000E+00  0.93827000000E+00 0. -1.
     999902    2    1    2    0    0 -0.86505047605E-02  0.21931717258E-01 -0.40262204093E-02  0.10200126025E+01  0.10197321547E+01 0.  0.
     999903    2    3    3    0    0 -0.12418547977E+00 -0.28366775508E-01  0.20689085378E-01  0.13069313502E+00  0.20638554932E-01 0.  0.
         14    1    1    2    0    0  0.86505047605E-02 -0.21931717258E-01  0.40262204093E-02  0.23917397544E-01  0.00000000000E+00 0.  1.
     999901    1    3    3    0    0  0.11553497501E+00  0.50298492766E-01 -0.24715305787E-01  0.88931946744E+00  0.88000000000E+00 0.  1.
        -11    1    4    4    0    0 -0.27599372074E-01 -0.15334296357E-01  0.45622053764E-02  0.31905184885E-01  0.51100000000E-03 0.  1.
         11    1    4    4    0    0 -0.96586107692E-01 -0.13032479150E-01  0.16126880002E-01  0.98787950133E-01  0.51100000000E-03 0. -1.
</event>
<event>
 8    1  0.1132492E+005  0.1043930E+01  0.7957747E-01            NaN
         13   -1    0    0    0    0  0.00000000000E+00  0.00000000000E+00  0.74505805969E-08  0.10566000000E+00  0.10566000000E+00 0. -1.
     999900   -1    0    0    0    0 -0.00000000000E+00 -0.00000000000E+00 -0.74505805969E-08  0.93827000000E+00  0.93827000000E+00 0.  1.
     999902    2    1    2    0    0 -0.42678615708E-03  0.18457222746E-01 -0.14388539117E-01  0.10205231361E+01  0.10202546692E+01 0.  0.
     999903    2    3    3    0    0 -0.28156022954E-01 -0.11308211739E+00 -0.55524910119E-01  0.12936450290E+00  0.84753799353E-02 0.  0.
         14    1    1    2    0    0  0.42678615708E-03 -0.18457222746E-01  0.14388539117E-01  0.23406863861E-01  0.00000000000E+00 0. -1.
     999901    1    3    3    0    0  0.27729236797E-01  0.13153934013E+00  0.41136371002E-01  0.89115863324E+00  0.88000000000E+00 0. -1.
        -11    1    4    4    0    0 -0.12064057282E-02 -0.10562543792E-01 -0.29827434989E-02  0.11053534544E-01  0.51100000000E-03 0.  1.
         11    1    4    4    0    0 -0.26949617226E-01 -0.10251957360E+00 -0.52542166620E-01  0.11831096836E+00  0.51100000000E-03 0. -1.
</event>
<event>
 8    1  0.1132492E+005  0.1043930E+01  0.7957747E-01            NaN
         13   -1    0    0    0    0  0.00000000000E+00  0.00000000000E+00  0.74505805969E-08  0.10566000000E+00  0.10566000000E+00 0.  1.
     999900   -1    0    0    0    0 -0.00000000000E+00 -0.00000000000E+00 -0.74505805969E-08  0.93827000000E+00  0.93827000000E+00 0.  1.
     999902    2    1    2    0    0  0.13002019789E-01 -0.19926747436E-01  0.10425650144E-02  0.10201137299E+01  0.10198356765E+01 0.  0.
     999903    2    3    3    0    0  0.10928261758E+00  0.80123695085E-02  0.70735356880E-01  0.13168386036E+00  0.18173051359E-01 0.  0.
         14    1    1    2    0    0 -0.13002019789E-01  0.19926747436E-01 -0.10425650144E-02  0.23816270148E-01  0.00000000000E+00 0.  1.
     999901    1    3    3    0    0 -0.96280597792E-01 -0.27939116944E-01 -0.69692791866E-01  0.88842986949E+00  0.88000000000E+00 0. -1.
        -11    1    4    4    0    0  0.20447101465E-01  0.79363011865E-02  0.10285351837E-01  0.24230526578E-01  0.51100000000E-03 0.  1.
         11    1    4    4    0    0  0.88835516116E-01  0.76068322019E-04  0.60450005043E-01  0.10745333378E+00  0.51100000000E-03 0. -1.
</event>
<event>
 8    1  0.1132492E+005  0.1043930E+01  0.7957747E-01            NaN
         13   -1    0    0    0    0  0.00000000000E+00  0.00000000000E+00  0.74505805969E-08  0.10566000000E+00  0.10566000000E+00 0.  1.
     999900   -1    0    0    0    0 -0.00000000000E+00 -0.00000000000E+00 -0.74505805969E-08  0.93827000000E+00  0.93827000000E+00 0.  1.
     999902    2    1    2    0    0  0.21655701009E-01  0.97982363986E-02  0.13796839886E-03  0.10201604006E+01  0.10198834487E+01 0.  0.
     999903    2    3    3    0    0 -0.71678054666E-01 -0.95737283879E-01 -0.41071940344E-01  0.12800167444E+00  0.19853295238E-01 0.  0.
         14    1    1    2    0    0 -0.21655701009E-01 -0.97982363986E-02 -0.13796839886E-03  0.23769599450E-01  0.00000000000E+00 0.  1.
     999901    1    3    3    0    0  0.93333755675E-01  0.10553552028E+00  0.41209908743E-01  0.89215872611E+00  0.88000000000E+00 0. -1.
        -11    1    4    4    0    0 -0.29082768951E-01 -0.25624924089E-01 -0.18261479639E-01  0.42850751966E-01  0.51100000000E-03 0. -1.
         11    1    4    4    0    0 -0.42595285715E-01 -0.70112359789E-01 -0.22810460705E-01  0.85150922478E-01  0.51100000000E-03 0.  1.
</event>
<event>
 8    1  0.1132492E+005  0.1043930E+01  0.7957747E-01            NaN
         13   -1    0    0    0    0  0.00000000000E+00  0.00000000000E+00  0.74505805969E-08  0.10566000000E+00  0.10566000000E+00 0.  1.
     999900   -1    0    0    0    0 -0.00000000000E+00 -0.00000000000E+00 -0.74505805969E-08  0.93827000000E+00  0.93827000000E+00 0.  1.
     999902    2    1    2    0    0  0.12137768907E-01  0.17816489837E-01 -0.82072195265E-02  0.10208624644E+01  0.10206018127E+01 0.  0.
     999903    2    3    3    0    0  0.66585077925E-01 -0.48553977385E-01 -0.10102805548E+00  0.13182632572E+00  0.19505148990E-01 0.  0.
         14    1    1    2    0    0 -0.12137768907E-01 -0.17816489837E-01  0.82072195265E-02  0.23067535553E-01  0.00000000000E+00 0.  1.
     999901    1    3    3    0    0 -0.54447309018E-01  0.66370467221E-01  0.92820835949E-01  0.88903613873E+00  0.88000000000E+00 0. -1.
        -11    1    4    4    0    0  0.61439269319E-01 -0.36838598475E-01 -0.89075144927E-01  0.11430883044E+00  0.51100000000E-03 0.  1.
         11    1    4    4    0    0  0.51458086060E-02 -0.11715378910E-01 -0.11952910549E-01  0.17517495278E-01  0.51100000000E-03 0. -1.
</event>
<event>
 8    1  0.1132492E+005  0.1043930E+01  0.7957747E-01            NaN
         13   -1    0    0    0    0  0.00000000000E+00  0.00000000000E+00  0.74505805969E-08  0.10566000000E+00  0.10566000000E+00 0. -1.
     999900   -1    0    0    0    0 -0.00000000000E+00 -0.00000000000E+00 -0.74505805969E-08  0.93827000000E+00  0.93827000000E+00 0. -1.
     999902    2    1    2    0    0  0.60182025540E-02 -0.22714066809E-01 -0.36694293133E-02  0.10201473949E+01  0.10198701364E+01 0.  0.
     999903    2    3    3    0    0 -0.11791407754E+00 -0.12322393053E-01 -0.49899146440E-01  0.13020111357E+00  0.20170129100E-01 0.  0.
         14    1    1    2    0    0 -0.60182025540E-02  0.22714066809E-01  0.36694293133E-02  0.23782605081E-01  0.00000000000E+00 0.  1.
     999901    1    3    3    0    0  0.12393228009E+00 -0.10391673755E-01  0.46229717127E-01  0.88994628134E+00  0.88000000000E+00 0.  1.
        -11    1    4    4    0    0 -0.59044703963E-01 -0.11298102024E-01 -0.34606441176E-01  0.69367074807E-01  0.51100000000E-03 0.  1.
         11    1    4    4    0    0 -0.58869373577E-01 -0.10242910289E-02 -0.15292705264E-01  0.60834038767E-01  0.51100000000E-03 0. -1.
</event>
<event>
 8    1  0.1132492E+005  0.1043930E+01  0.7957747E-01            NaN
         13   -1    0    0    0    0  0.00000000000E+00  0.00000000000E+00  0.74505805969E-08  0.10566000000E+00  0.10566000000E+00 0. -1.
     999900   -1    0    0    0    0 -0.00000000000E+00 -0.00000000000E+00 -0.74505805969E-08  0.93827000000E+00  0.93827000000E+00 0.  1.
     999902    2    1    2    0    0 -0.40628187016E-02  0.16981194844E-01  0.16535757573E-01  0.10198821570E+01  0.10195986051E+01 0.  0.
     999903    2    3    3    0    0 -0.75381946692E-01  0.35052454655E-01 -0.97254788132E-01  0.12951073072E+00  0.20085395036E-01 0.  0.
         14    1    1    2    0    0  0.40628187016E-02 -0.16981194844E-01 -0.16535757573E-01  0.24047842994E-01  0.00000000000E+00 0.  1.
     999901    1    3    3    0    0  0.71319127990E-01 -0.18071259811E-01  0.11379054570E+00  0.89037142628E+00  0.88000000000E+00 0. -1.
        -11    1    4    4    0    0 -0.50089690058E-01  0.32083808625E-01 -0.61004072234E-01  0.85206254325E-01  0.51100000000E-03 0. -1.
         11    1    4    4    0    0 -0.25292256634E-01  0.29686460297E-02 -0.36250715897E-01  0.44304476399E-01  0.51100000000E-03 0.  1.
</event>
<event>
 8    1  0.1132492E+005  0.1043930E+01  0.7957747E-01            NaN
         13   -1    0    0    0    0  0.00000000000E+00  0.00000000000E+00  0.74505805969E-08  0.10566000000E+00  0.10566000000E+00 0.  1.
     999900   -1    0    0    0    0 -0.00000000000E+00 -0.00000000000E+00 -0.74505805969E-08  0.93827000000E+00  0.93827000000E+00 0.  1.
     999902    2    1    2    0    0 -0.37233230273E-02  0.10313586083E-01 -0.21362066754E-01  0.10199181053E+01  0.10196354105E+01 0.  0.
     999903    2    3    3    0    0  0.12414808691E+00 -0.22319575174E-01 -0.21983726672E-01  0.13007744136E+00  0.22933503717E-01 0.  0.
         14    1    1    2    0    0  0.37233230273E-02 -0.10313586083E-01  0.21362066754E-01  0.24011894725E-01  0.00000000000E+00 0.  1.
     999901    1    3    3    0    0 -0.12787140994E+00  0.32633161258E-01  0.62165991758E-03  0.88984066391E+00  0.88000000000E+00 0.  1.
        -11    1    4    4    0    0  0.59935139486E-01 -0.22143967354E-01 -0.84745210780E-02  0.64456612259E-01  0.51100000000E-03 0. -1.
         11    1    4    4    0    0  0.64212947426E-01 -0.17560781987E-03 -0.13509205594E-01  0.65620829102E-01  0.51100000000E-03 0.  1.
</event>
<event>
 8    1  0.1132492E+005  0.1043930E+01  0.7957747E-01            NaN
         13   -1    0    0    0    0  0.00000000000E+00  0.00000000000E+00  0.74505805969E-08  0.10566000000E+00  0.10566000000E+00 0. -1.
     999900   -1    0    0    0    0 -0.00000000000E+00 -0.00000000000E+00 -0.74505805969E-08  0.93827000000E+00  0.93827000000E+00 0.  1.
     999902    2    1    2    0    0 -0.19892707689E-01  0.11545463580E-01  0.49368600680E-02  0.10204057543E+01  0.10201345565E+01 0.  0.
     999903    2    3    3    0    0 -0.63827806885E-01  0.11470320389E+00  0.12378099830E-01  0.13326022826E+00  0.19345727320E-01 0.  0.
         14    1    1    2    0    0  0.19892707689E-01 -0.11545463580E-01 -0.49368600680E-02  0.23524245702E-01  0.00000000000E+00 0.  1.
     999901    1    3    3    0    0  0.43935099195E-01 -0.10315774031E+00 -0.74412397619E-02  0.88714552604E+00  0.88000000000E+00 0.  1.
        -11    1    4    4    0    0 -0.21299706003E-01  0.23334763713E-01 -0.87365895583E-03  0.31610331765E-01  0.51100000000E-03 0.  1.
         11    1    4    4    0    0 -0.42528100882E-01  0.91368440176E-01  0.13251758786E-01  0.10164989649E+00  0.51100000000E-03 0. -1.
</event>
<event>
 8    1  0.1132492E+005  0.1043930E+01  0.7957747E-01            NaN
         13   -1    0    0    0    0  0.00000000000E+00  0.00000000000E+00  0.74505805969E-08  0.10566000000E+00  0.10566000000E+00 0.  1.
     999900   -1    0    0    0    0 -0.00000000000E+00 -0.00000000000E+00 -0.74505805969E-08  0.93827000000E+00  0.93827000000E+00 0. -1.
     999902    2    1    2    0    0  0.52796434123E-02 -0.99876402460E-02  0.21369300867E-01  0.10197582270E+01  0.10194717097E+01 0.  0.
     999903    2    3    3    0    0 -0.57241467189E-01  0.63000804068E-01 -0.93712508938E-01  0.12707685871E+00  0.10991215096E-01 0.  0.
         14    1    1    2    0    0 -0.52796434123E-02  0.99876402460E-02 -0.21369300867E-01  0.24171773038E-01  0.00000000000E+00 0. -1.
     999901    1    3    3    0    0  0.62521110601E-01 -0.72988444314E-01  0.11508180981E+00  0.89268136825E+00  0.88000000000E+00 0.  1.
        -11    1    4    4    0    0 -0.34451748341E-01  0.43369732577E-01 -0.66125930488E-01  0.86259819565E-01  0.51100000000E-03 0. -1.
         11    1    4    4    0    0 -0.22789718848E-01  0.19631071492E-01 -0.27586578451E-01  0.40817039147E-01  0.51100000000E-03 0.  1.
</event>
<event>
 8    1  0.1132492E+005  0.1043930E+01  0.7957747E-01            NaN
         13   -1    0    0    0    0  0.00000000000E+00  0.00000000000E+00  0.74505805969E-08  0.10566000000E+00  0.10566000000E+00 0. -1.
     999900   -1    0    0    0    0 -0.00000000000E+00 -0.00000000000E+00 -0.74505805969E-08  0.93827000000E+00  0.93827000000E+00 0. -1.
     999902    2    1    2    0    0  0.14769841143E-01  0.11450422157E-01 -0.27873228403E-01  0.10103714357E+01  0.10098139734E+01 0.  0.
     999903    2    3    3    0    0 -0.90428319543E-01 -0.35418697163E-01 -0.70508420052E-01  0.12184393084E+00  0.21041413941E-01 0.  0.
         14    1    1    2    0    0 -0.14769841143E-01 -0.11450422157E-01  0.27873228403E-01  0.33558564280E-01  0.00000000000E+00 0. -1.
     999901    1    3    3    0    0  0.10519816069E+00  0.46869119320E-01  0.42635191649E-01  0.88852750488E+00  0.88000000000E+00 0.  1.
        -11    1    4    4    0    0 -0.68513258751E-01 -0.35665307276E-01 -0.51582196992E-01  0.92881994678E-01  0.51100000000E-03 0. -1.
         11    1    4    4    0    0 -0.21915060792E-01  0.24661011262E-03 -0.18926223060E-01  0.28961936164E-01  0.51100000000E-03 0.  1.
</event>
<event>
 8    1  0.1132492E+005  0.1043930E+01  0.7957747E-01            NaN
         13   -1    0    0    0    0  0.00000000000E+00  0.00000000000E+00  0.74505805969E-08  0.10566000000E+00  0.10566000000E+00 0. -1.
     999900   -1    0    0    0    0 -0.00000000000E+00 -0.00000000000E+00 -0.74505805969E-08  0.93827000000E+00  0.93827000000E+00 0.  1.
     999902    2    1    2    0    0  0.15025623103E-01 -0.59733612164E-02  0.18743231970E-01  0.10191760278E+01  0.10188753685E+01 0.  0.
     999903    2    3    3    0    0  0.88152136351E-02  0.92146334216E-01 -0.85541797596E-01  0.12758115838E+00  0.19771139014E-01 0.  0.
         14    1    1    2    0    0 -0.15025623103E-01  0.59733612164E-02 -0.18743231970E-01  0.24753972177E-01  0.00000000000E+00 0.  1.
     999901    1    3    3    0    0  0.62104094676E-02 -0.98119695433E-01  0.10428502957E+00  0.89159486944E+00  0.88000000000E+00 0. -1.
        -11    1    4    4    0    0  0.80187207745E-02  0.34409212409E-01 -0.21553698040E-01  0.41389815193E-01  0.51100000000E-03 0.  1.
         11    1    4    4    0    0  0.79649286058E-03  0.57737121807E-01 -0.63988099557E-01  0.86191343192E-01  0.51100000000E-03 0. -1.
</event>
<event>
 8    1  0.1132492E+005  0.1043930E+01  0.7957747E-01            NaN
         13   -1    0    0    0    0  0.00000000000E+00  0.00000000000E+00  0.74505805969E-08  0.10566000000E+00  0.10566000000E+00 0.  1.
     999900   -1    0    0    0    0 -0.00000000000E+00 -0.00000000000E+00 -0.74505805969E-08  0.93827000000E+00  0.93827000000E+00 0. -1.
     999902    2    1    2    0    0  0.14531319166E-02  0.12540350620E-01  0.18560771954E-01  0.10214828567E+01  0.10212361883E+01 0.  0.
     999903    2    3    3    0    0  0.10716832122E+00 -0.71960523759E-01  0.11623530427E-01  0.13110977517E+00  0.19781320291E-01 0.  0.
         14    1    1    2    0    0 -0.14531319166E-02 -0.12540350620E-01 -0.18560771954E-01  0.22447143283E-01  0.00000000000E+00 0. -1.
     999901    1    3    3    0    0 -0.10571518931E+00  0.84500874378E-01  0.69372415277E-02  0.89037308155E+00  0.88000000000E+00 0. -1.
        -11    1    4    4    0    0  0.93114156087E-01 -0.66449987246E-01  0.46919603222E-02  0.11449070915E+00  0.51100000000E-03 0.  1.
         11    1    4    4    0    0  0.14054165136E-01 -0.55105365122E-02  0.69315701044E-02  0.16619066022E-01  0.51100000000E-03 0. -1.
</event>
<event>
 8    1  0.1132492E+005  0.1043930E+01  0.7957747E-01            NaN
         13   -1    0    0    0    0  0.00000000000E+00  0.00000000000E+00  0.74505805969E-08  0.10566000000E+00  0.10566000000E+00 0.  1.
     999900   -1    0    0    0    0 -0.00000000000E+00 -0.00000000000E+00 -0.74505805969E-08  0.93827000000E+00  0.93827000000E+00 0.  1.
     999902    2    1    2    0    0 -0.25657284250E-01  0.13464001598E-02 -0.15436000586E-02  0.10181910853E+01  0.10178657055E+01 0.  0.
     999903    2    3    3    0    0 -0.64837435110E-01 -0.82933530522E-01  0.73639834326E-01  0.13010846542E+00  0.20579701119E-01 0.  0.
         14    1    1    2    0    0  0.25657284250E-01 -0.13464001598E-02  0.15436000586E-02  0.25738914693E-01  0.00000000000E+00 0.  1.
     999901    1    3    3    0    0  0.39180150861E-01  0.84279930682E-01 -0.75183434385E-01  0.88808261989E+00  0.88000000000E+00 0.  1.
        -11    1    4    4    0    0 -0.48061549800E-01 -0.46216015211E-01  0.41864448979E-01  0.78731987403E-01  0.51100000000E-03 0.  1.
         11    1    4    4    0    0 -0.16775885310E-01 -0.36717515311E-01  0.31775385347E-01  0.51376478018E-01  0.51100000000E-03 0. -1.
</event>
<event>
 8    1  0.1132492E+005  0.1043930E+01  0.7957747E-01            NaN
         13   -1    0    0    0    0  0.00000000000E+00  0.00000000000E+00  0.74505805969E-08  0.10566000000E+00  0.10566000000E+00 0. -1.
     999900   -1    0    0    0    0 -0.00000000000E+00 -0.00000000000E+00 -0.74505805969E-08  0.93827000000E+00  0.93827000000E+00 0. -1.
     999902    2    1    2    0    0  0.23331792255E-02 -0.20219165443E-01 -0.11877126784E-01  0.10203646755E+01  0.10200925186E+01 0.  0.
     999903    2    3    3    0    0  0.45666059156E-01 -0.25333492765E-01  0.11812208273E+00  0.12974484121E+00  0.12398490927E-01 0.  0.
         14    1    1    2    0    0 -0.23331792255E-02  0.20219165443E-01  0.11877126784E-01  0.23565324465E-01  0.00000000000E+00 0. -1.
     999901    1    3    3    0    0 -0.43332879930E-01  0.51143273224E-02 -0.12999920951E+00  0.89061983433E+00  0.88000000000E+00 0. -1.
        -11    1    4    4    0    0  0.26470927560E-02  0.11661878795E-02  0.95357351819E-02  0.99778986108E-02  0.51100000000E-03 0.  1.
         11    1    4    4    0    0  0.43018966400E-01 -0.26499680645E-01  0.10858634755E+00  0.11976694260E+00  0.51100000000E-03 0. -1.
</event>
<event>
 8    1  0.1132492E+005  0.1043930E+01  0.7957747E-01            NaN
         13   -1    0    0    0    0  0.00000000000E+00  0.00000000000E+00  0.74505805969E-08  0.10566000000E+00  0.10566000000E+00 0. -1.
     999900   -1    0    0    0    0 -0.00000000000E+00 -0.00000000000E+00 -0.74505805969E-08  0.93827000000E+00  0.93827000000E+00 0.  1.
     999902    2    1    2    0    0 -0.12157285977E-01  0.20314849056E-01 -0.16223438216E-02  0.10201997515E+01  0.10199237267E+01 0.  0.
     999903    2    3    3    0    0  0.99905365018E-01 -0.76911546470E-01  0.73160818870E-02  0.12773635999E+00  0.19146400929E-01 0.  0.
         14    1    1    2    0    0  0.12157285977E-01 -0.20314849056E-01  0.16223438216E-02  0.23730248502E-01  0.00000000000E+00 0. -1.
     999901    1    3    3    0    0 -0.11206265100E+00  0.97226395525E-01 -0.89384257086E-02  0.89246339151E+00  0.88000000000E+00 0.  1.
        -11    1    4    4    0    0  0.54621269986E-01 -0.39616935725E-01 -0.54470529952E-02  0.67697239519E-01  0.51100000000E-03 0. -1.
         11    1    4    4    0    0  0.45284095032E-01 -0.37294610744E-01  0.12763134882E-01  0.60039120467E-01  0.51100000000E-03 0.  1.
</event>
<event>
 8    1  0.1132492E+005  0.1043930E+01  0.7957747E-01            NaN
         13   -1    0    0    0    0  0.00000000000E+00  0.00000000000E+00  0.74505805969E-08  0.10566000000E+00  0.10566000000E+00 0. -1.
     999900   -1    0    0    0    0 -0.00000000000E+00 -0.00000000000E+00 -0.74505805969E-08  0.93827000000E+00  0.93827000000E+00 0.  1.
     999902    2    1    2    0    0  0.97876458229E-02  0.20034520471E-01 -0.66866401016E-02  0.10206514438E+01  0.10203859459E+01 0.  0.
     999903    2    3    3    0    0  0.72562003498E-01  0.90125775587E-01 -0.64169577181E-01  0.13377056566E+00  0.19721303797E-01 0.  0.
         14    1    1    2    0    0 -0.97876458229E-02 -0.20034520471E-01  0.66866401016E-02  0.23278556165E-01  0.00000000000E+00 0. -1.
     999901    1    3    3    0    0 -0.62774357675E-01 -0.70091255116E-01  0.57482937080E-01  0.88688087818E+00  0.88000000000E+00 0.  1.
        -11    1    4    4    0    0  0.37242864265E-01  0.38916672763E-01 -0.39718399585E-01  0.66927951890E-01  0.51100000000E-03 0. -1.
         11    1    4    4    0    0  0.35319139233E-01  0.51209102824E-01 -0.24451177597E-01  0.66842613766E-01  0.51100000000E-03 0.  1.
</event>
<event>
 8    1  0.1132492E+005  0.1043930E+01  0.7957747E-01            NaN
         13   -1    0    0    0    0  0.00000000000E+00  0.00000000000E+00  0.74505805969E-08  0.10566000000E+00  0.10566000000E+00 0. -1.
     999900   -1    0    0    0    0 -0.00000000000E+00 -0.00000000000E+00 -0.74505805969E-08  0.93827000000E+00  0.93827000000E+00 0. -1.
     999902    2    1    2    0    0  0.60816338668E-02  0.15662287334E-01  0.17364715708E-01  0.10197674905E+01  0.10194811954E+01 0.  0.
     999903    2    3    3    0    0 -0.54661409636E-01  0.39721836640E-02  0.11827256418E+00  0.13184363690E+00  0.19766062034E-01 0.  0.
         14    1    1    2    0    0 -0.60816338668E-02 -0.15662287334E-01 -0.17364715708E-01  0.24162509527E-01  0.00000000000E+00 0. -1.
     999901    1    3    3    0    0  0.60743043503E-01  0.11690103670E-01 -0.10090784847E+00  0.88792385357E+00  0.88000000000E+00 0. -1.
        -11    1    4    4    0    0 -0.11783709253E-01  0.87592580163E-02  0.23548770912E-01  0.27755830689E-01  0.51100000000E-03 0. -1.
         11    1    4    4    0    0 -0.42877700383E-01 -0.47870743523E-02  0.94723793264E-01  0.10408780621E+00  0.51100000000E-03 0.  1.
</event>
<event>
 8    1  0.1132492E+005  0.1043930E+01  0.7957747E-01            NaN
         13   -1    0    0    0    0  0.00000000000E+00  0.00000000000E+00  0.74505805969E-08  0.10566000000E+00  0.10566000000E+00 0.  1.
     999900   -1    0    0    0    0 -0.00000000000E+00 -0.00000000000E+00 -0.74505805969E-08  0.93827000000E+00  0.93827000000E+00 0. -1.
     999902    2    1    2    0    0  0.11640000432E-01  0.16819626206E-01 -0.10742578518E-01  0.10208260517E+01  0.10205645670E+01 0.  0.
     999903    2    3    3    0    0  0.94715432420E-01 -0.78316890311E-01 -0.41965341745E-01  0.13126023334E+00  0.19068573691E-01 0.  0.
         14    1    1    2    0    0 -0.11640000432E-01 -0.16819626206E-01  0.10742578518E-01  0.23103948341E-01  0.00000000000E+00 0.  1.
     999901    1    3    3    0    0 -0.83075431989E-01  0.95136516516E-01  0.31222763226E-01  0.88956581832E+00  0.88000000000E+00 0. -1.
        -11    1    4    4    0    0  0.21645536118E-01 -0.11549945435E-01 -0.14646343901E-01  0.28578085731E-01  0.51100000000E-03 0.  1.
         11    1    4    4    0    0  0.73069896302E-01 -0.66766944876E-01 -0.27318997843E-01  0.10268214761E+00  0.51100000000E-03 0. -1.
</event>
<event>
 8    1  0.1132492E+005  0.1043930E+01  0.7957747E-01            NaN
         13   -1    0    0    0    0  0.00000000000E+00  0.00000000000E+00  0.74505805969E-08  0.10566000000E+00  0.10566000000E+00 0. -1.
     999900   -1    0    0    0    0 -0.00000000000E+00 -0.00000000000E+00 -0.74505805969E-08  0.93827000000E+00  0.93827000000E+00 0.  1.
     999902    2    1    2    0    0  0.54196082277E-02 -0.15816170420E-01  0.17246279229E-01  0.10199100594E+01  0.10196271729E+01 0.  0.
     999903    2    3    3    0    0 -0.43041655852E-01  0.11584171524E+00  0.30226773471E-01  0.12870257164E+00  0.19462964421E-01 0.  0.
         14    1    1    2    0    0 -0.54196082277E-02  0.15816170420E-01 -0.17246279229E-01  0.24019940619E-01  0.00000000000E+00 0.  1.
     999901    1    3    3    0    0  0.48461264080E-01 -0.13165788566E+00 -0.12980494243E-01  0.89120748774E+00  0.88000000000E+00 0.  1.
        -11    1    4    4    0    0 -0.25944218547E-01  0.82617981222E-01  0.13048734513E-01  0.87574904457E-01  0.51100000000E-03 0.  1.
         11    1    4    4    0    0 -0.17097437305E-01  0.33223734019E-01  0.17178038958E-01  0.41127667184E-01  0.51100000000E-03 0. -1.
</event>
<event>
 8    1  0.1132492E+005  0.1043930E+01  0.7957747E-01            NaN
         13   -1    0    0    0    0  0.00000000000E+00  0.00000000000E+00  0.74505805969E-08  0.10566000000E+00  0.10566000000E+00 0. -1.
     999900   -1    0    0    0    0 -0.00000000000E+00 -0.00000000000E+00 -0.74505805969E-08  0.93827000000E+00  0.93827000000E+00 0. -1.
     999902    2    1    2    0    0  0.25366512607E-02  0.23318733573E-01  0.85159426776E-03  0.10204582479E+01  0.10201882731E+01 0.  0.
     999903    2    3    3    0    0 -0.76314617670E-01  0.66905960700E-01 -0.81875134021E-01  0.13199829911E+00  0.20486213661E-01 0.  0.
         14    1    1    2    0    0 -0.25366512607E-02 -0.23318733573E-01 -0.85159426776E-03  0.23471752126E-01  0.00000000000E+00 0. -1.
     999901    1    3    3    0    0  0.78851268931E-01 -0.43587227127E-01  0.82726728289E-01  0.88845994876E+00  0.88000000000E+00 0.  1.
        -11    1    4    4    0    0 -0.56199587935E-01  0.60084416601E-01 -0.66068619133E-01  0.10551708088E+00  0.51100000000E-03 0. -1.
         11    1    4    4    0    0 -0.20115029736E-01  0.68215440999E-02 -0.15806514888E-01  0.26481218232E-01  0.51100000000E-03 0.  1.
</event>
<event>
 8    1  0.1132492E+005  0.1043930E+01  0.7957747E-01            NaN
         13   -1    0    0    0    0  0.00000000000E+00  0.00000000000E+00  0.74505805969E-08  0.10566000000E+00  0.10566000000E+00 0.  1.
     999900   -1    0    0    0    0 -0.00000000000E+00 -0.00000000000E+00 -0.74505805969E-08  0.93827000000E+00  0.93827000000E+00 0. -1.
     999902    2    1    2    0    0  0.36615841434E-02 -0.18992905712E-01 -0.98408344004E-02  0.10222279336E+01  0.10219975384E+01 0.  0.
     999903    2    3    3    0    0  0.20268461413E-01 -0.56431608665E-01  0.11621843383E+00  0.13230187823E+00  0.20043094516E-01 0.  0.
         14    1    1    2    0    0 -0.36615841434E-02  0.18992905712E-01  0.98408344004E-02  0.21702066435E-01  0.00000000000E+00 0. -1.
     999901    1    3    3    0    0 -0.16606877270E-01  0.37438702953E-01 -0.12605926823E+00  0.88992605533E+00  0.88000000000E+00 0. -1.
        -11    1    4    4    0    0  0.87314658700E-02 -0.38070288146E-01  0.91053968463E-01  0.99079118030E-01  0.51100000000E-03 0.  1.
         11    1    4    4    0    0  0.11536995543E-01 -0.18361320519E-01  0.25164465367E-01  0.33222760204E-01  0.51100000000E-03 0. -1.
</event>
<event>
 8    1  0.1132492E+005  0.1043930E+01  0.7957747E-01            NaN
         13   -1    0    0    0    0  0.00000000000E+00  0.00000000000E+00  0.74505805969E-08  0.10566000000E+00  0.10566000000E+00 0. -1.
     999900   -1    0    0    0    0 -0.00000000000E+00 -0.00000000000E+00 -0.74505805969E-08  0.93827000000E+00  0.93827000000E+00 0.  1.
     999902    2    1    2    0    0  0.35615049014E-02 -0.66856606012E-02 -0.21984277241E-01  0.10206772406E+01  0.10204123375E+01 0.  0.
     999903    2    3    3    0    0 -0.93780430477E-01  0.73976851144E-01 -0.49837925560E-01  0.13120676951E+00  0.21541910198E-01 0.  0.
         14    1    1    2    0    0 -0.35615049014E-02  0.66856606012E-02  0.21984277241E-01  0.23252759420E-01  0.00000000000E+00 0. -1.
     999901    1    3    3    0    0  0.97341935378E-01 -0.80662511745E-01  0.27853648319E-01  0.88947047107E+00  0.88000000000E+00 0. -1.
        -11    1    4    4    0    0 -0.45520407526E-01  0.30486985529E-01 -0.33494069857E-01  0.64215867390E-01  0.51100000000E-03 0. -1.
         11    1    4    4    0    0 -0.48260022951E-01  0.43489865615E-01 -0.16343855703E-01  0.66990902119E-01  0.51100000000E-03 0.  1.
</event>
<event>
 8    1  0.1132492E+005  0.1043930E+01  0.7957747E-01            NaN
         13   -1    0    0    0    0  0.00000000000E+00  0.00000000000E+00  0.74505805969E-08  0.10566000000E+00  0.10566000000E+00 0.  1.
     999900   -1    0    0    0    0 -0.00000000000E+00 -0.00000000000E+00 -0.74505805969E-08  0.93827000000E+00  0.93827000000E+00 0. -1.
     999902    2    1    2    0    0  0.81586744561E-03  0.21232223524E-01 -0.11208960802E-01  0.10199068079E+01  0.10196238439E+01 0.  0.
     999903    2    3    3    0    0 -0.39960449735E-01 -0.11813732780E+00 -0.18319369821E-01  0.12797792186E+00  0.22124271963E-01 0.  0.
         14    1    1    2    0    0 -0.81586744561E-03 -0.21232223524E-01  0.11208960802E-01  0.24023192080E-01  0.00000000000E+00 0.  1.
     999901    1    3    3    0    0  0.40776317181E-01  0.13936955132E+00  0.71104090195E-02  0.89192888606E+00  0.88000000000E+00 0. -1.
        -11    1    4    4    0    0 -0.64842466996E-02 -0.53204856260E-01 -0.82062660306E-02  0.54225511598E-01  0.51100000000E-03 0. -1.
         11    1    4    4    0    0 -0.33476203036E-01 -0.64932471537E-01 -0.10113103791E-01  0.73752410258E-01  0.51100000000E-03 0.  1.
</event>
<event>
 8    1  0.1132492E+005  0.1043930E+01  0.7957747E-01            NaN
         13   -1    0    0    0    0  0.00000000000E+00  0.00000000000E+00  0.74505805969E-08  0.10566000000E+00  0.10566000000E+00 0. -1.
     999900   -1    0    0    0    0 -0.00000000000E+00 -0.00000000000E+00 -0.74505805969E-08  0.93827000000E+00  0.93827000000E+00 0. -1.
     999902    2    1    2    0    0  0.10011426444E-01  0.22280476683E-01 -0.15362832987E-02  0.10194553505E+01  0.10191615197E+01 0.  0.
     999903    2    3    3    0    0 -0.54318380298E-02 -0.44032288017E-01 -0.11950799817E+00  0.12897615217E+00  0.19604564536E-01 0.  0.
         14    1    1    2    0    0 -0.10011426444E-01 -0.22280476683E-01  0.15362832987E-02  0.24474649478E-01  0.00000000000E+00 0.  1.
     999901    1    3    3    0    0  0.15443264474E-01  0.66312764700E-01  0.11797171487E+00  0.89047919835E+00  0.88000000000E+00 0.  1.
        -11    1    4    4    0    0 -0.36291714889E-03 -0.41287068657E-01 -0.91634082108E-01  0.10050781000E+00  0.51100000000E-03 0.  1.
         11    1    4    4    0    0 -0.50689208809E-02 -0.27452193593E-02 -0.27873916063E-01  0.28468342170E-01  0.51100000000E-03 0. -1.
</event>
<event>
 8    1  0.1132492E+005  0.1043930E+01  0.7957747E-01            NaN
         13   -1    0    0    0    0  0.00000000000E+00  0.00000000000E+00  0.74505805969E-08  0.10566000000E+00  0.10566000000E+00 0. -1.
     999900   -1    0    0    0    0 -0.00000000000E+00 -0.00000000000E+00 -0.74505805969E-08  0.93827000000E+00  0.93827000000E+00 0. -1.
     999902    2    1    2    0    0 -0.13824498176E-01 -0.10650479703E-02  0.18810256174E-01  0.10205617135E+01  0.10202941410E+01 0.  0.
     999903    2    3    3    0    0  0.40262794397E-01  0.11340152816E+00  0.47045872901E-01  0.13105326366E+00  0.21923607299E-01 0.  0.
         14    1    1    2    0    0  0.13824498176E-01  0.10650479703E-02 -0.18810256174E-01  0.23368286508E-01  0.00000000000E+00 0.  1.
     999901    1    3    3    0    0 -0.54087292573E-01 -0.11446657613E+00 -0.28235616728E-01  0.88950844983E+00  0.88000000000E+00 0.  1.
        -11    1    4    4    0    0  0.20898800605E-01  0.85790807635E-01  0.29966274033E-01  0.93247312250E-01  0.51100000000E-03 0.  1.
         11    1    4    4    0    0  0.19363993792E-01  0.27610720526E-01  0.17079598868E-01  0.37805951411E-01  0.51100000000E-03 0. -1.
</event>
<event>
 8    1  0.1132492E+005  0.1043930E+01  0.7957747E-01            NaN
         13   -1    0    0    0    0  0.00000000000E+00  0.00000000000E+00  0.74505805969E-08  0.10566000000E+00  0.10566000000E+00 0.  1.
     999900   -1    0    0    0    0 -0.00000000000E+00 -0.00000000000E+00 -0.74505805969E-08  0.93827000000E+00  0.93827000000E+00 0. -1.
     999902    2    1    2    0    0  0.14536671212E-01  0.17297102366E-01 -0.88869624386E-02  0.10196507360E+01  0.10193616339E+01 0.  0.
     999903    2    3    3    0    0  0.93807171502E-01  0.83352712393E-01 -0.38892324238E-01  0.13311394736E+00  0.21430119199E-01 0.  0.
         14    1    1    2    0    0 -0.14536671212E-01 -0.17297102366E-01  0.88869624386E-02  0.24279264024E-01  0.00000000000E+00 0.  1.
     999901    1    3    3    0    0 -0.79270500290E-01 -0.66055610027E-01  0.30005361799E-01  0.88653678862E+00  0.88000000000E+00 0. -1.
        -11    1    4    4    0    0  0.45912883785E-01  0.48111628332E-01 -0.10910435107E-01  0.67394513081E-01  0.51100000000E-03 0.  1.
         11    1    4    4    0    0  0.47894287716E-01  0.35241084061E-01 -0.27981889131E-01  0.65719434279E-01  0.51100000000E-03 0. -1.
</event>
<event>
 8    1  0.1132492E+005  0.1043930E+01  0.7957747E-01            NaN
         13   -1    0    0    0    0  0.00000000000E+00  0.00000000000E+00  0.74505805969E-08  0.10566000000E+00  0.10566000000E+00 0.  1.
     999900   -1    0    0    0    0 -0.00000000000E+00 -0.00000000000E+00 -0.74505805969E-08  0.93827000000E+00  0.93827000000E+00 0.  1.
     999902    2    1    2    0    0  0.18503426247E-01 -0.12410657207E-01 -0.73516416434E-02  0.10204683754E+01  0.10201986362E+01 0.  0.
     999903    2    3    3    0    0 -0.48631838426E-01 -0.10489707320E+00 -0.59433718685E-01  0.13155138057E+00  0.20123298397E-01 0.  0.
         14    1    1    2    0    0 -0.18503426247E-01  0.12410657207E-01  0.73516416434E-02  0.23461624626E-01  0.00000000000E+00 0.  1.
     999901    1    3    3    0    0  0.67135264673E-01  0.92486415992E-01  0.52082077042E-01  0.88891699481E+00  0.88000000000E+00 0.  1.
        -11    1    4    4    0    0 -0.46570582155E-01 -0.82701113015E-01 -0.45474170501E-01  0.10524473631E+00  0.51100000000E-03 0.  1.
         11    1    4    4    0    0 -0.20612562708E-02 -0.22195960184E-01 -0.13959548184E-01  0.26306644263E-01  0.51100000000E-03 0. -1.
</event>
<event>
 8    1  0.1132492E+005  0.1043930E+01  0.7957747E-01            NaN
         13   -1    0    0    0    0  0.00000000000E+00  0.00000000000E+00  0.74505805969E-08  0.10566000000E+00  0.10566000000E+00 0.  1.
     999900   -1    0    0    0    0 -0.00000000000E+00 -0.00000000000E+00 -0.74505805969E-08  0.93827000000E+00  0.93827000000E+00 0. -1.
     999902    2    1    2    0    0 -0.50182413384E-02 -0.58674972280E-02 -0.21670871075E-01  0.10209248501E+01  0.10206656223E+01 0.  0.
     999903    2    3    3    0    0  0.10313948432E+00  0.67751739563E-01 -0.39272393633E-01  0.13107784118E+00  0.20273828121E-01 0.  0.
         14    1    1    2    0    0  0.50182413384E-02  0.58674972280E-02  0.21670871075E-01  0.23005149923E-01  0.00000000000E+00 0.  1.
     999901    1    3    3    0    0 -0.10815772566E+00 -0.73619236791E-01  0.17601522558E-01  0.88984700890E+00  0.88000000000E+00 0.  1.
        -11    1    4    4    0    0  0.10018419664E+00  0.67111119179E-01 -0.41229447934E-01  0.12743980568E+00  0.51100000000E-03 0.  1.
         11    1    4    4    0    0  0.29552876832E-02  0.64062038356E-03  0.19570543008E-02  0.36380355005E-02  0.51100000000E-03 0. -1.
</event>
<event>
 8    1  0.1132492E+005  0.1043930E+01  0.7957747E-01            NaN
         13   -1    0    0    0    0  0.00000000000E+00  0.00000000000E+00  0.74505805969E-08  0.10566000000E+00  0.10566000000E+00 0. -1.
     999900   -1    0    0    0    0 -0.00000000000E+00 -0.00000000000E+00 -0.74505805969E-08  0.93827000000E+00  0.93827000000E+00 0.  1.
     999902    2    1    2    0    0 -0.15439348420E-01 -0.82770457664E-02 -0.15646060442E-01  0.10204420845E+01  0.10201717334E+01 0.  0.
     999903    2    3    3    0    0 -0.51822955774E-01 -0.13837175382E-01  0.11642366209E+00  0.12982595311E+00  0.20572380436E-01 0.  0.
         14    1    1    2    0    0  0.15439348420E-01  0.82770457664E-02  0.15646060442E-01  0.23487915480E-01  0.00000000000E+00 0. -1.
     999901    1    3    3    0    0  0.36383607355E-01  0.55601296159E-02 -0.13206972253E+00  0.89061613141E+00  0.88000000000E+00 0.  1.
        -11    1    4    4    0    0 -0.19414798124E-01 -0.61294060067E-02  0.68472100575E-01  0.71436641034E-01  0.51100000000E-03 0.  1.
         11    1    4    4    0    0 -0.32408157651E-01 -0.77077693757E-02  0.47951561519E-01  0.58389312071E-01  0.51100000000E-03 0. -1.
</event>
<event>
 8    1  0.1132492E+005  0.1043930E+01  0.7957747E-01            NaN
         13   -1    0    0    0    0  0.00000000000E+00  0.00000000000E+00  0.74505805969E-08  0.10566000000E+00  0.10566000000E+00 0.  1.
     999900   -1    0    0    0    0 -0.00000000000E+00 -0.00000000000E+00 -0.74505805969E-08  0.93827000000E+00  0.93827000000E+00 0.  1.
     999902    2    1    2    0    0 -0.93568341005E-02 -0.52075228260E-02  0.21654647863E-01  0.10197723426E+01  0.10194861638E+01 0.  0.
     999903    2    3    3    0    0  0.67821312215E-02  0.11462924747E+00  0.59101478892E-01  0.13071464879E+00  0.20185958548E-01 0.  0.
         14    1    1    2    0    0  0.93568341005E-02  0.52075228260E-02 -0.21654647863E-01  0.24157657428E-01  0.00000000000E+00 0. -1.
     999901    1    3    3    0    0 -0.16138965322E-01 -0.11983677029E+00 -0.37446831029E-01  0.88905769378E+00  0.88000000000E+00 0.  1.
        -11    1    4    4    0    0  0.10574674157E-02  0.96450632488E-01  0.42388399988E-01  0.10536071526E+00  0.51100000000E-03 0.  1.
         11    1    4    4    0    0  0.57246638058E-02  0.18178614979E-01  0.16713078904E-01  0.25353933535E-01  0.51100000000E-03 0. -1.
</event>
<event>
 8    1  0.1132492E+005  0.1043930E+01  0.7957747E-01            NaN
         13   -1    0    0    0    0  0.00000000000E+00  0.00000000000E+00  0.74505805969E-08  0.10566000000E+00  0.10566000000E+00 0. -1.
     999900   -1    0    0    0    0 -0.00000000000E+00 -0.00000000000E+00 -0.74505805969E-08  0.93827000000E+00  0.93827000000E+00 0.  1.
     999902    2    1    2    0    0  0.17053359967E-01  0.14706378004E-01  0.70397459634E-02  0.10203365123E+01  0.10200636968E+01 0.  0.
     999903    2    3    3    0    0  0.96426189409E-02 -0.10347994019E-01 -0.12721836252E+00  0.12977046736E+00  0.21349504848E-01 0.  0.
         14    1    1    2    0    0 -0.17053359967E-01 -0.14706378004E-01 -0.70397459634E-02  0.23593487733E-01  0.00000000000E+00 0. -1.
     999901    1    3    3    0    0  0.74107410262E-02  0.25054372023E-01  0.13425810848E+00  0.89056604490E+00  0.88000000000E+00 0. -1.
        -11    1    4    4    0    0  0.12452828812E-01  0.14673424194E-02 -0.81644748327E-01  0.82603584000E-01  0.51100000000E-03 0.  1.
         11    1    4    4    0    0 -0.28102098711E-02 -0.11815336439E-01 -0.45573614194E-01  0.47166883365E-01  0.51100000000E-03 0. -1.
</event>
<event>
 8    1  0.1132492E+005  0.1043930E+01  0.7957747E-01            NaN
         13   -1    0    0    0    0  0.00000000000E+00  0.00000000000E+00  0.74505805969E-08  0.10566000000E+00  0.10566000000E+00 0. -1.
     999900   -1    0    0    0    0 -0.00000000000E+00 -0.00000000000E+00 -0.74505805969E-08  0.93827000000E+00  0.93827000000E+00 0.  1.
     999902    2    1    2    0    0 -0.69250496803E-02  0.23003847325E-01 -0.27684653630E-02  0.10197474090E+01  0.10194606322E+01 0.  0.
     999903    2    3    3    0    0 -0.49441691221E-01 -0.80782350463E-01 -0.85009479338E-01  0.12882495224E+00  0.19974678104E-01 0.  0.
         14    1    1    2    0    0  0.69250496803E-02 -0.23003847325E-01  0.27684653630E-02  0.24182590955E-01  0.00000000000E+00 0.  1.
     999901    1    3    3    0    0  0.42516641540E-01  0.10378619779E+00  0.82241013975E-01  0.89092245680E+00  0.88000000000E+00 0. -1.
        -11    1    4    4    0    0 -0.59068355200E-02 -0.20353331091E-01 -0.27520510607E-01  0.34738860336E-01  0.51100000000E-03 0. -1.
         11    1    4    4    0    0 -0.43534855701E-01 -0.60429019372E-01 -0.57488968731E-01  0.94086091905E-01  0.51100000000E-03 0.  1.
</event>
<event>
 8    1  0.1132492E+005  0.1043930E+01  0.7957747E-01            NaN
         13   -1    0    0    0    0  0.00000000000E+00  0.00000000000E+00  0.74505805969E-08  0.10566000000E+00  0.10566000000E+00 0. -1.
     999900   -1    0    0    0    0 -0.00000000000E+00 -0.00000000000E+00 -0.74505805969E-08  0.93827000000E+00  0.93827000000E+00 0.  1.
     999902    2    1    2    0    0 -0.26070636716E-01 -0.12803270524E-02 -0.34752543499E-02  0.10175976106E+01  0.10172568518E+01 0.  0.
     999903    2    3    3    0    0  0.16630993908E-01  0.34432761004E-02 -0.12453958665E+00  0.12827072236E+00  0.25589518604E-01 0.  0.
         14    1    1    2    0    0  0.26070636716E-01  0.12803270524E-02  0.34752543499E-02  0.26332389351E-01  0.00000000000E+00 0. -1.
     999901    1    3    3    0    0 -0.42701630623E-01 -0.47236031528E-02  0.12106433230E+00  0.88932688829E+00  0.88000000000E+00 0. -1.
        -11    1    4    4    0    0  0.19500172677E-01  0.11152183574E-01 -0.90542539964E-01  0.93289016486E-01  0.51100000000E-03 0.  1.
         11    1    4    4    0    0 -0.28691787689E-02 -0.77089074736E-02 -0.33997046686E-01  0.34981705871E-01  0.51100000000E-03 0. -1.
</event>
<event>
 8    1  0.1132492E+005  0.1043930E+01  0.7957747E-01            NaN
         13   -1    0    0    0    0  0.00000000000E+00  0.00000000000E+00  0.74505805969E-08  0.10566000000E+00  0.10566000000E+00 0. -1.
     999900   -1    0    0    0    0 -0.00000000000E+00 -0.00000000000E+00 -0.74505805969E-08  0.93827000000E+00  0.93827000000E+00 0. -1.
     999902    2    1    2    0    0  0.14903727891E-01 -0.92788042406E-02  0.15129651786E-01  0.10207540712E+01  0.10204909359E+01 0.  0.
     999903    2    3    3    0    0  0.12540606863E+00 -0.22282329585E-01  0.33198551078E-01  0.13356393142E+00  0.22671473748E-01 0.  0.
         14    1    1    2    0    0 -0.14903727891E-01  0.92788042406E-02 -0.15129651786E-01  0.23175928813E-01  0.00000000000E+00 0.  1.
     999901    1    3    3    0    0 -0.11050234074E+00  0.13003525344E-01 -0.18068899292E-01  0.88719013977E+00  0.88000000000E+00 0.  1.
        -11    1    4    4    0    0  0.11545845723E+00 -0.18951986268E-01  0.36481335120E-01  0.12256011611E+00  0.51100000000E-03 0.  1.
         11    1    4    4    0    0  0.99476114029E-02 -0.33303433170E-02 -0.32827840421E-02  0.11003815306E-01  0.51100000000E-03 0. -1.
</event>
<event>
 8    1  0.1132492E+005  0.1043930E+01  0.7957747E-01            NaN
         13   -1    0    0    0    0  0.00000000000E+00  0.00000000000E+00  0.74505805969E-08  0.10566000000E+00  0.10566000000E+00 0.  1.
     999900   -1    0    0    0    0 -0.00000000000E+00 -0.00000000000E+00 -0.74505805969E-08  0.93827000000E+00  0.93827000000E+00 0. -1.
     999902    2    1    2    0    0 -0.29687541720E-03  0.21748648015E-01 -0.77193046128E-02  0.10208501497E+01  0.10205892164E+01 0.  0.
     999903    2    3    3    0    0 -0.62766993169E-01 -0.89755566177E-01  0.64536841930E-01  0.12868611989E+00  0.19983903412E-01 0.  0.
         14    1    1    2    0    0  0.29687541720E-03 -0.21748648015E-01  0.77193046128E-02  0.23079850285E-01  0.00000000000E+00 0.  1.
     999901    1    3    3    0    0  0.62470117751E-01  0.11150421419E+00 -0.72256146543E-01  0.89216402982E+00  0.88000000000E+00 0. -1.
        -11    1    4    4    0    0 -0.20772776072E-01 -0.34224285200E-01  0.34528784646E-01  0.52870672526E-01  0.51100000000E-03 0. -1.
         11    1    4    4    0    0 -0.41994217096E-01 -0.55531280977E-01  0.30008057284E-01  0.75815447366E-01  0.51100000000E-03 0.  1.
</event>
<event>
 8    1  0.1132492E+005  0.1043930E+01  0.7957747E-01            NaN
         13   -1    0    0    0    0  0.00000000000E+00  0.00000000000E+00  0.74505805969E-08  0.10566000000E+00  0.10566000000E+00 0.  1.
     999900   -1    0    0    0    0 -0.00000000000E+00 -0.00000000000E+00 -0.74505805969E-08  0.93827000000E+00  0.93827000000E+00 0.  1.
     999902    2    1    2    0    0  0.23812454378E-03  0.23638577093E-01  0.23052891032E-02  0.10201780866E+01  0.10199015517E+01 0.  0.
     999903    2    3    3    0    0 -0.52624792772E-01  0.99418211402E-01 -0.66605349296E-01  0.13266148562E+00  0.22570946812E-01 0.  0.
         14    1    1    2    0    0 -0.23812454378E-03 -0.23638577093E-01 -0.23052891032E-02  0.23751913357E-01  0.00000000000E+00 0.  1.
     999901    1    3    3    0    0  0.52862917316E-01 -0.75779634309E-01  0.68910638400E-01  0.88751660102E+00  0.88000000000E+00 0. -1.
        -11    1    4    4    0    0 -0.31991468356E-01  0.74970391023E-01 -0.38814599068E-01  0.90282045831E-01  0.51100000000E-03 0.  1.
         11    1    4    4    0    0 -0.20633324416E-01  0.24447820379E-01 -0.27790750228E-01  0.42379439791E-01  0.51100000000E-03 0. -1.
</event>
<event>
 8    1  0.1132492E+005  0.1043930E+01  0.7957747E-01            NaN
         13   -1    0    0    0    0  0.00000000000E+00  0.00000000000E+00  0.74505805969E-08  0.10566000000E+00  0.10566000000E+00 0. -1.
     999900   -1    0    0    0    0 -0.00000000000E+00 -0.00000000000E+00 -0.74505805969E-08  0.93827000000E+00  0.93827000000E+00 0. -1.
     999902    2    1    2    0    0 -0.94826928280E-02  0.20813136510E-01 -0.57850092458E-02  0.10203381699E+01  0.10200653933E+01 0.  0.
     999903    2    3    3    0    0 -0.12669088746E+00  0.29500959880E-01 -0.14587649215E-01  0.13248079081E+00  0.20432151773E-01 0.  0.
         14    1    1    2    0    0  0.94826928280E-02 -0.20813136510E-01  0.57850092458E-02  0.23591830082E-01  0.00000000000E+00 0. -1.
     999901    1    3    3    0    0  0.11720819463E+00 -0.86878233696E-02  0.88026399691E-02  0.88785737911E+00  0.88000000000E+00 0.  1.
        -11    1    4    4    0    0 -0.64234636197E-01  0.11108737034E-01 -0.16846040686E-01  0.67331587934E-01  0.51100000000E-03 0.  1.
         11    1    4    4    0    0 -0.62456251259E-01  0.18392222845E-01  0.22583914714E-02  0.65149202878E-01  0.51100000000E-03 0. -1.
</event>
<event>
 8    1  0.1132492E+005  0.1043930E+01  0.7957747E-01            NaN
         13   -1    0    0    0    0  0.00000000000E+00  0.00000000000E+00  0.74505805969E-08  0.10566000000E+00  0.10566000000E+00 0.  1.
     999900   -1    0    0    0    0 -0.00000000000E+00 -0.00000000000E+00 -0.74505805969E-08  0.93827000000E+00  0.93827000000E+00 0.  1.
     999902    2    1    2    0    0 -0.11284975691E-01  0.18281706868E-01 -0.11715371085E-01  0.10194591724E+01  0.10191654345E+01 0.  0.
     999903    2    3    3    0    0  0.99494526192E-01 -0.43938528794E-01  0.62784339586E-01  0.12721836264E+00  0.20319533481E-01 0.  0.
         14    1    1    2    0    0  0.11284975691E-01 -0.18281706868E-01  0.11715371085E-01  0.24470827571E-01  0.00000000000E+00 0.  1.
     999901    1    3    3    0    0 -0.11077950188E+00  0.62220235662E-01 -0.74499710671E-01  0.89224080979E+00  0.88000000000E+00 0.  1.
        -11    1    4    4    0    0  0.69433412100E-01 -0.33773115878E-01  0.54210042723E-01  0.94343054461E-01  0.51100000000E-03 0.  1.
         11    1    4    4    0    0  0.30061114092E-01 -0.10165412916E-01  0.85742968631E-02  0.32875308179E-01  0.51100000000E-03 0. -1.
</event>
<event>
 8    1  0.1132492E+005  0.1043930E+01  0.7957747E-01            NaN
         13   -1    0    0    0    0  0.00000000000E+00  0.00000000000E+00  0.74505805969E-08  0.10566000000E+00  0.10566000000E+00 0. -1.
     999900   -1    0    0    0    0 -0.00000000000E+00 -0.00000000000E+00 -0.74505805969E-08  0.93827000000E+00  0.93827000000E+00 0.  1.
     999902    2    1    2    0    0 -0.20807100717E-01  0.12657077656E-01 -0.45756162534E-03  0.10195712969E+01  0.10192802770E+01 0.  0.
     999903    2    3    3    0    0  0.70882638826E-01 -0.90294996540E-01 -0.51522865787E-01  0.12737524040E+00  0.19806849315E-01 0.  0.
         14    1    1    2    0    0  0.20807100717E-01 -0.12657077656E-01  0.45756162534E-03  0.24358703119E-01  0.00000000000E+00 0. -1.
     999901    1    3    3    0    0 -0.91689739543E-01  0.10295207420E+00  0.51065304161E-01  0.89219605649E+00  0.88000000000E+00 0. -1.
        -11    1    4    4    0    0  0.19691051998E-01 -0.37539056197E-01 -0.12774052310E-01  0.44275905438E-01  0.51100000000E-03 0. -1.
         11    1    4    4    0    0  0.51191586829E-01 -0.52755940343E-01 -0.38748813477E-01  0.83099334958E-01  0.51100000000E-03 0.  1.
</event>
<event>
 8    1  0.1132492E+005  0.1043930E+01  0.7957747E-01            NaN
         13   -1    0    0    0    0  0.00000000000E+00  0.00000000000E+00  0.74505805969E-08  0.10566000000E+00  0.10566000000E+00 0. -1.
     999900   -1    0    0    0    0 -0.00000000000E+00 -0.00000000000E+00 -0.74505805969E-08  0.93827000000E+00  0.93827000000E+00 0.  1.
     999902    2    1    2    0    0  0.23827350156E-01  0.65601540895E-02 -0.56441055690E-02  0.10185797699E+01  0.10182642651E+01 0.  0.
     999903    2    3    3    0    0  0.87757569764E-01 -0.84858859739E-01  0.33144459616E-01  0.13068953918E+00  0.32844837043E-01 0.  0.
         14    1    1    2    0    0 -0.23827350156E-01 -0.65601540895E-02  0.56441055690E-02  0.25350230074E-01  0.00000000000E+00 0.  1.
     999901    1    3    3    0    0 -0.63930219608E-01  0.91419013828E-01 -0.38788565185E-01  0.88789023075E+00  0.88000000000E+00 0.  1.
        -11    1    4    4    0    0  0.63208540851E-01 -0.39183749049E-01  0.15998849533E-01  0.76071743331E-01  0.51100000000E-03 0.  1.
         11    1    4    4    0    0  0.24549028913E-01 -0.45675110690E-01  0.17145610083E-01  0.54617795848E-01  0.51100000000E-03 0. -1.
</event>
<event>
 8    1  0.1132492E+005  0.1043930E+01  0.7957747E-01            NaN
         13   -1    0    0    0    0  0.00000000000E+00  0.00000000000E+00  0.74505805969E-08  0.10566000000E+00  0.10566000000E+00 0. -1.
     999900   -1    0    0    0    0 -0.00000000000E+00 -0.00000000000E+00 -0.74505805969E-08  0.93827000000E+00  0.93827000000E+00 0.  1.
     999902    2    1    2    0    0 -0.18440899288E-01  0.17551462003E-01  0.15544791834E-02  0.10184243734E+01  0.10181049392E+01 0.  0.
     999903    2    3    3    0    0  0.11008391540E+00 -0.33285930759E-01 -0.46206183084E-01  0.12635702760E+00  0.24589946173E-01 0.  0.
         14    1    1    2    0    0  0.18440899288E-01 -0.17551462003E-01 -0.15544791834E-02  0.25505626644E-01  0.00000000000E+00 0.  1.
     999901    1    3    3    0    0 -0.12852481469E+00  0.50837392762E-01  0.47760662267E-01  0.89206734575E+00  0.88000000000E+00 0.  1.
        -11    1    4    4    0    0  0.26117801422E-01 -0.17841804380E-01 -0.18245550172E-01  0.36518909578E-01  0.51100000000E-03 0.  1.
         11    1    4    4    0    0  0.83966113982E-01 -0.15444126378E-01 -0.27960632912E-01  0.89838118027E-01  0.51100000000E-03 0. -1.
</event>
<event>
 8    1  0.1132492E+005  0.1043930E+01  0.7957747E-01            NaN
         13   -1    0    0    0    0  0.00000000000E+00  0.00000000000E+00  0.74505805969E-08  0.10566000000E+00  0.10566000000E+00 0.  1.
     999900   -1    0    0    0    0 -0.00000000000E+00 -0.00000000000E+00 -0.74505805969E-08  0.93827000000E+00  0.93827000000E+00 0. -1.
     999902    2    1    2    0    0  0.23035189591E-01 -0.58382299299E-03  0.55704482166E-02  0.10202236569E+01  0.10199481945E+01 0.  0.
     999903    2    3    3    0    0  0.87837162047E-01  0.15738146970E-01  0.96586410601E-01  0.13300913509E+00  0.19985970046E-01 0.  0.
         14    1    1    2    0    0 -0.23035189591E-01  0.58382299299E-03 -0.55704482166E-02  0.23706343078E-01  0.00000000000E+00 0. -1.
     999901    1    3    3    0    0 -0.64801972456E-01 -0.16321969963E-01 -0.91015962385E-01  0.88721452183E+00  0.88000000000E+00 0.  1.
        -11    1    4    4    0    0  0.77324605122E-01  0.13651685961E-01  0.73515219306E-01  0.10756491843E+00  0.51100000000E-03 0. -1.
         11    1    4    4    0    0  0.10512556925E-01  0.20864610094E-02  0.23071191295E-01  0.25444216659E-01  0.51100000000E-03 0.  1.
</event>
<event>
 8    1  0.1132492E+005  0.1043930E+01  0.7957747E-01            NaN
         13   -1    0    0    0    0  0.00000000000E+00  0.00000000000E+00  0.74505805969E-08  0.10566000000E+00  0.10566000000E+00 0. -1.
     999900   -1    0    0    0    0 -0.00000000000E+00 -0.00000000000E+00 -0.74505805969E-08  0.93827000000E+00  0.93827000000E+00 0. -1.
     999902    2    1    2    0    0  0.13309441307E-02 -0.23772481416E-01 -0.26394876931E-02  0.10199744332E+01  0.10196930789E+01 0.  0.
     999903    2    3    3    0    0  0.12010993225E+00  0.43545786418E-01  0.38659983178E-02  0.12942262756E+00  0.20313523613E-01 0.  0.
         14    1    1    2    0    0 -0.13309441307E-02  0.23772481416E-01  0.26394876931E-02  0.23955566790E-01  0.00000000000E+00 0.  1.
     999901    1    3    3    0    0 -0.11877898812E+00 -0.67318267834E-01 -0.65054860109E-02  0.89055180565E+00  0.88000000000E+00 0. -1.
        -11    1    4    4    0    0  0.77859188908E-01  0.28486516531E-01 -0.72006929587E-02  0.83220466363E-01  0.51100000000E-03 0.  1.
         11    1    4    4    0    0  0.42250743339E-01  0.15059269887E-01  0.11066691277E-01  0.46202161195E-01  0.51100000000E-03 0. -1.
</event>
<event>
 8    1  0.1132492E+005  0.1043930E+01  0.7957747E-01            NaN
         13   -1    0    0    0    0  0.00000000000E+00  0.00000000000E+00  0.74505805969E-08  0.10566000000E+00  0.10566000000E+00 0. -1.
     999900   -1    0    0    0    0 -0.00000000000E+00 -0.00000000000E+00 -0.74505805969E-08  0.93827000000E+00  0.93827000000E+00 0.  1.
     999902    2    1    2    0    0 -0.94307910025E-02 -0.22703360513E-01  0.13737736893E-02  0.10193074564E+01  0.10190100201E+01 0.  0.
     999903    2    3    3    0    0  0.39399624732E-01 -0.36293670195E-01  0.11634046006E+00  0.13038313739E+00  0.24394649879E-01 0.  0.
         14    1    1    2    0    0  0.94307910025E-02  0.22703360513E-01 -0.13737736893E-02  0.24622543566E-01  0.00000000000E+00 0. -1.
     999901    1    3    3    0    0 -0.48830415735E-01  0.13590309682E-01 -0.11496668637E+00  0.88892431905E+00  0.88000000000E+00 0.  1.
        -11    1    4    4    0    0  0.12837687106E-01 -0.29911216955E-02  0.48616975184E-01  0.50374839119E-01  0.51100000000E-03 0.  1.
         11    1    4    4    0    0  0.26561937626E-01 -0.33302548499E-01  0.67723484875E-01  0.80008298268E-01  0.51100000000E-03 0. -1.
</event>
<event>
 8    1  0.1132492E+005  0.1043930E+01  0.7957747E-01            NaN
         13   -1    0    0    0    0  0.00000000000E+00  0.00000000000E+00  0.74505805969E-08  0.10566000000E+00  0.10566000000E+00 0. -1.
     999900   -1    0    0    0    0 -0.00000000000E+00 -0.00000000000E+00 -0.74505805969E-08  0.93827000000E+00  0.93827000000E+00 0.  1.
     999902    2    1    2    0    0  0.10225977984E-02  0.10364142581E-01 -0.21796140389E-01  0.10197735745E+01  0.10194874253E+01 0.  0.
     999903    2    3    3    0    0  0.46553099527E-01  0.14627639758E-01  0.11640399842E+00  0.12781478488E+00  0.20138755261E-01 0.  0.
         14    1    1    2    0    0 -0.10225977984E-02 -0.10364142581E-01  0.21796140389E-01  0.24156425513E-01  0.00000000000E+00 0. -1.
     999901    1    3    3    0    0 -0.45530501728E-01 -0.42634971770E-02 -0.13820013881E+00  0.89195878961E+00  0.88000000000E+00 0.  1.
        -11    1    4    4    0    0  0.27238717589E-01 -0.19668062095E-02  0.59287740964E-01  0.65277204384E-01  0.51100000000E-03 0. -1.
         11    1    4    4    0    0  0.19314381938E-01  0.16594445968E-01  0.57116257460E-01  0.62537580492E-01  0.51100000000E-03 0.  1.
</event>
<event>
 8    1  0.1132492E+005  0.1043930E+01  0.7957747E-01            NaN
         13   -1    0    0    0    0  0.00000000000E+00  0.00000000000E+00  0.74505805969E-08  0.10566000000E+00  0.10566000000E+00 0. -1.
     999900   -1    0    0    0    0 -0.00000000000E+00 -0.00000000000E+00 -0.74505805969E-08  0.93827000000E+00  0.93827000000E+00 0. -1.
     999902    2    1    2    0    0 -0.42603524185E-02 -0.10989806500E-01  0.20707431421E-01  0.10201030370E+01  0.10198247310E+01 0.  0.
     999903    2    3    3    0    0  0.16773102523E-01 -0.12730738888E+00 -0.19192954307E-01  0.13130371939E+00  0.19590533420E-01 0.  0.
         14    1    1    2    0    0  0.42603524185E-02  0.10989806500E-01 -0.20707431421E-01  0.23826962998E-01  0.00000000000E+00 0.  1.
     999901    1    3    3    0    0 -0.21033454942E-01  0.11631758238E+00  0.39900385728E-01  0.88879931761E+00  0.88000000000E+00 0. -1.
        -11    1    4    4    0    0 -0.35590177254E-02 -0.17024256020E-01  0.68241203717E-03  0.17413176258E-01  0.51100000000E-03 0.  1.
         11    1    4    4    0    0  0.20332120249E-01 -0.11028313286E+00 -0.19875366345E-01  0.11389054314E+00  0.51100000000E-03 0. -1.
</event>
<event>
 8    1  0.1132492E+005  0.1043930E+01  0.7957747E-01            NaN
         13   -1    0    0    0    0  0.00000000000E+00  0.00000000000E+00  0.74505805969E-08  0.10566000000E+00  0.10566000000E+00 0. -1.
     999900   -1    0    0    0    0 -0.00000000000E+00 -0.00000000000E+00 -0.74505805969E-08  0.93827000000E+00  0.93827000000E+00 0. -1.
     999902    2    1    2    0    0 -0.88685884917E-02  0.55215731944E-02 -0.20786383790E-01  0.10206660067E+01  0.10204008447E+01 0.  0.
     999903    2    3    3    0    0 -0.45783678734E-02  0.50941643034E-01 -0.12159452241E+00  0.13373665804E+00  0.22005757783E-01 0.  0.
         14    1    1    2    0    0  0.88685884917E-02 -0.55215731944E-02  0.20786383790E-01  0.23263993282E-01  0.00000000000E+00 0. -1.
     999901    1    3    3    0    0 -0.42902206184E-02 -0.45420069840E-01  0.10080813862E+00  0.88692934868E+00  0.88000000000E+00 0.  1.
        -11    1    4    4    0    0  0.68690833274E-02  0.68526969962E-02 -0.15754493424E-01  0.18509698699E-01  0.51100000000E-03 0.  1.
         11    1    4    4    0    0 -0.11447451201E-01  0.44088946038E-01 -0.10584002899E+00  0.11522695934E+00  0.51100000000E-03 0. -1.
</event>
<event>
 8    1  0.1132492E+005  0.1043930E+01  0.7957747E-01            NaN
         13   -1    0    0    0    0  0.00000000000E+00  0.00000000000E+00  0.74505805969E-08  0.10566000000E+00  0.10566000000E+00 0. -1.
     999900   -1    0    0    0    0 -0.00000000000E+00 -0.00000000000E+00 -0.74505805969E-08  0.93827000000E+00  0.93827000000E+00 0. -1.
     999902    2    1    2    0    0 -0.17528195367E-01  0.16970454395E-01 -0.40078795969E-02  0.10192055778E+01  0.10189056447E+01 0.  0.
     999903    2    3    3    0    0  0.92326468705E-01  0.77553709679E-01  0.41780685773E-01  0.12912975474E+00  0.19751282182E-01 0.  0.
         14    1    1    2    0    0  0.17528195367E-01 -0.16970454395E-01  0.40078795969E-02  0.24724422219E-01  0.00000000000E+00 0. -1.
     999901    1    3    3    0    0 -0.10985466407E+00 -0.60583255284E-01 -0.45788565370E-01  0.89007582304E+00  0.88000000000E+00 0.  1.
        -11    1    4    4    0    0  0.45102941503E-01  0.25571170005E-01  0.20357100624E-01  0.55703076526E-01  0.51100000000E-03 0.  1.
         11    1    4    4    0    0  0.47223527202E-01  0.51982539674E-01  0.21423585149E-01  0.73426678217E-01  0.51100000000E-03 0. -1.
</event>
<event>
 8    1  0.1132492E+005  0.1043930E+01  0.7957747E-01            NaN
         13   -1    0    0    0    0  0.00000000000E+00  0.00000000000E+00  0.74505805969E-08  0.10566000000E+00  0.10566000000E+00 0.  1.
     999900   -1    0    0    0    0 -0.00000000000E+00 -0.00000000000E+00 -0.74505805969E-08  0.93827000000E+00  0.93827000000E+00 0.  1.
     999902    2    1    2    0    0  0.15168587970E-01 -0.92332935216E-02 -0.18711979401E-01  0.10181331408E+01  0.10178062755E+01 0.  0.
     999903    2    3    3    0    0  0.21559218043E-01 -0.11622749071E+00 -0.52699906697E-01  0.13097826281E+00  0.20109591792E-01 0.  0.
         14    1    1    2    0    0 -0.15168587970E-01  0.92332935216E-02  0.18711979401E-01  0.25796859177E-01  0.00000000000E+00 0.  1.
     999901    1    3    3    0    0 -0.63906300725E-02  0.10699419719E+00  0.33987927296E-01  0.88715487802E+00  0.88000000000E+00 0. -1.
        -11    1    4    4    0    0  0.21956281427E-01 -0.10363370100E+00 -0.52806808706E-01  0.11836740448E+00  0.51100000000E-03 0.  1.
         11    1    4    4    0    0 -0.39706338419E-03 -0.12593789710E-01  0.10690200912E-03  0.12610858323E-01  0.51100000000E-03 0. -1.
</event>
<event>
 8    1  0.1132492E+005  0.1043930E+01  0.7957747E-01            NaN
         13   -1    0    0    0    0  0.00000000000E+00  0.00000000000E+00  0.74505805969E-08  0.10566000000E+00  0.10566000000E+00 0.  1.
     999900   -1    0    0    0    0 -0.00000000000E+00 -0.00000000000E+00 -0.74505805969E-08  0.93827000000E+00  0.93827000000E+00 0.  1.
     999902    2    1    2    0    0 -0.10747837390E-01 -0.20399805819E-01 -0.21937318039E-02  0.10207679503E+01  0.10205051337E+01 0.  0.
     999903    2    3    3    0    0 -0.35847713658E-01  0.10130770120E+00  0.68980497485E-01  0.12919154195E+00  0.19591747749E-01 0.  0.
         14    1    1    2    0    0  0.10747837390E-01  0.20399805819E-01  0.21937318039E-02  0.23162049678E-01  0.00000000000E+00 0.  1.
     999901    1    3    3    0    0  0.25099876268E-01 -0.12170750702E+00 -0.71174229289E-01  0.89157640837E+00  0.88000000000E+00 0.  1.
        -11    1    4    4    0    0 -0.25429613027E-01  0.70585903715E-01  0.37079592974E-01  0.83691053035E-01  0.51100000000E-03 0.  1.
         11    1    4    4    0    0 -0.10418100631E-01  0.30721797489E-01  0.31900904511E-01  0.45500488913E-01  0.51100000000E-03 0. -1.
</event>
<event>
 8    1  0.1132492E+005  0.1043930E+01  0.7957747E-01            NaN
         13   -1    0    0    0    0  0.00000000000E+00  0.00000000000E+00  0.74505805969E-08  0.10566000000E+00  0.10566000000E+00 0.  1.
     999900   -1    0    0    0    0 -0.00000000000E+00 -0.00000000000E+00 -0.74505805969E-08  0.93827000000E+00  0.93827000000E+00 0. -1.
     999902    2    1    2    0    0 -0.93618562732E-02  0.22234408803E-01  0.22593412189E-02  0.10196994839E+01  0.10194115555E+01 0.  0.
     999903    2    3    3    0    0  0.20444816701E-03 -0.92602473512E-01 -0.85878482797E-01  0.12782096093E+00  0.19693256335E-01 0.  0.
         14    1    1    2    0    0  0.93618562732E-02 -0.22234408803E-01 -0.22593412189E-02  0.24230516099E-01  0.00000000000E+00 0.  1.
     999901    1    3    3    0    0 -0.95663044402E-02  0.11483688231E+00  0.88137824016E-01  0.89187852297E+00  0.88000000000E+00 0. -1.
        -11    1    4    4    0    0 -0.48706322482E-02 -0.14186356761E-01 -0.21580725355E-01  0.26286205593E-01  0.51100000000E-03 0. -1.
         11    1    4    4    0    0  0.50750804152E-02 -0.78416116751E-01 -0.64297757442E-01  0.10153475533E+00  0.51100000000E-03 0.  1.
</event>
<event>
 8    1  0.1132492E+005  0.1043930E+01  0.7957747E-01            NaN
         13   -1    0    0    0    0  0.00000000000E+00  0.00000000000E+00  0.74505805969E-08  0.10566000000E+00  0.10566000000E+00 0. -1.
     999900   -1    0    0    0    0 -0.00000000000E+00 -0.00000000000E+00 -0.74505805969E-08  0.93827000000E+00  0.93827000000E+00 0.  1.
     999902    2    1    2    0    0  0.17318451658E-01  0.99870308410E-02  0.13351627884E-01  0.10198897105E+01  0.10196063388E+01 0.  0.
     999903    2    3    3    0    0 -0.10337362311E+00 -0.19574011684E-01 -0.68998844587E-01  0.12735285832E+00  0.19714514464E-01 0.  0.
         14    1    1    2    0    0 -0.17318451658E-01 -0.99870308410E-02 -0.13351627884E-01  0.24040289516E-01  0.00000000000E+00 0.  1.
     999901    1    3    3    0    0  0.12069207477E+00  0.29561042525E-01  0.82350472471E-01  0.89253685216E+00  0.88000000000E+00 0. -1.
        -11    1    4    4    0    0 -0.14196890431E-01 -0.68003439886E-03 -0.17858414575E-01  0.22829766465E-01  0.51100000000E-03 0.  1.
         11    1    4    4    0    0 -0.89176732679E-01 -0.18893977286E-01 -0.51140430012E-01  0.10452309186E+00  0.51100000000E-03 0. -1.
</event>
<event>
 8    1  0.1132492E+005  0.1043930E+01  0.7957747E-01            NaN
         13   -1    0    0    0    0  0.00000000000E+00  0.00000000000E+00  0.74505805969E-08  0.10566000000E+00  0.10566000000E+00 0. -1.
     999900   -1    0    0    0    0 -0.00000000000E+00 -0.00000000000E+00 -0.74505805969E-08  0.93827000000E+00  0.93827000000E+00 0.  1.
     999902    2    1    2    0    0  0.15412832624E-01  0.16071212217E-01 -0.55979797526E-02  0.10209696723E+01  0.10207114651E+01 0.  0.
     999903    2    3    3    0    0 -0.70544994064E-01  0.10860094093E+00 -0.21002813119E-01  0.13181962445E+00  0.12827106972E-01 0.  0.
         14    1    1    2    0    0 -0.15412832624E-01 -0.16071212217E-01  0.55979797526E-02  0.22960327718E-01  0.00000000000E+00 0.  1.
     999901    1    3    3    0    0  0.85957826687E-01 -0.92529728715E-01  0.15404833367E-01  0.88915004783E+00  0.88000000000E+00 0. -1.
        -11    1    4    4    0    0 -0.69548522333E-02  0.17073256550E-01 -0.58219634912E-02  0.19339659736E-01  0.51100000000E-03 0.  1.
         11    1    4    4    0    0 -0.63590141830E-01  0.91527684381E-01 -0.15180849628E-01  0.11247996472E+00  0.51100000000E-03 0. -1.
</event>
<event>
 8    1  0.1132492E+005  0.1043930E+01  0.7957747E-01            NaN
         13   -1    0    0    0    0  0.00000000000E+00  0.00000000000E+00  0.74505805969E-08  0.10566000000E+00  0.10566000000E+00 0.  1.
     999900   -1    0    0    0    0 -0.00000000000E+00 -0.00000000000E+00 -0.74505805969E-08  0.93827000000E+00  0.93827000000E+00 0.  1.
     999902    2    1    2    0    0 -0.71326312178E-02  0.13774041914E-02  0.21971556685E-01  0.10207886739E+01  0.10205263327E+01 0.  0.
     999903    2    3    3    0    0  0.18233568030E-01 -0.64107514847E-01  0.11362726422E+00  0.13324572429E+00  0.20025768501E-01 0.  0.
         14    1    1    2    0    0  0.71326312178E-02 -0.13774041914E-02 -0.21971556685E-01  0.23141326097E-01  0.00000000000E+00 0. -1.
     999901    1    3    3    0    0 -0.25366199248E-01  0.65484919038E-01 -0.91655707535E-01  0.88754294961E+00  0.88000000000E+00 0.  1.
        -11    1    4    4    0    0  0.10212024878E-01 -0.85487721341E-02  0.25123459130E-01  0.28439695441E-01  0.51100000000E-03 0.  1.
         11    1    4    4    0    0  0.80215431519E-02 -0.55558742713E-01  0.88503805090E-01  0.10480602885E+00  0.51100000000E-03 0. -1.
</event>
<event>
 8    1  0.1132492E+005  0.1043930E+01  0.7957747E-01            NaN
         13   -1    0    0    0    0  0.00000000000E+00  0.00000000000E+00  0.74505805969E-08  0.10566000000E+00  0.10566000000E+00 0. -1.
     999900   -1    0    0    0    0 -0.00000000000E+00 -0.00000000000E+00 -0.74505805969E-08  0.93827000000E+00  0.93827000000E+00 0.  1.
     999902    2    1    2    0    0 -0.15756685678E-01  0.12233933690E-01  0.12748442874E-01  0.10202558565E+01  0.10199811506E+01 0.  0.
     999903    2    3    3    0    0 -0.27108331267E-01 -0.54605469162E-01  0.11553130558E+00  0.13168358449E+00  0.16627235737E-01 0.  0.
         14    1    1    2    0    0  0.15756685678E-01 -0.12233933690E-01 -0.12748442874E-01  0.23674143549E-01  0.00000000000E+00 0.  1.
     999901    1    3    3    0    0  0.11351645589E-01  0.66839402852E-01 -0.10278286271E+00  0.88857227196E+00  0.88000000000E+00 0.  1.
        -11    1    4    4    0    0 -0.16473983700E-02 -0.16136355386E-01  0.40144260809E-01  0.43300331216E-01  0.51100000000E-03 0. -1.
         11    1    4    4    0    0 -0.25460932897E-01 -0.38469113776E-01  0.75387044773E-01  0.88383253274E-01  0.51100000000E-03 0.  1.
</event>
<event>
 8    1  0.1132492E+005  0.1043930E+01  0.7957747E-01            NaN
         13   -1    0    0    0    0  0.00000000000E+00  0.00000000000E+00  0.74505805969E-08  0.10566000000E+00  0.10566000000E+00 0. -1.
     999900   -1    0    0    0    0 -0.00000000000E+00 -0.00000000000E+00 -0.74505805969E-08  0.93827000000E+00  0.93827000000E+00 0. -1.
     999902    2    1    2    0    0  0.53697838235E-02 -0.24890155516E-02 -0.21026136234E-01  0.10220867360E+01  0.10218533005E+01 0.  0.
     999903    2    3    3    0    0 -0.82102681321E-01 -0.10104795949E+00 -0.77972374954E-02  0.13217645888E+00  0.21407451286E-01 0.  0.
         14    1    1    2    0    0 -0.53697838235E-02  0.24890155516E-02  0.21026136234E-01  0.21843263988E-01  0.00000000000E+00 0. -1.
     999901    1    3    3    0    0  0.87472465145E-01  0.98558943942E-01 -0.13228898739E-01  0.88991027714E+00  0.88000000000E+00 0. -1.
        -11    1    4    4    0    0 -0.68365563366E-02 -0.12360351079E-01 -0.71793314629E-02  0.15853097571E-01  0.51100000000E-03 0.  1.
         11    1    4    4    0    0 -0.75266124985E-01 -0.88687608415E-01 -0.61790603258E-03  0.11632336131E+00  0.51100000000E-03 0. -1.
</event>
<event>
 8    1  0.1322261E+005  0.1043930E+01  0.7957747E-01            NaN
         13   -1    0    0    0    0  0.00000000000E+00  0.00000000000E+00  0.74505805969E-08  0.10566000000E+00  0.10566000000E+00 0.  1.
     999900   -1    0    0    0    0 -0.00000000000E+00 -0.00000000000E+00 -0.74505805969E-08  0.93827000000E+00  0.93827000000E+00 0. -1.
     999902    2    1    2    0    0 -0.83903982735E-02  0.19296454498E-01  0.15682750048E-01  0.10176868945E+01  0.10173484725E+01 0.  0.
     999903    2    3    3    0    0  0.31007045636E-01 -0.11930838468E+00 -0.12511219716E-01  0.12552190974E+00  0.20082123185E-01 0.  0.
         14    1    1    2    0    0  0.83903982735E-02 -0.19296454498E-01 -0.15682750048E-01  0.26243105541E-01  0.00000000000E+00 0.  1.
     999901    1    3    3    0    0 -0.39397443909E-01  0.13860483918E+00  0.28193969764E-01  0.89216498472E+00  0.88000000000E+00 0.  1.
        -11    1    4    4    0    0  0.14081860193E-01 -0.88462407143E-01 -0.63885351824E-02  0.89805182293E-01  0.51100000000E-03 0. -1.
         11    1    4    4    0    0  0.16925185442E-01 -0.30845977537E-01 -0.61226845335E-02  0.35716727445E-01  0.51100000000E-03 0.  1.
</event>
<event>
 8    1  0.1132492E+005  0.1043930E+01  0.7957747E-01            NaN
         13   -1    0    0    0    0  0.00000000000E+00  0.00000000000E+00  0.74505805969E-08  0.10566000000E+00  0.10566000000E+00 0. -1.
     999900   -1    0    0    0    0 -0.00000000000E+00 -0.00000000000E+00 -0.74505805969E-08  0.93827000000E+00  0.93827000000E+00 0. -1.
     999902    2    1    2    0    0  0.21335368238E-01 -0.34580257106E-02 -0.88200056467E-02  0.10205858706E+01  0.10203188574E+01 0.  0.
     999903    2    3    3    0    0 -0.91676223925E-01  0.58520434276E-01 -0.67145173603E-01  0.12928638403E+00  0.19424816533E-01 0.  0.
         14    1    1    2    0    0 -0.21335368238E-01  0.34580257106E-02  0.88200056467E-02  0.23344129439E-01  0.00000000000E+00 0. -1.
     999901    1    3    3    0    0  0.11301159216E+00 -0.61978459987E-01  0.58325167957E-01  0.89129948653E+00  0.88000000000E+00 0.  1.
        -11    1    4    4    0    0 -0.59355648571E-01  0.29642594297E-01 -0.32965378435E-01  0.74086123601E-01  0.51100000000E-03 0.  1.
         11    1    4    4    0    0 -0.32320575355E-01  0.28877839980E-01 -0.34179795168E-01  0.55200260433E-01  0.51100000000E-03 0. -1.
</event>
<event>
 8    1  0.1132492E+005  0.1043930E+01  0.7957747E-01            NaN
         13   -1    0    0    0    0  0.00000000000E+00  0.00000000000E+00  0.74505805969E-08  0.10566000000E+00  0.10566000000E+00 0. -1.
     999900   -1    0    0    0    0 -0.00000000000E+00 -0.00000000000E+00 -0.74505805969E-08  0.93827000000E+00  0.93827000000E+00 0. -1.
     999902    2    1    2    0    0 -0.67021728212E-02 -0.19967927404E-01  0.95039015929E-02  0.10208223954E+01  0.10205608270E+01 0.  0.
     999903    2    3    3    0    0  0.10530478246E+00  0.47000225868E-01  0.56429981047E-01  0.12996194138E+00  0.20190220557E-01 0.  0.
         14    1    1    2    0    0  0.67021728212E-02  0.19967927404E-01 -0.95039015929E-02  0.23107604611E-01  0.00000000000E+00 0.  1.
     999901    1    3    3    0    0 -0.11200695528E+00 -0.66968153272E-01 -0.46926079454E-01  0.89086045401E+00  0.88000000000E+00 0. -1.
        -11    1    4    4    0    0  0.66313304487E-01  0.28924946389E-01  0.45999574754E-01  0.85734059009E-01  0.51100000000E-03 0. -1.
         11    1    4    4    0    0  0.38991477971E-01  0.18075279479E-01  0.10430406293E-01  0.44227882371E-01  0.51100000000E-03 0.  1.
</event>
<event>
 8    1  0.1132492E+005  0.1043930E+01  0.7957747E-01            NaN
         13   -1    0    0    0    0  0.00000000000E+00  0.00000000000E+00  0.74505805969E-08  0.10566000000E+00  0.10566000000E+00 0. -1.
     999900   -1    0    0    0    0 -0.00000000000E+00 -0.00000000000E+00 -0.74505805969E-08  0.93827000000E+00  0.93827000000E+00 0.  1.
     999902    2    1    2    0    0 -0.13137598555E-01 -0.17797201369E-01  0.83597696129E-02  0.10202821117E+01  0.10200080220E+01 0.  0.
     999903    2    3    3    0    0  0.63666645153E-01  0.10004986061E+00  0.45065548789E-01  0.12835490836E+00  0.19510574000E-01 0.  0.
         14    1    1    2    0    0  0.13137598555E-01  0.17797201369E-01 -0.83597696129E-02  0.23647888285E-01  0.00000000000E+00 0.  1.
     999901    1    3    3    0    0 -0.76804243708E-01 -0.11784706198E+00 -0.36705779176E-01  0.89192720336E+00  0.88000000000E+00 0.  1.
        -11    1    4    4    0    0  0.34258366552E-01  0.39461977415E-01  0.25928919100E-01  0.58339123297E-01  0.51100000000E-03 0.  1.
         11    1    4    4    0    0  0.29408278601E-01  0.60587883197E-01  0.19136629689E-01  0.70015785059E-01  0.51100000000E-03 0. -1.
</event>
<event>
 8    1  0.1132492E+005  0.1043930E+01  0.7957747E-01            NaN
         13   -1    0    0    0    0  0.00000000000E+00  0.00000000000E+00  0.74505805969E-08  0.10566000000E+00  0.10566000000E+00 0.  1.
     999900   -1    0    0    0    0 -0.00000000000E+00 -0.00000000000E+00 -0.74505805969E-08  0.93827000000E+00  0.93827000000E+00 0. -1.
     999902    2    1    2    0    0  0.97848254754E-02  0.22174250006E-01  0.10703891136E-02  0.10196692105E+01  0.10193805536E+01 0.  0.
     999903    2    3    3    0    0  0.81876472711E-01  0.90338064653E-01  0.48146525099E-01  0.13284359418E+00  0.21554812163E-01 0.  0.
         14    1    1    2    0    0 -0.97848254754E-02 -0.22174250006E-01 -0.10703891136E-02  0.24260789471E-01  0.00000000000E+00 0. -1.
     999901    1    3    3    0    0 -0.72091647236E-01 -0.68163814646E-01 -0.47076135985E-01  0.88682561635E+00  0.88000000000E+00 0. -1.
        -11    1    4    4    0    0  0.39352771919E-02  0.13717842176E-02  0.59085428928E-02  0.72484618114E-02  0.51100000000E-03 0. -1.
         11    1    4    4    0    0  0.77941195519E-01  0.88966280435E-01  0.42237982206E-01  0.12559513237E+00  0.51100000000E-03 0.  1.
</event>
<event>
 8    1  0.1132492E+005  0.1043930E+01  0.7957747E-01            NaN
         13   -1    0    0    0    0  0.00000000000E+00  0.00000000000E+00  0.74505805969E-08  0.10566000000E+00  0.10566000000E+00 0. -1.
     999900   -1    0    0    0    0 -0.00000000000E+00 -0.00000000000E+00 -0.74505805969E-08  0.93827000000E+00  0.93827000000E+00 0.  1.
     999902    2    1    2    0    0 -0.95545786512E-02  0.18513450016E-01  0.12278119795E-01  0.10197475677E+01  0.10194607947E+01 0.  0.
     999903    2    3    3    0    0 -0.10625867194E+00 -0.22813249911E-01 -0.68168755133E-01  0.12984236072E+00  0.20017735314E-01 0.  0.
         14    1    1    2    0    0  0.95545786512E-02 -0.18513450016E-01 -0.12278119795E-01  0.24182432268E-01  0.00000000000E+00 0. -1.
     999901    1    3    3    0    0  0.96704093286E-01  0.41326699928E-01  0.80446874927E-01  0.88990520701E+00  0.88000000000E+00 0. -1.
        -11    1    4    4    0    0 -0.88260791984E-01 -0.11279462670E-01 -0.52271006245E-01  0.10319744616E+00  0.51100000000E-03 0. -1.
         11    1    4    4    0    0 -0.17997879953E-01 -0.11533787241E-01 -0.15897748888E-01  0.26644914555E-01  0.51100000000E-03 0.  1.
</event>
<event>
 8    1  0.1132492E+005  0.1043930E+01  0.7957747E-01            NaN
         13   -1    0    0    0    0  0.00000000000E+00  0.00000000000E+00  0.74505805969E-08  0.10566000000E+00  0.10566000000E+00 0. -1.
     999900   -1    0    0    0    0 -0.00000000000E+00 -0.00000000000E+00 -0.74505805969E-08  0.93827000000E+00  0.93827000000E+00 0.  1.
     999902    2    1    2    0    0 -0.24647777523E-01  0.31486461951E-02  0.44968441494E-02  0.10186782968E+01  0.10183652703E+01 0.  0.
     999903    2    3    3    0    0  0.62967434456E-01  0.71019891769E-01  0.84315400029E-01  0.12814254047E+00  0.17398309345E-01 0.  0.
         14    1    1    2    0    0  0.24647777523E-01 -0.31486461951E-02 -0.44968441494E-02  0.25251703249E-01  0.00000000000E+00 0.  1.
     999901    1    3    3    0    0 -0.87615211979E-01 -0.67871245574E-01 -0.79818555879E-01  0.89053575628E+00  0.88000000000E+00 0.  1.
        -11    1    4    4    0    0  0.24347033297E-01  0.25222089150E-01  0.42438003713E-01  0.55047044349E-01  0.51100000000E-03 0.  1.
         11    1    4    4    0    0  0.38620401159E-01  0.45797802619E-01  0.41877396316E-01  0.73095496124E-01  0.51100000000E-03 0. -1.
</event>
<event>
 8    1  0.1132492E+005  0.1043930E+01  0.7957747E-01            NaN
         13   -1    0    0    0    0  0.00000000000E+00  0.00000000000E+00  0.74505805969E-08  0.10566000000E+00  0.10566000000E+00 0. -1.
     999900   -1    0    0    0    0 -0.00000000000E+00 -0.00000000000E+00 -0.74505805969E-08  0.93827000000E+00  0.93827000000E+00 0. -1.
     999902    2    1    2    0    0 -0.33436511526E-02  0.28883943327E-02  0.23633500803E-01  0.10198870138E+01  0.10196035777E+01 0.  0.
     999903    2    3    3    0    0 -0.78980974011E-01  0.10198738344E+00 -0.54393577560E-02  0.13062504714E+00  0.19846805594E-01 0.  0.
         14    1    1    2    0    0  0.33436511526E-02 -0.28883943327E-02 -0.23633500803E-01  0.24042986192E-01  0.00000000000E+00 0.  1.
     999901    1    3    3    0    0  0.75637322858E-01 -0.99098989105E-01  0.29072858559E-01  0.88926196666E+00  0.88000000000E+00 0. -1.
        -11    1    4    4    0    0 -0.72307828765E-01  0.90929746234E-01 -0.10704974296E-01  0.11666832666E+00  0.51100000000E-03 0.  1.
         11    1    4    4    0    0 -0.66731452454E-02  0.11057637204E-01  0.52656165397E-02  0.13956720479E-01  0.51100000000E-03 0. -1.
</event>
<event>
 8    1  0.1132492E+005  0.1043930E+01  0.7957747E-01            NaN
         13   -1    0    0    0    0  0.00000000000E+00  0.00000000000E+00  0.74505805969E-08  0.10566000000E+00  0.10566000000E+00 0.  1.
     999900   -1    0    0    0    0 -0.00000000000E+00 -0.00000000000E+00 -0.74505805969E-08  0.93827000000E+00  0.93827000000E+00 0. -1.
     999902    2    1    2    0    0 -0.10529070164E-01 -0.98382944769E-02  0.17274188867E-01  0.10214344236E+01  0.10211866777E+01 0.  0.
     999903    2    3    3    0    0 -0.11104600207E+00 -0.39549914630E-01 -0.56350374653E-01  0.13216111897E+00  0.19894379119E-01 0.  0.
         14    1    1    2    0    0  0.10529070164E-01  0.98382944769E-02 -0.17274188867E-01  0.22495576404E-01  0.00000000000E+00 0. -1.
     999901    1    3    3    0    0  0.10051693190E+00  0.29711620154E-01  0.73624563520E-01  0.88927330463E+00  0.88000000000E+00 0.  1.
        -11    1    4    4    0    0 -0.49239544135E-01 -0.26007469058E-01 -0.19892188704E-01  0.59134435365E-01  0.51100000000E-03 0. -1.
         11    1    4    4    0    0 -0.61806457933E-01 -0.13542445572E-01 -0.36458185949E-01  0.73026683603E-01  0.51100000000E-03 0.  1.
</event>
<event>
 8    1  0.1132492E+005  0.1043930E+01  0.7957747E-01            NaN
         13   -1    0    0    0    0  0.00000000000E+00  0.00000000000E+00  0.74505805969E-08  0.10566000000E+00  0.10566000000E+00 0. -1.
     999900   -1    0    0    0    0 -0.00000000000E+00 -0.00000000000E+00 -0.74505805969E-08  0.93827000000E+00  0.93827000000E+00 0.  1.
     999902    2    1    2    0    0 -0.22065423865E-01  0.26613152186E-02  0.86406102556E-02  0.10200841267E+01  0.10198053735E+01 0.  0.
     999903    2    3    3    0    0  0.20747856855E-02 -0.90022339751E-01  0.93045322276E-01  0.13087258546E+00  0.19023018640E-01 0.  0.
         14    1    1    2    0    0  0.22065423865E-01 -0.26613152186E-02 -0.86406102556E-02  0.23845873325E-01  0.00000000000E+00 0.  1.
     999901    1    3    3    0    0 -0.24140209550E-01  0.92683654969E-01 -0.84404712021E-01  0.88921154121E+00  0.88000000000E+00 0.  1.
        -11    1    4    4    0    0 -0.67714748875E-02 -0.37080130351E-01  0.46195313292E-01  0.59624298991E-01  0.51100000000E-03 0.  1.
         11    1    4    4    0    0  0.88462605730E-02 -0.52942209400E-01  0.46850008984E-01  0.71248286471E-01  0.51100000000E-03 0. -1.
</event>
<event>
 8    1  0.1132492E+005  0.1043930E+01  0.7957747E-01            NaN
         13   -1    0    0    0    0  0.00000000000E+00  0.00000000000E+00  0.74505805969E-08  0.10566000000E+00  0.10566000000E+00 0. -1.
     999900   -1    0    0    0    0 -0.00000000000E+00 -0.00000000000E+00 -0.74505805969E-08  0.93827000000E+00  0.93827000000E+00 0. -1.
     999902    2    1    2    0    0  0.15443568471E-01  0.16612814675E-01  0.64797158934E-02  0.10203402536E+01  0.10200675257E+01 0.  0.
     999903    2    3    3    0    0 -0.53689746906E-01  0.10361265327E+00  0.58175841961E-01  0.13184665390E+00  0.19517702644E-01 0.  0.
         14    1    1    2    0    0 -0.15443568471E-01 -0.16612814675E-01 -0.64797158934E-02  0.23589746429E-01  0.00000000000E+00 0. -1.
     999901    1    3    3    0    0  0.69133315377E-01 -0.86999838590E-01 -0.51696126068E-01  0.88849359967E+00  0.88000000000E+00 0. -1.
        -11    1    4    4    0    0 -0.35783566239E-01  0.47945507257E-01  0.28539799803E-01  0.66287378683E-01  0.51100000000E-03 0. -1.
         11    1    4    4    0    0 -0.17906180667E-01  0.55667146009E-01  0.29636042158E-01  0.65559275214E-01  0.51100000000E-03 0.  1.
</event>
<event>
 8    1  0.1132492E+005  0.1043930E+01  0.7957747E-01            NaN
         13   -1    0    0    0    0  0.00000000000E+00  0.00000000000E+00  0.74505805969E-08  0.10566000000E+00  0.10566000000E+00 0. -1.
     999900   -1    0    0    0    0 -0.00000000000E+00 -0.00000000000E+00 -0.74505805969E-08  0.93827000000E+00  0.93827000000E+00 0. -1.
     999902    2    1    2    0    0 -0.18829695235E-01 -0.48108491643E-02 -0.11499647235E-01  0.10213480696E+01  0.10210983967E+01 0.  0.
     999903    2    3    3    0    0  0.58447922765E-01 -0.99391877303E-01 -0.60164855473E-01  0.13158085086E+00  0.19970115881E-01 0.  0.
         14    1    1    2    0    0  0.18829695235E-01  0.48108491643E-02  0.11499647235E-01  0.22581930362E-01  0.00000000000E+00 0. -1.
     999901    1    3    3    0    0 -0.77277618000E-01  0.94581028139E-01  0.48665208238E-01  0.88976721878E+00  0.88000000000E+00 0.  1.
        -11    1    4    4    0    0  0.55369492738E-01 -0.93424278586E-01 -0.50417127097E-01  0.11973313819E+00  0.51100000000E-03 0. -1.
         11    1    4    4    0    0  0.30784300269E-02 -0.59675987176E-02 -0.97477283762E-02  0.11847712665E-01  0.51100000000E-03 0.  1.
</event>
<event>
 8    1  0.1132492E+005  0.1043930E+01  0.7957747E-01            NaN
         13   -1    0    0    0    0  0.00000000000E+00  0.00000000000E+00  0.74505805969E-08  0.10566000000E+00  0.10566000000E+00 0.  1.
     999900   -1    0    0    0    0 -0.00000000000E+00 -0.00000000000E+00 -0.74505805969E-08  0.93827000000E+00  0.93827000000E+00 0. -1.
     999902    2    1    2    0    0 -0.79572751684E-02  0.75258339425E-02  0.21742266153E-01  0.10195849278E+01  0.10192942374E+01 0.  0.
     999903    2    3    3    0    0 -0.41405473016E-01 -0.13276534609E-01  0.12386292032E+00  0.13280414962E+00  0.20105709627E-01 0.  0.
         14    1    1    2    0    0  0.79572751684E-02 -0.75258339425E-02 -0.21742266153E-01  0.24345072235E-01  0.00000000000E+00 0. -1.
     999901    1    3    3    0    0  0.33448197848E-01  0.20802368552E-01 -0.10212065417E+00  0.88678077814E+00  0.88000000000E+00 0. -1.
        -11    1    4    4    0    0 -0.19263207385E-01 -0.13486617876E-01  0.43582235413E-01  0.49524058649E-01  0.51100000000E-03 0.  1.
         11    1    4    4    0    0 -0.22142265631E-01  0.21008326682E-03  0.80280684907E-01  0.83280090973E-01  0.51100000000E-03 0. -1.
</event>
<event>
 8    1  0.1132492E+005  0.1043930E+01  0.7957747E-01            NaN
         13   -1    0    0    0    0  0.00000000000E+00  0.00000000000E+00  0.74505805969E-08  0.10566000000E+00  0.10566000000E+00 0. -1.
     999900   -1    0    0    0    0 -0.00000000000E+00 -0.00000000000E+00 -0.74505805969E-08  0.93827000000E+00  0.93827000000E+00 0.  1.
     999902    2    1    2    0    0 -0.18032246571E-01  0.15797684008E-01  0.14546092104E-03  0.10199560580E+01  0.10196742668E+01 0.  0.
     999903    2    3    3    0    0  0.49622046951E-01 -0.70376317271E-01 -0.92991574465E-01  0.12828483535E+00  0.19859317299E-01 0.  0.
         14    1    1    2    0    0  0.18032246571E-01 -0.15797684008E-01 -0.14546092104E-03  0.23973942005E-01  0.00000000000E+00 0. -1.
     999901    1    3    3    0    0 -0.67654293522E-01  0.86174001278E-01  0.93137035386E-01  0.89167122264E+00  0.88000000000E+00 0. -1.
        -11    1    4    4    0    0  0.30676640691E-01 -0.31695776956E-01 -0.57502720857E-01  0.72474151170E-01  0.51100000000E-03 0.  1.
         11    1    4    4    0    0  0.18945406261E-01 -0.38680540315E-01 -0.35488853608E-01  0.55810684182E-01  0.51100000000E-03 0. -1.
</event>
<event>
 8    1  0.1132492E+005  0.1043930E+01  0.7957747E-01            NaN
         13   -1    0    0    0    0  0.00000000000E+00  0.00000000000E+00  0.74505805969E-08  0.10566000000E+00  0.10566000000E+00 0. -1.
     999900   -1    0    0    0    0 -0.00000000000E+00 -0.00000000000E+00 -0.74505805969E-08  0.93827000000E+00  0.93827000000E+00 0. -1.
     999902    2    1    2    0    0 -0.16040665776E-01 -0.15413722339E-01  0.89795481941E-02  0.10199400421E+01  0.10196578698E+01 0.  0.
     999903    2    3    3    0    0 -0.29656853865E-01 -0.12354095742E-01 -0.12426273478E+00  0.12980057669E+00  0.19360004898E-01 0.  0.
         14    1    1    2    0    0  0.16040665776E-01  0.15413722339E-01 -0.89795481941E-02  0.23989957913E-01  0.00000000000E+00 0.  1.
     999901    1    3    3    0    0  0.13616188089E-01 -0.30596265971E-02  0.13324228298E+00  0.89013946540E+00  0.88000000000E+00 0.  1.
        -11    1    4    4    0    0 -0.18551488361E-01 -0.63519701594E-02 -0.39509316752E-01  0.44110684380E-01  0.51100000000E-03 0.  1.
         11    1    4    4    0    0 -0.11105365504E-01 -0.60021255827E-02 -0.84753418030E-01  0.85689892305E-01  0.51100000000E-03 0. -1.
</event>
<event>
 8    1  0.1132492E+005  0.1043930E+01  0.7957747E-01            NaN
         13   -1    0    0    0    0  0.00000000000E+00  0.00000000000E+00  0.74505805969E-08  0.10566000000E+00  0.10566000000E+00 0. -1.
     999900   -1    0    0    0    0 -0.00000000000E+00 -0.00000000000E+00 -0.74505805969E-08  0.93827000000E+00  0.93827000000E+00 0. -1.
     999902    2    1    2    0    0  0.34855690739E-02  0.23234302471E-01 -0.46206264382E-02  0.10199856438E+01  0.10197045560E+01 0.  0.
     999903    2    3    3    0    0 -0.44986346265E-01  0.11740390112E+00 -0.38434238331E-01  0.13299026605E+00  0.20044271963E-01 0.  0.
         14    1    1    2    0    0 -0.34855690739E-02 -0.23234302471E-01  0.46206264382E-02  0.23944356157E-01  0.00000000000E+00 0.  1.
     999901    1    3    3    0    0  0.48471915339E-01 -0.94169598648E-01  0.33813611893E-01  0.88699537780E+00  0.88000000000E+00 0. -1.
        -11    1    4    4    0    0 -0.18673119626E-01  0.24837218612E-01 -0.97213838750E-02  0.32562850772E-01  0.51100000000E-03 0.  1.
         11    1    4    4    0    0 -0.26313226639E-01  0.92566682507E-01 -0.28712854456E-01  0.10042741527E+00  0.51100000000E-03 0. -1.
</event>
<event>
 8    1  0.1132492E+005  0.1043930E+01  0.7957747E-01            NaN
         13   -1    0    0    0    0  0.00000000000E+00  0.00000000000E+00  0.74505805969E-08  0.10566000000E+00  0.10566000000E+00 0. -1.
     999900   -1    0    0    0    0 -0.00000000000E+00 -0.00000000000E+00 -0.74505805969E-08  0.93827000000E+00  0.93827000000E+00 0.  1.
     999902    2    1    2    0    0 -0.17099253532E-01  0.15423083723E-01 -0.50201309507E-02  0.10203618499E+01  0.10200896270E+01 0.  0.
     999903    2    3    3    0    0  0.10609733945E+00 -0.46792469229E-02 -0.70918256611E-01  0.12911324983E+00  0.19033953092E-01 0.  0.
         14    1    1    2    0    0  0.17099253532E-01 -0.15423083723E-01  0.50201309507E-02  0.23568150068E-01  0.00000000000E+00 0.  1.
     999901    1    3    3    0    0 -0.12319659298E+00  0.20102330646E-01  0.65898125661E-01  0.89124860010E+00  0.88000000000E+00 0.  1.
        -11    1    4    4    0    0  0.93474610152E-01 -0.83996080174E-03 -0.55106456679E-01  0.10851355199E+00  0.51100000000E-03 0. -1.
         11    1    4    4    0    0  0.12622729299E-01 -0.38392861212E-02 -0.15811799932E-01  0.20599697837E-01  0.51100000000E-03 0.  1.
</event>
<event>
 8    1  0.1139551E+005  0.1043930E+01  0.7957747E-01            NaN
         13   -1    0    0    0    0  0.00000000000E+00  0.00000000000E+00  0.74505805969E-08  0.10566000000E+00  0.10566000000E+00 0. -1.
     999900   -1    0    0    0    0 -0.00000000000E+00 -0.00000000000E+00 -0.74505805969E-08  0.93827000000E+00  0.93827000000E+00 0. -1.
     999902    2    1    2    0    0  0.12486990646E-01 -0.14843525198E-01  0.14587973093E-01  0.10196593565E+01  0.10193704622E+01 0.  0.
     999903    2    3    3    0    0  0.11542700668E+00  0.50590871008E-01  0.29810357933E-01  0.13111558827E+00  0.20489264186E-01 0.  0.
         14    1    1    2    0    0 -0.12486990646E-01  0.14843525198E-01 -0.14587973093E-01  0.24270643474E-01  0.00000000000E+00 0.  1.
     999901    1    3    3    0    0 -0.10294001603E+00 -0.65434396205E-01 -0.15222384840E-01  0.88854376826E+00  0.88000000000E+00 0. -1.
        -11    1    4    4    0    0  0.67108715460E-01  0.31368156213E-01  0.27633591849E-01  0.79065905638E-01  0.51100000000E-03 0. -1.
         11    1    4    4    0    0  0.48318291219E-01  0.19222714794E-01  0.21767660839E-02  0.52049682631E-01  0.51100000000E-03 0.  1.
</event>
<event>
 8    1  0.1132492E+005  0.1043930E+01  0.7957747E-01            NaN
         13   -1    0    0    0    0  0.00000000000E+00  0.00000000000E+00  0.74505805969E-08  0.10566000000E+00  0.10566000000E+00 0. -1.
     999900   -1    0    0    0    0 -0.00000000000E+00 -0.00000000000E+00 -0.74505805969E-08  0.93827000000E+00  0.93827000000E+00 0. -1.
     999902    2    1    2    0    0 -0.16491663139E-01 -0.10618145852E-01 -0.12661211588E-01  0.10205842027E+01  0.10203171509E+01 0.  0.
     999903    2    3    3    0    0 -0.13022167536E+00 -0.18709607464E-01 -0.68653697972E-02  0.13320965986E+00  0.19747051251E-01 0.  0.
         14    1    1    2    0    0  0.16491663139E-01  0.10618145852E-01  0.12661211588E-01  0.23345797337E-01  0.00000000000E+00 0. -1.
     999901    1    3    3    0    0  0.11373001222E+00  0.80914616125E-02 -0.57958417907E-02  0.88737454280E+00  0.88000000000E+00 0. -1.
        -11    1    4    4    0    0 -0.94626576046E-01 -0.17204348582E-01 -0.13003400266E-01  0.97054253095E-01  0.51100000000E-03 0.  1.
         11    1    4    4    0    0 -0.35595099314E-01 -0.15052588825E-02  0.61380304690E-02  0.36155406767E-01  0.51100000000E-03 0. -1.
</event>
<event>
 8    1  0.1132492E+005  0.1043930E+01  0.7957747E-01            NaN
         13   -1    0    0    0    0  0.00000000000E+00  0.00000000000E+00  0.74505805969E-08  0.10566000000E+00  0.10566000000E+00 0.  1.
     999900   -1    0    0    0    0 -0.00000000000E+00 -0.00000000000E+00 -0.74505805969E-08  0.93827000000E+00  0.93827000000E+00 0.  1.
     999902    2    1    2    0    0  0.12159534236E-01 -0.19560315849E-01 -0.46331833194E-02  0.10204368815E+01  0.10201664092E+01 0.  0.
     999903    2    3    3    0    0 -0.27574839010E-01  0.55555747183E-02  0.12498767264E+00  0.12970055987E+00  0.20225745010E-01 0.  0.
         14    1    1    2    0    0 -0.12159534236E-01  0.19560315849E-01  0.46331833194E-02  0.23493118495E-01  0.00000000000E+00 0.  1.
     999901    1    3    3    0    0  0.39734373246E-01 -0.25115890568E-01 -0.12962085596E+00  0.89073632163E+00  0.88000000000E+00 0.  1.
        -11    1    4    4    0    0 -0.16629158164E-01  0.61108157541E-02  0.10822357667E+00  0.10966528457E+00  0.51100000000E-03 0.  1.
         11    1    4    4    0    0 -0.10945680846E-01 -0.55524103576E-03  0.16764095972E-01  0.20035275305E-01  0.51100000000E-03 0. -1.
</event>
<event>
 8    1  0.1132492E+005  0.1043930E+01  0.7957747E-01            NaN
         13   -1    0    0    0    0  0.00000000000E+00  0.00000000000E+00  0.74505805969E-08  0.10566000000E+00  0.10566000000E+00 0.  1.
     999900   -1    0    0    0    0 -0.00000000000E+00 -0.00000000000E+00 -0.74505805969E-08  0.93827000000E+00  0.93827000000E+00 0.  1.
     999902    2    1    2    0    0  0.68827224771E-02  0.23663539938E-01  0.61266793938E-02  0.10185356858E+01  0.10182190688E+01 0.  0.
     999903    2    3    3    0    0 -0.62221836727E-01 -0.64140140925E-01  0.89101923672E-01  0.12759807993E+00  0.18883923187E-01 0.  0.
         14    1    1    2    0    0 -0.68827224771E-02 -0.23663539938E-01 -0.61266793938E-02  0.25394314157E-01  0.00000000000E+00 0. -1.
     999901    1    3    3    0    0  0.69104559204E-01  0.87803680863E-01 -0.82975244279E-01  0.89093760592E+00  0.88000000000E+00 0. -1.
        -11    1    4    4    0    0 -0.11550252543E-01 -0.13855601856E-01  0.29581964328E-01  0.34651692183E-01  0.51100000000E-03 0. -1.
         11    1    4    4    0    0 -0.50671584184E-01 -0.50284539069E-01  0.59519959344E-01  0.92946387742E-01  0.51100000000E-03 0.  1.
</event>
<event>
 8    1  0.1132492E+005  0.1043930E+01  0.7957747E-01            NaN
         13   -1    0    0    0    0  0.00000000000E+00  0.00000000000E+00  0.74505805969E-08  0.10566000000E+00  0.10566000000E+00 0.  1.
     999900   -1    0    0    0    0 -0.00000000000E+00 -0.00000000000E+00 -0.74505805969E-08  0.93827000000E+00  0.93827000000E+00 0. -1.
     999902    2    1    2    0    0 -0.86329548759E-02  0.20353798592E-01  0.76777429334E-02  0.10205258815E+01  0.10202574783E+01 0.  0.
     999903    2    3    3    0    0 -0.72910443542E-01  0.94462118375E-01  0.56955243304E-01  0.13370464208E+00  0.19849609293E-01 0.  0.
         14    1    1    2    0    0  0.86329548759E-02 -0.20353798592E-01 -0.76777429334E-02  0.23404118517E-01  0.00000000000E+00 0.  1.
     999901    1    3    3    0    0  0.64277488666E-01 -0.74108319783E-01 -0.49277500371E-01  0.88682123940E+00  0.88000000000E+00 0. -1.
        -11    1    4    4    0    0 -0.60258357535E-01  0.70622635220E-01  0.51498803384E-01  0.10616503252E+00  0.51100000000E-03 0. -1.
         11    1    4    4    0    0 -0.12652086007E-01  0.23839483155E-01  0.54564399198E-02  0.27539609565E-01  0.51100000000E-03 0.  1.
</event>
<event>
 8    1  0.1132492E+005  0.1043930E+01  0.7957747E-01            NaN
         13   -1    0    0    0    0  0.00000000000E+00  0.00000000000E+00  0.74505805969E-08  0.10566000000E+00  0.10566000000E+00 0.  1.
     999900   -1    0    0    0    0 -0.00000000000E+00 -0.00000000000E+00 -0.74505805969E-08  0.93827000000E+00  0.93827000000E+00 0.  1.
     999902    2    1    2    0    0 -0.23858725494E-01 -0.39981377951E-02 -0.73080975648E-02  0.10186588271E+01  0.10183453117E+01 0.  0.
     999903    2    3    3    0    0  0.87681076282E-02 -0.11416357437E+00 -0.57750104460E-01  0.12975763481E+00  0.19793125107E-01 0.  0.
         14    1    1    2    0    0  0.23858725494E-01  0.39981377951E-02  0.73080975648E-02  0.25271172867E-01  0.00000000000E+00 0. -1.
     999901    1    3    3    0    0 -0.32626833122E-01  0.11016543658E+00  0.50442006895E-01  0.88890119232E+00  0.88000000000E+00 0. -1.
        -11    1    4    4    0    0 -0.17597312528E-03 -0.21821676034E-01 -0.19968579260E-01  0.29584147615E-01  0.51100000000E-03 0. -1.
         11    1    4    4    0    0  0.89440807535E-02 -0.92341898338E-01 -0.37781525200E-01  0.10017348719E+00  0.51100000000E-03 0.  1.
</event>
<event>
 8    1  0.1132492E+005  0.1043930E+01  0.7957747E-01            NaN
         13   -1    0    0    0    0  0.00000000000E+00  0.00000000000E+00  0.74505805969E-08  0.10566000000E+00  0.10566000000E+00 0.  1.
     999900   -1    0    0    0    0 -0.00000000000E+00 -0.00000000000E+00 -0.74505805969E-08  0.93827000000E+00  0.93827000000E+00 0. -1.
     999902    2    1    2    0    0 -0.15511420839E-02 -0.23429641029E-01  0.28209108783E-02  0.10202802292E+01  0.10200060953E+01 0.  0.
     999903    2    3    3    0    0 -0.65701262428E-01 -0.73299938564E-01 -0.85775716733E-01  0.13210702147E+00  0.20130937933E-01 0.  0.
         14    1    1    2    0    0  0.15511420839E-02  0.23429641029E-01 -0.28209108783E-02  0.23649770796E-01  0.00000000000E+00 0. -1.
     999901    1    3    3    0    0  0.64150120344E-01  0.49870297534E-01  0.88596627611E-01  0.88817320774E+00  0.88000000000E+00 0.  1.
        -11    1    4    4    0    0 -0.57658717719E-01 -0.55617427612E-01 -0.75688009753E-01  0.11021234924E+00  0.51100000000E-03 0.  1.
         11    1    4    4    0    0 -0.80425447093E-02 -0.17682510952E-01 -0.10087706979E-01  0.21894672230E-01  0.51100000000E-03 0. -1.
</event>
<event>
 8    1  0.1132492E+005  0.1043930E+01  0.7957747E-01            NaN
         13   -1    0    0    0    0  0.00000000000E+00  0.00000000000E+00  0.74505805969E-08  0.10566000000E+00  0.10566000000E+00 0.  1.
     999900   -1    0    0    0    0 -0.00000000000E+00 -0.00000000000E+00 -0.74505805969E-08  0.93827000000E+00  0.93827000000E+00 0. -1.
     999902    2    1    2    0    0 -0.12182599721E-01 -0.12480890799E-01 -0.14681006672E-01  0.10211326245E+01  0.10208781105E+01 0.  0.
     999903    2    3    3    0    0  0.95980400598E-01 -0.86779056746E-01 -0.13620215666E-01  0.13140200386E+00  0.18388429886E-01 0.  0.
         14    1    1    2    0    0  0.12182599721E-01  0.12480890799E-01  0.14681006672E-01  0.22797375463E-01  0.00000000000E+00 0. -1.
     999901    1    3    3    0    0 -0.10816300032E+00  0.74298165947E-01 -0.10607910064E-02  0.88973062068E+00  0.88000000000E+00 0. -1.
        -11    1    4    4    0    0  0.23822917704E-01 -0.30088595656E-01  0.14471633293E-02  0.38408467805E-01  0.51100000000E-03 0. -1.
         11    1    4    4    0    0  0.72157482894E-01 -0.56690461090E-01 -0.15067378995E-01  0.92993536050E-01  0.51100000000E-03 0.  1.
</event>
<event>
 8    1  0.1132492E+005  0.1043930E+01  0.7957747E-01            NaN
         13   -1    0    0    0    0  0.00000000000E+00  0.00000000000E+00  0.74505805969E-08  0.10566000000E+00  0.10566000000E+00 0. -1.
     999900   -1    0    0    0    0 -0.00000000000E+00 -0.00000000000E+00 -0.74505805969E-08  0.93827000000E+00  0.93827000000E+00 0.  1.
     999902    2    1    2    0    0 -0.26054604351E-02  0.22866960772E-01  0.71529790540E-02  0.10198291405E+01  0.10195443219E+01 0.  0.
     999903    2    3    3    0    0 -0.17138669586E-01  0.10612693168E+00 -0.74038754226E-01  0.13205916215E+00  0.20030615499E-01 0.  0.
         14    1    1    2    0    0  0.26054604351E-02 -0.22866960772E-01 -0.71529790540E-02  0.24100859495E-01  0.00000000000E+00 0. -1.
     999901    1    3    3    0    0  0.14533209151E-01 -0.83259970904E-01  0.81191733280E-01  0.88776997836E+00  0.88000000000E+00 0. -1.
        -11    1    4    4    0    0 -0.59254432723E-02  0.14436100377E-01 -0.18760032528E-01  0.24407208229E-01  0.51100000000E-03 0.  1.
         11    1    4    4    0    0 -0.11213226314E-01  0.91690831299E-01 -0.55278721698E-01  0.10765195392E+00  0.51100000000E-03 0. -1.
</event>
<event>
 8    1  0.1132492E+005  0.1043930E+01  0.7957747E-01            NaN
         13   -1    0    0    0    0  0.00000000000E+00  0.00000000000E+00  0.74505805969E-08  0.10566000000E+00  0.10566000000E+00 0. -1.
     999900   -1    0    0    0    0 -0.00000000000E+00 -0.00000000000E+00 -0.74505805969E-08  0.93827000000E+00  0.93827000000E+00 0. -1.
     999902    2    1    2    0    0  0.20802092489E-01  0.11720998460E-02 -0.13349973011E-01  0.10191848459E+01  0.10188844034E+01 0.  0.
     999903    2    3    3    0    0  0.73674332401E-01 -0.37789606113E-01  0.95835161659E-01  0.13000832696E+00  0.29356860911E-01 0.  0.
         14    1    1    2    0    0 -0.20802092489E-01 -0.11720998460E-02  0.13349973011E-01  0.24745154058E-01  0.00000000000E+00 0. -1.
     999901    1    3    3    0    0 -0.52872239912E-01  0.38961705959E-01 -0.10918513467E+00  0.88917651899E+00  0.88000000000E+00 0. -1.
        -11    1    4    4    0    0  0.44193257128E-01 -0.34175940129E-01  0.47783606166E-01  0.73515801012E-01  0.51100000000E-03 0. -1.
         11    1    4    4    0    0  0.29481075274E-01 -0.36136659844E-02  0.48051555493E-01  0.56492525943E-01  0.51100000000E-03 0.  1.
</event>
<event>
 8    1  0.1132492E+005  0.1043930E+01  0.7957747E-01            NaN
         13   -1    0    0    0    0  0.00000000000E+00  0.00000000000E+00  0.74505805969E-08  0.10566000000E+00  0.10566000000E+00 0.  1.
     999900   -1    0    0    0    0 -0.00000000000E+00 -0.00000000000E+00 -0.74505805969E-08  0.93827000000E+00  0.93827000000E+00 0. -1.
     999902    2    1    2    0    0 -0.11073589489E-01 -0.50419241768E-02 -0.19119516066E-01  0.10212672270E+01  0.10210157431E+01 0.  0.
     999903    2    3    3    0    0  0.86366116998E-01  0.36567424121E-01  0.85958107683E-01  0.12870510524E+00  0.19491669132E-01 0.  0.
         14    1    1    2    0    0  0.11073589489E-01  0.50419241768E-02  0.19119516066E-01  0.22662772959E-01  0.00000000000E+00 0.  1.
     999901    1    3    3    0    0 -0.97439706487E-01 -0.41609348298E-01 -0.10507762375E+00  0.89256212180E+00  0.88000000000E+00 0.  1.
        -11    1    4    4    0    0  0.62163890452E-01  0.35432366716E-01  0.63718084691E-01  0.95812615687E-01  0.51100000000E-03 0. -1.
         11    1    4    4    0    0  0.24202226546E-01  0.11350574053E-02  0.22240022993E-01  0.32892489551E-01  0.51100000000E-03 0.  1.
</event>
<event>
 8    1  0.1132492E+005  0.1043930E+01  0.7957747E-01            NaN
         13   -1    0    0    0    0  0.00000000000E+00  0.00000000000E+00  0.74505805969E-08  0.10566000000E+00  0.10566000000E+00 0. -1.
     999900   -1    0    0    0    0 -0.00000000000E+00 -0.00000000000E+00 -0.74505805969E-08  0.93827000000E+00  0.93827000000E+00 0.  1.
     999902    2    1    2    0    0 -0.18433358802E-01  0.93658818248E-02  0.11071618054E-01  0.10204760198E+01  0.10202064585E+01 0.  0.
     999903    2    3    3    0    0 -0.49704940947E-02 -0.89557969930E-01  0.93219627103E-01  0.13102929712E+00  0.20819270782E-01 0.  0.
         14    1    1    2    0    0  0.18433358802E-01 -0.93658818248E-02 -0.11071618054E-01  0.23453980162E-01  0.00000000000E+00 0.  1.
     999901    1    3    3    0    0 -0.13462864708E-01  0.98923851754E-01 -0.82148009049E-01  0.88944672272E+00  0.88000000000E+00 0.  1.
        -11    1    4    4    0    0 -0.10964167935E-01 -0.51421686986E-01  0.62607612329E-01  0.81758040054E-01  0.51100000000E-03 0. -1.
         11    1    4    4    0    0  0.59936738405E-02 -0.38136282943E-01  0.30612014774E-01  0.49271257061E-01  0.51100000000E-03 0.  1.
</event>
<event>
 8    1  0.1132492E+005  0.1043930E+01  0.7957747E-01            NaN
         13   -1    0    0    0    0  0.00000000000E+00  0.00000000000E+00  0.74505805969E-08  0.10566000000E+00  0.10566000000E+00 0. -1.
     999900   -1    0    0    0    0 -0.00000000000E+00 -0.00000000000E+00 -0.74505805969E-08  0.93827000000E+00  0.93827000000E+00 0.  1.
     999902    2    1    2    0    0  0.22091878846E-01  0.16978893370E-02  0.10369879213E-01  0.10194663876E+01  0.10191728249E+01 0.  0.
     999903    2    3    3    0    0  0.47768873681E-01 -0.57302301707E-01 -0.10411782081E+00  0.12972048896E+00  0.20529626659E-01 0.  0.
         14    1    1    2    0    0 -0.22091878846E-01 -0.16978893370E-02 -0.10369879213E-01  0.24463612448E-01  0.00000000000E+00 0. -1.
     999901    1    3    3    0    0 -0.25676994835E-01  0.59000191044E-01  0.11448770003E+00  0.88974589859E+00  0.88000000000E+00 0. -1.
        -11    1    4    4    0    0  0.33735559554E-01 -0.39008975722E-01 -0.86461547492E-01  0.10067595781E+00  0.51100000000E-03 0. -1.
         11    1    4    4    0    0  0.14033314126E-01 -0.18293325985E-01 -0.17656273322E-01  0.29044531148E-01  0.51100000000E-03 0.  1.
</event>
<event>
 8    1  0.1132492E+005  0.1043930E+01  0.7957747E-01            NaN
         13   -1    0    0    0    0  0.00000000000E+00  0.00000000000E+00  0.74505805969E-08  0.10566000000E+00  0.10566000000E+00 0.  1.
     999900   -1    0    0    0    0 -0.00000000000E+00 -0.00000000000E+00 -0.74505805969E-08  0.93827000000E+00  0.93827000000E+00 0. -1.
     999902    2    1    2    0    0  0.20198789524E-01 -0.13194423842E-01  0.35061432121E-02  0.10195501526E+01  0.10192586211E+01 0.  0.
     999903    2    3    3    0    0  0.50307898057E-01  0.99414848699E-01  0.63593670074E-01  0.12983226610E+00  0.19951583875E-01 0.  0.
         14    1    1    2    0    0 -0.20198789524E-01  0.13194423842E-01 -0.35061432121E-02  0.24379847394E-01  0.00000000000E+00 0.  1.
     999901    1    3    3    0    0 -0.30109108534E-01 -0.11260927254E+00 -0.60087526862E-01  0.88971788650E+00  0.88000000000E+00 0. -1.
        -11    1    4    4    0    0  0.50066369254E-02  0.25522467420E-01  0.19989990114E-01  0.32807370853E-01  0.51100000000E-03 0.  1.
         11    1    4    4    0    0  0.45301261132E-01  0.73892381279E-01  0.43603679959E-01  0.97024895250E-01  0.51100000000E-03 0. -1.
</event>
<event>
 8    1  0.1132492E+005  0.1043930E+01  0.7957747E-01            NaN
         13   -1    0    0    0    0  0.00000000000E+00  0.00000000000E+00  0.74505805969E-08  0.10566000000E+00  0.10566000000E+00 0. -1.
     999900   -1    0    0    0    0 -0.00000000000E+00 -0.00000000000E+00 -0.74505805969E-08  0.93827000000E+00  0.93827000000E+00 0. -1.
     999902    2    1    2    0    0  0.11217457828E-01  0.74667906651E-02  0.17325064198E-01  0.10219813742E+01  0.10217456568E+01 0.  0.
     999903    2    3    3    0    0  0.68320938655E-01  0.38241740372E-01  0.10796914142E+00  0.13495022835E+00  0.20592408004E-01 0.  0.
         14    1    1    2    0    0 -0.11217457828E-01 -0.74667906651E-02 -0.17325064198E-01  0.21948625752E-01  0.00000000000E+00 0. -1.
     999901    1    3    3    0    0 -0.57103480828E-01 -0.30774949707E-01 -0.90644077225E-01  0.88703114590E+00  0.88000000000E+00 0. -1.
        -11    1    4    4    0    0  0.46183334784E-01  0.14309323666E-01  0.64151648778E-01  0.80332759927E-01  0.51100000000E-03 0.  1.
         11    1    4    4    0    0  0.22137603871E-01  0.23932416706E-01  0.43817492645E-01  0.54617468426E-01  0.51100000000E-03 0. -1.
</event>
<event>
 8    1  0.1132492E+005  0.1043930E+01  0.7957747E-01            NaN
         13   -1    0    0    0    0  0.00000000000E+00  0.00000000000E+00  0.74505805969E-08  0.10566000000E+00  0.10566000000E+00 0. -1.
     999900   -1    0    0    0    0 -0.00000000000E+00 -0.00000000000E+00 -0.74505805969E-08  0.93827000000E+00  0.93827000000E+00 0. -1.
     999902    2    1    2    0    0 -0.17974134249E-01  0.15140273053E-01  0.53354474744E-02  0.10198309467E+01  0.10195461713E+01 0.  0.
     999903    2    3    3    0    0 -0.11015474368E+00  0.45432434353E-01 -0.54150151377E-01  0.13250157366E+00  0.20645931351E-01 0.  0.
         14    1    1    2    0    0  0.17974134249E-01 -0.15140273053E-01 -0.53354474744E-02  0.24099053298E-01  0.00000000000E+00 0. -1.
     999901    1    3    3    0    0  0.92180609433E-01 -0.30292161300E-01  0.59485598851E-01  0.88732937304E+00  0.88000000000E+00 0.  1.
        -11    1    4    4    0    0 -0.17793387724E-01 -0.13499174304E-03 -0.57727939947E-02  0.18713875627E-01  0.51100000000E-03 0. -1.
         11    1    4    4    0    0 -0.92361355958E-01  0.45567426096E-01 -0.48377357382E-01  0.11378769803E+00  0.51100000000E-03 0.  1.
</event>
<event>
 8    1  0.1132492E+005  0.1043930E+01  0.7957747E-01            NaN
         13   -1    0    0    0    0  0.00000000000E+00  0.00000000000E+00  0.74505805969E-08  0.10566000000E+00  0.10566000000E+00 0.  1.
     999900   -1    0    0    0    0 -0.00000000000E+00 -0.00000000000E+00 -0.74505805969E-08  0.93827000000E+00  0.93827000000E+00 0. -1.
     999902    2    1    2    0    0 -0.21757255700E-01 -0.47146025558E-02  0.51312164039E-02  0.10210841025E+01  0.10208284916E+01 0.  0.
     999903    2    3    3    0    0  0.20893300337E-01 -0.11403083457E+00 -0.57740642537E-01  0.13107175470E+00  0.20155938276E-01 0.  0.
         14    1    1    2    0    0  0.21757255700E-01  0.47146025558E-02 -0.51312164039E-02  0.22845897545E-01  0.00000000000E+00 0. -1.
     999901    1    3    3    0    0 -0.42650556037E-01  0.10931623201E+00  0.62871858941E-01  0.89001234776E+00  0.88000000000E+00 0.  1.
        -11    1    4    4    0    0  0.86892866268E-02 -0.49136702185E-01 -0.36070602416E-01  0.61573278972E-01  0.51100000000E-03 0.  1.
         11    1    4    4    0    0  0.12204013710E-01 -0.64894132384E-01 -0.21670040120E-01  0.69498475727E-01  0.51100000000E-03 0. -1.
</event>
<event>
 8    1  0.1132492E+005  0.1043930E+01  0.7957747E-01            NaN
         13   -1    0    0    0    0  0.00000000000E+00  0.00000000000E+00  0.74505805969E-08  0.10566000000E+00  0.10566000000E+00 0. -1.
     999900   -1    0    0    0    0 -0.00000000000E+00 -0.00000000000E+00 -0.74505805969E-08  0.93827000000E+00  0.93827000000E+00 0. -1.
     999902    2    1    2    0    0 -0.87897439507E-02 -0.57708197770E-02  0.22474092327E-01  0.10191177694E+01  0.10188156758E+01 0.  0.
     999903    2    3    3    0    0 -0.86680604326E-01 -0.89376465756E-01 -0.31950024994E-01  0.13006272349E+00  0.19845103885E-01 0.  0.
         14    1    1    2    0    0  0.87897439507E-02  0.57708197770E-02 -0.22474092327E-01  0.24812230564E-01  0.00000000000E+00 0.  1.
     999901    1    3    3    0    0  0.77890860375E-01  0.83605645979E-01  0.54424117321E-01  0.88905504594E+00  0.88000000000E+00 0.  1.
        -11    1    4    4    0    0 -0.44189286199E-01 -0.46658235888E-01 -0.26663981496E-01  0.69576670093E-01  0.51100000000E-03 0. -1.
         11    1    4    4    0    0 -0.42491318127E-01 -0.42718229868E-01 -0.52860434982E-02  0.60486053401E-01  0.51100000000E-03 0.  1.
</event>
<event>
 8    1  0.1132492E+005  0.1043930E+01  0.7957747E-01            NaN
         13   -1    0    0    0    0  0.00000000000E+00  0.00000000000E+00  0.74505805969E-08  0.10566000000E+00  0.10566000000E+00 0. -1.
     999900   -1    0    0    0    0 -0.00000000000E+00 -0.00000000000E+00 -0.74505805969E-08  0.93827000000E+00  0.93827000000E+00 0.  1.
     999902    2    1    2    0    0  0.22408337522E-01  0.49886737501E-02  0.95035671941E-02  0.10190837076E+01  0.10187807737E+01 0.  0.
     999903    2    3    3    0    0  0.75308651345E-01 -0.14742179958E-01 -0.10344348120E+00  0.13007033002E+00  0.18138691009E-01 0.  0.
         14    1    1    2    0    0 -0.22408337522E-01 -0.49886737501E-02 -0.95035671941E-02  0.24846292393E-01  0.00000000000E+00 0.  1.
     999901    1    3    3    0    0 -0.52900313823E-01  0.19730853708E-01  0.11294704839E+00  0.88901337759E+00  0.88000000000E+00 0. -1.
        -11    1    4    4    0    0  0.65373346844E-02  0.38527673083E-02 -0.10393799633E-01  0.12879159620E-01  0.51100000000E-03 0. -1.
         11    1    4    4    0    0  0.68771316660E-01 -0.18594947266E-01 -0.93049681565E-01  0.11719117040E+00  0.51100000000E-03 0.  1.
</event>
<event>
 8    1  0.1132492E+005  0.1043930E+01  0.7957747E-01            NaN
         13   -1    0    0    0    0  0.00000000000E+00  0.00000000000E+00  0.74505805969E-08  0.10566000000E+00  0.10566000000E+00 0.  1.
     999900   -1    0    0    0    0 -0.00000000000E+00 -0.00000000000E+00 -0.74505805969E-08  0.93827000000E+00  0.93827000000E+00 0. -1.
     999902    2    1    2    0    0 -0.22834220804E-01  0.69957477978E-02  0.59696197294E-03  0.10200407034E+01  0.10197609221E+01 0.  0.
     999903    2    3    3    0    0  0.67481855832E-01 -0.10103487668E+00 -0.35594796731E-01  0.12811164071E+00  0.19589685051E-01 0.  0.
         14    1    1    2    0    0  0.22834220804E-01 -0.69957477978E-02 -0.59696197294E-03  0.23889296569E-01  0.00000000000E+00 0. -1.
     999901    1    3    3    0    0 -0.90316076636E-01  0.10803062447E+00  0.36191758703E-01  0.89192906272E+00  0.88000000000E+00 0. -1.
        -11    1    4    4    0    0  0.24451400039E-01 -0.22626801365E-01 -0.56697852259E-02  0.33797199431E-01  0.51100000000E-03 0.  1.
         11    1    4    4    0    0  0.43030455793E-01 -0.78408075311E-01 -0.29925011505E-01  0.94314441282E-01  0.51100000000E-03 0. -1.
</event>
<event>
 8    1  0.1132492E+005  0.1043930E+01  0.7957747E-01            NaN
         13   -1    0    0    0    0  0.00000000000E+00  0.00000000000E+00  0.74505805969E-08  0.10566000000E+00  0.10566000000E+00 0.  1.
     999900   -1    0    0    0    0 -0.00000000000E+00 -0.00000000000E+00 -0.74505805969E-08  0.93827000000E+00  0.93827000000E+00 0. -1.
     999902    2    1    2    0    0  0.26305045759E-01 -0.33577549280E-02 -0.57238710898E-02  0.10168008155E+01  0.10164388352E+01 0.  0.
     999903    2    3    3    0    0 -0.63703038873E-01  0.73230734194E-01  0.76080530215E-01  0.12513988667E+00  0.21235031542E-01 0.  0.
         14    1    1    2    0    0 -0.26305045759E-01  0.33577549280E-02  0.57238710898E-02  0.27129184485E-01  0.00000000000E+00 0.  1.
     999901    1    3    3    0    0  0.90008084632E-01 -0.76588489122E-01 -0.81804401305E-01  0.89166092885E+00  0.88000000000E+00 0. -1.
        -11    1    4    4    0    0 -0.34971360381E-01  0.25495431710E-01  0.28031705209E-01  0.51565983971E-01  0.51100000000E-03 0.  1.
         11    1    4    4    0    0 -0.28731678492E-01  0.47735302483E-01  0.48048825006E-01  0.73573902694E-01  0.51100000000E-03 0. -1.
</event>
<event>
 8    1  0.1132492E+005  0.1043930E+01  0.7957747E-01            NaN
         13   -1    0    0    0    0  0.00000000000E+00  0.00000000000E+00  0.74505805969E-08  0.10566000000E+00  0.10566000000E+00 0.  1.
     999900   -1    0    0    0    0 -0.00000000000E+00 -0.00000000000E+00 -0.74505805969E-08  0.93827000000E+00  0.93827000000E+00 0. -1.
     999902    2    1    2    0    0 -0.13329838216E-01 -0.17420481509E-01  0.86543852514E-02  0.10203491572E+01  0.10200766375E+01 0.  0.
     999903    2    3    3    0    0  0.11048255992E+00 -0.65279428090E-01  0.12258885099E-01  0.13038680906E+00  0.19561184384E-01 0.  0.
         14    1    1    2    0    0  0.13329838216E-01  0.17420481509E-01 -0.86543852514E-02  0.23580842796E-01  0.00000000000E+00 0. -1.
     999901    1    3    3    0    0 -0.12381239813E+00  0.47858946581E-01 -0.36044998473E-02  0.88996234815E+00  0.88000000000E+00 0.  1.
        -11    1    4    4    0    0  0.63615158203E-01 -0.33969795902E-01 -0.23558936285E-02  0.72157097660E-01  0.51100000000E-03 0. -1.
         11    1    4    4    0    0  0.46867401715E-01 -0.31309632187E-01  0.14614778727E-01  0.58229711398E-01  0.51100000000E-03 0.  1.
</event>
<event>
 8    1  0.1132492E+005  0.1043930E+01  0.7957747E-01            NaN
         13   -1    0    0    0    0  0.00000000000E+00  0.00000000000E+00  0.74505805969E-08  0.10566000000E+00  0.10566000000E+00 0. -1.
     999900   -1    0    0    0    0 -0.00000000000E+00 -0.00000000000E+00 -0.74505805969E-08  0.93827000000E+00  0.93827000000E+00 0. -1.
     999902    2    1    2    0    0 -0.19319818271E-02 -0.15483871182E-01 -0.17279859034E-01  0.10206474669E+01  0.10203818772E+01 0.  0.
     999903    2    3    3    0    0  0.37308236063E-01 -0.89064285651E-01  0.85855172357E-01  0.13070886967E+00  0.19731865934E-01 0.  0.
         14    1    1    2    0    0  0.19319818271E-02  0.15483871182E-01  0.17279859034E-01  0.23282533126E-01  0.00000000000E+00 0. -1.
     999901    1    3    3    0    0 -0.39240217891E-01  0.73580414469E-01 -0.10313503139E+00  0.88993859720E+00  0.88000000000E+00 0. -1.
        -11    1    4    4    0    0  0.16299556140E-01 -0.62854458382E-01  0.55091463060E-01  0.85156848767E-01  0.51100000000E-03 0. -1.
         11    1    4    4    0    0  0.21008679924E-01 -0.26209827269E-01  0.30763709297E-01  0.45552020903E-01  0.51100000000E-03 0.  1.
</event>
<event>
 8    1  0.1132492E+005  0.1043930E+01  0.7957747E-01            NaN
         13   -1    0    0    0    0  0.00000000000E+00  0.00000000000E+00  0.74505805969E-08  0.10566000000E+00  0.10566000000E+00 0. -1.
     999900   -1    0    0    0    0 -0.00000000000E+00 -0.00000000000E+00 -0.74505805969E-08  0.93827000000E+00  0.93827000000E+00 0.  1.
     999902    2    1    2    0    0  0.84961500981E-02  0.50540591017E-02  0.20654867294E-01  0.10210312746E+01  0.10207744669E+01 0.  0.
     999903    2    3    3    0    0 -0.12727518249E+00  0.10892638161E-01  0.18452810485E-01  0.13059722722E+00  0.19937600161E-01 0.  0.
         14    1    1    2    0    0 -0.84961500981E-02 -0.50540591017E-02 -0.20654867294E-01  0.22898725354E-01  0.00000000000E+00 0.  1.
     999901    1    3    3    0    0  0.13577133258E+00 -0.58385790595E-02  0.22020568093E-02  0.89043404742E+00  0.88000000000E+00 0. -1.
        -11    1    4    4    0    0 -0.11651760782E+00  0.83870135468E-02  0.11161229081E-01  0.11735215841E+00  0.51100000000E-03 0. -1.
         11    1    4    4    0    0 -0.10757574667E-01  0.25056246143E-02  0.72915814041E-02  0.13245068811E-01  0.51100000000E-03 0.  1.
</event>
<event>
 8    1  0.1132492E+005  0.1043930E+01  0.7957747E-01            NaN
         13   -1    0    0    0    0  0.00000000000E+00  0.00000000000E+00  0.74505805969E-08  0.10566000000E+00  0.10566000000E+00 0. -1.
     999900   -1    0    0    0    0 -0.00000000000E+00 -0.00000000000E+00 -0.74505805969E-08  0.93827000000E+00  0.93827000000E+00 0.  1.
     999902    2    1    2    0    0  0.11734924283E-01  0.11364749645E-01 -0.16522532759E-01  0.10206951109E+01  0.10204306196E+01 0.  0.
     999903    2    3    3    0    0 -0.10717713161E+00  0.14630655311E-01 -0.70998989999E-01  0.13102189698E+00  0.20612794407E-01 0.  0.
         14    1    1    2    0    0 -0.11734924283E-01 -0.11364749645E-01  0.16522532759E-01  0.23234889093E-01  0.00000000000E+00 0. -1.
     999901    1    3    3    0    0  0.11891205589E+00 -0.32659056667E-02  0.54476457240E-01  0.88967321392E+00  0.88000000000E+00 0. -1.
        -11    1    4    4    0    0 -0.86376188632E-01  0.12901126083E-01 -0.46884937116E-01  0.99124888227E-01  0.51100000000E-03 0. -1.
         11    1    4    4    0    0 -0.20800942980E-01  0.17295292282E-02 -0.24114052883E-01  0.31897008757E-01  0.51100000000E-03 0.  1.
</event>
<event>
 8    1  0.1132492E+005  0.1043930E+01  0.7957747E-01            NaN
         13   -1    0    0    0    0  0.00000000000E+00  0.00000000000E+00  0.74505805969E-08  0.10566000000E+00  0.10566000000E+00 0.  1.
     999900   -1    0    0    0    0 -0.00000000000E+00 -0.00000000000E+00 -0.74505805969E-08  0.93827000000E+00  0.93827000000E+00 0. -1.
     999902    2    1    2    0    0  0.65657310072E-02 -0.27924225611E-02 -0.28788312845E-01  0.10142707113E+01  0.10138369704E+01 0.  0.
     999903    2    3    3    0    0  0.16027225974E-01  0.68470993554E-01  0.97998649042E-01  0.12228252304E+00  0.20103017082E-01 0.  0.
         14    1    1    2    0    0 -0.65657310072E-02  0.27924225611E-02  0.28788312845E-01  0.29659288661E-01  0.00000000000E+00 0.  1.
     999901    1    3    3    0    0 -0.94614949673E-02 -0.71263416115E-01 -0.12678696189E+00  0.89198818830E+00  0.88000000000E+00 0. -1.
        -11    1    4    4    0    0 -0.25281458510E-02  0.31431687501E-01  0.46528262444E-01  0.56209277060E-01  0.51100000000E-03 0. -1.
         11    1    4    4    0    0  0.18555371826E-01  0.37039306053E-01  0.51470386598E-01  0.66073245978E-01  0.51100000000E-03 0.  1.
</event>
<event>
 8    1  0.1132492E+005  0.1043930E+01  0.7957747E-01            NaN
         13   -1    0    0    0    0  0.00000000000E+00  0.00000000000E+00  0.74505805969E-08  0.10566000000E+00  0.10566000000E+00 0.  1.
     999900   -1    0    0    0    0 -0.00000000000E+00 -0.00000000000E+00 -0.74505805969E-08  0.93827000000E+00  0.93827000000E+00 0. -1.
     999902    2    1    2    0    0  0.58224378031E-02 -0.22746813452E-01  0.20617516507E-02  0.10203594861E+01  0.10200872079E+01 0.  0.
     999903    2    3    3    0    0 -0.42234787201E-01  0.34138691584E-01  0.11604423807E+00  0.12988912460E+00  0.21346943276E-01 0.  0.
         14    1    1    2    0    0 -0.58224378031E-02  0.22746813452E-01 -0.20617516507E-02  0.23570513869E-01  0.00000000000E+00 0. -1.
     999901    1    3    3    0    0  0.48057225004E-01 -0.56885505036E-01 -0.11398248642E+00  0.89047036153E+00  0.88000000000E+00 0. -1.
        -11    1    4    4    0    0 -0.34394310048E-01  0.21298999635E-01  0.64035367748E-01  0.75745662535E-01  0.51100000000E-03 0. -1.
         11    1    4    4    0    0 -0.78404771522E-02  0.12839691949E-01  0.52008870320E-01  0.54143462064E-01  0.51100000000E-03 0.  1.
</event>
<event>
 8    1  0.1132492E+005  0.1043930E+01  0.7957747E-01            NaN
         13   -1    0    0    0    0  0.00000000000E+00  0.00000000000E+00  0.74505805969E-08  0.10566000000E+00  0.10566000000E+00 0.  1.
     999900   -1    0    0    0    0 -0.00000000000E+00 -0.00000000000E+00 -0.74505805969E-08  0.93827000000E+00  0.93827000000E+00 0.  1.
     999902    2    1    2    0    0  0.44803189835E-03 -0.10579629731E-01 -0.21442747325E-01  0.10200151362E+01  0.10197347485E+01 0.  0.
     999903    2    3    3    0    0  0.60492889479E-01 -0.11206882698E+00  0.23161712138E-01  0.13102975956E+00  0.20335223699E-01 0.  0.
         14    1    1    2    0    0 -0.44803189835E-03  0.10579629731E-01  0.21442747325E-01  0.23914863802E-01  0.00000000000E+00 0.  1.
     999901    1    3    3    0    0 -0.60044857581E-01  0.10148919724E+00 -0.44604459463E-01  0.88898537664E+00  0.88000000000E+00 0.  1.
        -11    1    4    4    0    0  0.23143954502E-01 -0.25715079725E-01  0.10081082887E-01  0.36038830564E-01  0.51100000000E-03 0. -1.
         11    1    4    4    0    0  0.37348934978E-01 -0.86353747251E-01  0.13080629251E-01  0.94990928992E-01  0.51100000000E-03 0.  1.
</event>
<event>
 8    1  0.1132492E+005  0.1043930E+01  0.7957747E-01            NaN
         13   -1    0    0    0    0  0.00000000000E+00  0.00000000000E+00  0.74505805969E-08  0.10566000000E+00  0.10566000000E+00 0.  1.
     999900   -1    0    0    0    0 -0.00000000000E+00 -0.00000000000E+00 -0.74505805969E-08  0.93827000000E+00  0.93827000000E+00 0.  1.
     999902    2    1    2    0    0 -0.44328721512E-02 -0.26956155765E-01 -0.51648927258E-02  0.10161278273E+01  0.10157474099E+01 0.  0.
     999903    2    3    3    0    0  0.59494269357E-01 -0.93714887901E-01  0.62111306770E-01  0.12873304777E+00  0.19807444562E-01 0.  0.
         14    1    1    2    0    0  0.44328721512E-02  0.26956155765E-01  0.51648927258E-02  0.27802172685E-01  0.00000000000E+00 0.  1.
     999901    1    3    3    0    0 -0.63927141508E-01  0.66758732136E-01 -0.67276199495E-01  0.88739477954E+00  0.88000000000E+00 0. -1.
        -11    1    4    4    0    0  0.44947757236E-02 -0.75430404411E-02  0.12011798155E-01  0.14887742737E-01  0.51100000000E-03 0.  1.
         11    1    4    4    0    0  0.54999493633E-01 -0.86171847460E-01  0.50099508615E-01  0.11384530504E+00  0.51100000000E-03 0. -1.
</event>
<event>
 8    1  0.1132492E+005  0.1043930E+01  0.7957747E-01            NaN
         13   -1    0    0    0    0  0.00000000000E+00  0.00000000000E+00  0.74505805969E-08  0.10566000000E+00  0.10566000000E+00 0. -1.
     999900   -1    0    0    0    0 -0.00000000000E+00 -0.00000000000E+00 -0.74505805969E-08  0.93827000000E+00  0.93827000000E+00 0.  1.
     999902    2    1    2    0    0 -0.15418963703E-01  0.33344438292E-02 -0.16707491183E-01  0.10209516794E+01  0.10206930628E+01 0.  0.
     999903    2    3    3    0    0  0.25988487617E-01 -0.43503177888E-01 -0.12080118340E+00  0.13261399775E+00  0.20630523830E-01 0.  0.
         14    1    1    2    0    0  0.15418963703E-01 -0.33344438292E-02  0.16707491183E-01  0.22978320630E-01  0.00000000000E+00 0. -1.
     999901    1    3    3    0    0 -0.41407451320E-01  0.46837621717E-01  0.10409369221E+00  0.88833768162E+00  0.88000000000E+00 0. -1.
        -11    1    4    4    0    0  0.56512074483E-02 -0.17607211823E-01 -0.67246187604E-01  0.69744253685E-01  0.51100000000E-03 0.  1.
         11    1    4    4    0    0  0.20337280169E-01 -0.25895966065E-01 -0.53554995792E-01  0.62869744062E-01  0.51100000000E-03 0. -1.
</event>
<event>
 8    1  0.1132492E+005  0.1043930E+01  0.7957747E-01            NaN
         13   -1    0    0    0    0  0.00000000000E+00  0.00000000000E+00  0.74505805969E-08  0.10566000000E+00  0.10566000000E+00 0.  1.
     999900   -1    0    0    0    0 -0.00000000000E+00 -0.00000000000E+00 -0.74505805969E-08  0.93827000000E+00  0.93827000000E+00 0.  1.
     999902    2    1    2    0    0  0.22497289567E-01  0.24547204489E-02  0.41711483293E-02  0.10209179995E+01  0.10206586155E+01 0.  0.
     999903    2    3    3    0    0 -0.56509065199E-01 -0.90353259660E-02  0.11473992039E+00  0.13041281777E+00  0.23818945080E-01 0.  0.
         14    1    1    2    0    0 -0.22497289567E-01 -0.24547204489E-02 -0.41711483293E-02  0.23012000538E-01  0.00000000000E+00 0.  1.
     999901    1    3    3    0    0  0.79006354766E-01  0.11490046415E-01 -0.11056877206E+00  0.89050518169E+00  0.88000000000E+00 0. -1.
        -11    1    4    4    0    0 -0.41933167352E-01 -0.14550446419E-01  0.68594749931E-01  0.81704386995E-01  0.51100000000E-03 0. -1.
         11    1    4    4    0    0 -0.14575897847E-01  0.55151204532E-02  0.46145170455E-01  0.48708430779E-01  0.51100000000E-03 0.  1.
</event>
<event>
 8    1  0.1132492E+005  0.1043930E+01  0.7957747E-01            NaN
         13   -1    0    0    0    0  0.00000000000E+00  0.00000000000E+00  0.74505805969E-08  0.10566000000E+00  0.10566000000E+00 0.  1.
     999900   -1    0    0    0    0 -0.00000000000E+00 -0.00000000000E+00 -0.74505805969E-08  0.93827000000E+00  0.93827000000E+00 0. -1.
     999902    2    1    2    0    0 -0.28524381742E-02  0.68424467212E-02 -0.21996195637E-01  0.10207181904E+01  0.10204542303E+01 0.  0.
     999903    2    3    3    0    0 -0.55342151844E-01  0.22010636314E-01 -0.11798288886E+00  0.13381419941E+00  0.20953663646E-01 0.  0.
         14    1    1    2    0    0  0.28524381742E-02 -0.68424467212E-02  0.21996195637E-01  0.23211809563E-01  0.00000000000E+00 0.  1.
     999901    1    3    3    0    0  0.52489713669E-01 -0.15168189592E-01  0.95986693221E-01  0.88690399102E+00  0.88000000000E+00 0.  1.
        -11    1    4    4    0    0 -0.22780777773E-01  0.19293480986E-01 -0.65581528265E-01  0.72058311214E-01  0.51100000000E-03 0.  1.
         11    1    4    4    0    0 -0.32561374071E-01  0.27171553275E-02 -0.52401360593E-01  0.61755888200E-01  0.51100000000E-03 0. -1.
</event>
<event>
 8    1  0.1132492E+005  0.1043930E+01  0.7957747E-01            NaN
         13   -1    0    0    0    0  0.00000000000E+00  0.00000000000E+00  0.74505805969E-08  0.10566000000E+00  0.10566000000E+00 0. -1.
     999900   -1    0    0    0    0 -0.00000000000E+00 -0.00000000000E+00 -0.74505805969E-08  0.93827000000E+00  0.93827000000E+00 0.  1.
     999902    2    1    2    0    0 -0.13691060831E-01 -0.11533637574E-01  0.15613261127E-01  0.10201761821E+01  0.10198996022E+01 0.  0.
     999903    2    3    3    0    0 -0.13291480496E-01 -0.12835437652E+00 -0.18974228827E-01  0.13178238474E+00  0.18843198777E-01 0.  0.
         14    1    1    2    0    0  0.13691060831E-01  0.11533637574E-01 -0.15613261127E-01  0.23753817912E-01  0.00000000000E+00 0.  1.
     999901    1    3    3    0    0 -0.39958033563E-03  0.11682073895E+00  0.34587489954E-01  0.88839379735E+00  0.88000000000E+00 0. -1.
        -11    1    4    4    0    0 -0.20583099776E-02 -0.14144499468E-02 -0.19579298867E-02  0.32143302657E-02  0.51100000000E-03 0. -1.
         11    1    4    4    0    0 -0.11233170518E-01 -0.12693992658E+00 -0.17016298940E-01  0.12856805447E+00  0.51100000000E-03 0.  1.
</event>
<event>
 8    1  0.1132492E+005  0.1043930E+01  0.7957747E-01            NaN
         13   -1    0    0    0    0  0.00000000000E+00  0.00000000000E+00  0.74505805969E-08  0.10566000000E+00  0.10566000000E+00 0.  1.
     999900   -1    0    0    0    0 -0.00000000000E+00 -0.00000000000E+00 -0.74505805969E-08  0.93827000000E+00  0.93827000000E+00 0.  1.
     999902    2    1    2    0    0 -0.23253189487E-01 -0.48011362938E-02 -0.13698815279E-04  0.10201863289E+01  0.10199099880E+01 0.  0.
     999903    2    3    3    0    0  0.12279824790E-01 -0.12745731256E+00 -0.17153008610E-01  0.13080402153E+00  0.20476955876E-01 0.  0.
         14    1    1    2    0    0  0.23253189487E-01  0.48011362938E-02  0.13698815279E-04  0.23743671129E-01  0.00000000000E+00 0.  1.
     999901    1    3    3    0    0 -0.35533014277E-01  0.12265617626E+00  0.17139309795E-01  0.88938230735E+00  0.88000000000E+00 0. -1.
        -11    1    4    4    0    0  0.14914032308E-01 -0.10806308364E+00 -0.20336324706E-01  0.11096794866E+00  0.51100000000E-03 0. -1.
         11    1    4    4    0    0 -0.26342075181E-02 -0.19394228917E-01  0.31833160959E-02  0.19836072870E-01  0.51100000000E-03 0.  1.
</event>
<event>
 8    1  0.1132492E+005  0.1043930E+01  0.7957747E-01            NaN
         13   -1    0    0    0    0  0.00000000000E+00  0.00000000000E+00  0.74505805969E-08  0.10566000000E+00  0.10566000000E+00 0.  1.
     999900   -1    0    0    0    0 -0.00000000000E+00 -0.00000000000E+00 -0.74505805969E-08  0.93827000000E+00  0.93827000000E+00 0. -1.
     999902    2    1    2    0    0  0.15316232089E-01  0.11384461720E-01 -0.13068242071E-01  0.10208005408E+01  0.10205384717E+01 0.  0.
     999903    2    3    3    0    0 -0.95340641719E-01  0.65059375621E-01  0.55797423470E-01  0.12958315987E+00  0.18864849237E-01 0.  0.
         14    1    1    2    0    0 -0.15316232089E-01 -0.11384461720E-01  0.13068242071E-01  0.23129459243E-01  0.00000000000E+00 0.  1.
     999901    1    3    3    0    0  0.11065687381E+00 -0.53674913901E-01 -0.68865665540E-01  0.89121738089E+00  0.88000000000E+00 0. -1.
        -11    1    4    4    0    0 -0.64476177901E-01  0.33647298062E-01  0.31204147860E-01  0.79140875332E-01  0.51100000000E-03 0. -1.
         11    1    4    4    0    0 -0.30864463818E-01  0.31412077559E-01  0.24593275609E-01  0.50442284539E-01  0.51100000000E-03 0.  1.
</event>
<event>
 8    1  0.1132492E+005  0.1043930E+01  0.7957747E-01            NaN
         13   -1    0    0    0    0  0.00000000000E+00  0.00000000000E+00  0.74505805969E-08  0.10566000000E+00  0.10566000000E+00 0.  1.
     999900   -1    0    0    0    0 -0.00000000000E+00 -0.00000000000E+00 -0.74505805969E-08  0.93827000000E+00  0.93827000000E+00 0. -1.
     999902    2    1    2    0    0 -0.71477116094E-02 -0.47266772524E-02  0.21922843936E-01  0.10203918959E+01  0.10201203747E+01 0.  0.
     999903    2    3    3    0    0 -0.66118656549E-01 -0.85248198865E-01 -0.69666150200E-01  0.13002689678E+00  0.20363920250E-01 0.  0.
         14    1    1    2    0    0  0.71477116094E-02  0.47266772524E-02 -0.21922843936E-01  0.23538104116E-01  0.00000000000E+00 0. -1.
     999901    1    3    3    0    0  0.58970944940E-01  0.80521521613E-01  0.91588994136E-01  0.89036499911E+00  0.88000000000E+00 0. -1.
        -11    1    4    4    0    0 -0.51343069412E-01 -0.68853741633E-01 -0.64342047323E-01  0.10731779297E+00  0.51100000000E-03 0. -1.
         11    1    4    4    0    0 -0.14775587137E-01 -0.16394457232E-01 -0.53241028772E-02  0.22709103805E-01  0.51100000000E-03 0.  1.
</event>
<event>
 8    1  0.1132492E+005  0.1043930E+01  0.7957747E-01            NaN
         13   -1    0    0    0    0  0.00000000000E+00  0.00000000000E+00  0.74505805969E-08  0.10566000000E+00  0.10566000000E+00 0. -1.
     999900   -1    0    0    0    0 -0.00000000000E+00 -0.00000000000E+00 -0.74505805969E-08  0.93827000000E+00  0.93827000000E+00 0.  1.
     999902    2    1    2    0    0  0.15902548253E-01  0.17641143050E-01 -0.25660281795E-02  0.10200409760E+01  0.10197612010E+01 0.  0.
     999903    2    3    3    0    0 -0.38897387661E-01 -0.68944050018E-01  0.99229127017E-01  0.12826618250E+00  0.18425664804E-01 0.  0.
         14    1    1    2    0    0 -0.15902548253E-01 -0.17641143050E-01  0.25660281795E-02  0.23889024042E-01  0.00000000000E+00 0.  1.
     999901    1    3    3    0    0  0.54799935915E-01  0.86585193068E-01 -0.10179515520E+00  0.89177479346E+00  0.88000000000E+00 0.  1.
        -11    1    4    4    0    0 -0.68718231823E-02 -0.24046061059E-01  0.21657179196E-01  0.33086697297E-01  0.51100000000E-03 0. -1.
         11    1    4    4    0    0 -0.32025564479E-01 -0.44897988960E-01  0.77571947822E-01  0.95179485198E-01  0.51100000000E-03 0.  1.
</event>
<event>
 8    1  0.1132492E+005  0.1043930E+01  0.7957747E-01            NaN
         13   -1    0    0    0    0  0.00000000000E+00  0.00000000000E+00  0.74505805969E-08  0.10566000000E+00  0.10566000000E+00 0.  1.
     999900   -1    0    0    0    0 -0.00000000000E+00 -0.00000000000E+00 -0.74505805969E-08  0.93827000000E+00  0.93827000000E+00 0. -1.
     999902    2    1    2    0    0 -0.36485625171E-02 -0.21381663101E-01  0.95848548216E-02  0.10202159331E+01  0.10199402891E+01 0.  0.
     999903    2    3    3    0    0  0.20737585177E-01  0.25147392526E-01  0.12523038976E+00  0.13109640969E+00  0.21004269198E-01 0.  0.
         14    1    1    2    0    0  0.36485625171E-02  0.21381663101E-01 -0.95848548216E-02  0.23714066867E-01  0.00000000000E+00 0.  1.
     999901    1    3    3    0    0 -0.24386147694E-01 -0.46529055627E-01 -0.11564553494E+00  0.88911952344E+00  0.88000000000E+00 0. -1.
        -11    1    4    4    0    0  0.19970201186E-02  0.18421761517E-01  0.68833221373E-01  0.71285502540E-01  0.51100000000E-03 0.  1.
         11    1    4    4    0    0  0.18740565058E-01  0.67256310091E-02  0.56397168386E-01  0.59810907150E-01  0.51100000000E-03 0. -1.
</event>
<event>
 8    1  0.1237035E+005  0.1043930E+01  0.7957747E-01            NaN
         13   -1    0    0    0    0  0.00000000000E+00  0.00000000000E+00  0.74505805969E-08  0.10566000000E+00  0.10566000000E+00 0. -1.
     999900   -1    0    0    0    0 -0.00000000000E+00 -0.00000000000E+00 -0.74505805969E-08  0.93827000000E+00  0.93827000000E+00 0.  1.
     999902    2    1    2    0    0  0.67046254709E-03 -0.23996971192E-01  0.21362462586E-02  0.10198288030E+01  0.10195439764E+01 0.  0.
     999903    2    3    3    0    0  0.11916056117E+00 -0.50747322471E-01 -0.81966571349E-02  0.13142447299E+00  0.20752754944E-01 0.  0.
         14    1    1    2    0    0 -0.67046254709E-03  0.23996971192E-01 -0.21362462586E-02  0.24101196952E-01  0.00000000000E+00 0. -1.
     999901    1    3    3    0    0 -0.11849009862E+00  0.26750351279E-01  0.10332903394E-01  0.88840433005E+00  0.88000000000E+00 0. -1.
        -11    1    4    4    0    0  0.72048098916E-01 -0.33140346392E-01  0.48754599823E-02  0.79455914490E-01  0.51100000000E-03 0. -1.
         11    1    4    4    0    0  0.47112462253E-01 -0.17606976079E-01 -0.13072117117E-01  0.51968558505E-01  0.51100000000E-03 0.  1.
</event>
<event>
 8    1  0.1132492E+005  0.1043930E+01  0.7957747E-01            NaN
         13   -1    0    0    0    0  0.00000000000E+00  0.00000000000E+00  0.74505805969E-08  0.10566000000E+00  0.10566000000E+00 0.  1.
     999900   -1    0    0    0    0 -0.00000000000E+00 -0.00000000000E+00 -0.74505805969E-08  0.93827000000E+00  0.93827000000E+00 0.  1.
     999902    2    1    2    0    0  0.15880548665E-01 -0.17209559045E-01 -0.39546322358E-02  0.10201813187E+01  0.10199048598E+01 0.  0.
     999903    2    3    3    0    0 -0.93185025915E-02  0.10729303104E+00 -0.67516429413E-01  0.12879139884E+00  0.20739507562E-01 0.  0.
         14    1    1    2    0    0 -0.15880548665E-01  0.17209559045E-01  0.39546322358E-02  0.23748681322E-01  0.00000000000E+00 0.  1.
     999901    1    3    3    0    0  0.25199051256E-01 -0.12450259009E+00  0.63561797177E-01  0.89138991984E+00  0.88000000000E+00 0. -1.
        -11    1    4    4    0    0  0.17323664585E-02  0.79888222477E-01 -0.45658759416E-01  0.92033214746E-01  0.51100000000E-03 0.  1.
         11    1    4    4    0    0 -0.11050869050E-01  0.27404808567E-01 -0.21857669997E-01  0.36758184096E-01  0.51100000000E-03 0. -1.
</event>
<event>
 8    1  0.1132492E+005  0.1043930E+01  0.7957747E-01            NaN
         13   -1    0    0    0    0  0.00000000000E+00  0.00000000000E+00  0.74505805969E-08  0.10566000000E+00  0.10566000000E+00 0. -1.
     999900   -1    0    0    0    0 -0.00000000000E+00 -0.00000000000E+00 -0.74505805969E-08  0.93827000000E+00  0.93827000000E+00 0. -1.
     999902    2    1    2    0    0  0.45825669711E-02  0.10823101964E-01 -0.13926373985E-01  0.10257068458E+01  0.10255449528E+01 0.  0.
     999903    2    3    3    0    0  0.53681689859E-01  0.68174759224E-01  0.10145511740E+00  0.13496960902E+00  0.19852780430E-01 0.  0.
         14    1    1    2    0    0 -0.45825669711E-02 -0.10823101964E-01  0.13926373985E-01  0.18223154188E-01  0.00000000000E+00 0. -1.
     999901    1    3    3    0    0 -0.49099122888E-01 -0.57351657260E-01 -0.11538149138E+00  0.89073723679E+00  0.88000000000E+00 0. -1.
        -11    1    4    4    0    0  0.18764108621E-01  0.24210167071E-01  0.50948326382E-01  0.59449281274E-01  0.51100000000E-03 0.  1.
         11    1    4    4    0    0  0.34917581238E-01  0.43964592153E-01  0.50506791016E-01  0.75520327743E-01  0.51100000000E-03 0. -1.
</event>
<event>
 8    1  0.1132492E+005  0.1043930E+01  0.7957747E-01            NaN
         13   -1    0    0    0    0  0.00000000000E+00  0.00000000000E+00  0.74505805969E-08  0.10566000000E+00  0.10566000000E+00 0. -1.
     999900   -1    0    0    0    0 -0.00000000000E+00 -0.00000000000E+00 -0.74505805969E-08  0.93827000000E+00  0.93827000000E+00 0.  1.
     999902    2    1    2    0    0 -0.11549496780E-01 -0.10801130063E-01 -0.17131775733E-01  0.10206157763E+01  0.10203494548E+01 0.  0.
     999903    2    3    3    0    0 -0.12170761335E-01 -0.55831817715E-01 -0.11911854713E+00  0.13358170124E+00  0.19736345499E-01 0.  0.
         14    1    1    2    0    0  0.11549496780E-01  0.10801130063E-01  0.17131775733E-01  0.23314223690E-01  0.00000000000E+00 0. -1.
     999901    1    3    3    0    0  0.62126455434E-03  0.45030687652E-01  0.10198677140E+00  0.88703407507E+00  0.88000000000E+00 0. -1.
        -11    1    4    4    0    0 -0.15932404534E-02 -0.30498933987E-01 -0.43668525975E-01  0.53290943614E-01  0.51100000000E-03 0. -1.
         11    1    4    4    0    0 -0.10577520881E-01 -0.25332883728E-01 -0.75450021158E-01  0.80290757623E-01  0.51100000000E-03 0.  1.
</event>
<event>
 8    1  0.1132492E+005  0.1043930E+01  0.7957747E-01            NaN
         13   -1    0    0    0    0  0.00000000000E+00  0.00000000000E+00  0.74505805969E-08  0.10566000000E+00  0.10566000000E+00 0. -1.
     999900   -1    0    0    0    0 -0.00000000000E+00 -0.00000000000E+00 -0.74505805969E-08  0.93827000000E+00  0.93827000000E+00 0.  1.
     999902    2    1    2    0    0 -0.72655599479E-02  0.14256999986E-01  0.16283550184E-01  0.10211000982E+01  0.10208448492E+01 0.  0.
     999903    2    3    3    0    0 -0.49019576580E-01  0.83570053659E-01 -0.86294420130E-01  0.13145413641E+00  0.21132682699E-01 0.  0.
         14    1    1    2    0    0  0.72655599479E-02 -0.14256999986E-01 -0.16283550184E-01  0.22829901808E-01  0.00000000000E+00 0.  1.
     999901    1    3    3    0    0  0.41754016632E-01 -0.69313053673E-01  0.10257797031E+00  0.88964596178E+00  0.88000000000E+00 0. -1.
        -11    1    4    4    0    0 -0.26151850253E-01  0.35799498715E-01 -0.52094184164E-01  0.68407518041E-01  0.51100000000E-03 0.  1.
         11    1    4    4    0    0 -0.22867726328E-01  0.47770554945E-01 -0.34200235966E-01  0.63046618373E-01  0.51100000000E-03 0. -1.
</event>
<event>
 8    1  0.1132492E+005  0.1043930E+01  0.7957747E-01            NaN
         13   -1    0    0    0    0  0.00000000000E+00  0.00000000000E+00  0.74505805969E-08  0.10566000000E+00  0.10566000000E+00 0. -1.
     999900   -1    0    0    0    0 -0.00000000000E+00 -0.00000000000E+00 -0.74505805969E-08  0.93827000000E+00  0.93827000000E+00 0. -1.
     999902    2    1    2    0    0 -0.20656097088E-01 -0.95292498623E-02  0.59840087970E-02  0.10204078974E+01  0.10201367495E+01 0.  0.
     999903    2    3    3    0    0  0.40037099203E-01  0.11817642787E+00  0.52707614252E-03  0.12910425535E+00  0.33151071242E-01 0.  0.
         14    1    1    2    0    0  0.20656097088E-01  0.95292498623E-02 -0.59840087970E-02  0.23522102609E-01  0.00000000000E+00 0.  1.
     999901    1    3    3    0    0 -0.60693196292E-01 -0.12770567773E+00  0.54569326544E-02  0.89130364204E+00  0.88000000000E+00 0. -1.
        -11    1    4    4    0    0  0.20522934153E-01  0.62367348710E-01 -0.16260128042E-01  0.67642663285E-01  0.51100000000E-03 0. -1.
         11    1    4    4    0    0  0.19514165050E-01  0.55809079157E-01  0.16787204185E-01  0.61461592066E-01  0.51100000000E-03 0.  1.
</event>
<event>
 8    1  0.1132492E+005  0.1043930E+01  0.7957747E-01            NaN
         13   -1    0    0    0    0  0.00000000000E+00  0.00000000000E+00  0.74505805969E-08  0.10566000000E+00  0.10566000000E+00 0.  1.
     999900   -1    0    0    0    0 -0.00000000000E+00 -0.00000000000E+00 -0.74505805969E-08  0.93827000000E+00  0.93827000000E+00 0. -1.
     999902    2    1    2    0    0 -0.97919931519E-02 -0.16116826225E-01  0.15418439075E-01  0.10195709466E+01  0.10192799182E+01 0.  0.
     999903    2    3    3    0    0 -0.80051959390E-01  0.57498154635E-01 -0.80050078743E-01  0.12857719460E+00  0.20241686595E-01 0.  0.
         14    1    1    2    0    0  0.97919931519E-02  0.16116826225E-01 -0.15418439075E-01  0.24359053368E-01  0.00000000000E+00 0. -1.
     999901    1    3    3    0    0  0.70259966238E-01 -0.73614980861E-01  0.95468517819E-01  0.89099375203E+00  0.88000000000E+00 0.  1.
        -11    1    4    4    0    0 -0.51135373147E-01  0.26982737085E-01 -0.54019339953E-01  0.79128027256E-01  0.51100000000E-03 0.  1.
         11    1    4    4    0    0 -0.28916586242E-01  0.30515417550E-01 -0.26030738790E-01  0.49449167345E-01  0.51100000000E-03 0. -1.
</event>
<event>
 8    1  0.1132492E+005  0.1043930E+01  0.7957747E-01            NaN
         13   -1    0    0    0    0  0.00000000000E+00  0.00000000000E+00  0.74505805969E-08  0.10566000000E+00  0.10566000000E+00 0. -1.
     999900   -1    0    0    0    0 -0.00000000000E+00 -0.00000000000E+00 -0.74505805969E-08  0.93827000000E+00  0.93827000000E+00 0.  1.
     999902    2    1    2    0    0 -0.99840160026E-02  0.18159576662E-01  0.57878235741E-02  0.10224137340E+01  0.10221873086E+01 0.  0.
     999903    2    3    3    0    0 -0.94770867080E-01 -0.86486531149E-01 -0.21963784484E-01  0.13173434740E+00  0.20250756500E-01 0.  0.
         14    1    1    2    0    0  0.99840160026E-02 -0.18159576662E-01 -0.57878235741E-02  0.21516265982E-01  0.00000000000E+00 0. -1.
     999901    1    3    3    0    0  0.84786851077E-01  0.10464610781E+00  0.27751608058E-01  0.89067938662E+00  0.88000000000E+00 0.  1.
        -11    1    4    4    0    0 -0.71102345758E-01 -0.58140742307E-01 -0.23373301000E-01  0.94775850347E-01  0.51100000000E-03 0.  1.
         11    1    4    4    0    0 -0.23668521322E-01 -0.28345788842E-01  0.14095165159E-02  0.36958497054E-01  0.51100000000E-03 0. -1.
</event>
<event>
 8    1  0.1132492E+005  0.1043930E+01  0.7957747E-01            NaN
         13   -1    0    0    0    0  0.00000000000E+00  0.00000000000E+00  0.74505805969E-08  0.10566000000E+00  0.10566000000E+00 0.  1.
     999900   -1    0    0    0    0 -0.00000000000E+00 -0.00000000000E+00 -0.74505805969E-08  0.93827000000E+00  0.93827000000E+00 0. -1.
     999902    2    1    2    0    0 -0.21856610731E-01  0.67196285484E-02  0.31609061666E-02  0.10208463225E+01  0.10205853016E+01 0.  0.
     999903    2    3    3    0    0 -0.90767109461E-01  0.80936986651E-01 -0.50294365542E-01  0.13342627585E+00  0.21990541437E-01 0.  0.
         14    1    1    2    0    0  0.21856610731E-01 -0.67196285484E-02 -0.31609061666E-02  0.23083677529E-01  0.00000000000E+00 0. -1.
     999901    1    3    3    0    0  0.68910498730E-01 -0.74217358103E-01  0.53455271709E-01  0.88742004663E+00  0.88000000000E+00 0.  1.
        -11    1    4    4    0    0 -0.54552310700E-01  0.54654721786E-01 -0.21306761292E-01  0.80108254344E-01  0.51100000000E-03 0.  1.
         11    1    4    4    0    0 -0.36214798761E-01  0.26282264864E-01 -0.28987604250E-01  0.53318021502E-01  0.51100000000E-03 0. -1.
</event>
<event>
 8    1  0.1132492E+005  0.1043930E+01  0.7957747E-01            NaN
         13   -1    0    0    0    0  0.00000000000E+00  0.00000000000E+00  0.74505805969E-08  0.10566000000E+00  0.10566000000E+00 0. -1.
     999900   -1    0    0    0    0 -0.00000000000E+00 -0.00000000000E+00 -0.74505805969E-08  0.93827000000E+00  0.93827000000E+00 0. -1.
     999902    2    1    2    0    0  0.33821632463E-01  0.41548826437E-02  0.14556673956E-01  0.10068751403E+01  0.10061930657E+01 0.  0.
     999903    2    3    3    0    0 -0.10719913367E+00 -0.35747320443E-01  0.59163182319E-03  0.11464531300E+00  0.19330612660E-01 0.  0.
         14    1    1    2    0    0 -0.33821632463E-01 -0.41548826437E-02 -0.14556673956E-01  0.37054859721E-01  0.00000000000E+00 0. -1.
     999901    1    3    3    0    0  0.14102076613E+00  0.39902203086E-01  0.13965042133E-01  0.89222982728E+00  0.88000000000E+00 0.  1.
        -11    1    4    4    0    0 -0.63276894160E-01 -0.12188604262E-01 -0.41533580005E-02  0.64575838454E-01  0.51100000000E-03 0.  1.
         11    1    4    4    0    0 -0.43922239508E-01 -0.23558716181E-01  0.47449898237E-02  0.50069474542E-01  0.51100000000E-03 0. -1.
</event>
<event>
 8    1  0.1132492E+005  0.1043930E+01  0.7957747E-01            NaN
         13   -1    0    0    0    0  0.00000000000E+00  0.00000000000E+00  0.74505805969E-08  0.10566000000E+00  0.10566000000E+00 0. -1.
     999900   -1    0    0    0    0 -0.00000000000E+00 -0.00000000000E+00 -0.74505805969E-08  0.93827000000E+00  0.93827000000E+00 0. -1.
     999902    2    1    2    0    0  0.94770065687E-02  0.22552047332E-01  0.30333755274E-03  0.10194657300E+01  0.10191721514E+01 0.  0.
     999903    2    3    3    0    0 -0.10853782843E+00 -0.56753004316E-01 -0.29935688810E-01  0.12754017751E+00  0.19209052937E-01 0.  0.
         14    1    1    2    0    0 -0.94770065687E-02 -0.22552047332E-01 -0.30333755274E-03  0.24464269988E-01  0.00000000000E+00 0.  1.
     999901    1    3    3    0    0  0.11801483500E+00  0.79305051649E-01  0.30239026363E-01  0.89192555251E+00  0.88000000000E+00 0.  1.
        -11    1    4    4    0    0 -0.41442455508E-01 -0.30773685849E-01 -0.74425261577E-02  0.52155049380E-01  0.51100000000E-03 0.  1.
         11    1    4    4    0    0 -0.67095372922E-01 -0.25979318468E-01 -0.22493162653E-01  0.75385128127E-01  0.51100000000E-03 0. -1.
</event>
<event>
 8    1  0.1132492E+005  0.1043930E+01  0.7957747E-01            NaN
         13   -1    0    0    0    0  0.00000000000E+00  0.00000000000E+00  0.74505805969E-08  0.10566000000E+00  0.10566000000E+00 0.  1.
     999900   -1    0    0    0    0 -0.00000000000E+00 -0.00000000000E+00 -0.74505805969E-08  0.93827000000E+00  0.93827000000E+00 0. -1.
     999902    2    1    2    0    0 -0.14070540786E-01  0.62351194108E-02 -0.17694322673E-01  0.10204790749E+01  0.10202095846E+01 0.  0.
     999903    2    3    3    0    0  0.40707879022E-01 -0.59465118384E-01 -0.10836425538E+00  0.13169438040E+00  0.20183316539E-01 0.  0.
         14    1    1    2    0    0  0.14070540786E-01 -0.62351194108E-02  0.17694322673E-01  0.23450925076E-01  0.00000000000E+00 0.  1.
     999901    1    3    3    0    0 -0.54778419808E-01  0.65700237795E-01  0.90669932704E-01  0.88878469452E+00  0.88000000000E+00 0.  1.
        -11    1    4    4    0    0  0.59287503229E-02 -0.22486682205E-01 -0.43467416328E-01  0.49299881950E-01  0.51100000000E-03 0. -1.
         11    1    4    4    0    0  0.34779128699E-01 -0.36978436179E-01 -0.64896839049E-01  0.82394498450E-01  0.51100000000E-03 0.  1.
</event>
<event>
 8    1  0.1132492E+005  0.1043930E+01  0.7957747E-01            NaN
         13   -1    0    0    0    0  0.00000000000E+00  0.00000000000E+00  0.74505805969E-08  0.10566000000E+00  0.10566000000E+00 0. -1.
     999900   -1    0    0    0    0 -0.00000000000E+00 -0.00000000000E+00 -0.74505805969E-08  0.93827000000E+00  0.93827000000E+00 0.  1.
     999902    2    1    2    0    0 -0.11970219378E-01 -0.98344407967E-02 -0.18781023644E-01  0.10195839690E+01  0.10192932554E+01 0.  0.
     999903    2    3    3    0    0 -0.49477749882E-01 -0.11882159574E+00 -0.21062189849E-01  0.13206483199E+00  0.20757761415E-01 0.  0.
         14    1    1    2    0    0  0.11970219378E-01  0.98344407967E-02  0.18781023644E-01  0.24346031028E-01  0.00000000000E+00 0. -1.
     999901    1    3    3    0    0  0.37507530504E-01  0.10898715495E+00  0.22811662058E-02  0.88751913698E+00  0.88000000000E+00 0.  1.
        -11    1    4    4    0    0 -0.33910941615E-01 -0.92629815596E-01 -0.81831360521E-02  0.98982117249E-01  0.51100000000E-03 0. -1.
         11    1    4    4    0    0 -0.15566808266E-01 -0.26191780148E-01 -0.12879053797E-01  0.33082714741E-01  0.51100000000E-03 0.  1.
</event>
<event>
 8    1  0.1132492E+005  0.1043930E+01  0.7957747E-01            NaN
         13   -1    0    0    0    0  0.00000000000E+00  0.00000000000E+00  0.74505805969E-08  0.10566000000E+00  0.10566000000E+00 0. -1.
     999900   -1    0    0    0    0 -0.00000000000E+00 -0.00000000000E+00 -0.74505805969E-08  0.93827000000E+00  0.93827000000E+00 0. -1.
     999902    2    1    2    0    0  0.53669813002E-02  0.31470336863E-02 -0.22848733977E-01  0.10202493549E+01  0.10199744963E+01 0.  0.
     999903    2    3    3    0    0  0.43900017771E-02 -0.11725398083E-01 -0.13144727376E+00  0.13344848288E+00  0.19322389304E-01 0.  0.
         14    1    1    2    0    0 -0.53669813002E-02 -0.31470336863E-02  0.22848733977E-01  0.23680645127E-01  0.00000000000E+00 0. -1.
     999901    1    3    3    0    0  0.97697952307E-03  0.14872431769E-01  0.10859853979E+00  0.88680087199E+00  0.88000000000E+00 0.  1.
        -11    1    4    4    0    0  0.11105560684E-02 -0.16060186692E-01 -0.73473568216E-01  0.75218277558E-01  0.51100000000E-03 0.  1.
         11    1    4    4    0    0  0.32794457087E-02  0.43347886090E-02 -0.57973705548E-01  0.58230205327E-01  0.51100000000E-03 0. -1.
</event>
<event>
 8    1  0.1132492E+005  0.1043930E+01  0.7957747E-01            NaN
         13   -1    0    0    0    0  0.00000000000E+00  0.00000000000E+00  0.74505805969E-08  0.10566000000E+00  0.10566000000E+00 0. -1.
     999900   -1    0    0    0    0 -0.00000000000E+00 -0.00000000000E+00 -0.74505805969E-08  0.93827000000E+00  0.93827000000E+00 0. -1.
     999902    2    1    2    0    0  0.56307966737E-02  0.14617652482E-01 -0.11794972921E-01  0.10243212514E+01  0.10241335475E+01 0.  0.
     999903    2    3    3    0    0 -0.43507468348E-01 -0.10772515798E+00 -0.61679396842E-01  0.13310254193E+00  0.20355078218E-01 0.  0.
         14    1    1    2    0    0 -0.56307966737E-02 -0.14617652482E-01  0.11794972921E-01  0.19608748596E-01  0.00000000000E+00 0. -1.
     999901    1    3    3    0    0  0.49138265022E-01  0.12234281047E+00  0.49884423921E-01  0.89121870947E+00  0.88000000000E+00 0.  1.
        -11    1    4    4    0    0 -0.72245667537E-02 -0.22347693017E-01 -0.39049562169E-02  0.23814356007E-01  0.51100000000E-03 0.  1.
         11    1    4    4    0    0 -0.36282901595E-01 -0.85377464968E-01 -0.57774440625E-01  0.10928818593E+00  0.51100000000E-03 0. -1.
</event>
<event>
 8    1  0.1132492E+005  0.1043930E+01  0.7957747E-01            NaN
         13   -1    0    0    0    0  0.00000000000E+00  0.00000000000E+00  0.74505805969E-08  0.10566000000E+00  0.10566000000E+00 0.  1.
     999900   -1    0    0    0    0 -0.00000000000E+00 -0.00000000000E+00 -0.74505805969E-08  0.93827000000E+00  0.93827000000E+00 0.  1.
     999902    2    1    2    0    0 -0.13361199505E-01 -0.19865472560E-02  0.19384822383E-01  0.10203029104E+01  0.10200293083E+01 0.  0.
     999903    2    3    3    0    0  0.76398046945E-01  0.98203219451E-01  0.31858185189E-01  0.12999380881E+00  0.20072679852E-01 0.  0.
         14    1    1    2    0    0  0.13361199505E-01  0.19865472560E-02 -0.19384822383E-01  0.23627089559E-01  0.00000000000E+00 0. -1.
     999901    1    3    3    0    0 -0.89759246450E-01 -0.10018976671E+00 -0.12473362806E-01  0.89030910164E+00  0.88000000000E+00 0.  1.
        -11    1    4    4    0    0  0.11232752715E-01  0.26934308780E-01  0.11030315184E-01  0.31201934188E-01  0.51100000000E-03 0. -1.
         11    1    4    4    0    0  0.65165294230E-01  0.71268910671E-01  0.20827870005E-01  0.98791874617E-01  0.51100000000E-03 0.  1.
</event>
<event>
 8    1  0.1132492E+005  0.1043930E+01  0.7957747E-01            NaN
         13   -1    0    0    0    0  0.00000000000E+00  0.00000000000E+00  0.74505805969E-08  0.10566000000E+00  0.10566000000E+00 0. -1.
     999900   -1    0    0    0    0 -0.00000000000E+00 -0.00000000000E+00 -0.74505805969E-08  0.93827000000E+00  0.93827000000E+00 0.  1.
     999902    2    1    2    0    0  0.82502251296E-02 -0.19814234425E-01 -0.75428913456E-03  0.10224535233E+01  0.10222279434E+01 0.  0.
     999903    2    3    3    0    0 -0.24922003538E-01  0.11050028623E+00 -0.61049474571E-01  0.13019919830E+00  0.19833642497E-01 0.  0.
         14    1    1    2    0    0 -0.82502251296E-02  0.19814234425E-01  0.75428913456E-03  0.21476476728E-01  0.00000000000E+00 0. -1.
     999901    1    3    3    0    0  0.33172228668E-01 -0.13031452066E+00  0.60295185437E-01  0.89225432497E+00  0.88000000000E+00 0. -1.
        -11    1    4    4    0    0 -0.20828590206E-01  0.57404000810E-01 -0.25560750219E-01  0.66201680883E-01  0.51100000000E-03 0. -1.
         11    1    4    4    0    0 -0.40934133317E-02  0.53096285420E-01 -0.35488724352E-01  0.63997517415E-01  0.51100000000E-03 0.  1.
</event>
<event>
 8    1  0.1132492E+005  0.1043930E+01  0.7957747E-01            NaN
         13   -1    0    0    0    0  0.00000000000E+00  0.00000000000E+00  0.74505805969E-08  0.10566000000E+00  0.10566000000E+00 0.  1.
     999900   -1    0    0    0    0 -0.00000000000E+00 -0.00000000000E+00 -0.74505805969E-08  0.93827000000E+00  0.93827000000E+00 0. -1.
     999902    2    1    2    0    0 -0.15993026585E-01 -0.10344776540E-01  0.11406490170E-01  0.10217286640E+01  0.10214874270E+01 0.  0.
     999903    2    3    3    0    0  0.79674993648E-01 -0.94691136171E-01  0.41644701936E-01  0.13202026914E+00  0.19507803118E-01 0.  0.
         14    1    1    2    0    0  0.15993026585E-01  0.10344776540E-01 -0.11406490170E-01  0.22201335974E-01  0.00000000000E+00 0.  1.
     999901    1    3    3    0    0 -0.95668020233E-01  0.84346359631E-01 -0.30238211766E-01  0.88970839489E+00  0.88000000000E+00 0. -1.
        -11    1    4    4    0    0  0.60414840384E-01 -0.72426273478E-01  0.40240301361E-01  0.10254297150E+00  0.51100000000E-03 0. -1.
         11    1    4    4    0    0  0.19260153264E-01 -0.22264862693E-01  0.14044005756E-02  0.29477297645E-01  0.51100000000E-03 0.  1.
</event>
<event>
 8    1  0.1132492E+005  0.1043930E+01  0.7957747E-01            NaN
         13   -1    0    0    0    0  0.00000000000E+00  0.00000000000E+00  0.74505805969E-08  0.10566000000E+00  0.10566000000E+00 0. -1.
     999900   -1    0    0    0    0 -0.00000000000E+00 -0.00000000000E+00 -0.74505805969E-08  0.93827000000E+00  0.93827000000E+00 0.  1.
     999902    2    1    2    0    0  0.22063499388E-01  0.19754326430E-02  0.69267769507E-02  0.10207205067E+01  0.10204565999E+01 0.  0.
     999903    2    3    3    0    0 -0.30372548558E-01  0.11833367736E+00  0.42677661509E-01  0.13079528178E+00  0.18991367536E-01 0.  0.
         14    1    1    2    0    0 -0.22063499388E-01 -0.19754326430E-02 -0.69267769507E-02  0.23209493280E-01  0.00000000000E+00 0. -1.
     999901    1    3    3    0    0  0.52436047947E-01 -0.11635824472E+00 -0.35750884559E-01  0.88992522494E+00  0.88000000000E+00 0.  1.
        -11    1    4    4    0    0 -0.14961587580E-01  0.50969402085E-01  0.88532829579E-02  0.53855090678E-01  0.51100000000E-03 0. -1.
         11    1    4    4    0    0 -0.15410960978E-01  0.67364275274E-01  0.33824378551E-01  0.76940191102E-01  0.51100000000E-03 0.  1.
</event>
<event>
 8    1  0.1132492E+005  0.1043930E+01  0.7957747E-01            NaN
         13   -1    0    0    0    0  0.00000000000E+00  0.00000000000E+00  0.74505805969E-08  0.10566000000E+00  0.10566000000E+00 0. -1.
     999900   -1    0    0    0    0 -0.00000000000E+00 -0.00000000000E+00 -0.74505805969E-08  0.93827000000E+00  0.93827000000E+00 0.  1.
     999902    2    1    2    0    0  0.40960946391E-02 -0.17546422193E-01 -0.15282803400E-01  0.10203033413E+01  0.10200297492E+01 0.  0.
     999903    2    3    3    0    0 -0.34045622177E-01  0.12088002709E+00 -0.19843638930E-01  0.12865460233E+00  0.19676162157E-01 0.  0.
         14    1    1    2    0    0 -0.40960946391E-02  0.17546422193E-01  0.15282803400E-01  0.23626658732E-01  0.00000000000E+00 0. -1.
     999901    1    3    3    0    0  0.38141716816E-01 -0.13842644928E+00  0.45608355303E-02  0.89164873893E+00  0.88000000000E+00 0. -1.
        -11    1    4    4    0    0 -0.20508435517E-01  0.67638480754E-01 -0.13719870714E-02  0.70694437373E-01  0.51100000000E-03 0. -1.
         11    1    4    4    0    0 -0.13537186660E-01  0.53241546335E-01 -0.18471651859E-01  0.57960164960E-01  0.51100000000E-03 0.  1.
</event>
<event>
 8    1  0.1132492E+005  0.1043930E+01  0.7957747E-01            NaN
         13   -1    0    0    0    0  0.00000000000E+00  0.00000000000E+00  0.74505805969E-08  0.10566000000E+00  0.10566000000E+00 0.  1.
     999900   -1    0    0    0    0 -0.00000000000E+00 -0.00000000000E+00 -0.74505805969E-08  0.93827000000E+00  0.93827000000E+00 0.  1.
     999902    2    1    2    0    0  0.81223682743E-02  0.81356213281E-02 -0.20965344113E-01  0.10200196078E+01  0.10197393262E+01 0.  0.
     999903    2    3    3    0    0 -0.71927931688E-01  0.10651592701E+00  0.11319711566E-01  0.13034041850E+00  0.18472107707E-01 0.  0.
         14    1    1    2    0    0 -0.81223682743E-02 -0.81356213281E-02  0.20965344113E-01  0.23910392187E-01  0.00000000000E+00 0. -1.
     999901    1    3    3    0    0  0.80050299962E-01 -0.98380305677E-01 -0.32285055678E-01  0.88967918931E+00  0.88000000000E+00 0.  1.
        -11    1    4    4    0    0 -0.62408830994E-01  0.80722196080E-01  0.12608342618E-01  0.10281131528E+00  0.51100000000E-03 0.  1.
         11    1    4    4    0    0 -0.95191006944E-02  0.25793730925E-01 -0.12886310519E-02  0.27529103219E-01  0.51100000000E-03 0. -1.
</event>
<event>
 8    1  0.1132492E+005  0.1043930E+01  0.7957747E-01            NaN
         13   -1    0    0    0    0  0.00000000000E+00  0.00000000000E+00  0.74505805969E-08  0.10566000000E+00  0.10566000000E+00 0. -1.
     999900   -1    0    0    0    0 -0.00000000000E+00 -0.00000000000E+00 -0.74505805969E-08  0.93827000000E+00  0.93827000000E+00 0. -1.
     999902    2    1    2    0    0  0.11740694071E-01 -0.80216431406E-02 -0.19652056165E-01  0.10196731666E+01  0.10193846049E+01 0.  0.
     999903    2    3    3    0    0 -0.32505078840E-01 -0.12381149498E+00 -0.19830599196E-01  0.13098592684E+00  0.19447208678E-01 0.  0.
         14    1    1    2    0    0 -0.11740694071E-01  0.80216431406E-02  0.19652056165E-01  0.24256833418E-01  0.00000000000E+00 0. -1.
     999901    1    3    3    0    0  0.44245772911E-01  0.11578985184E+00  0.17854303077E-03  0.88868723975E+00  0.88000000000E+00 0. -1.
        -11    1    4    4    0    0 -0.11740438549E-01 -0.63988857777E-01 -0.15629738594E-02  0.65077767519E-01  0.51100000000E-03 0.  1.
         11    1    4    4    0    0 -0.20764640290E-01 -0.59822637202E-01 -0.18267625337E-01  0.65908159318E-01  0.51100000000E-03 0. -1.
</event>
<event>
 8    1  0.1132492E+005  0.1043930E+01  0.7957747E-01            NaN
         13   -1    0    0    0    0  0.00000000000E+00  0.00000000000E+00  0.74505805969E-08  0.10566000000E+00  0.10566000000E+00 0.  1.
     999900   -1    0    0    0    0 -0.00000000000E+00 -0.00000000000E+00 -0.74505805969E-08  0.93827000000E+00  0.93827000000E+00 0.  1.
     999902    2    1    2    0    0  0.39071539515E-02 -0.23392388145E-02 -0.23209342822E-01  0.10202781188E+01  0.10200039354E+01 0.  0.
     999903    2    3    3    0    0  0.62670947091E-01  0.99191727763E-01  0.51562655171E-01  0.12935019116E+00  0.17496230428E-01 0.  0.
         14    1    1    2    0    0 -0.39071539515E-02  0.23392388145E-02  0.23209342822E-01  0.23651881203E-01  0.00000000000E+00 0.  1.
     999901    1    3    3    0    0 -0.58763793139E-01 -0.10153096658E+00 -0.74771997993E-01  0.89092792764E+00  0.88000000000E+00 0.  1.
        -11    1    4    4    0    0  0.17673514366E-01  0.36447434452E-01  0.10279592085E-01  0.41793536852E-01  0.51100000000E-03 0. -1.
         11    1    4    4    0    0  0.44997432725E-01  0.62744293310E-01  0.41283063087E-01  0.87556654308E-01  0.51100000000E-03 0.  1.
</event>
<event>
 8    1  0.1132492E+005  0.1043930E+01  0.7957747E-01            NaN
         13   -1    0    0    0    0  0.00000000000E+00  0.00000000000E+00  0.74505805969E-08  0.10566000000E+00  0.10566000000E+00 0.  1.
     999900   -1    0    0    0    0 -0.00000000000E+00 -0.00000000000E+00 -0.74505805969E-08  0.93827000000E+00  0.93827000000E+00 0. -1.
     999902    2    1    2    0    0 -0.50972126302E-02 -0.88934911815E-02  0.21118871183E-01  0.10204548540E+01  0.10201848002E+01 0.  0.
     999903    2    3    3    0    0 -0.99967164417E-01  0.75097729090E-01 -0.29541301410E-01  0.12993742800E+00  0.19440777509E-01 0.  0.
         14    1    1    2    0    0  0.50972126302E-02  0.88934911815E-02 -0.21118871183E-01  0.23475146049E-01  0.00000000000E+00 0. -1.
     999901    1    3    3    0    0  0.94869951787E-01 -0.83991220271E-01  0.50660172593E-01  0.89051742595E+00  0.88000000000E+00 0. -1.
        -11    1    4    4    0    0 -0.54964413484E-01  0.52380435406E-01 -0.14234197767E-01  0.77250697538E-01  0.51100000000E-03 0.  1.
         11    1    4    4    0    0 -0.45002750933E-01  0.22717293684E-01 -0.15307103644E-01  0.52686730462E-01  0.51100000000E-03 0. -1.
</event>
<event>
 8    1  0.1132492E+005  0.1043930E+01  0.7957747E-01            NaN
         13   -1    0    0    0    0  0.00000000000E+00  0.00000000000E+00  0.74505805969E-08  0.10566000000E+00  0.10566000000E+00 0.  1.
     999900   -1    0    0    0    0 -0.00000000000E+00 -0.00000000000E+00 -0.74505805969E-08  0.93827000000E+00  0.93827000000E+00 0. -1.
     999902    2    1    2    0    0  0.11176688182E-01  0.21543648354E-01 -0.40167543201E-02  0.10193295639E+01  0.10190326679E+01 0.  0.
     999903    2    3    3    0    0  0.78495586947E-01 -0.97452246772E-01  0.20660765554E-01  0.12843067107E+00  0.20225539954E-01 0.  0.
         14    1    1    2    0    0 -0.11176688182E-01 -0.21543648354E-01  0.40167543201E-02  0.24600436142E-01  0.00000000000E+00 0.  1.
     999901    1    3    3    0    0 -0.67318898765E-01  0.11899589513E+00 -0.24677519874E-01  0.89089889279E+00  0.88000000000E+00 0. -1.
        -11    1    4    4    0    0  0.59584904525E-02 -0.12578575248E-01 -0.31303343497E-02  0.14275303075E-01  0.51100000000E-03 0. -1.
         11    1    4    4    0    0  0.72537096495E-01 -0.84873671524E-01  0.23791099903E-01  0.11415536799E+00  0.51100000000E-03 0.  1.
</event>
<event>
 8    1  0.1132492E+005  0.1043930E+01  0.7957747E-01            NaN
         13   -1    0    0    0    0  0.00000000000E+00  0.00000000000E+00  0.74505805969E-08  0.10566000000E+00  0.10566000000E+00 0.  1.
     999900   -1    0    0    0    0 -0.00000000000E+00 -0.00000000000E+00 -0.74505805969E-08  0.93827000000E+00  0.93827000000E+00 0. -1.
     999902    2    1    2    0    0 -0.12531521868E-01 -0.12370723665E-02  0.22759911766E-01  0.10179187914E+01  0.10175864007E+01 0.  0.
     999903    2    3    3    0    0  0.12210359723E+00 -0.17254911036E-01 -0.14991917760E-01  0.12673509145E+00  0.25099908279E-01 0.  0.
         14    1    1    2    0    0  0.12531521868E-01  0.12370723665E-02 -0.22759911766E-01  0.26011208583E-01  0.00000000000E+00 0. -1.
     999901    1    3    3    0    0 -0.13463511910E+00  0.16017838670E-01  0.37751829525E-01  0.89118369996E+00  0.88000000000E+00 0. -1.
        -11    1    4    4    0    0  0.63541053802E-01 -0.17867165955E-01 -0.16898649552E-01  0.68136088934E-01  0.51100000000E-03 0.  1.
         11    1    4    4    0    0  0.58562543429E-01  0.61225491876E-03  0.19067317928E-02  0.58599002518E-01  0.51100000000E-03 0. -1.
</event>
<event>
 8    1  0.1132492E+005  0.1043930E+01  0.7957747E-01            NaN
         13   -1    0    0    0    0  0.00000000000E+00  0.00000000000E+00  0.74505805969E-08  0.10566000000E+00  0.10566000000E+00 0. -1.
     999900   -1    0    0    0    0 -0.00000000000E+00 -0.00000000000E+00 -0.74505805969E-08  0.93827000000E+00  0.93827000000E+00 0. -1.
     999902    2    1    2    0    0 -0.14675681975E-01  0.16318574114E-01 -0.13453137799E-01  0.10181878474E+01  0.10178623847E+01 0.  0.
     999903    2    3    3    0    0  0.42178792059E-01 -0.25256359676E-01 -0.11781962994E+00  0.12922594103E+00  0.20023596915E-01 0.  0.
         14    1    1    2    0    0  0.14675681975E-01 -0.16318574114E-01  0.13453137799E-01  0.25742152575E-01  0.00000000000E+00 0. -1.
     999901    1    3    3    0    0 -0.56854474034E-01  0.41574933790E-01  0.10436649214E+00  0.88896190639E+00  0.88000000000E+00 0. -1.
        -11    1    4    4    0    0  0.36486252434E-01 -0.11640309383E-01 -0.83631953184E-01  0.91985369128E-01  0.51100000000E-03 0.  1.
         11    1    4    4    0    0  0.56925396245E-02 -0.13616050292E-01 -0.34187676753E-01  0.37240571904E-01  0.51100000000E-03 0. -1.
</event>
<event>
 8    1  0.1132492E+005  0.1043930E+01  0.7957747E-01            NaN
         13   -1    0    0    0    0  0.00000000000E+00  0.00000000000E+00  0.74505805969E-08  0.10566000000E+00  0.10566000000E+00 0.  1.
     999900   -1    0    0    0    0 -0.00000000000E+00 -0.00000000000E+00 -0.74505805969E-08  0.93827000000E+00  0.93827000000E+00 0.  1.
     999902    2    1    2    0    0 -0.20079305732E-01  0.22970637410E-02  0.15887957587E-01  0.10182223705E+01  0.10178977913E+01 0.  0.
     999903    2    3    3    0    0  0.90386320869E-01  0.77386338530E-02 -0.85126376674E-01  0.12556557130E+00  0.17048144686E-01 0.  0.
         14    1    1    2    0    0  0.20079305732E-01 -0.22970637410E-02 -0.15887957587E-01  0.25707629544E-01  0.00000000000E+00 0.  1.
     999901    1    3    3    0    0 -0.11046562660E+00 -0.54415701119E-02  0.10101433426E+00  0.89265679915E+00  0.88000000000E+00 0. -1.
        -11    1    4    4    0    0  0.79652694078E-01  0.12250155957E-01 -0.72828093496E-01  0.10862232882E+00  0.51100000000E-03 0. -1.
         11    1    4    4    0    0  0.10733626791E-01 -0.45115221041E-02 -0.12298283178E-01  0.16943242485E-01  0.51100000000E-03 0.  1.
</event>
<event>
 8    1  0.1132492E+005  0.1043930E+01  0.7957747E-01            NaN
         13   -1    0    0    0    0  0.00000000000E+00  0.00000000000E+00  0.74505805969E-08  0.10566000000E+00  0.10566000000E+00 0.  1.
     999900   -1    0    0    0    0 -0.00000000000E+00 -0.00000000000E+00 -0.74505805969E-08  0.93827000000E+00  0.93827000000E+00 0.  1.
     999902    2    1    2    0    0 -0.10153982766E-01  0.16023319419E-01 -0.13123269260E-01  0.10208633503E+01  0.10206027188E+01 0.  0.
     999903    2    3    3    0    0  0.26611716207E-01 -0.63268221818E-01 -0.11023938918E+00  0.13121712520E+00  0.18819130886E-01 0.  0.
         14    1    1    2    0    0  0.10153982766E-01 -0.16023319419E-01  0.13123269260E-01  0.23066649676E-01  0.00000000000E+00 0.  1.
     999901    1    3    3    0    0 -0.36765698973E-01  0.79291541236E-01  0.97116119918E-01  0.88964622513E+00  0.88000000000E+00 0. -1.
        -11    1    4    4    0    0  0.92875327069E-02 -0.44322727982E-01 -0.65482661402E-01  0.79617853179E-01  0.51100000000E-03 0.  1.
         11    1    4    4    0    0  0.17324183500E-01 -0.18945493836E-01 -0.44756727777E-01  0.51599272019E-01  0.51100000000E-03 0. -1.
</event>
<event>
 8    1  0.1132492E+005  0.1043930E+01  0.7957747E-01            NaN
         13   -1    0    0    0    0  0.00000000000E+00  0.00000000000E+00  0.74505805969E-08  0.10566000000E+00  0.10566000000E+00 0. -1.
     999900   -1    0    0    0    0 -0.00000000000E+00 -0.00000000000E+00 -0.74505805969E-08  0.93827000000E+00  0.93827000000E+00 0.  1.
     999902    2    1    2    0    0 -0.78338917660E-02 -0.92683179591E-02 -0.20432811455E-01  0.10201650813E+01  0.10198882398E+01 0.  0.
     999903    2    3    3    0    0  0.35619542758E-01  0.12002180021E+00  0.21649309689E-01  0.12866351619E+00  0.20288505011E-01 0.  0.
         14    1    1    2    0    0  0.78338917660E-02  0.92683179591E-02  0.20432811455E-01  0.23764918724E-01  0.00000000000E+00 0. -1.
     999901    1    3    3    0    0 -0.43453434524E-01 -0.12929011817E+00 -0.42082121144E-01  0.89150156509E+00  0.88000000000E+00 0. -1.
        -11    1    4    4    0    0  0.30928504441E-01  0.11579765727E+00  0.17592078938E-01  0.12114211562E+00  0.51100000000E-03 0.  1.
         11    1    4    4    0    0  0.46910383169E-02  0.42241429491E-02  0.40572307510E-02  0.75214005685E-02  0.51100000000E-03 0. -1.
</event>
<event>
 8    1  0.1132492E+005  0.1043930E+01  0.7957747E-01            NaN
         13   -1    0    0    0    0  0.00000000000E+00  0.00000000000E+00  0.74505805969E-08  0.10566000000E+00  0.10566000000E+00 0. -1.
     999900   -1    0    0    0    0 -0.00000000000E+00 -0.00000000000E+00 -0.74505805969E-08  0.93827000000E+00  0.93827000000E+00 0.  1.
     999902    2    1    2    0    0 -0.76309797999E-02  0.13912027194E-01 -0.14239825023E-01  0.10226098459E+01  0.10223875723E+01 0.  0.
     999903    2    3    3    0    0  0.43183806050E-01 -0.35125354533E-01  0.11601576456E+00  0.13022353614E+00  0.19997002319E-01 0.  0.
         14    1    1    2    0    0  0.76309797999E-02 -0.13912027194E-01  0.14239825023E-01  0.21320154081E-01  0.00000000000E+00 0. -1.
     999901    1    3    3    0    0 -0.50814785850E-01  0.49037381727E-01 -0.13025558958E+00  0.89238630978E+00  0.88000000000E+00 0.  1.
        -11    1    4    4    0    0  0.24729746170E-01 -0.29918486051E-01  0.64853918597E-01  0.75584178448E-01  0.51100000000E-03 0.  1.
         11    1    4    4    0    0  0.18454059880E-01 -0.52068684820E-02  0.51161845963E-01  0.54639357690E-01  0.51100000000E-03 0. -1.
</event>
<event>
 8    1  0.1132492E+005  0.1043930E+01  0.7957747E-01            NaN
         13   -1    0    0    0    0  0.00000000000E+00  0.00000000000E+00  0.74505805969E-08  0.10566000000E+00  0.10566000000E+00 0.  1.
     999900   -1    0    0    0    0 -0.00000000000E+00 -0.00000000000E+00 -0.74505805969E-08  0.93827000000E+00  0.93827000000E+00 0. -1.
     999902    2    1    2    0    0  0.73781375282E-02  0.74232446207E-02  0.18276938695E-01  0.10228684720E+01  0.10226516137E+01 0.  0.
     999903    2    3    3    0    0 -0.49096714928E-01  0.86176757828E-01 -0.84363819465E-01  0.13161842288E+00  0.19215467733E-01 0.  0.
         14    1    1    2    0    0 -0.73781375282E-02 -0.74232446207E-02 -0.18276938695E-01  0.21061528010E-01  0.00000000000E+00 0. -1.
     999901    1    3    3    0    0  0.56474852456E-01 -0.78753513207E-01  0.10264075816E+00  0.89125004911E+00  0.88000000000E+00 0.  1.
        -11    1    4    4    0    0 -0.35088036125E-01  0.43930484274E-01 -0.51996830936E-01  0.76583217979E-01  0.51100000000E-03 0.  1.
         11    1    4    4    0    0 -0.14008678802E-01  0.42246273554E-01 -0.32366988529E-01  0.55035204901E-01  0.51100000000E-03 0. -1.
</event>
<event>
 8    1  0.1132492E+005  0.1043930E+01  0.7957747E-01            NaN
         13   -1    0    0    0    0  0.00000000000E+00  0.00000000000E+00  0.74505805969E-08  0.10566000000E+00  0.10566000000E+00 0.  1.
     999900   -1    0    0    0    0 -0.00000000000E+00 -0.00000000000E+00 -0.74505805969E-08  0.93827000000E+00  0.93827000000E+00 0.  1.
     999902    2    1    2    0    0 -0.12421793627E-01  0.12147274117E-01 -0.13259364557E-01  0.10220743835E+01  0.10218406810E+01 0.  0.
     999903    2    3    3    0    0  0.10817498887E+00  0.46883891036E-02  0.68548102142E-01  0.13005886762E+00  0.22195889907E-01 0.  0.
         14    1    1    2    0    0  0.12421793627E-01 -0.12147274117E-01  0.13259364557E-01  0.21855616529E-01  0.00000000000E+00 0.  1.
     999901    1    3    3    0    0 -0.12059678250E+00  0.74588850135E-02 -0.81807466699E-01  0.89201551585E+00  0.88000000000E+00 0.  1.
        -11    1    4    4    0    0  0.61743065750E-01 -0.61817333146E-02  0.31029523665E-01  0.69379481512E-01  0.51100000000E-03 0. -1.
         11    1    4    4    0    0  0.46431923123E-01  0.10870122418E-01  0.37518578477E-01  0.60679386107E-01  0.51100000000E-03 0.  1.
</event>
<event>
 8    1  0.1132492E+005  0.1043930E+01  0.7957747E-01            NaN
         13   -1    0    0    0    0  0.00000000000E+00  0.00000000000E+00  0.74505805969E-08  0.10566000000E+00  0.10566000000E+00 0. -1.
     999900   -1    0    0    0    0 -0.00000000000E+00 -0.00000000000E+00 -0.74505805969E-08  0.93827000000E+00  0.93827000000E+00 0.  1.
     999902    2    1    2    0    0 -0.61842888553E-03 -0.19592078499E-01  0.15313898995E-01  0.10190553644E+01  0.10187517304E+01 0.  0.
     999903    2    3    3    0    0  0.99421353279E-01  0.92106889616E-02  0.81548123329E-01  0.13044716620E+00  0.19922963408E-01 0.  0.
         14    1    1    2    0    0  0.61842888553E-03  0.19592078499E-01 -0.15313898995E-01  0.24874635608E-01  0.00000000000E+00 0. -1.
     999901    1    3    3    0    0 -0.10003978216E+00 -0.28802767461E-01 -0.66234224334E-01  0.88860819820E+00  0.88000000000E+00 0.  1.
        -11    1    4    4    0    0  0.50591115936E-01  0.14651006869E-01  0.43008042549E-01  0.68000484254E-01  0.51100000000E-03 0. -1.
         11    1    4    4    0    0  0.48830237343E-01 -0.54403179077E-02  0.38540080780E-01  0.62446681941E-01  0.51100000000E-03 0.  1.
</event>
<event>
 8    1  0.1132492E+005  0.1043930E+01  0.7957747E-01            NaN
         13   -1    0    0    0    0  0.00000000000E+00  0.00000000000E+00  0.74505805969E-08  0.10566000000E+00  0.10566000000E+00 0.  1.
     999900   -1    0    0    0    0 -0.00000000000E+00 -0.00000000000E+00 -0.74505805969E-08  0.93827000000E+00  0.93827000000E+00 0. -1.
     999902    2    1    2    0    0  0.11315288148E-01 -0.18387447961E-01  0.12545568620E-01  0.10189595118E+01  0.10186535041E+01 0.  0.
     999903    2    3    3    0    0 -0.91334214768E-01  0.65240289896E-01  0.58434565728E-01  0.12787235612E+00  0.18398553579E-01 0.  0.
         14    1    1    2    0    0 -0.11315288148E-01  0.18387447961E-01 -0.12545568620E-01  0.24970488189E-01  0.00000000000E+00 0. -1.
     999901    1    3    3    0    0  0.10264950292E+00 -0.83627737858E-01 -0.45888997108E-01  0.89108715569E+00  0.88000000000E+00 0.  1.
        -11    1    4    4    0    0 -0.90092593039E-01  0.63265723618E-01  0.53520509865E-01  0.12240887714E+00  0.51100000000E-03 0.  1.
         11    1    4    4    0    0 -0.12416217293E-02  0.19745662787E-02  0.49140558624E-02  0.54634789764E-02  0.51100000000E-03 0. -1.
</event>
<event>
 8    1  0.1132492E+005  0.1043930E+01  0.7957747E-01            NaN
         13   -1    0    0    0    0  0.00000000000E+00  0.00000000000E+00  0.74505805969E-08  0.10566000000E+00  0.10566000000E+00 0. -1.
     999900   -1    0    0    0    0 -0.00000000000E+00 -0.00000000000E+00 -0.74505805969E-08  0.93827000000E+00  0.93827000000E+00 0. -1.
     999902    2    1    2    0    0 -0.32843493214E-03  0.11461237383E-01  0.20453291380E-01  0.10204820798E+01  0.10202126594E+01 0.  0.
     999903    2    3    3    0    0  0.90370898096E-01  0.83761808341E-01  0.45147122010E-01  0.13252739245E+00  0.18501550337E-01 0.  0.
         14    1    1    2    0    0  0.32843493214E-03 -0.11461237383E-01 -0.20453291380E-01  0.23447920167E-01  0.00000000000E+00 0.  1.
     999901    1    3    3    0    0 -0.90699333028E-01 -0.72300570958E-01 -0.24693830630E-01  0.88795468738E+00  0.88000000000E+00 0. -1.
        -11    1    4    4    0    0  0.34371518544E-01  0.33671428424E-01  0.27216839550E-01  0.55282762731E-01  0.51100000000E-03 0.  1.
         11    1    4    4    0    0  0.55999379552E-01  0.50090379917E-01  0.17930282460E-01  0.77244629720E-01  0.51100000000E-03 0. -1.
</event>
<event>
 8    1  0.1132492E+005  0.1043930E+01  0.7957747E-01            NaN
         13   -1    0    0    0    0  0.00000000000E+00  0.00000000000E+00  0.74505805969E-08  0.10566000000E+00  0.10566000000E+00 0. -1.
     999900   -1    0    0    0    0 -0.00000000000E+00 -0.00000000000E+00 -0.74505805969E-08  0.93827000000E+00  0.93827000000E+00 0.  1.
     999902    2    1    2    0    0 -0.22231969300E-01  0.73189677585E-02 -0.28301645638E-02  0.10203537921E+01  0.10200813808E+01 0.  0.
     999903    2    3    3    0    0  0.11292887554E+00  0.58165654807E-01  0.10851483946E-02  0.12857513724E+00  0.19854824090E-01 0.  0.
         14    1    1    2    0    0  0.22231969300E-01 -0.73189677585E-02  0.28301645638E-02  0.23576207911E-01  0.00000000000E+00 0. -1.
     999901    1    3    3    0    0 -0.13516084484E+00 -0.50846687048E-01 -0.39153129584E-02  0.89177865485E+00  0.88000000000E+00 0.  1.
        -11    1    4    4    0    0  0.95773942975E-01  0.41905196890E-01  0.47552357452E-02  0.10464973515E+00  0.51100000000E-03 0.  1.
         11    1    4    4    0    0  0.17154932567E-01  0.16260457917E-01 -0.36700873506E-02  0.23925402091E-01  0.51100000000E-03 0. -1.
</event>
<event>
 8    1  0.1132492E+005  0.1043930E+01  0.7957747E-01            NaN
         13   -1    0    0    0    0  0.00000000000E+00  0.00000000000E+00  0.74505805969E-08  0.10566000000E+00  0.10566000000E+00 0.  1.
     999900   -1    0    0    0    0 -0.00000000000E+00 -0.00000000000E+00 -0.74505805969E-08  0.93827000000E+00  0.93827000000E+00 0.  1.
     999902    2    1    2    0    0 -0.29910222456E-02 -0.90244426798E-02  0.21481336761E-01  0.10204388398E+01  0.10201684131E+01 0.  0.
     999903    2    3    3    0    0 -0.49516003123E-01  0.10802662324E+00 -0.45951167565E-01  0.12891617123E+00  0.19654096553E-01 0.  0.
         14    1    1    2    0    0  0.29910222456E-02  0.90244426798E-02 -0.21481336761E-01  0.23491160226E-01  0.00000000000E+00 0. -1.
     999901    1    3    3    0    0  0.46524980878E-01 -0.11705106592E+00  0.67432504326E-01  0.89152266854E+00  0.88000000000E+00 0.  1.
        -11    1    4    4    0    0 -0.21476564897E-01  0.55742213449E-01 -0.13325508918E-01  0.61206760320E-01  0.51100000000E-03 0.  1.
         11    1    4    4    0    0 -0.28039438226E-01  0.52284409791E-01 -0.32625658648E-01  0.67709410915E-01  0.51100000000E-03 0. -1.
</event>
<event>
 8    1  0.1132492E+005  0.1043930E+01  0.7957747E-01            NaN
         13   -1    0    0    0    0  0.00000000000E+00  0.00000000000E+00  0.74505805969E-08  0.10566000000E+00  0.10566000000E+00 0.  1.
     999900   -1    0    0    0    0 -0.00000000000E+00 -0.00000000000E+00 -0.74505805969E-08  0.93827000000E+00  0.93827000000E+00 0. -1.
     999902    2    1    2    0    0 -0.20223370869E-01 -0.87870528362E-02 -0.78137116181E-02  0.10205366010E+01  0.10202684465E+01 0.  0.
     999903    2    3    3    0    0  0.68850841452E-01  0.10514108164E+00 -0.18967654596E-01  0.12866315395E+00  0.19983739573E-01 0.  0.
         14    1    1    2    0    0  0.20223370869E-01  0.87870528362E-02  0.78137116181E-02  0.23393398986E-01  0.00000000000E+00 0.  1.
     999901    1    3    3    0    0 -0.89074212321E-01 -0.11392813448E+00  0.11153942978E-01  0.89187344706E+00  0.88000000000E+00 0. -1.
        -11    1    4    4    0    0  0.44363133488E-01  0.49743875457E-01 -0.84798970536E-02  0.67191595706E-01  0.51100000000E-03 0. -1.
         11    1    4    4    0    0  0.24487707963E-01  0.55397206184E-01 -0.10487757542E-01  0.61471558249E-01  0.51100000000E-03 0.  1.
</event>
<event>
 8    1  0.1132492E+005  0.1043930E+01  0.7957747E-01            NaN
         13   -1    0    0    0    0  0.00000000000E+00  0.00000000000E+00  0.74505805969E-08  0.10566000000E+00  0.10566000000E+00 0. -1.
     999900   -1    0    0    0    0 -0.00000000000E+00 -0.00000000000E+00 -0.74505805969E-08  0.93827000000E+00  0.93827000000E+00 0. -1.
     999902    2    1    2    0    0 -0.19957630251E-01  0.11429405860E-01 -0.19361019086E-02  0.10208499910E+01  0.10205890541E+01 0.  0.
     999903    2    3    3    0    0  0.36628665707E-01  0.12402564309E+00 -0.15748995241E-01  0.13176578942E+00  0.19752800155E-01 0.  0.
         14    1    1    2    0    0  0.19957630251E-01 -0.11429405860E-01  0.19361019086E-02  0.23080008972E-01  0.00000000000E+00 0.  1.
     999901    1    3    3    0    0 -0.56586295958E-01 -0.11259623723E+00  0.13812893332E-01  0.88908420161E+00  0.88000000000E+00 0.  1.
        -11    1    4    4    0    0  0.13423679682E-01  0.53681448533E-01  0.27884027154E-02  0.55406943640E-01  0.51100000000E-03 0. -1.
         11    1    4    4    0    0  0.23204986025E-01  0.70344194560E-01 -0.18537397956E-01  0.76358845779E-01  0.51100000000E-03 0.  1.
</event>
<event>
 7    1  0.1132492E+005  0.1043930E+01  0.7957747E-01            NaN
         13   -1    0    0    0    0  0.00000000000E+00  0.00000000000E+00  0.74505805969E-08  0.10566000000E+00  0.10566000000E+00 0. -1.
     999900   -1    0    0    0    0 -0.00000000000E+00 -0.00000000000E+00 -0.74505805969E-08  0.93827000000E+00  0.93827000000E+00 0.  1.
     999903    2    1    2    0    0  0.79691383506E-02  0.65334039838E-01 -0.70414803132E-01  0.98554935651E-01  0.20561782836E-01 0.  0.
         14    1    1    2    0    0 -0.21026020074E-01 -0.51410546122E-01 -0.23219033017E-01  0.60201837738E-01  0.00000000000E+00 0.  1.
     999901    1    1    2    0    0  0.13056881723E-01 -0.13923493716E-01  0.93633836149E-01  0.88517322661E+00  0.88000000000E+00 0. -1.
        -11    1    3    3    0    0  0.12145432655E-01  0.51637300516E-01 -0.45851806921E-01  0.70118269073E-01  0.51100000000E-03 0.  1.
         11    1    3    3    0    0 -0.41762943041E-02  0.13696739323E-01 -0.24562996211E-01  0.28436666578E-01  0.51100000000E-03 0. -1.
</event>
<event>
 8    1  0.1132492E+005  0.1043930E+01  0.7957747E-01            NaN
         13   -1    0    0    0    0  0.00000000000E+00  0.00000000000E+00  0.74505805969E-08  0.10566000000E+00  0.10566000000E+00 0.  1.
     999900   -1    0    0    0    0 -0.00000000000E+00 -0.00000000000E+00 -0.74505805969E-08  0.93827000000E+00  0.93827000000E+00 0.  1.
     999902    2    1    2    0    0 -0.90477179545E-02 -0.14802344851E-01 -0.14321011330E-01  0.10214341786E+01  0.10211864273E+01 0.  0.
     999903    2    3    3    0    0 -0.12965558970E+00 -0.18618269573E-01  0.82728560861E-02  0.13291220206E+00  0.20976210520E-01 0.  0.
         14    1    1    2    0    0  0.90477179545E-02  0.14802344851E-01  0.14321011330E-01  0.22495821362E-01  0.00000000000E+00 0.  1.
     999901    1    3    3    0    0  0.12060787174E+00  0.38159247227E-02 -0.22593867416E-01  0.88852197657E+00  0.88000000000E+00 0.  1.
        -11    1    4    4    0    0 -0.61195703390E-01 -0.10553864166E-01  0.14260538954E-01  0.63717519211E-01  0.51100000000E-03 0.  1.
         11    1    4    4    0    0 -0.68459886309E-01 -0.80644054078E-02 -0.59876828681E-02  0.69194682853E-01  0.51100000000E-03 0. -1.
</event>
<event>
 8    1  0.1132492E+005  0.1043930E+01  0.7957747E-01            NaN
         13   -1    0    0    0    0  0.00000000000E+00  0.00000000000E+00  0.74505805969E-08  0.10566000000E+00  0.10566000000E+00 0.  1.
     999900   -1    0    0    0    0 -0.00000000000E+00 -0.00000000000E+00 -0.74505805969E-08  0.93827000000E+00  0.93827000000E+00 0. -1.
     999902    2    1    2    0    0 -0.97511358691E-02 -0.79189385355E-02  0.17655580932E-01  0.10222617334E+01  0.10220320630E+01 0.  0.
     999903    2    3    3    0    0 -0.10474463287E+00 -0.17526357281E-01  0.81004736361E-01  0.13483332366E+00  0.18429501916E-01 0.  0.
         14    1    1    2    0    0  0.97511358691E-02  0.79189385355E-02 -0.17655580932E-01  0.21668266574E-01  0.00000000000E+00 0. -1.
     999901    1    3    3    0    0  0.94993497004E-01  0.96074187456E-02 -0.63349155429E-01  0.88742840977E+00  0.88000000000E+00 0.  1.
        -11    1    4    4    0    0 -0.39626835501E-01 -0.63566642675E-02  0.19735482074E-01  0.44726319390E-01  0.51100000000E-03 0. -1.
         11    1    4    4    0    0 -0.65117797371E-01 -0.11169693014E-01  0.61269254287E-01  0.90107004269E-01  0.51100000000E-03 0.  1.
</event>
<event>
 8    1  0.1132492E+005  0.1043930E+01  0.7957747E-01            NaN
         13   -1    0    0    0    0  0.00000000000E+00  0.00000000000E+00  0.74505805969E-08  0.10566000000E+00  0.10566000000E+00 0.  1.
     999900   -1    0    0    0    0 -0.00000000000E+00 -0.00000000000E+00 -0.74505805969E-08  0.93827000000E+00  0.93827000000E+00 0.  1.
     999902    2    1    2    0    0 -0.26459237997E-02 -0.25484974174E-01  0.31300051632E-02  0.10181175659E+01  0.10177903007E+01 0.  0.
     999903    2    3    3    0    0 -0.33693673595E-01  0.53783914959E-01  0.10908285405E+00  0.12768310693E+00  0.19389007133E-01 0.  0.
         14    1    1    2    0    0  0.26459237997E-02  0.25484974174E-01 -0.31300051632E-02  0.25812434091E-01  0.00000000000E+00 0.  1.
     999901    1    3    3    0    0  0.31047749795E-01 -0.79268889133E-01 -0.10595284889E+00  0.89043445898E+00  0.88000000000E+00 0.  1.
        -11    1    4    4    0    0 -0.23777325478E-01  0.34759907126E-01  0.53415462135E-01  0.68022680529E-01  0.51100000000E-03 0. -1.
         11    1    4    4    0    0 -0.99163481166E-02  0.19024007833E-01  0.55667391920E-01  0.59660426399E-01  0.51100000000E-03 0.  1.
</event>
<event>
 8    1  0.1132492E+005  0.1043930E+01  0.7957747E-01            NaN
         13   -1    0    0    0    0  0.00000000000E+00  0.00000000000E+00  0.74505805969E-08  0.10566000000E+00  0.10566000000E+00 0. -1.
     999900   -1    0    0    0    0 -0.00000000000E+00 -0.00000000000E+00 -0.74505805969E-08  0.93827000000E+00  0.93827000000E+00 0. -1.
     999902    2    1    2    0    0 -0.11898982446E-01 -0.17221336538E-01  0.16258238096E-01  0.10174254622E+01  0.10170801742E+01 0.  0.
     999903    2    3    3    0    0 -0.36829832468E-01 -0.11539801667E+00  0.46270935881E-01  0.13110668786E+00  0.19360405074E-01 0.  0.
         14    1    1    2    0    0  0.11898982446E-01  0.17221336538E-01 -0.16258238096E-01  0.26504537751E-01  0.00000000000E+00 0.  1.
     999901    1    3    3    0    0  0.24930850023E-01  0.98176680128E-01 -0.30012697785E-01  0.88631877439E+00  0.88000000000E+00 0. -1.
        -11    1    4    4    0    0 -0.17983617676E-01 -0.41795991320E-01  0.26260460296E-01  0.52537494145E-01  0.51100000000E-03 0. -1.
         11    1    4    4    0    0 -0.18846214792E-01 -0.73602025347E-01  0.20010475585E-01  0.78569193716E-01  0.51100000000E-03 0.  1.
</event>
<event>
 8    1  0.1132492E+005  0.1043930E+01  0.7957747E-01            NaN
         13   -1    0    0    0    0  0.00000000000E+00  0.00000000000E+00  0.74505805969E-08  0.10566000000E+00  0.10566000000E+00 0. -1.
     999900   -1    0    0    0    0 -0.00000000000E+00 -0.00000000000E+00 -0.74505805969E-08  0.93827000000E+00  0.93827000000E+00 0. -1.
     999902    2    1    2    0    0  0.53874670991E-02  0.24247687255E-01  0.89109055587E-02  0.10175409989E+01  0.10171987540E+01 0.  0.
     999903    2    3    3    0    0 -0.52221002930E-01 -0.10962171331E+00 -0.21937323983E-01  0.12502132661E+00  0.20127909694E-01 0.  0.
         14    1    1    2    0    0 -0.53874670991E-02 -0.24247687255E-01 -0.89109055587E-02  0.26389001057E-01  0.00000000000E+00 0.  1.
     999901    1    3    3    0    0  0.57608470029E-01  0.13386940057E+00  0.30848229542E-01  0.89251967233E+00  0.88000000000E+00 0.  1.
        -11    1    4    4    0    0 -0.86360582884E-02 -0.35508020399E-01 -0.11584438888E-02  0.36565067053E-01  0.51100000000E-03 0.  1.
         11    1    4    4    0    0 -0.43584944641E-01 -0.74113692912E-01 -0.20778880094E-01  0.88456259561E-01  0.51100000000E-03 0. -1.
</event>
<event>
 8    1  0.1132492E+005  0.1043930E+01  0.7957747E-01            NaN
         13   -1    0    0    0    0  0.00000000000E+00  0.00000000000E+00  0.74505805969E-08  0.10566000000E+00  0.10566000000E+00 0. -1.
     999900   -1    0    0    0    0 -0.00000000000E+00 -0.00000000000E+00 -0.74505805969E-08  0.93827000000E+00  0.93827000000E+00 0.  1.
     999902    2    1    2    0    0  0.24919702343E-01  0.60267805135E-02 -0.65804110339E-03  0.10182834278E+01  0.10179604082E+01 0.  0.
     999903    2    3    3    0    0 -0.88136925273E-01 -0.85537301672E-01  0.20384152309E-01  0.12609031187E+00  0.19962602711E-01 0.  0.
         14    1    1    2    0    0 -0.24919702343E-01 -0.60267805135E-02  0.65804110339E-03  0.25646572213E-01  0.00000000000E+00 0. -1.
     999901    1    3    3    0    0  0.11305662762E+00  0.91564082185E-01 -0.21042193412E-01  0.89219311592E+00  0.88000000000E+00 0.  1.
        -11    1    4    4    0    0 -0.38134119068E-01 -0.39860111677E-01  0.19009095852E-01  0.58349347778E-01  0.51100000000E-03 0. -1.
         11    1    4    4    0    0 -0.50002806205E-01 -0.45677189995E-01  0.13750564567E-02  0.67740964087E-01  0.51100000000E-03 0.  1.
</event>
<event>
 7    1  0.1132492E+005  0.1043930E+01  0.7957747E-01            NaN
         13   -1    0    0    0    0  0.00000000000E+00  0.00000000000E+00  0.74505805969E-08  0.10566000000E+00  0.10566000000E+00 0. -1.
     999900   -1    0    0    0    0 -0.00000000000E+00 -0.00000000000E+00 -0.74505805969E-08  0.93827000000E+00  0.93827000000E+00 0. -1.
     999903    2    1    2    0    0 -0.12028514732E+00 -0.70316545072E-01  0.43877228291E-01  0.14778306620E+00  0.22398444473E-01 0.  0.
         14    1    1    2    0    0  0.42291135581E-02 -0.11366834339E-02  0.11180912646E-02  0.45196879087E-02  0.00000000000E+00 0. -1.
     999901    1    1    2    0    0  0.11605603377E+00  0.71453228506E-01 -0.44995319556E-01  0.89162724589E+00  0.88000000000E+00 0. -1.
        -11    1    3    3    0    0 -0.29820552448E-01 -0.25818726445E-01  0.51471385381E-02  0.39782233970E-01  0.51100000000E-03 0. -1.
         11    1    3    3    0    0 -0.90464594875E-01 -0.44497818628E-01  0.38730089753E-01  0.10800083223E+00  0.51100000000E-03 0.  1.
</event>
<event>
 8    1  0.1132492E+005  0.1043930E+01  0.7957747E-01            NaN
         13   -1    0    0    0    0  0.00000000000E+00  0.00000000000E+00  0.74505805969E-08  0.10566000000E+00  0.10566000000E+00 0. -1.
     999900   -1    0    0    0    0 -0.00000000000E+00 -0.00000000000E+00 -0.74505805969E-08  0.93827000000E+00  0.93827000000E+00 0.  1.
     999902    2    1    2    0    0  0.17912294542E-01 -0.20736775368E-02  0.15814257106E-01  0.10199458143E+01  0.10196637794E+01 0.  0.
     999903    2    3    3    0    0 -0.11787478550E-02 -0.12752815341E+00  0.21050223554E-01  0.13082787572E+00  0.20199054286E-01 0.  0.
         14    1    1    2    0    0 -0.17912294542E-01  0.20736775368E-02 -0.15814257106E-01  0.23984185667E-01  0.00000000000E+00 0.  1.
     999901    1    3    3    0    0  0.19091042397E-01  0.12545447588E+00 -0.52359664478E-02  0.88911793861E+00  0.88000000000E+00 0.  1.
        -11    1    4    4    0    0 -0.95079852920E-02 -0.78541684550E-01  0.84759383365E-02  0.79569470577E-01  0.51100000000E-03 0. -1.
         11    1    4    4    0    0  0.83292374370E-02 -0.48986468865E-01  0.12574285217E-01  0.51258405143E-01  0.51100000000E-03 0.  1.
</event>
<event>
 8    1  0.1132492E+005  0.1043930E+01  0.7957747E-01            NaN
         13   -1    0    0    0    0  0.00000000000E+00  0.00000000000E+00  0.74505805969E-08  0.10566000000E+00  0.10566000000E+00 0. -1.
     999900   -1    0    0    0    0 -0.00000000000E+00 -0.00000000000E+00 -0.74505805969E-08  0.93827000000E+00  0.93827000000E+00 0. -1.
     999902    2    1    2    0    0 -0.11762818441E-01 -0.19107257446E-01  0.75403944116E-02  0.10202591586E+01  0.10199845303E+01 0.  0.
     999903    2    3    3    0    0  0.11565514608E+00 -0.44817132279E-01 -0.35517619177E-01  0.12966928223E+00  0.12958908983E-01 0.  0.
         14    1    1    2    0    0  0.11762818441E-01  0.19107257446E-01 -0.75403944116E-02  0.23670841402E-01  0.00000000000E+00 0.  1.
     999901    1    3    3    0    0 -0.12741796452E+00  0.25709874833E-01  0.43058013589E-01  0.89058987636E+00  0.88000000000E+00 0. -1.
        -11    1    4    4    0    0  0.57213716774E-01 -0.27964349096E-01 -0.21843761006E-01  0.67326259537E-01  0.51100000000E-03 0. -1.
         11    1    4    4    0    0  0.58441429310E-01 -0.16852783183E-01 -0.13673858171E-01  0.62343022697E-01  0.51100000000E-03 0.  1.
</event>
<event>
 8    1  0.1132492E+005  0.1043930E+01  0.7957747E-01            NaN
         13   -1    0    0    0    0  0.00000000000E+00  0.00000000000E+00  0.74505805969E-08  0.10566000000E+00  0.10566000000E+00 0. -1.
     999900   -1    0    0    0    0 -0.00000000000E+00 -0.00000000000E+00 -0.74505805969E-08  0.93827000000E+00  0.93827000000E+00 0. -1.
     999902    2    1    2    0    0  0.60227936212E-02  0.19372515170E-01  0.11478055639E-01  0.10206208999E+01  0.10203546967E+01 0.  0.
     999903    2    3    3    0    0 -0.36851813605E-02 -0.75708343401E-01  0.10441677483E+00  0.13058032779E+00  0.20075490464E-01 0.  0.
         14    1    1    2    0    0 -0.60227936212E-02 -0.19372515170E-01 -0.11478055639E-01  0.23309100117E-01  0.00000000000E+00 0.  1.
     999901    1    3    3    0    0  0.97079749818E-02  0.95080858571E-01 -0.92938719193E-01  0.89004057209E+00  0.88000000000E+00 0. -1.
        -11    1    4    4    0    0  0.43453720425E-02 -0.50651085222E-01  0.79321926701E-01  0.94215942753E-01  0.51100000000E-03 0. -1.
         11    1    4    4    0    0 -0.80305534030E-02 -0.25057258179E-01  0.25094848131E-01  0.36364385037E-01  0.51100000000E-03 0.  1.
</event>
<event>
 8    1  0.1132492E+005  0.1043930E+01  0.7957747E-01            NaN
         13   -1    0    0    0    0  0.00000000000E+00  0.00000000000E+00  0.74505805969E-08  0.10566000000E+00  0.10566000000E+00 0.  1.
     999900   -1    0    0    0    0 -0.00000000000E+00 -0.00000000000E+00 -0.74505805969E-08  0.93827000000E+00  0.93827000000E+00 0.  1.
     999902    2    1    2    0    0 -0.32824587141E-02  0.82204230676E-02 -0.21163738336E-01  0.10209897796E+01  0.10207320297E+01 0.  0.
     999903    2    3    3    0    0  0.68238580047E-01 -0.32269165027E-01  0.10221796598E+00  0.12858980725E+00  0.19723669576E-01 0.  0.
         14    1    1    2    0    0  0.32824587141E-02 -0.82204230676E-02  0.21163738336E-01  0.22940220378E-01  0.00000000000E+00 0.  1.
     999901    1    3    3    0    0 -0.71521038761E-01  0.40489588095E-01 -0.12338170431E+00  0.89239997237E+00  0.88000000000E+00 0.  1.
        -11    1    4    4    0    0  0.39291248707E-01 -0.23886355332E-01  0.75017188295E-01  0.87989771318E-01  0.51100000000E-03 0.  1.
         11    1    4    4    0    0  0.28947331340E-01 -0.83828096953E-02  0.27200777684E-01  0.40600035932E-01  0.51100000000E-03 0. -1.
</event>
<event>
 8    1  0.1132492E+005  0.1043930E+01  0.7957747E-01            NaN
         13   -1    0    0    0    0  0.00000000000E+00  0.00000000000E+00  0.74505805969E-08  0.10566000000E+00  0.10566000000E+00 0.  1.
     999900   -1    0    0    0    0 -0.00000000000E+00 -0.00000000000E+00 -0.74505805969E-08  0.93827000000E+00  0.93827000000E+00 0. -1.
     999902    2    1    2    0    0  0.79371843859E-02  0.12224094588E-01 -0.19655031102E-01  0.10194606798E+01  0.10191669785E+01 0.  0.
     999903    2    3    3    0    0  0.17014418848E-01  0.12019957222E+00 -0.48459746424E-01  0.13234692632E+00  0.20734856460E-01 0.  0.
         14    1    1    2    0    0 -0.79371843859E-02 -0.12224094588E-01  0.19655031102E-01  0.24469320222E-01  0.00000000000E+00 0.  1.
     999901    1    3    3    0    0 -0.90772344617E-02 -0.10797547763E+00  0.28804715322E-01  0.88711375346E+00  0.88000000000E+00 0.  1.
        -11    1    4    4    0    0  0.13798812305E-01  0.37224779114E-01 -0.20806596151E-01  0.44824847635E-01  0.51100000000E-03 0.  1.
         11    1    4    4    0    0  0.32156065427E-02  0.82974793103E-01 -0.27653150273E-01  0.87522078682E-01  0.51100000000E-03 0. -1.
</event>
<event>
 8    1  0.1132492E+005  0.1043930E+01  0.7957747E-01            NaN
         13   -1    0    0    0    0  0.00000000000E+00  0.00000000000E+00  0.74505805969E-08  0.10566000000E+00  0.10566000000E+00 0. -1.
     999900   -1    0    0    0    0 -0.00000000000E+00 -0.00000000000E+00 -0.74505805969E-08  0.93827000000E+00  0.93827000000E+00 0.  1.
     999902    2    1    2    0    0 -0.79901412680E-02 -0.20294717345E-01 -0.11397451970E-01  0.10193206558E+01  0.10190235422E+01 0.  0.
     999903    2    3    3    0    0  0.94764055270E-01  0.79758730343E-01 -0.22926692883E-01  0.12763571107E+00  0.20580579587E-01 0.  0.
         14    1    1    2    0    0  0.79901412680E-02  0.20294717345E-01  0.11397451970E-01  0.24609344180E-01  0.00000000000E+00 0. -1.
     999901    1    3    3    0    0 -0.10275419654E+00 -0.10005344769E+00  0.11529240913E-01  0.89168494475E+00  0.88000000000E+00 0. -1.
        -11    1    4    4    0    0  0.12201978828E-01  0.14732842181E-01 -0.10444611664E-01  0.21801283445E-01  0.51100000000E-03 0.  1.
         11    1    4    4    0    0  0.82562076442E-01  0.65025888163E-01 -0.12482081220E-01  0.10583442762E+00  0.51100000000E-03 0. -1.
</event>
<event>
 8    1  0.1132492E+005  0.1043930E+01  0.7957747E-01            NaN
         13   -1    0    0    0    0  0.00000000000E+00  0.00000000000E+00  0.74505805969E-08  0.10566000000E+00  0.10566000000E+00 0.  1.
     999900   -1    0    0    0    0 -0.00000000000E+00 -0.00000000000E+00 -0.74505805969E-08  0.93827000000E+00  0.93827000000E+00 0.  1.
     999902    2    1    2    0    0 -0.13794876351E-01 -0.17929901515E-01 -0.82167259181E-02  0.10198614611E+01  0.10195774150E+01 0.  0.
     999903    2    3    3    0    0 -0.89949435796E-01 -0.95455490019E-01 -0.12243351516E-01  0.13316763143E+00  0.19520933084E-01 0.  0.
         14    1    1    2    0    0  0.13794876351E-01  0.17929901515E-01  0.82167259181E-02  0.24068538940E-01  0.00000000000E+00 0.  1.
     999901    1    3    3    0    0  0.76154559445E-01  0.77525588504E-01  0.40266255979E-02  0.88669382963E+00  0.88000000000E+00 0.  1.
        -11    1    4    4    0    0 -0.33358778337E-01 -0.38973076437E-01  0.44218486913E-02  0.51492937825E-01  0.51100000000E-03 0. -1.
         11    1    4    4    0    0 -0.56590657460E-01 -0.56482413583E-01 -0.16665200207E-01  0.81674693601E-01  0.51100000000E-03 0.  1.
</event>
<event>
 8    1  0.1132492E+005  0.1043930E+01  0.7957747E-01            NaN
         13   -1    0    0    0    0  0.00000000000E+00  0.00000000000E+00  0.74505805969E-08  0.10566000000E+00  0.10566000000E+00 0.  1.
     999900   -1    0    0    0    0 -0.00000000000E+00 -0.00000000000E+00 -0.74505805969E-08  0.93827000000E+00  0.93827000000E+00 0.  1.
     999902    2    1    2    0    0 -0.50172442777E-02 -0.72169584833E-02 -0.23775263647E-01  0.10185820141E+01  0.10182665658E+01 0.  0.
     999903    2    3    3    0    0 -0.12734442003E+00 -0.11543478932E-01  0.52816824165E-02  0.12963490493E+00  0.20675086193E-01 0.  0.
         14    1    1    2    0    0  0.50172442777E-02  0.72169584833E-02  0.23775263647E-01  0.25347985943E-01  0.00000000000E+00 0. -1.
     999901    1    3    3    0    0  0.12232717575E+00  0.43265204488E-02 -0.29056946063E-01  0.88894710912E+00  0.88000000000E+00 0. -1.
        -11    1    4    4    0    0 -0.86535557714E-01 -0.16506060313E-01  0.78224966481E-02  0.88443797695E-01  0.51100000000E-03 0.  1.
         11    1    4    4    0    0 -0.40808862315E-01  0.49625813807E-02 -0.25408142316E-02  0.41191107237E-01  0.51100000000E-03 0. -1.
</event>
<event>
 8    1  0.1132492E+005  0.1043930E+01  0.7957747E-01            NaN
         13   -1    0    0    0    0  0.00000000000E+00  0.00000000000E+00  0.74505805969E-08  0.10566000000E+00  0.10566000000E+00 0.  1.
     999900   -1    0    0    0    0 -0.00000000000E+00 -0.00000000000E+00 -0.74505805969E-08  0.93827000000E+00  0.93827000000E+00 0. -1.
     999902    2    1    2    0    0 -0.62768960113E-02  0.21123020629E-01  0.76229156803E-02  0.10206128332E+01  0.10203464436E+01 0.  0.
     999903    2    3    3    0    0  0.51047553905E-01 -0.11193209779E+00  0.30775919649E-01  0.12846608592E+00  0.20536083478E-01 0.  0.
         14    1    1    2    0    0  0.62768960113E-02 -0.21123020629E-01 -0.76229156803E-02  0.23317166798E-01  0.00000000000E+00 0.  1.
     999901    1    3    3    0    0 -0.57324449917E-01  0.13305511842E+00 -0.23153003969E-01  0.89214674728E+00  0.88000000000E+00 0. -1.
        -11    1    4    4    0    0  0.28579582922E-01 -0.58965736432E-01  0.59390253270E-02  0.65797293074E-01  0.51100000000E-03 0. -1.
         11    1    4    4    0    0  0.22467970983E-01 -0.52966361361E-01  0.24836894322E-01  0.62668792844E-01  0.51100000000E-03 0.  1.
</event>
<event>
 8    1  0.1132492E+005  0.1043930E+01  0.7957747E-01            NaN
         13   -1    0    0    0    0  0.00000000000E+00  0.00000000000E+00  0.74505805969E-08  0.10566000000E+00  0.10566000000E+00 0.  1.
     999900   -1    0    0    0    0 -0.00000000000E+00 -0.00000000000E+00 -0.74505805969E-08  0.93827000000E+00  0.93827000000E+00 0. -1.
     999902    2    1    2    0    0 -0.11525627705E-01 -0.31182167250E-02 -0.20015744900E-01  0.10206234899E+01  0.10203573466E+01 0.  0.
     999903    2    3    3    0    0  0.69646579072E-01  0.10785881735E+00 -0.57129055467E-03  0.12973465505E+00  0.18616763686E-01 0.  0.
         14    1    1    2    0    0  0.11525627705E-01  0.31182167250E-02  0.20015744900E-01  0.23306510109E-01  0.00000000000E+00 0.  1.
     999901    1    3    3    0    0 -0.81172206777E-01 -0.11097703408E+00 -0.19444454346E-01  0.89088883484E+00  0.88000000000E+00 0. -1.
        -11    1    4    4    0    0  0.48517790493E-01  0.85439417776E-01  0.51783377399E-02  0.98391800507E-01  0.51100000000E-03 0. -1.
         11    1    4    4    0    0  0.21128788580E-01  0.22419399576E-01 -0.57496282946E-02  0.31342854540E-01  0.51100000000E-03 0.  1.
</event>
<event>
 8    1  0.1132492E+005  0.1043930E+01  0.7957747E-01            NaN
         13   -1    0    0    0    0  0.00000000000E+00  0.00000000000E+00  0.74505805969E-08  0.10566000000E+00  0.10566000000E+00 0. -1.
     999900   -1    0    0    0    0 -0.00000000000E+00 -0.00000000000E+00 -0.74505805969E-08  0.93827000000E+00  0.93827000000E+00 0. -1.
     999902    2    1    2    0    0 -0.10125272660E-02 -0.21581462808E-01  0.91934926459E-02  0.10204501138E+01  0.10201799497E+01 0.  0.
     999903    2    3    3    0    0 -0.52589826659E-01 -0.11654048161E+00 -0.30719911587E-01  0.13294207841E+00  0.19557850644E-01 0.  0.
         14    1    1    2    0    0  0.10125272660E-02  0.21581462808E-01 -0.91934926459E-02  0.23479886189E-01  0.00000000000E+00 0.  1.
     999901    1    3    3    0    0  0.51577299393E-01  0.94959018803E-01  0.39913404233E-01  0.88750803540E+00  0.88000000000E+00 0. -1.
        -11    1    4    4    0    0 -0.12159259807E-01 -0.47510196929E-01 -0.16081508054E-01  0.51613393936E-01  0.51100000000E-03 0.  1.
         11    1    4    4    0    0 -0.40430566852E-01 -0.69030284682E-01 -0.14638403533E-01  0.81328684474E-01  0.51100000000E-03 0. -1.
</event>
<event>
 8    1  0.1132492E+005  0.1043930E+01  0.7957747E-01            NaN
         13   -1    0    0    0    0  0.00000000000E+00  0.00000000000E+00  0.74505805969E-08  0.10566000000E+00  0.10566000000E+00 0.  1.
     999900   -1    0    0    0    0 -0.00000000000E+00 -0.00000000000E+00 -0.74505805969E-08  0.93827000000E+00  0.93827000000E+00 0.  1.
     999902    2    1    2    0    0  0.63351558627E-02  0.72813126894E-02  0.21401870488E-01  0.10204525262E+01  0.10201824183E+01 0.  0.
     999903    2    3    3    0    0  0.11332931855E+00 -0.45423477663E-01 -0.40841802418E-01  0.13022793626E+00  0.19607034218E-01 0.  0.
         14    1    1    2    0    0 -0.63351558627E-02 -0.72813126894E-02 -0.21401870488E-01  0.23477473771E-01  0.00000000000E+00 0. -1.
     999901    1    3    3    0    0 -0.10699416269E+00  0.52704790353E-01  0.62243672906E-01  0.89022458997E+00  0.88000000000E+00 0. -1.
        -11    1    4    4    0    0  0.39625551882E-01 -0.15040248345E-01 -0.24125726225E-01  0.48771971655E-01  0.51100000000E-03 0. -1.
         11    1    4    4    0    0  0.73703766669E-01 -0.30383229318E-01 -0.16716076193E-01  0.81455964602E-01  0.51100000000E-03 0.  1.
</event>
<event>
 8    1  0.1132492E+005  0.1043930E+01  0.7957747E-01            NaN
         13   -1    0    0    0    0  0.00000000000E+00  0.00000000000E+00  0.74505805969E-08  0.10566000000E+00  0.10566000000E+00 0. -1.
     999900   -1    0    0    0    0 -0.00000000000E+00 -0.00000000000E+00 -0.74505805969E-08  0.93827000000E+00  0.93827000000E+00 0.  1.
     999902    2    1    2    0    0 -0.21623066440E-01  0.28602006350E-03 -0.14501057677E-01  0.10178931130E+01  0.10175600572E+01 0.  0.
     999903    2    3    3    0    0  0.11229034217E+00 -0.25190044985E-01  0.45370787323E-01  0.12538738827E+00  0.20489740945E-01 0.  0.
         14    1    1    2    0    0  0.21623066440E-01 -0.28602006350E-03  0.14501057677E-01  0.26036886978E-01  0.00000000000E+00 0. -1.
     999901    1    3    3    0    0 -0.13391340861E+00  0.25476065049E-01 -0.59871845000E-01  0.89250572475E+00  0.88000000000E+00 0.  1.
        -11    1    4    4    0    0  0.17534706567E-01 -0.68240922223E-02  0.20909621405E-03  0.18823894689E-01  0.51100000000E-03 0.  1.
         11    1    4    4    0    0  0.94755635600E-01 -0.18365952763E-01  0.45161691109E-01  0.10656349358E+00  0.51100000000E-03 0. -1.
</event>
<event>
 8    1  0.1132492E+005  0.1043930E+01  0.7957747E-01            NaN
         13   -1    0    0    0    0  0.00000000000E+00  0.00000000000E+00  0.74505805969E-08  0.10566000000E+00  0.10566000000E+00 0. -1.
     999900   -1    0    0    0    0 -0.00000000000E+00 -0.00000000000E+00 -0.74505805969E-08  0.93827000000E+00  0.93827000000E+00 0. -1.
     999902    2    1    2    0    0 -0.89648143562E-02  0.13462291285E-01  0.22527932757E-01  0.10161971866E+01  0.10158186911E+01 0.  0.
     999903    2    3    3    0    0  0.21009894478E-01  0.12335787700E+00  0.23191500533E-01  0.12885510871E+00  0.20179491052E-01 0.  0.
         14    1    1    2    0    0  0.89648143562E-02 -0.13462291285E-01 -0.22527932757E-01  0.27732813369E-01  0.00000000000E+00 0.  1.
     999901    1    3    3    0    0 -0.29974708835E-01 -0.10989558572E+00 -0.66356777639E-03  0.88734207792E+00  0.88000000000E+00 0.  1.
        -11    1    4    4    0    0  0.13622172763E-02  0.66293919764E-01  0.97538103758E-02  0.67023409131E-01  0.51100000000E-03 0. -1.
         11    1    4    4    0    0  0.19647677202E-01  0.57063957236E-01  0.13437690158E-01  0.61831699578E-01  0.51100000000E-03 0.  1.
</event>
<event>
 8    1  0.1132492E+005  0.1043930E+01  0.7957747E-01            NaN
         13   -1    0    0    0    0  0.00000000000E+00  0.00000000000E+00  0.74505805969E-08  0.10566000000E+00  0.10566000000E+00 0.  1.
     999900   -1    0    0    0    0 -0.00000000000E+00 -0.00000000000E+00 -0.74505805969E-08  0.93827000000E+00  0.93827000000E+00 0.  1.
     999902    2    1    2    0    0 -0.45269111656E-02 -0.17170529616E-01 -0.15496284088E-01  0.10203619107E+01  0.10200896892E+01 0.  0.
     999903    2    3    3    0    0  0.77976941352E-01 -0.58419694386E-01 -0.87888868279E-01  0.13258431158E+00  0.18996905957E-01 0.  0.
         14    1    1    2    0    0  0.45269111656E-02  0.17170529616E-01  0.15496284088E-01  0.23568089285E-01  0.00000000000E+00 0. -1.
     999901    1    3    3    0    0 -0.82503852518E-01  0.41249164770E-01  0.72392584191E-01  0.88777759913E+00  0.88000000000E+00 0. -1.
        -11    1    4    4    0    0  0.46620054844E-01 -0.25766413210E-01 -0.39487814580E-01  0.66309020387E-01  0.51100000000E-03 0. -1.
         11    1    4    4    0    0  0.31356886508E-01 -0.32653281176E-01 -0.48401053699E-01  0.66275291196E-01  0.51100000000E-03 0.  1.
</event>
<event>
 8    1  0.1132492E+005  0.1043930E+01  0.7957747E-01            NaN
         13   -1    0    0    0    0  0.00000000000E+00  0.00000000000E+00  0.74505805969E-08  0.10566000000E+00  0.10566000000E+00 0.  1.
     999900   -1    0    0    0    0 -0.00000000000E+00 -0.00000000000E+00 -0.74505805969E-08  0.93827000000E+00  0.93827000000E+00 0. -1.
     999902    2    1    2    0    0  0.12255164995E-01 -0.85702637479E-02  0.18429432786E-01  0.10201964271E+01  0.10199203240E+01 0.  0.
     999903    2    3    3    0    0  0.30423123537E-01 -0.65964494655E-01 -0.10381143845E+00  0.12970947994E+00  0.27764247398E-01 0.  0.
         14    1    1    2    0    0 -0.12255164995E-01  0.85702637479E-02 -0.18429432786E-01  0.23733572900E-01  0.00000000000E+00 0. -1.
     999901    1    3    3    0    0 -0.18167958542E-01  0.57394230907E-01  0.12224087123E+00  0.89048694716E+00  0.88000000000E+00 0.  1.
        -11    1    4    4    0    0  0.25846126376E-01 -0.53589655685E-01 -0.62295838179E-01  0.86144680744E-01  0.51100000000E-03 0. -1.
         11    1    4    4    0    0  0.45769971600E-02 -0.12374838970E-01 -0.41515600268E-01  0.43564799198E-01  0.51100000000E-03 0.  1.
</event>
<event>
 8    1  0.1132492E+005  0.1043930E+01  0.7957747E-01            NaN
         13   -1    0    0    0    0  0.00000000000E+00  0.00000000000E+00  0.74505805969E-08  0.10566000000E+00  0.10566000000E+00 0. -1.
     999900   -1    0    0    0    0 -0.00000000000E+00 -0.00000000000E+00 -0.74505805969E-08  0.93827000000E+00  0.93827000000E+00 0. -1.
     999902    2    1    2    0    0 -0.17397879637E-01 -0.42381596293E-02 -0.15640711103E-01  0.10201543810E+01  0.10198772873E+01 0.  0.
     999903    2    3    3    0    0 -0.36206652781E-02  0.12825536112E+00  0.29023878322E-02  0.12993632282E+00  0.20309536186E-01 0.  0.
         14    1    1    2    0    0  0.17397879637E-01  0.42381596293E-02  0.15640711103E-01  0.23775618956E-01  0.00000000000E+00 0. -1.
     999901    1    3    3    0    0 -0.13777214359E-01 -0.13249352075E+00 -0.18543098935E-01  0.89021805823E+00  0.88000000000E+00 0. -1.
        -11    1    4    4    0    0 -0.50812534884E-02  0.67057283945E-01  0.11136830075E-01  0.68167357086E-01  0.51100000000E-03 0.  1.
         11    1    4    4    0    0  0.14605882103E-02  0.61198077172E-01 -0.82344422426E-02  0.61768965731E-01  0.51100000000E-03 0. -1.
</event>
<event>
 8    1  0.1132492E+005  0.1043930E+01  0.7957747E-01            NaN
         13   -1    0    0    0    0  0.00000000000E+00  0.00000000000E+00  0.74505805969E-08  0.10566000000E+00  0.10566000000E+00 0. -1.
     999900   -1    0    0    0    0 -0.00000000000E+00 -0.00000000000E+00 -0.74505805969E-08  0.93827000000E+00  0.93827000000E+00 0. -1.
     999902    2    1    2    0    0 -0.13450588452E-01 -0.12898711308E-01  0.17212486968E-01  0.10185614212E+01  0.10182454537E+01 0.  0.
     999903    2    3    3    0    0 -0.60684800566E-01  0.33588815479E-01 -0.10529655905E+00  0.12760652486E+00  0.19626673050E-01 0.  0.
         14    1    1    2    0    0  0.13450588452E-01  0.12898711308E-01 -0.17212486968E-01  0.25368578808E-01  0.00000000000E+00 0.  1.
     999901    1    3    3    0    0  0.47234212114E-01 -0.46487526787E-01  0.12250904601E+00  0.89095489633E+00  0.88000000000E+00 0.  1.
        -11    1    4    4    0    0 -0.32282793814E-01  0.16316424087E-01 -0.71875809705E-01  0.80466127116E-01  0.51100000000E-03 0.  1.
         11    1    4    4    0    0 -0.28402006752E-01  0.17272391392E-01 -0.33420749342E-01  0.47140397745E-01  0.51100000000E-03 0. -1.
</event>
<event>
 8    1  0.1132492E+005  0.1043930E+01  0.7957747E-01            NaN
         13   -1    0    0    0    0  0.00000000000E+00  0.00000000000E+00  0.74505805969E-08  0.10566000000E+00  0.10566000000E+00 0.  1.
     999900   -1    0    0    0    0 -0.00000000000E+00 -0.00000000000E+00 -0.74505805969E-08  0.93827000000E+00  0.93827000000E+00 0. -1.
     999902    2    1    2    0    0  0.18771425513E-01  0.11914239444E-01  0.82452620583E-02  0.10202171372E+01  0.10199415214E+01 0.  0.
     999903    2    3    3    0    0  0.20327821953E-01 -0.11876312083E+00  0.43518925286E-01  0.12986707895E+00  0.21299345568E-01 0.  0.
         14    1    1    2    0    0 -0.18771425513E-01 -0.11914239444E-01 -0.82452620583E-02  0.23712862833E-01  0.00000000000E+00 0. -1.
     999901    1    3    3    0    0 -0.15563964400E-02  0.13067736027E+00 -0.35273663228E-01  0.89035005822E+00  0.88000000000E+00 0. -1.
        -11    1    4    4    0    0 -0.32257948186E-02 -0.30222531892E-01  0.15081093151E-01  0.33933872131E-01  0.51100000000E-03 0.  1.
         11    1    4    4    0    0  0.23553616772E-01 -0.88540588936E-01  0.28437832135E-01  0.95933206814E-01  0.51100000000E-03 0. -1.
</event>
<event>
 8    1  0.1132492E+005  0.1043930E+01  0.7957747E-01            NaN
         13   -1    0    0    0    0  0.00000000000E+00  0.00000000000E+00  0.74505805969E-08  0.10566000000E+00  0.10566000000E+00 0.  1.
     999900   -1    0    0    0    0 -0.00000000000E+00 -0.00000000000E+00 -0.74505805969E-08  0.93827000000E+00  0.93827000000E+00 0.  1.
     999902    2    1    2    0    0  0.90550827561E-02  0.13410246440E-01  0.13189010449E-01  0.10230546741E+01  0.10228416725E+01 0.  0.
     999903    2    3    3    0    0 -0.96897297638E-02 -0.10997871125E+00 -0.66776992083E-01  0.13065859367E+00  0.20574101099E-01 0.  0.
         14    1    1    2    0    0 -0.90550827561E-02 -0.13410246440E-01 -0.13189010449E-01  0.20875325864E-01  0.00000000000E+00 0. -1.
     999901    1    3    3    0    0  0.18744812520E-01  0.12338895769E+00  0.79966002533E-01  0.89239608047E+00  0.88000000000E+00 0.  1.
        -11    1    4    4    0    0 -0.84229503176E-02 -0.16354821880E-01 -0.77263504692E-02  0.19959556692E-01  0.51100000000E-03 0.  1.
         11    1    4    4    0    0 -0.12667794463E-02 -0.93623889370E-01 -0.59050641614E-01  0.11069903697E+00  0.51100000000E-03 0. -1.
</event>
<event>
 8    1  0.1132492E+005  0.1043930E+01  0.7957747E-01            NaN
         13   -1    0    0    0    0  0.00000000000E+00  0.00000000000E+00  0.74505805969E-08  0.10566000000E+00  0.10566000000E+00 0.  1.
     999900   -1    0    0    0    0 -0.00000000000E+00 -0.00000000000E+00 -0.74505805969E-08  0.93827000000E+00  0.93827000000E+00 0.  1.
     999902    2    1    2    0    0  0.54258220215E-02  0.13041201307E-01  0.19034030223E-01  0.10202275364E+01  0.10199521651E+01 0.  0.
     999903    2    3    3    0    0  0.81543049233E-01  0.76804116112E-01  0.69907367048E-01  0.13318320940E+00  0.17395004157E-01 0.  0.
         14    1    1    2    0    0 -0.54258220215E-02 -0.13041201307E-01 -0.19034030223E-01  0.23702463641E-01  0.00000000000E+00 0.  1.
     999901    1    3    3    0    0 -0.76117227211E-01 -0.63762914805E-01 -0.50873336825E-01  0.88704432695E+00  0.88000000000E+00 0.  1.
        -11    1    4    4    0    0  0.51901667053E-01  0.37147418351E-01  0.40621748077E-01  0.75657790549E-01  0.51100000000E-03 0. -1.
         11    1    4    4    0    0  0.29641382180E-01  0.39656697762E-01  0.29285618971E-01  0.57525418855E-01  0.51100000000E-03 0.  1.
</event>
<event>
 8    1  0.1132492E+005  0.1043930E+01  0.7957747E-01            NaN
         13   -1    0    0    0    0  0.00000000000E+00  0.00000000000E+00  0.74505805969E-08  0.10566000000E+00  0.10566000000E+00 0.  1.
     999900   -1    0    0    0    0 -0.00000000000E+00 -0.00000000000E+00 -0.74505805969E-08  0.93827000000E+00  0.93827000000E+00 0. -1.
     999902    2    1    2    0    0 -0.18997433527E-01  0.85826677659E-02  0.78002467591E-02  0.10216722257E+01  0.10214297471E+01 0.  0.
     999903    2    3    3    0    0 -0.75419198445E-01  0.10553008431E+00 -0.27248009405E-01  0.13385997226E+00  0.18745238530E-01 0.  0.
         14    1    1    2    0    0  0.18997433527E-01 -0.85826677659E-02 -0.78002467591E-02  0.22257774284E-01  0.00000000000E+00 0.  1.
     999901    1    3    3    0    0  0.56421764918E-01 -0.96947416544E-01  0.35048256164E-01  0.88781225346E+00  0.88000000000E+00 0.  1.
        -11    1    4    4    0    0 -0.47206846251E-01  0.54878429107E-01 -0.21911343514E-01  0.75633963335E-01  0.51100000000E-03 0. -1.
         11    1    4    4    0    0 -0.28212352194E-01  0.50651655203E-01 -0.53366658914E-02  0.58226008922E-01  0.51100000000E-03 0.  1.
</event>
<event>
 8    1  0.1132492E+005  0.1043930E+01  0.7957747E-01            NaN
         13   -1    0    0    0    0  0.00000000000E+00  0.00000000000E+00  0.74505805969E-08  0.10566000000E+00  0.10566000000E+00 0. -1.
     999900   -1    0    0    0    0 -0.00000000000E+00 -0.00000000000E+00 -0.74505805969E-08  0.93827000000E+00  0.93827000000E+00 0. -1.
     999902    2    1    2    0    0  0.52051666957E-02  0.13614965272E-01  0.15402178796E-01  0.10227241482E+01  0.10225042763E+01 0.  0.
     999903    2    3    3    0    0  0.72710682155E-01 -0.10077993325E+00 -0.37087298540E-01  0.13120951978E+00  0.19925664905E-01 0.  0.
         14    1    1    2    0    0 -0.52051666957E-02 -0.13614965272E-01 -0.15402178796E-01  0.21205851819E-01  0.00000000000E+00 0.  1.
     999901    1    3    3    0    0 -0.67505515460E-01  0.11439489852E+00  0.52489477336E-01  0.89151462840E+00  0.88000000000E+00 0. -1.
        -11    1    4    4    0    0  0.42379100094E-01 -0.55902414361E-01 -0.10727926597E-01  0.70967722143E-01  0.51100000000E-03 0.  1.
         11    1    4    4    0    0  0.30331582061E-01 -0.44877518890E-01 -0.26359371943E-01  0.60241797635E-01  0.51100000000E-03 0. -1.
</event>
<event>
 7    1  0.1633591E+005  0.1043930E+01  0.7957747E-01            NaN
         13   -1    0    0    0    0  0.00000000000E+00  0.00000000000E+00  0.74505805969E-08  0.10566000000E+00  0.10566000000E+00 0. -1.
     999900   -1    0    0    0    0 -0.00000000000E+00 -0.00000000000E+00 -0.74505805969E-08  0.93827000000E+00  0.93827000000E+00 0.  1.
     999903    2    1    2    0    0 -0.80180343157E-01 -0.74409923277E-01  0.41372226680E-01  0.11829096039E+00  0.17758548893E-01 0.  0.
         14    1    1    2    0    0 -0.57248775407E-02  0.24812645417E-02 -0.38020169362E-01  0.38528744787E-01  0.00000000000E+00 0.  1.
     999901    1    1    2    0    0  0.85905220698E-01  0.71928658736E-01 -0.33520573184E-02  0.88711029482E+00  0.88000000000E+00 0. -1.
        -11    1    3    3    0    0 -0.45290883719E-01 -0.50823678141E-01  0.31604468842E-01  0.75056072237E-01  0.51100000000E-03 0. -1.
         11    1    3    3    0    0 -0.34889459438E-01 -0.23586245136E-01  0.97677578384E-02  0.43234888154E-01  0.51100000000E-03 0.  1.
</event>
<event>
 8    1  0.1132492E+005  0.1043930E+01  0.7957747E-01            NaN
         13   -1    0    0    0    0  0.00000000000E+00  0.00000000000E+00  0.74505805969E-08  0.10566000000E+00  0.10566000000E+00 0.  1.
     999900   -1    0    0    0    0 -0.00000000000E+00 -0.00000000000E+00 -0.74505805969E-08  0.93827000000E+00  0.93827000000E+00 0. -1.
     999902    2    1    2    0    0  0.50776161039E-02  0.17234369083E-01 -0.15821809849E-01  0.10199897550E+01  0.10197087648E+01 0.  0.
     999903    2    3    3    0    0  0.11345289818E+00 -0.14291881036E-01  0.57822554441E-01  0.12972990609E+00  0.20262841955E-01 0.  0.
         14    1    1    2    0    0 -0.50776161039E-02 -0.17234369083E-01  0.15821809849E-01  0.23940244984E-01  0.00000000000E+00 0. -1.
     999901    1    3    3    0    0 -0.10837528208E+00  0.31526250119E-01 -0.73644364290E-01  0.89025984892E+00  0.88000000000E+00 0.  1.
        -11    1    4    4    0    0  0.47351744545E-01 -0.86094038825E-02  0.13669686718E-01  0.50034298262E-01  0.51100000000E-03 0.  1.
         11    1    4    4    0    0  0.66101153635E-01 -0.56824771538E-02  0.44152867722E-01  0.79695607832E-01  0.51100000000E-03 0. -1.
</event>
<event>
 8    1  0.1132492E+005  0.1043930E+01  0.7957747E-01            NaN
         13   -1    0    0    0    0  0.00000000000E+00  0.00000000000E+00  0.74505805969E-08  0.10566000000E+00  0.10566000000E+00 0. -1.
     999900   -1    0    0    0    0 -0.00000000000E+00 -0.00000000000E+00 -0.74505805969E-08  0.93827000000E+00  0.93827000000E+00 0.  1.
     999902    2    1    2    0    0 -0.15474157922E-01  0.29323603994E-02  0.19004757411E-01  0.10192474332E+01  0.10189485271E+01 0.  0.
     999903    2    3    3    0    0 -0.10842256069E+00  0.60052507245E-01  0.41097952326E-01  0.13223546820E+00  0.20866769527E-01 0.  0.
         14    1    1    2    0    0  0.15474157922E-01 -0.29323603994E-02 -0.19004757411E-01  0.24682566827E-01  0.00000000000E+00 0.  1.
     999901    1    3    3    0    0  0.92948402768E-01 -0.57120146845E-01 -0.22093194915E-01  0.88701196498E+00  0.88000000000E+00 0. -1.
        -11    1    4    4    0    0 -0.72852249926E-01  0.32489483334E-01  0.18542743092E-01  0.81896955309E-01  0.51100000000E-03 0. -1.
         11    1    4    4    0    0 -0.35570310764E-01  0.27563023911E-01  0.22555209235E-01  0.50338512886E-01  0.51100000000E-03 0.  1.
</event>
<event>
 8    1  0.1132492E+005  0.1043930E+01  0.7957747E-01            NaN
         13   -1    0    0    0    0  0.00000000000E+00  0.00000000000E+00  0.74505805969E-08  0.10566000000E+00  0.10566000000E+00 0. -1.
     999900   -1    0    0    0    0 -0.00000000000E+00 -0.00000000000E+00 -0.74505805969E-08  0.93827000000E+00  0.93827000000E+00 0.  1.
     999902    2    1    2    0    0 -0.13950907969E-01 -0.18749231911E-01 -0.20097397969E-02  0.10204736451E+01  0.10202040285E+01 0.  0.
     999903    2    3    3    0    0 -0.22056681907E-01 -0.80973257867E-01 -0.10067809800E+00  0.13273889989E+00  0.20985004625E-01 0.  0.
         14    1    1    2    0    0  0.13950907969E-01  0.18749231911E-01  0.20097397969E-02  0.23456354884E-01  0.00000000000E+00 0. -1.
     999901    1    3    3    0    0  0.81057739379E-02  0.62224025956E-01  0.98668358207E-01  0.88773474523E+00  0.88000000000E+00 0. -1.
        -11    1    4    4    0    0 -0.10794420278E-01 -0.10337814238E-01 -0.16269282898E-01  0.22098429795E-01  0.51100000000E-03 0. -1.
         11    1    4    4    0    0 -0.11262261628E-01 -0.70635443628E-01 -0.84408815106E-01  0.11064047009E+00  0.51100000000E-03 0.  1.
</event>
<event>
 8    1  0.1132492E+005  0.1043930E+01  0.7957747E-01            NaN
         13   -1    0    0    0    0  0.00000000000E+00  0.00000000000E+00  0.74505805969E-08  0.10566000000E+00  0.10566000000E+00 0.  1.
     999900   -1    0    0    0    0 -0.00000000000E+00 -0.00000000000E+00 -0.74505805969E-08  0.93827000000E+00  0.93827000000E+00 0.  1.
     999902    2    1    2    0    0  0.92617397346E-03 -0.23799827324E-01 -0.26865757453E-02  0.10199611188E+01  0.10196794479E+01 0.  0.
     999903    2    3    3    0    0 -0.13144581029E-01  0.12176243601E+00 -0.29991703835E-01  0.12747474425E+00  0.18746660767E-01 0.  0.
         14    1    1    2    0    0 -0.92617397346E-03  0.23799827324E-01  0.26865757453E-02  0.23968881244E-01  0.00000000000E+00 0. -1.
     999901    1    3    3    0    0  0.14070755003E-01 -0.14556226333E+00  0.27305128090E-01  0.89248637450E+00  0.88000000000E+00 0. -1.
        -11    1    4    4    0    0 -0.16203122695E-01  0.63604536831E-01 -0.16972796374E-01  0.67796867393E-01  0.51100000000E-03 0.  1.
         11    1    4    4    0    0  0.30585416657E-02  0.58157899179E-01 -0.13018907461E-01  0.59677876860E-01  0.51100000000E-03 0. -1.
</event>
<event>
 8    1  0.1132492E+005  0.1043930E+01  0.7957747E-01            NaN
         13   -1    0    0    0    0  0.00000000000E+00  0.00000000000E+00  0.74505805969E-08  0.10566000000E+00  0.10566000000E+00 0.  1.
     999900   -1    0    0    0    0 -0.00000000000E+00 -0.00000000000E+00 -0.74505805969E-08  0.93827000000E+00  0.93827000000E+00 0. -1.
     999902    2    1    2    0    0  0.49108481098E-02 -0.21534661561E-01  0.74943354756E-02  0.10206056963E+01  0.10203391418E+01 0.  0.
     999903    2    3    3    0    0  0.81832401422E-01  0.96908038072E-01 -0.13993132549E-01  0.12908603320E+00  0.19485544457E-01 0.  0.
         14    1    1    2    0    0 -0.49108481098E-02  0.21534661561E-01 -0.74943354756E-02  0.23324303675E-01  0.00000000000E+00 0. -1.
     999901    1    3    3    0    0 -0.76921553312E-01 -0.11844269963E+00  0.21487468025E-01  0.89151966313E+00  0.88000000000E+00 0. -1.
        -11    1    4    4    0    0  0.34067210580E-01  0.35602041745E-01 -0.14494589406E-01  0.51365693378E-01  0.51100000000E-03 0. -1.
         11    1    4    4    0    0  0.47765190842E-01  0.61305996327E-01  0.50145685655E-03  0.77720339820E-01  0.51100000000E-03 0.  1.
</event>
<event>
 8    1  0.1132492E+005  0.1043930E+01  0.7957747E-01            NaN
         13   -1    0    0    0    0  0.00000000000E+00  0.00000000000E+00  0.74505805969E-08  0.10566000000E+00  0.10566000000E+00 0.  1.
     999900   -1    0    0    0    0 -0.00000000000E+00 -0.00000000000E+00 -0.74505805969E-08  0.93827000000E+00  0.93827000000E+00 0. -1.
     999902    2    1    2    0    0  0.68948335846E-02 -0.22026599783E-01 -0.73513009254E-02  0.10197070470E+01  0.10194193005E+01 0.  0.
     999903    2    3    3    0    0 -0.10129595541E+00  0.12652088145E-02 -0.78817530793E-01  0.12990078874E+00  0.19988507202E-01 0.  0.
         14    1    1    2    0    0 -0.68948335846E-02  0.22026599783E-01  0.73513009254E-02  0.24222953029E-01  0.00000000000E+00 0.  1.
     999901    1    3    3    0    0  0.10819078899E+00 -0.23291808598E-01  0.71466229867E-01  0.88980625823E+00  0.88000000000E+00 0.  1.
        -11    1    4    4    0    0 -0.52324328921E-01 -0.83529367218E-02 -0.35179493126E-01  0.63603968481E-01  0.51100000000E-03 0.  1.
         11    1    4    4    0    0 -0.48971626487E-01  0.96181455362E-02 -0.43638037667E-01  0.66296820262E-01  0.51100000000E-03 0. -1.
</event>
<event>
 8    1  0.1132492E+005  0.1043930E+01  0.7957747E-01            NaN
         13   -1    0    0    0    0  0.00000000000E+00  0.00000000000E+00  0.74505805969E-08  0.10566000000E+00  0.10566000000E+00 0. -1.
     999900   -1    0    0    0    0 -0.00000000000E+00 -0.00000000000E+00 -0.74505805969E-08  0.93827000000E+00  0.93827000000E+00 0.  1.
     999902    2    1    2    0    0 -0.23341769658E-01 -0.75778258611E-02 -0.12658812361E-02  0.10193563533E+01  0.10190601116E+01 0.  0.
     999903    2    3    3    0    0 -0.12882726264E+00 -0.13361945235E-01 -0.21651772199E-01  0.13280334881E+00  0.19822336772E-01 0.  0.
         14    1    1    2    0    0  0.23341769658E-01  0.75778258611E-02  0.12658812361E-02  0.24573646674E-01  0.00000000000E+00 0. -1.
     999901    1    3    3    0    0  0.10548549298E+00  0.57841193740E-02  0.20385890963E-01  0.88655300452E+00  0.88000000000E+00 0. -1.
        -11    1    4    4    0    0 -0.68288141606E-01  0.26538244550E-02 -0.13321486138E-01  0.69627840568E-01  0.51100000000E-03 0.  1.
         11    1    4    4    0    0 -0.60539121036E-01 -0.16015769690E-01 -0.83302860608E-02  0.63175508241E-01  0.51100000000E-03 0. -1.
</event>
<event>
 8    1  0.1132492E+005  0.1043930E+01  0.7957747E-01            NaN
         13   -1    0    0    0    0  0.00000000000E+00  0.00000000000E+00  0.74505805969E-08  0.10566000000E+00  0.10566000000E+00 0. -1.
     999900   -1    0    0    0    0 -0.00000000000E+00 -0.00000000000E+00 -0.74505805969E-08  0.93827000000E+00  0.93827000000E+00 0. -1.
     999902    2    1    2    0    0 -0.55171135942E-02  0.35728045967E-02  0.22619523299E-01  0.10203748241E+01  0.10201029043E+01 0.  0.
     999903    2    3    3    0    0  0.94622209102E-01 -0.35006854812E-01 -0.76609885003E-01  0.12831947298E+00  0.20444322623E-01 0.  0.
         14    1    1    2    0    0  0.55171135942E-02 -0.35728045967E-02 -0.22619523299E-01  0.23555175851E-01  0.00000000000E+00 0.  1.
     999901    1    3    3    0    0 -0.10013932270E+00  0.38579659408E-01  0.99229408302E-01  0.89205535116E+00  0.88000000000E+00 0.  1.
        -11    1    4    4    0    0  0.35158078340E-01 -0.23689982322E-01 -0.32415477077E-01  0.53369748080E-01  0.51100000000E-03 0. -1.
         11    1    4    4    0    0  0.59464130762E-01 -0.11316872489E-01 -0.44194407926E-01  0.74949724903E-01  0.51100000000E-03 0.  1.
</event>
<event>
 8    1  0.1132492E+005  0.1043930E+01  0.7957747E-01            NaN
         13   -1    0    0    0    0  0.00000000000E+00  0.00000000000E+00  0.74505805969E-08  0.10566000000E+00  0.10566000000E+00 0.  1.
     999900   -1    0    0    0    0 -0.00000000000E+00 -0.00000000000E+00 -0.74505805969E-08  0.93827000000E+00  0.93827000000E+00 0. -1.
     999902    2    1    2    0    0  0.29458956903E-02 -0.20130780504E-02  0.22932344028E-01  0.10207217431E+01  0.10204578647E+01 0.  0.
     999903    2    3    3    0    0 -0.10550106630E+00  0.99665730187E-02  0.76707117327E-01  0.13235471208E+00  0.20099263476E-01 0.  0.
         14    1    1    2    0    0 -0.29458956903E-02  0.20130780504E-02 -0.22932344028E-01  0.23208256877E-01  0.00000000000E+00 0. -1.
     999901    1    3    3    0    0  0.10844696199E+00 -0.11979651069E-01 -0.53774773299E-01  0.88836703105E+00  0.88000000000E+00 0. -1.
        -11    1    4    4    0    0 -0.44638714253E-01 -0.41889325004E-02  0.38592603566E-01  0.59159210075E-01  0.51100000000E-03 0.  1.
         11    1    4    4    0    0 -0.60862352047E-01  0.14155505519E-01  0.38114513762E-01  0.73195502003E-01  0.51100000000E-03 0. -1.
</event>
<event>
 8    1  0.1132492E+005  0.1043930E+01  0.7957747E-01            NaN
         13   -1    0    0    0    0  0.00000000000E+00  0.00000000000E+00  0.74505805969E-08  0.10566000000E+00  0.10566000000E+00 0.  1.
     999900   -1    0    0    0    0 -0.00000000000E+00 -0.00000000000E+00 -0.74505805969E-08  0.93827000000E+00  0.93827000000E+00 0.  1.
     999902    2    1    2    0    0 -0.85365877850E-02 -0.15060228192E-01  0.16183661327E-01  0.10202320107E+01  0.10199567446E+01 0.  0.
     999903    2    3    3    0    0  0.64448116504E-01  0.74324842203E-01  0.82062569080E-01  0.13025645575E+00  0.23552858248E-01 0.  0.
         14    1    1    2    0    0  0.85365877850E-02  0.15060228192E-01 -0.16183661327E-01  0.23697989327E-01  0.00000000000E+00 0.  1.
     999901    1    3    3    0    0 -0.72984704289E-01 -0.89385070395E-01 -0.65878907753E-01  0.88997555492E+00  0.88000000000E+00 0.  1.
        -11    1    4    4    0    0  0.37222068991E-01  0.27834622059E-01  0.29920772037E-01  0.55278950111E-01  0.51100000000E-03 0.  1.
         11    1    4    4    0    0  0.27226047514E-01  0.46490220144E-01  0.52141797042E-01  0.74977505641E-01  0.51100000000E-03 0. -1.
</event>
<event>
 8    1  0.1132492E+005  0.1043930E+01  0.7957747E-01            NaN
         13   -1    0    0    0    0  0.00000000000E+00  0.00000000000E+00  0.74505805969E-08  0.10566000000E+00  0.10566000000E+00 0. -1.
     999900   -1    0    0    0    0 -0.00000000000E+00 -0.00000000000E+00 -0.74505805969E-08  0.93827000000E+00  0.93827000000E+00 0. -1.
     999902    2    1    2    0    0 -0.23601638962E-02 -0.22142364813E-01  0.11685727453E-01  0.10187822184E+01  0.10184717952E+01 0.  0.
     999903    2    3    3    0    0  0.76542717003E-01  0.99270966762E-01 -0.19287460619E-02  0.12684488003E+00  0.19297439207E-01 0.  0.
         14    1    1    2    0    0  0.23601638962E-02  0.22142364813E-01 -0.11685727453E-01  0.25147781597E-01  0.00000000000E+00 0. -1.
     999901    1    3    3    0    0 -0.78902880899E-01 -0.12141333158E+00  0.13614473515E-01  0.89193733838E+00  0.88000000000E+00 0. -1.
        -11    1    4    4    0    0  0.43031065272E-01  0.56599447442E-01  0.84475372926E-02  0.71601620348E-01  0.51100000000E-03 0.  1.
         11    1    4    4    0    0  0.33511651731E-01  0.42671519320E-01 -0.10376283355E-01  0.55243259680E-01  0.51100000000E-03 0. -1.
</event>
<event>
 8    1  0.1132492E+005  0.1043930E+01  0.7957747E-01            NaN
         13   -1    0    0    0    0  0.00000000000E+00  0.00000000000E+00  0.74505805969E-08  0.10566000000E+00  0.10566000000E+00 0. -1.
     999900   -1    0    0    0    0 -0.00000000000E+00 -0.00000000000E+00 -0.74505805969E-08  0.93827000000E+00  0.93827000000E+00 0.  1.
     999902    2    1    2    0    0  0.18341238834E-01 -0.36910945059E-02  0.18023779936E-01  0.10179515115E+01  0.10176199673E+01 0.  0.
     999903    2    3    3    0    0 -0.49251134686E-01  0.83496029549E-01  0.81948332811E-01  0.12876273965E+00  0.21611400997E-01 0.  0.
         14    1    1    2    0    0 -0.18341238834E-01  0.36910945059E-02 -0.18023779936E-01  0.25978488482E-01  0.00000000000E+00 0.  1.
     999901    1    3    3    0    0  0.67592373520E-01 -0.87187124055E-01 -0.63924552875E-01  0.88918877187E+00  0.88000000000E+00 0.  1.
        -11    1    4    4    0    0 -0.33169600907E-01  0.36259743529E-01  0.45430536058E-01  0.66926722261E-01  0.51100000000E-03 0.  1.
         11    1    4    4    0    0 -0.16081533779E-01  0.47236286020E-01  0.36517796753E-01  0.61836017387E-01  0.51100000000E-03 0. -1.
</event>
<event>
 8    1  0.1132492E+005  0.1043930E+01  0.7957747E-01            NaN
         13   -1    0    0    0    0  0.00000000000E+00  0.00000000000E+00  0.74505805969E-08  0.10566000000E+00  0.10566000000E+00 0.  1.
     999900   -1    0    0    0    0 -0.00000000000E+00 -0.00000000000E+00 -0.74505805969E-08  0.93827000000E+00  0.93827000000E+00 0.  1.
     999902    2    1    2    0    0  0.58184237362E-02 -0.91054106768E-02 -0.21394493837E-01  0.10199615431E+01  0.10196798824E+01 0.  0.
     999903    2    3    3    0    0  0.91800980651E-01  0.83714812292E-01  0.30489254720E-01  0.12939963217E+00  0.19469984751E-01 0.  0.
         14    1    1    2    0    0 -0.58184237362E-02  0.91054106768E-02  0.21394493837E-01  0.23968456874E-01  0.00000000000E+00 0.  1.
     999901    1    3    3    0    0 -0.85982556915E-01 -0.92820222969E-01 -0.51883748557E-01  0.89056191096E+00  0.88000000000E+00 0. -1.
        -11    1    4    4    0    0  0.59584773991E-01  0.42866046783E-01  0.22417820623E-01  0.76750655117E-01  0.51100000000E-03 0. -1.
         11    1    4    4    0    0  0.32216206660E-01  0.40848765508E-01  0.80714340974E-02  0.52648977051E-01  0.51100000000E-03 0.  1.
</event>
<event>
 8    1  0.1132492E+005  0.1043930E+01  0.7957747E-01            NaN
         13   -1    0    0    0    0  0.00000000000E+00  0.00000000000E+00  0.74505805969E-08  0.10566000000E+00  0.10566000000E+00 0. -1.
     999900   -1    0    0    0    0 -0.00000000000E+00 -0.00000000000E+00 -0.74505805969E-08  0.93827000000E+00  0.93827000000E+00 0.  1.
     999902    2    1    2    0    0  0.10927652861E-01  0.19966849285E-01 -0.11001863441E-01  0.10186489860E+01  0.10183352233E+01 0.  0.
     999903    2    3    3    0    0 -0.29907424857E-02  0.10137560573E+00 -0.82592158035E-01  0.13188730575E+00  0.16936318121E-01 0.  0.
         14    1    1    2    0    0 -0.10927652861E-01 -0.19966849285E-01  0.11001863441E-01  0.25281013955E-01  0.00000000000E+00 0. -1.
     999901    1    3    3    0    0  0.13918395347E-01 -0.81408756447E-01  0.71590294593E-01  0.88676168029E+00  0.88000000000E+00 0. -1.
        -11    1    4    4    0    0 -0.28069943769E-02  0.71216897170E-01 -0.67476688188E-01  0.98148307320E-01  0.51100000000E-03 0. -1.
         11    1    4    4    0    0 -0.18374810884E-03  0.30158708563E-01 -0.15115469847E-01  0.33738998433E-01  0.51100000000E-03 0.  1.
</event>
<event>
 8    1  0.1132492E+005  0.1043930E+01  0.7957747E-01            NaN
         13   -1    0    0    0    0  0.00000000000E+00  0.00000000000E+00  0.74505805969E-08  0.10566000000E+00  0.10566000000E+00 0.  1.
     999900   -1    0    0    0    0 -0.00000000000E+00 -0.00000000000E+00 -0.74505805969E-08  0.93827000000E+00  0.93827000000E+00 0. -1.
     999902    2    1    2    0    0 -0.11469030128E-01 -0.70729529047E-02 -0.19065951759E-01  0.10205831409E+01  0.10203160646E+01 0.  0.
     999903    2    3    3    0    0  0.11085189426E+00  0.31693981918E-01 -0.57960585835E-01  0.13042693191E+00  0.18950042397E-01 0.  0.
         14    1    1    2    0    0  0.11469030128E-01  0.70729529047E-02  0.19065951759E-01  0.23346859132E-01  0.00000000000E+00 0.  1.
     999901    1    3    3    0    0 -0.12232092439E+00 -0.38766934823E-01  0.38894634076E-01  0.89015620895E+00  0.88000000000E+00 0.  1.
        -11    1    4    4    0    0  0.71987839092E-01  0.29757601862E-01 -0.39982385565E-01  0.87559214947E-01  0.51100000000E-03 0.  1.
         11    1    4    4    0    0  0.38864055170E-01  0.19363800559E-02 -0.17978200270E-01  0.42867716967E-01  0.51100000000E-03 0. -1.
</event>
<event>
 8    1  0.1132492E+005  0.1043930E+01  0.7957747E-01            NaN
         13   -1    0    0    0    0  0.00000000000E+00  0.00000000000E+00  0.74505805969E-08  0.10566000000E+00  0.10566000000E+00 0.  1.
     999900   -1    0    0    0    0 -0.00000000000E+00 -0.00000000000E+00 -0.74505805969E-08  0.93827000000E+00  0.93827000000E+00 0. -1.
     999902    2    1    2    0    0  0.12524941642E-03  0.23610157117E-01 -0.82804478750E-03  0.10203049949E+01  0.10200314416E+01 0.  0.
     999903    2    3    3    0    0  0.33473919419E-01  0.49333838310E-01  0.11565717007E+00  0.13163033745E+00  0.19890547126E-01 0.  0.
         14    1    1    2    0    0 -0.12524941642E-03 -0.23610157117E-01  0.82804478750E-03  0.23625005073E-01  0.00000000000E+00 0.  1.
     999901    1    3    3    0    0 -0.33348670002E-01 -0.25723681193E-01 -0.11648521486E+00  0.88867465748E+00  0.88000000000E+00 0. -1.
        -11    1    4    4    0    0  0.21208006904E-01  0.36270850246E-01  0.60711381985E-01  0.73834186919E-01  0.51100000000E-03 0.  1.
         11    1    4    4    0    0  0.12265912515E-01  0.13062988064E-01  0.54945788083E-01  0.57796150529E-01  0.51100000000E-03 0. -1.
</event>
<event>
 8    1  0.1132492E+005  0.1043930E+01  0.7957747E-01            NaN
         13   -1    0    0    0    0  0.00000000000E+00  0.00000000000E+00  0.74505805969E-08  0.10566000000E+00  0.10566000000E+00 0. -1.
     999900   -1    0    0    0    0 -0.00000000000E+00 -0.00000000000E+00 -0.74505805969E-08  0.93827000000E+00  0.93827000000E+00 0.  1.
     999902    2    1    2    0    0  0.16284839770E-01  0.13306667152E-01 -0.13279497051E-01  0.10190581597E+01  0.10187545948E+01 0.  0.
     999903    2    3    3    0    0 -0.22275640025E-01  0.20753370891E-01  0.12249327416E+00  0.12778008336E+00  0.19905801853E-01 0.  0.
         14    1    1    2    0    0 -0.16284839770E-01 -0.13306667152E-01  0.13279497051E-01  0.24871840281E-01  0.00000000000E+00 0. -1.
     999901    1    3    3    0    0  0.38560479795E-01 -0.74467037387E-02 -0.13577277121E+00  0.89127807636E+00  0.88000000000E+00 0.  1.
        -11    1    4    4    0    0 -0.22079549368E-01  0.79133977927E-02  0.82675647784E-01  0.85939817445E-01  0.51100000000E-03 0. -1.
         11    1    4    4    0    0 -0.19609065675E-03  0.12839973098E-01  0.39817626374E-01  0.41840265914E-01  0.51100000000E-03 0.  1.
</event>
<event>
 8    1  0.1132492E+005  0.1043930E+01  0.7957747E-01            NaN
         13   -1    0    0    0    0  0.00000000000E+00  0.00000000000E+00  0.74505805969E-08  0.10566000000E+00  0.10566000000E+00 0. -1.
     999900   -1    0    0    0    0 -0.00000000000E+00 -0.00000000000E+00 -0.74505805969E-08  0.93827000000E+00  0.93827000000E+00 0. -1.
     999902    2    1    2    0    0  0.13004328654E-01  0.51790888815E-02  0.21082273237E-01  0.10186239183E+01  0.10183095252E+01 0.  0.
     999903    2    3    3    0    0 -0.78949226711E-01  0.36443372642E-01 -0.89559888827E-01  0.12639379116E+00  0.19832219955E-01 0.  0.
         14    1    1    2    0    0 -0.13004328654E-01 -0.51790888815E-02 -0.21082273237E-01  0.25306081685E-01  0.00000000000E+00 0. -1.
     999901    1    3    3    0    0  0.91953555365E-01 -0.31264283761E-01  0.11064216206E+00  0.89223012716E+00  0.88000000000E+00 0.  1.
        -11    1    4    4    0    0 -0.27377941565E-01  0.23327408227E-01 -0.36221630419E-01  0.51048871585E-01  0.51100000000E-03 0. -1.
         11    1    4    4    0    0 -0.51571285146E-01  0.13115964415E-01 -0.53338258409E-01  0.75344919572E-01  0.51100000000E-03 0.  1.
</event>
<event>
 8    1  0.1132492E+005  0.1043930E+01  0.7957747E-01            NaN
         13   -1    0    0    0    0  0.00000000000E+00  0.00000000000E+00  0.74505805969E-08  0.10566000000E+00  0.10566000000E+00 0. -1.
     999900   -1    0    0    0    0 -0.00000000000E+00 -0.00000000000E+00 -0.74505805969E-08  0.93827000000E+00  0.93827000000E+00 0.  1.
     999902    2    1    2    0    0 -0.22665462770E-01  0.54666412753E-02 -0.32897157466E-02  0.10203836712E+01  0.10201119580E+01 0.  0.
     999903    2    3    3    0    0 -0.12756125318E+00 -0.96121742573E-02 -0.33420329649E-01  0.13351369686E+00  0.18566680081E-01 0.  0.
         14    1    1    2    0    0  0.22665462770E-01 -0.54666412753E-02  0.32897157466E-02  0.23546328782E-01  0.00000000000E+00 0. -1.
     999901    1    3    3    0    0  0.10489579041E+00  0.15078815533E-01  0.30130613903E-01  0.88686997436E+00  0.88000000000E+00 0. -1.
        -11    1    4    4    0    0 -0.47875276262E-01 -0.11125419826E-02 -0.36745011930E-02  0.48031686488E-01  0.51100000000E-03 0.  1.
         11    1    4    4    0    0 -0.79685976915E-01 -0.84996322747E-02 -0.29745828456E-01  0.85482010372E-01  0.51100000000E-03 0. -1.
</event>
<event>
 8    1  0.1132492E+005  0.1043930E+01  0.7957747E-01            NaN
         13   -1    0    0    0    0  0.00000000000E+00  0.00000000000E+00  0.74505805969E-08  0.10566000000E+00  0.10566000000E+00 0.  1.
     999900   -1    0    0    0    0 -0.00000000000E+00 -0.00000000000E+00 -0.74505805969E-08  0.93827000000E+00  0.93827000000E+00 0.  1.
     999902    2    1    2    0    0  0.14338394634E-01 -0.82505433058E-02 -0.16430662857E-01  0.10206141747E+01  0.10203478162E+01 0.  0.
     999903    2    3    3    0    0 -0.52177899016E-04 -0.12811202288E+00  0.23362940036E-01  0.13148122985E+00  0.18132669595E-01 0.  0.
         14    1    1    2    0    0 -0.14338394634E-01  0.82505433058E-02  0.16430662857E-01  0.23315825258E-01  0.00000000000E+00 0.  1.
     999901    1    3    3    0    0  0.14390572533E-01  0.11986147957E+00 -0.39793602892E-01  0.88913294489E+00  0.88000000000E+00 0.  1.
        -11    1    4    4    0    0  0.50857023230E-02 -0.11527054866E+00  0.22891025342E-01  0.11763258017E+00  0.51100000000E-03 0. -1.
         11    1    4    4    0    0 -0.51378802221E-02 -0.12841474224E-01  0.47191469314E-03  0.13848649678E-01  0.51100000000E-03 0.  1.
</event>
<event>
 8    1  0.1132492E+005  0.1043930E+01  0.7957747E-01            NaN
         13   -1    0    0    0    0  0.00000000000E+00  0.00000000000E+00  0.74505805969E-08  0.10566000000E+00  0.10566000000E+00 0. -1.
     999900   -1    0    0    0    0 -0.00000000000E+00 -0.00000000000E+00 -0.74505805969E-08  0.93827000000E+00  0.93827000000E+00 0.  1.
     999902    2    1    2    0    0  0.10246265472E-01 -0.21283260706E-01 -0.43292529969E-03  0.10203047896E+01  0.10200312314E+01 0.  0.
     999903    2    3    3    0    0 -0.12609382208E+00 -0.18363185431E-01  0.13843386153E-01  0.12968648786E+00  0.19750626499E-01 0.  0.
         14    1    1    2    0    0 -0.10246265472E-01  0.21283260706E-01  0.43292529969E-03  0.23625210406E-01  0.00000000000E+00 0.  1.
     999901    1    3    3    0    0  0.13634008755E+00 -0.29200752747E-02 -0.14276311452E-01  0.89061830173E+00  0.88000000000E+00 0. -1.
        -11    1    4    4    0    0 -0.93727700373E-01 -0.12410938395E-01  0.15716686031E-02  0.94560268994E-01  0.51100000000E-03 0. -1.
         11    1    4    4    0    0 -0.32366121709E-01 -0.59522470362E-02  0.12271717550E-01  0.35126218867E-01  0.51100000000E-03 0.  1.
</event>
<event>
 8    1  0.1132492E+005  0.1043930E+01  0.7957747E-01            NaN
         13   -1    0    0    0    0  0.00000000000E+00  0.00000000000E+00  0.74505805969E-08  0.10566000000E+00  0.10566000000E+00 0. -1.
     999900   -1    0    0    0    0 -0.00000000000E+00 -0.00000000000E+00 -0.74505805969E-08  0.93827000000E+00  0.93827000000E+00 0.  1.
     999902    2    1    2    0    0  0.22902601870E-01 -0.61253441041E-02  0.40559729416E-02  0.10198779745E+01  0.10195943228E+01 0.  0.
     999903    2    3    3    0    0 -0.12318287928E+00 -0.16482155898E-01 -0.19861044701E-01  0.12745416541E+00  0.20110195745E-01 0.  0.
         14    1    1    2    0    0 -0.22902601870E-01  0.61253441041E-02 -0.40559729416E-02  0.24052025472E-01  0.00000000000E+00 0.  1.
     999901    1    3    3    0    0  0.14608548115E+00  0.10356811794E-01  0.23917017642E-01  0.89242380912E+00  0.88000000000E+00 0.  1.
        -11    1    4    4    0    0 -0.68307033543E-01 -0.19180160489E-01 -0.10830892555E-01  0.71772548668E-01  0.51100000000E-03 0.  1.
         11    1    4    4    0    0 -0.54875845735E-01  0.26980045914E-02 -0.90301521455E-02  0.55681616739E-01  0.51100000000E-03 0. -1.
</event>
<event>
 8    1  0.1132492E+005  0.1043930E+01  0.7957747E-01            NaN
         13   -1    0    0    0    0  0.00000000000E+00  0.00000000000E+00  0.74505805969E-08  0.10566000000E+00  0.10566000000E+00 0. -1.
     999900   -1    0    0    0    0 -0.00000000000E+00 -0.00000000000E+00 -0.74505805969E-08  0.93827000000E+00  0.93827000000E+00 0.  1.
     999902    2    1    2    0    0 -0.11950054953E-01  0.19377484152E-01 -0.65852074514E-02  0.10202307244E+01  0.10199554281E+01 0.  0.
     999903    2    3    3    0    0 -0.11779064983E-01  0.11566698537E+00  0.60266102175E-01  0.13245778337E+00  0.19886262239E-01 0.  0.
         14    1    1    2    0    0  0.11950054953E-01 -0.19377484152E-01  0.65852074514E-02  0.23699275572E-01  0.00000000000E+00 0.  1.
     999901    1    3    3    0    0 -0.17098996997E-03 -0.96289501221E-01 -0.66851309626E-01  0.88777294106E+00  0.88000000000E+00 0.  1.
        -11    1    4    4    0    0  0.17423725940E-03  0.22521291634E-01  0.20554377993E-01  0.30495614622E-01  0.51100000000E-03 0.  1.
         11    1    4    4    0    0 -0.11953302243E-01  0.93145693739E-01  0.39711724182E-01  0.10196216874E+00  0.51100000000E-03 0. -1.
</event>
<event>
 8    1  0.1132492E+005  0.1043930E+01  0.7957747E-01            NaN
         13   -1    0    0    0    0  0.00000000000E+00  0.00000000000E+00  0.74505805969E-08  0.10566000000E+00  0.10566000000E+00 0. -1.
     999900   -1    0    0    0    0 -0.00000000000E+00 -0.00000000000E+00 -0.74505805969E-08  0.93827000000E+00  0.93827000000E+00 0. -1.
     999902    2    1    2    0    0  0.11006558698E-01  0.37812973564E-02 -0.20682503281E-01  0.10201979861E+01  0.10199219197E+01 0.  0.
     999903    2    3    3    0    0  0.29540577947E-02  0.71284927459E-01 -0.11043055083E+00  0.13302478149E+00  0.20258790530E-01 0.  0.
         14    1    1    2    0    0 -0.11006558698E-01 -0.37812973564E-02  0.20682503281E-01  0.23732013948E-01  0.00000000000E+00 0. -1.
     999901    1    3    3    0    0  0.80525009031E-02 -0.67503630103E-01  0.89748047551E-01  0.88717320456E+00  0.88000000000E+00 0.  1.
        -11    1    4    4    0    0  0.74265561325E-02  0.19576795359E-01 -0.21230408338E-01  0.29822743196E-01  0.51100000000E-03 0.  1.
         11    1    4    4    0    0 -0.44724983378E-02  0.51708132100E-01 -0.89200142494E-01  0.10320203830E+00  0.51100000000E-03 0. -1.
</event>
<event>
 8    1  0.1132492E+005  0.1043930E+01  0.7957747E-01            NaN
         13   -1    0    0    0    0  0.00000000000E+00  0.00000000000E+00  0.74505805969E-08  0.10566000000E+00  0.10566000000E+00 0.  1.
     999900   -1    0    0    0    0 -0.00000000000E+00 -0.00000000000E+00 -0.74505805969E-08  0.93827000000E+00  0.93827000000E+00 0.  1.
     999902    2    1    2    0    0 -0.12136337549E-02 -0.70731422345E-02  0.22550956265E-01  0.10202646693E+01  0.10199901703E+01 0.  0.
     999903    2    3    3    0    0 -0.36082280759E-01 -0.12090360440E-01 -0.12055431566E+00  0.12800903673E+00  0.20121199291E-01 0.  0.
         14    1    1    2    0    0  0.12136337549E-02  0.70731422345E-02 -0.22550956265E-01  0.23665330685E-01  0.00000000000E+00 0. -1.
     999901    1    3    3    0    0  0.34868647004E-01  0.50172182051E-02  0.14310527192E+00  0.89225563258E+00  0.88000000000E+00 0. -1.
        -11    1    4    4    0    0 -0.29722642486E-01 -0.10484825056E-02 -0.93122863830E-01  0.97758189840E-01  0.51100000000E-03 0. -1.
         11    1    4    4    0    0 -0.63596382729E-02 -0.11041877934E-01 -0.27431451830E-01  0.30250846893E-01  0.51100000000E-03 0.  1.
</event>
<event>
 8    1  0.1132492E+005  0.1043930E+01  0.7957747E-01            NaN
         13   -1    0    0    0    0  0.00000000000E+00  0.00000000000E+00  0.74505805969E-08  0.10566000000E+00  0.10566000000E+00 0. -1.
     999900   -1    0    0    0    0 -0.00000000000E+00 -0.00000000000E+00 -0.74505805969E-08  0.93827000000E+00  0.93827000000E+00 0. -1.
     999902    2    1    2    0    0  0.47824323995E-02  0.49711420343E-02  0.23428128449E-01  0.10195074466E+01  0.10192148804E+01 0.  0.
     999903    2    3    3    0    0  0.93798821928E-01 -0.84064130306E-01 -0.21641927307E-01  0.12940492032E+00  0.20304270177E-01 0.  0.
         14    1    1    2    0    0 -0.47824323995E-02 -0.49711420343E-02 -0.23428128449E-01  0.24422553417E-01  0.00000000000E+00 0.  1.
     999901    1    3    3    0    0 -0.89016389528E-01  0.89035272340E-01  0.45070055756E-01  0.89010252626E+00  0.88000000000E+00 0.  1.
        -11    1    4    4    0    0  0.66197818743E-01 -0.70217932958E-01 -0.13310705456E-01  0.97417376868E-01  0.51100000000E-03 0.  1.
         11    1    4    4    0    0  0.27601003185E-01 -0.13846197348E-01 -0.83312218505E-02  0.31987543456E-01  0.51100000000E-03 0. -1.
</event>
<event>
 7    1  0.2704700E+005  0.1043930E+01  0.7957747E-01            NaN
         13   -1    0    0    0    0  0.00000000000E+00  0.00000000000E+00  0.74505805969E-08  0.10566000000E+00  0.10566000000E+00 0.  1.
     999900   -1    0    0    0    0 -0.00000000000E+00 -0.00000000000E+00 -0.74505805969E-08  0.93827000000E+00  0.93827000000E+00 0.  1.
     999903    2    1    2    0    0 -0.98116495845E-01 -0.42000499729E-01 -0.30789127429E-01  0.11270032576E+00  0.19039546301E-01 0.  0.
         14    1    1    2    0    0  0.19227583025E-01 -0.22425874529E-01 -0.31479379228E-01  0.43169099064E-01  0.00000000000E+00 0. -1.
     999901    1    1    2    0    0  0.78888912820E-01  0.64426374258E-01  0.62268506658E-01  0.88806057518E+00  0.88000000000E+00 0. -1.
        -11    1    3    3    0    0 -0.49548594082E-01 -0.31495697631E-01 -0.17252941098E-01  0.61196137478E-01  0.51100000000E-03 0.  1.
         11    1    3    3    0    0 -0.48567901764E-01 -0.10504802099E-01 -0.13536186332E-01  0.51504188279E-01  0.51100000000E-03 0. -1.
</event>
<event>
 8    1  0.1132492E+005  0.1043930E+01  0.7957747E-01            NaN
         13   -1    0    0    0    0  0.00000000000E+00  0.00000000000E+00  0.74505805969E-08  0.10566000000E+00  0.10566000000E+00 0. -1.
     999900   -1    0    0    0    0 -0.00000000000E+00 -0.00000000000E+00 -0.74505805969E-08  0.93827000000E+00  0.93827000000E+00 0.  1.
     999902    2    1    2    0    0  0.97589509151E-02 -0.70297624570E-02  0.20760132223E-01  0.10199375476E+01  0.10196553159E+01 0.  0.
     999903    2    3    3    0    0 -0.33411944443E-01 -0.29755831274E-01  0.12327770132E+00  0.13264388008E+00  0.19880637671E-01 0.  0.
         14    1    1    2    0    0 -0.97589509151E-02  0.70297624570E-02 -0.20760132223E-01  0.23992452419E-01  0.00000000000E+00 0.  1.
     999901    1    3    3    0    0  0.43170895358E-01  0.22726068817E-01 -0.10251756910E+00  0.88729366750E+00  0.88000000000E+00 0.  1.
        -11    1    4    4    0    0 -0.17307926011E-01 -0.29112814653E-02  0.40457599472E-01  0.44103495763E-01  0.51100000000E-03 0.  1.
         11    1    4    4    0    0 -0.16104018432E-01 -0.26844549808E-01  0.82820101848E-01  0.88540384318E-01  0.51100000000E-03 0. -1.
</event>
<event>
 8    1  0.1132492E+005  0.1043930E+01  0.7957747E-01            NaN
         13   -1    0    0    0    0  0.00000000000E+00  0.00000000000E+00  0.74505805969E-08  0.10566000000E+00  0.10566000000E+00 0. -1.
     999900   -1    0    0    0    0 -0.00000000000E+00 -0.00000000000E+00 -0.74505805969E-08  0.93827000000E+00  0.93827000000E+00 0.  1.
     999902    2    1    2    0    0 -0.20358576761E-01 -0.13032795168E-01 -0.41151273588E-02  0.10194094031E+01  0.10191144546E+01 0.  0.
     999903    2    3    3    0    0 -0.19307680828E-01 -0.53252845171E-01 -0.11680323117E+00  0.13131179276E+00  0.19777260929E-01 0.  0.
         14    1    1    2    0    0  0.20358576761E-01  0.13032795168E-01  0.41151273588E-02  0.24520596868E-01  0.00000000000E+00 0.  1.
     999901    1    3    3    0    0 -0.10508959327E-02  0.40220050003E-01  0.11268810381E+00  0.88809761037E+00  0.88000000000E+00 0. -1.
        -11    1    4    4    0    0 -0.99766474060E-02 -0.57236653376E-02 -0.20463016855E-01  0.23479565970E-01  0.51100000000E-03 0. -1.
         11    1    4    4    0    0 -0.93310334222E-02 -0.47529179833E-01 -0.96340214311E-01  0.10783222679E+00  0.51100000000E-03 0.  1.
</event>
<event>
 8    1  0.1132492E+005  0.1043930E+01  0.7957747E-01            NaN
         13   -1    0    0    0    0  0.00000000000E+00  0.00000000000E+00  0.74505805969E-08  0.10566000000E+00  0.10566000000E+00 0.  1.
     999900   -1    0    0    0    0 -0.00000000000E+00 -0.00000000000E+00 -0.74505805969E-08  0.93827000000E+00  0.93827000000E+00 0. -1.
     999902    2    1    2    0    0 -0.14773061571E-01 -0.12682000597E-01 -0.15527629394E-01  0.10190265110E+01  0.10187221635E+01 0.  0.
     999903    2    3    3    0    0  0.17624674781E-01  0.62615507509E-01  0.10712833649E+00  0.12674639023E+00  0.18890103600E-01 0.  0.
         14    1    1    2    0    0  0.14773061571E-01  0.12682000597E-01  0.15527629394E-01  0.24903488950E-01  0.00000000000E+00 0.  1.
     999901    1    3    3    0    0 -0.32397736352E-01 -0.75297508106E-01 -0.12265596589E+00  0.89228012082E+00  0.88000000000E+00 0.  1.
        -11    1    4    4    0    0  0.19795581021E-01  0.47556134510E-01  0.72686473886E-01  0.89090041893E-01  0.51100000000E-03 0.  1.
         11    1    4    4    0    0 -0.21709062391E-02  0.15059372999E-01  0.34441862607E-01  0.37656348335E-01  0.51100000000E-03 0. -1.
</event>
<event>
 8    1  0.1132492E+005  0.1043930E+01  0.7957747E-01            NaN
         13   -1    0    0    0    0  0.00000000000E+00  0.00000000000E+00  0.74505805969E-08  0.10566000000E+00  0.10566000000E+00 0. -1.
     999900   -1    0    0    0    0 -0.00000000000E+00 -0.00000000000E+00 -0.74505805969E-08  0.93827000000E+00  0.93827000000E+00 0. -1.
     999902    2    1    2    0    0  0.18372720832E-01 -0.14443849124E-01 -0.45251557999E-02  0.10201254063E+01  0.10198476287E+01 0.  0.
     999903    2    3    3    0    0 -0.78887375445E-01  0.22378091100E-01  0.96827320811E-01  0.12822423117E+00  0.18491252991E-01 0.  0.
         14    1    1    2    0    0 -0.18372720832E-01  0.14443849124E-01  0.45251557999E-02  0.23804593744E-01  0.00000000000E+00 0.  1.
     999901    1    3    3    0    0  0.97260096277E-01 -0.36821940224E-01 -0.10135247661E+00  0.89190117509E+00  0.88000000000E+00 0. -1.
        -11    1    4    4    0    0 -0.24926892168E-01  0.14009338127E-01  0.42246674143E-01  0.51016214139E-01  0.51100000000E-03 0.  1.
         11    1    4    4    0    0 -0.53960483277E-01  0.83687529729E-02  0.54580646668E-01  0.77208017028E-01  0.51100000000E-03 0. -1.
</event>
<event>
 8    1  0.1132492E+005  0.1043930E+01  0.7957747E-01            NaN
         13   -1    0    0    0    0  0.00000000000E+00  0.00000000000E+00  0.74505805969E-08  0.10566000000E+00  0.10566000000E+00 0. -1.
     999900   -1    0    0    0    0 -0.00000000000E+00 -0.00000000000E+00 -0.74505805969E-08  0.93827000000E+00  0.93827000000E+00 0. -1.
     999902    2    1    2    0    0  0.17843792025E-01  0.12551372874E-01  0.99961078269E-02  0.10199329159E+01  0.10196505739E+01 0.  0.
     999903    2    3    3    0    0  0.59513837743E-01 -0.84363237614E-01 -0.77551680210E-01  0.12931883019E+00  0.70741779456E-02 0.  0.
         14    1    1    2    0    0 -0.17843792025E-01 -0.12551372874E-01 -0.99961078269E-02  0.23997084126E-01  0.00000000000E+00 0.  1.
     999901    1    3    3    0    0 -0.41670045718E-01  0.96914610488E-01  0.87547788037E-01  0.89061408569E+00  0.88000000000E+00 0.  1.
        -11    1    4    4    0    0  0.34451058500E-01 -0.48239523598E-01 -0.40196706841E-01  0.71623763030E-01  0.51100000000E-03 0.  1.
         11    1    4    4    0    0  0.25062779243E-01 -0.36123714016E-01 -0.37354973369E-01  0.57695067156E-01  0.51100000000E-03 0. -1.
</event>
<event>
 8    1  0.1132492E+005  0.1043930E+01  0.7957747E-01            NaN
         13   -1    0    0    0    0  0.00000000000E+00  0.00000000000E+00  0.74505805969E-08  0.10566000000E+00  0.10566000000E+00 0. -1.
     999900   -1    0    0    0    0 -0.00000000000E+00 -0.00000000000E+00 -0.74505805969E-08  0.93827000000E+00  0.93827000000E+00 0.  1.
     999902    2    1    2    0    0  0.40919373763E-02  0.13745571331E-01 -0.18473526461E-01  0.10205429125E+01  0.10202749043E+01 0.  0.
     999903    2    3    3    0    0  0.12153250718E+00 -0.41961777054E-01 -0.14908057753E-01  0.13098779408E+00  0.20114944162E-01 0.  0.
         14    1    1    2    0    0 -0.40919373763E-02 -0.13745571331E-01  0.18473526461E-01  0.23387087519E-01  0.00000000000E+00 0. -1.
     999901    1    3    3    0    0 -0.11744056980E+00  0.55707348385E-01 -0.35654687084E-02  0.88955511840E+00  0.88000000000E+00 0. -1.
        -11    1    4    4    0    0  0.57169567043E-01 -0.16568521112E-01 -0.16526513196E-01  0.61775901832E-01  0.51100000000E-03 0.  1.
         11    1    4    4    0    0  0.64362940134E-01 -0.25393255943E-01  0.16184554429E-02  0.69211892252E-01  0.51100000000E-03 0. -1.
</event>
<event>
 8    1  0.1132492E+005  0.1043930E+01  0.7957747E-01            NaN
         13   -1    0    0    0    0  0.00000000000E+00  0.00000000000E+00  0.74505805969E-08  0.10566000000E+00  0.10566000000E+00 0.  1.
     999900   -1    0    0    0    0 -0.00000000000E+00 -0.00000000000E+00 -0.74505805969E-08  0.93827000000E+00  0.93827000000E+00 0. -1.
     999902    2    1    2    0    0 -0.13374343322E-01 -0.18311811315E-01  0.68141586524E-02  0.10202524104E+01  0.10199776236E+01 0.  0.
     999903    2    3    3    0    0 -0.19373767382E-01  0.16729033171E-01  0.12746380494E+00  0.13130911013E+00  0.18435222283E-01 0.  0.
         14    1    1    2    0    0  0.13374343322E-01  0.18311811315E-01 -0.68141586524E-02  0.23677589638E-01  0.00000000000E+00 0. -1.
     999901    1    3    3    0    0  0.59994240602E-02 -0.35040844486E-01 -0.12064964629E+00  0.88894330023E+00  0.88000000000E+00 0. -1.
        -11    1    4    4    0    0 -0.72370771680E-02  0.16378245016E-01  0.55292227949E-01  0.58121543237E-01  0.51100000000E-03 0.  1.
         11    1    4    4    0    0 -0.12136690214E-01  0.35078815512E-03  0.72171576992E-01  0.73187566896E-01  0.51100000000E-03 0. -1.
</event>
<event>
 8    1  0.1132492E+005  0.1043930E+01  0.7957747E-01            NaN
         13   -1    0    0    0    0  0.00000000000E+00  0.00000000000E+00  0.74505805969E-08  0.10566000000E+00  0.10566000000E+00 0. -1.
     999900   -1    0    0    0    0 -0.00000000000E+00 -0.00000000000E+00 -0.74505805969E-08  0.93827000000E+00  0.93827000000E+00 0. -1.
     999902    2    1    2    0    0 -0.16970922780E-01 -0.16167240142E-01  0.35193956418E-02  0.10202281431E+01  0.10199527862E+01 0.  0.
     999903    2    3    3    0    0 -0.86889192112E-02  0.28864160125E-01 -0.12453291949E+00  0.12978229187E+00  0.20648442824E-01 0.  0.
         14    1    1    2    0    0  0.16970922780E-01  0.16167240142E-01 -0.35193956418E-02  0.23701856879E-01  0.00000000000E+00 0.  1.
     999901    1    3    3    0    0 -0.82820035684E-02 -0.45031400267E-01  0.12805231513E+00  0.89044585125E+00  0.88000000000E+00 0.  1.
        -11    1    4    4    0    0 -0.12156561069E-01  0.28876878053E-01 -0.94827116802E-01  0.99870412361E-01  0.51100000000E-03 0. -1.
         11    1    4    4    0    0  0.34676418575E-02 -0.12717928167E-04 -0.29705802686E-01  0.29911879514E-01  0.51100000000E-03 0.  1.
</event>
<event>
 8    1  0.1132492E+005  0.1043930E+01  0.7957747E-01            NaN
         13   -1    0    0    0    0  0.00000000000E+00  0.00000000000E+00  0.74505805969E-08  0.10566000000E+00  0.10566000000E+00 0. -1.
     999900   -1    0    0    0    0 -0.00000000000E+00 -0.00000000000E+00 -0.74505805969E-08  0.93827000000E+00  0.93827000000E+00 0. -1.
     999902    2    1    2    0    0 -0.21338861271E-01  0.62318413056E-02  0.67092635584E-02  0.10207093828E+01  0.10204452200E+01 0.  0.
     999903    2    3    3    0    0  0.54807981198E-02 -0.63292965243E-01 -0.11123486924E+00  0.12971902856E+00  0.20439952025E-01 0.  0.
         14    1    1    2    0    0  0.21338861271E-01 -0.62318413056E-02 -0.67092635584E-02  0.23220617216E-01  0.00000000000E+00 0.  1.
     999901    1    3    3    0    0 -0.26819659391E-01  0.69524806548E-01  0.11794413280E+00  0.89099035422E+00  0.88000000000E+00 0.  1.
        -11    1    4    4    0    0  0.58270021769E-02 -0.90006116570E-02 -0.92007900071E-02  0.14137914356E-01  0.51100000000E-03 0. -1.
         11    1    4    4    0    0 -0.34620405712E-03 -0.54292353586E-01 -0.10203407923E+00  0.11558111421E+00  0.51100000000E-03 0.  1.
</event>
<event>
 8    1  0.1132492E+005  0.1043930E+01  0.7957747E-01            NaN
         13   -1    0    0    0    0  0.00000000000E+00  0.00000000000E+00  0.74505805969E-08  0.10566000000E+00  0.10566000000E+00 0.  1.
     999900   -1    0    0    0    0 -0.00000000000E+00 -0.00000000000E+00 -0.74505805969E-08  0.93827000000E+00  0.93827000000E+00 0.  1.
     999902    2    1    2    0    0 -0.19397057385E-01 -0.13263568184E-01  0.17599717611E-02  0.10203659261E+01  0.10200937985E+01 0.  0.
     999903    2    3    3    0    0 -0.36419989430E-02  0.85023163071E-01  0.95904037627E-01  0.12976410235E+00  0.19973367524E-01 0.  0.
         14    1    1    2    0    0  0.19397057385E-01  0.13263568184E-01 -0.17599717611E-02  0.23564073858E-01  0.00000000000E+00 0. -1.
     999901    1    3    3    0    0 -0.15755058442E-01 -0.98286731256E-01 -0.94144065866E-01  0.89060182379E+00  0.88000000000E+00 0.  1.
        -11    1    4    4    0    0 -0.85116615554E-02  0.44361446293E-01  0.61301410471E-01  0.76147950376E-01  0.51100000000E-03 0. -1.
         11    1    4    4    0    0  0.48696626124E-02  0.40661716778E-01  0.34602627155E-01  0.53616151972E-01  0.51100000000E-03 0.  1.
</event>
<event>
 8    1  0.1132492E+005  0.1043930E+01  0.7957747E-01            NaN
         13   -1    0    0    0    0  0.00000000000E+00  0.00000000000E+00  0.74505805969E-08  0.10566000000E+00  0.10566000000E+00 0.  1.
     999900   -1    0    0    0    0 -0.00000000000E+00 -0.00000000000E+00 -0.74505805969E-08  0.93827000000E+00  0.93827000000E+00 0. -1.
     999902    2    1    2    0    0  0.18553728884E-01 -0.13937091081E-01 -0.18321142442E-02  0.10206525430E+01  0.10203870704E+01 0.  0.
     999903    2    3    3    0    0 -0.29833967131E-01  0.56193755156E-01 -0.11120974882E+00  0.12979723953E+00  0.20782479239E-01 0.  0.
         14    1    1    2    0    0 -0.18553728884E-01  0.13937091081E-01  0.18321142442E-02  0.23277457033E-01  0.00000000000E+00 0.  1.
     999901    1    3    3    0    0  0.48387696015E-01 -0.70130846237E-01  0.10937763458E+00  0.89085530344E+00  0.88000000000E+00 0.  1.
        -11    1    4    4    0    0 -0.85601049571E-02  0.12616274366E-01 -0.12144021340E-01  0.19498311492E-01  0.51100000000E-03 0. -1.
         11    1    4    4    0    0 -0.21273862174E-01  0.43577480790E-01 -0.99065727479E-01  0.11029892804E+00  0.51100000000E-03 0.  1.
</event>
<event>
 8    1  0.1132492E+005  0.1043930E+01  0.7957747E-01            NaN
         13   -1    0    0    0    0  0.00000000000E+00  0.00000000000E+00  0.74505805969E-08  0.10566000000E+00  0.10566000000E+00 0.  1.
     999900   -1    0    0    0    0 -0.00000000000E+00 -0.00000000000E+00 -0.74505805969E-08  0.93827000000E+00  0.93827000000E+00 0. -1.
     999902    2    1    2    0    0  0.86105244306E-02  0.33178201431E-01  0.49458872206E-03  0.10096491190E+01  0.10090669774E+01 0.  0.
     999903    2    3    3    0    0  0.22284698020E-01  0.12149919820E+00  0.28648956995E-03  0.12512233889E+00  0.19921211915E-01 0.  0.
         14    1    1    2    0    0 -0.86105244306E-02 -0.33178201431E-01 -0.49458872206E-03  0.34280880957E-01  0.00000000000E+00 0. -1.
     999901    1    3    3    0    0 -0.13674173589E-01 -0.88320996773E-01  0.20809915211E-03  0.88452678015E+00  0.88000000000E+00 0. -1.
        -11    1    4    4    0    0  0.11264895571E-01  0.38108292264E-01  0.83828793492E-02  0.40616174102E-01  0.51100000000E-03 0.  1.
         11    1    4    4    0    0  0.11019802449E-01  0.83390905940E-01 -0.80963897793E-02  0.84506164793E-01  0.51100000000E-03 0. -1.
</event>
<event>
 8    1  0.1132492E+005  0.1043930E+01  0.7957747E-01            NaN
         13   -1    0    0    0    0  0.00000000000E+00  0.00000000000E+00  0.74505805969E-08  0.10566000000E+00  0.10566000000E+00 0.  1.
     999900   -1    0    0    0    0 -0.00000000000E+00 -0.00000000000E+00 -0.74505805969E-08  0.93827000000E+00  0.93827000000E+00 0. -1.
     999902    2    1    2    0    0  0.74597172852E-02  0.14377691777E-01  0.17027387753E-01  0.10204289929E+01  0.10201583368E+01 0.  0.
     999903    2    3    3    0    0  0.34133744611E-01  0.11516157232E+00 -0.50976919292E-01  0.13166947528E+00  0.17632474588E-01 0.  0.
         14    1    1    2    0    0 -0.74597172852E-02 -0.14377691777E-01 -0.17027387753E-01  0.23501007138E-01  0.00000000000E+00 0. -1.
     999901    1    3    3    0    0 -0.26674027325E-01 -0.10078388054E+00  0.68004307045E-01  0.88875951758E+00  0.88000000000E+00 0.  1.
        -11    1    4    4    0    0  0.14451992855E-01  0.23226448983E-01 -0.10472838795E-01  0.29296237015E-01  0.51100000000E-03 0. -1.
         11    1    4    4    0    0  0.19681751755E-01  0.91935123338E-01 -0.40504080497E-01  0.10237323827E+00  0.51100000000E-03 0.  1.
</event>
<event>
 8    1  0.1132492E+005  0.1043930E+01  0.7957747E-01            NaN
         13   -1    0    0    0    0  0.00000000000E+00  0.00000000000E+00  0.74505805969E-08  0.10566000000E+00  0.10566000000E+00 0. -1.
     999900   -1    0    0    0    0 -0.00000000000E+00 -0.00000000000E+00 -0.74505805969E-08  0.93827000000E+00  0.93827000000E+00 0. -1.
     999902    2    1    2    0    0 -0.23561805253E-01  0.12542256056E-01 -0.11988237239E-01  0.10146693663E+01  0.10142473752E+01 0.  0.
     999903    2    3    3    0    0 -0.10264818568E-01 -0.12046868712E+00 -0.21580910637E-01  0.12452289505E+00  0.20546158053E-01 0.  0.
         14    1    1    2    0    0  0.23561805253E-01 -0.12542256056E-01  0.11988237239E-01  0.29260633723E-01  0.00000000000E+00 0.  1.
     999901    1    3    3    0    0 -0.13296986685E-01  0.13301094318E+00  0.95926733985E-02  0.89014647123E+00  0.88000000000E+00 0.  1.
        -11    1    4    4    0    0  0.75537324898E-03 -0.46197022144E-01  0.66321243629E-03  0.46210782458E-01  0.51100000000E-03 0. -1.
         11    1    4    4    0    0 -0.11020191817E-01 -0.74271664975E-01 -0.22244123074E-01  0.78312112589E-01  0.51100000000E-03 0.  1.
</event>
<event>
 8    1  0.1132492E+005  0.1043930E+01  0.7957747E-01            NaN
         13   -1    0    0    0    0  0.00000000000E+00  0.00000000000E+00  0.74505805969E-08  0.10566000000E+00  0.10566000000E+00 0.  1.
     999900   -1    0    0    0    0 -0.00000000000E+00 -0.00000000000E+00 -0.74505805969E-08  0.93827000000E+00  0.93827000000E+00 0.  1.
     999902    2    1    2    0    0 -0.27701627923E-02  0.24759926103E-01  0.10925558509E-02  0.10189916476E+01  0.10186864368E+01 0.  0.
     999903    2    3    3    0    0  0.44996757981E-01  0.10529285219E+00 -0.61901903042E-01  0.13178505792E+00  0.20595216415E-01 0.  0.
         14    1    1    2    0    0  0.27701627923E-02 -0.24759926103E-01 -0.10925558509E-02  0.24938352408E-01  0.00000000000E+00 0.  1.
     999901    1    3    3    0    0 -0.47766920773E-01 -0.80532926090E-01  0.62994458893E-01  0.88720658967E+00  0.88000000000E+00 0. -1.
        -11    1    4    4    0    0  0.87377489822E-02  0.28092212845E-01 -0.25920923657E-01  0.39213213131E-01  0.51100000000E-03 0. -1.
         11    1    4    4    0    0  0.36259008999E-01  0.77200639348E-01 -0.35980979385E-01  0.92571844790E-01  0.51100000000E-03 0.  1.
</event>
<event>
 8    1  0.1132492E+005  0.1043930E+01  0.7957747E-01            NaN
         13   -1    0    0    0    0  0.00000000000E+00  0.00000000000E+00  0.74505805969E-08  0.10566000000E+00  0.10566000000E+00 0.  1.
     999900   -1    0    0    0    0 -0.00000000000E+00 -0.00000000000E+00 -0.74505805969E-08  0.93827000000E+00  0.93827000000E+00 0. -1.
     999902    2    1    2    0    0 -0.15867286309E-01 -0.95395972899E-02 -0.15593515875E-01  0.10197239588E+01  0.10194366188E+01 0.  0.
     999903    2    3    3    0    0  0.30250694006E-02  0.31731596786E-01 -0.12620719313E+00  0.13163859236E+00  0.19606583609E-01 0.  0.
         14    1    1    2    0    0  0.15867286309E-01  0.95395972899E-02  0.15593515875E-01  0.24206041159E-01  0.00000000000E+00 0.  1.
     999901    1    3    3    0    0 -0.18892355709E-01 -0.41271194076E-01  0.11061367725E+00  0.88808536648E+00  0.88000000000E+00 0.  1.
        -11    1    4    4    0    0 -0.56824029579E-02  0.25394986371E-01 -0.99232030160E-01  0.10258875166E+00  0.51100000000E-03 0.  1.
         11    1    4    4    0    0  0.87074723585E-02  0.63366104150E-02 -0.26975162970E-01  0.29049840700E-01  0.51100000000E-03 0. -1.
</event>
<event>
 8    1  0.1132492E+005  0.1043930E+01  0.7957747E-01            NaN
         13   -1    0    0    0    0  0.00000000000E+00  0.00000000000E+00  0.74505805969E-08  0.10566000000E+00  0.10566000000E+00 0.  1.
     999900   -1    0    0    0    0 -0.00000000000E+00 -0.00000000000E+00 -0.74505805969E-08  0.93827000000E+00  0.93827000000E+00 0.  1.
     999902    2    1    2    0    0  0.28458701054E-02  0.23283804922E-01  0.78173636106E-02  0.10192045936E+01  0.10189046363E+01 0.  0.
     999903    2    3    3    0    0 -0.46110200823E-01 -0.94535737859E-01  0.69737756575E-01  0.12785041224E+00  0.20474786104E-01 0.  0.
         14    1    1    2    0    0 -0.28458701054E-02 -0.23283804922E-01 -0.78173636106E-02  0.24725406409E-01  0.00000000000E+00 0. -1.
     999901    1    3    3    0    0  0.48956070929E-01  0.11781954278E+00 -0.61920392964E-01  0.89135418135E+00  0.88000000000E+00 0.  1.
        -11    1    4    4    0    0 -0.38797063624E-01 -0.87111496830E-01  0.55962665160E-01  0.11056991471E+00  0.51100000000E-03 0.  1.
         11    1    4    4    0    0 -0.73131371987E-02 -0.74242410291E-02  0.13775091414E-01  0.17280497534E-01  0.51100000000E-03 0. -1.
</event>
<event>
 8    1  0.1132492E+005  0.1043930E+01  0.7957747E-01            NaN
         13   -1    0    0    0    0  0.00000000000E+00  0.00000000000E+00  0.74505805969E-08  0.10566000000E+00  0.10566000000E+00 0. -1.
     999900   -1    0    0    0    0 -0.00000000000E+00 -0.00000000000E+00 -0.74505805969E-08  0.93827000000E+00  0.93827000000E+00 0.  1.
     999902    2    1    2    0    0 -0.22456418619E-01  0.43264933759E-02 -0.52167091842E-02  0.10204731601E+01  0.10202035322E+01 0.  0.
     999903    2    3    3    0    0  0.70110789906E-01  0.94071147310E-01  0.50686749509E-01  0.12932334798E+00  0.19760519688E-01 0.  0.
         14    1    1    2    0    0  0.22456418619E-01 -0.43264933759E-02  0.52167091842E-02  0.23456839873E-01  0.00000000000E+00 0. -1.
     999901    1    3    3    0    0 -0.92567208525E-01 -0.89744653934E-01 -0.55903458694E-01  0.89114981215E+00  0.88000000000E+00 0.  1.
        -11    1    4    4    0    0  0.43432425905E-01  0.62473078423E-01  0.22759837170E-01  0.79419975174E-01  0.51100000000E-03 0.  1.
         11    1    4    4    0    0  0.26678364001E-01  0.31598068887E-01  0.27926912340E-01  0.49903372802E-01  0.51100000000E-03 0. -1.
</event>
<event>
 8    1  0.1132492E+005  0.1043930E+01  0.7957747E-01            NaN
         13   -1    0    0    0    0  0.00000000000E+00  0.00000000000E+00  0.74505805969E-08  0.10566000000E+00  0.10566000000E+00 0. -1.
     999900   -1    0    0    0    0 -0.00000000000E+00 -0.00000000000E+00 -0.74505805969E-08  0.93827000000E+00  0.93827000000E+00 0.  1.
     999902    2    1    2    0    0  0.10579993447E-01 -0.82317578416E-02 -0.18915849029E-01  0.10207457932E+01  0.10204824677E+01 0.  0.
     999903    2    3    3    0    0 -0.41924789032E-01  0.10688109370E+00 -0.59406513726E-01  0.13077544840E+00  0.19794643366E-01 0.  0.
         14    1    1    2    0    0 -0.10579993447E-01  0.82317578416E-02  0.18915849029E-01  0.23184206758E-01  0.00000000000E+00 0. -1.
     999901    1    3    3    0    0  0.52504782478E-01 -0.11511285154E+00  0.40490664697E-01  0.88997034484E+00  0.88000000000E+00 0. -1.
        -11    1    4    4    0    0  0.13939342191E-02  0.13209682018E-01 -0.72214493974E-02  0.15127762690E-01  0.51100000000E-03 0. -1.
         11    1    4    4    0    0 -0.43318723251E-01  0.93671411678E-01 -0.52185064329E-01  0.11564768571E+00  0.51100000000E-03 0.  1.
</event>
<event>
 8    1  0.1132492E+005  0.1043930E+01  0.7957747E-01            NaN
         13   -1    0    0    0    0  0.00000000000E+00  0.00000000000E+00  0.74505805969E-08  0.10566000000E+00  0.10566000000E+00 0.  1.
     999900   -1    0    0    0    0 -0.00000000000E+00 -0.00000000000E+00 -0.74505805969E-08  0.93827000000E+00  0.93827000000E+00 0. -1.
     999902    2    1    2    0    0  0.30468442013E-02 -0.10422726119E-01  0.21072659610E-01  0.10202240205E+01  0.10199485667E+01 0.  0.
     999903    2    3    3    0    0 -0.75360492010E-01 -0.94193166478E-01 -0.44966245089E-01  0.13032159106E+00  0.20253333854E-01 0.  0.
         14    1    1    2    0    0 -0.30468442013E-02  0.10422726119E-01 -0.21072659610E-01  0.23705979464E-01  0.00000000000E+00 0. -1.
     999901    1    3    3    0    0  0.78407336212E-01  0.83770440360E-01  0.66038904699E-01  0.88990242947E+00  0.88000000000E+00 0.  1.
        -11    1    4    4    0    0 -0.51511856418E-01 -0.74534059806E-01 -0.26875816707E-01  0.94505915515E-01  0.51100000000E-03 0.  1.
         11    1    4    4    0    0 -0.23848635592E-01 -0.19659106673E-01 -0.18090428382E-01  0.35815675546E-01  0.51100000000E-03 0. -1.
</event>
<event>
 8    1  0.1132492E+005  0.1043930E+01  0.7957747E-01            NaN
         13   -1    0    0    0    0  0.00000000000E+00  0.00000000000E+00  0.74505805969E-08  0.10566000000E+00  0.10566000000E+00 0.  1.
     999900   -1    0    0    0    0 -0.00000000000E+00 -0.00000000000E+00 -0.74505805969E-08  0.93827000000E+00  0.93827000000E+00 0.  1.
     999902    2    1    2    0    0 -0.74869555433E-02 -0.18019884957E-01 -0.13583934638E-01  0.10201540870E+01  0.10198769863E+01 0.  0.
     999903    2    3    3    0    0  0.26049494096E-01 -0.10859739312E+00 -0.69662108098E-01  0.13309504730E+00  0.19736067875E-01 0.  0.
         14    1    1    2    0    0  0.74869555433E-02  0.18019884957E-01  0.13583934638E-01  0.23775912967E-01  0.00000000000E+00 0.  1.
     999901    1    3    3    0    0 -0.33536449639E-01  0.90577508163E-01  0.56078173460E-01  0.88705903974E+00  0.88000000000E+00 0. -1.
        -11    1    4    4    0    0  0.15973349893E-02 -0.16397308759E-01 -0.30828096382E-02  0.16768662734E-01  0.51100000000E-03 0.  1.
         11    1    4    4    0    0  0.24452159107E-01 -0.92200084360E-01 -0.66579298460E-01  0.11632638456E+00  0.51100000000E-03 0. -1.
</event>
<event>
 8    1  0.1132492E+005  0.1043930E+01  0.7957747E-01            NaN
         13   -1    0    0    0    0  0.00000000000E+00  0.00000000000E+00  0.74505805969E-08  0.10566000000E+00  0.10566000000E+00 0.  1.
     999900   -1    0    0    0    0 -0.00000000000E+00 -0.00000000000E+00 -0.74505805969E-08  0.93827000000E+00  0.93827000000E+00 0.  1.
     999902    2    1    2    0    0 -0.27889451498E-01  0.36486875428E-02 -0.73952749401E-02  0.10148469376E+01  0.10144301269E+01 0.  0.
     999903    2    3    3    0    0  0.66343548539E-01 -0.95028055373E-01 -0.40229257955E-01  0.12372684003E+00  0.16066736095E-01 0.  0.
         14    1    1    2    0    0  0.27889451498E-01 -0.36486875428E-02  0.73952749401E-02  0.29083062375E-01  0.00000000000E+00 0.  1.
     999901    1    3    3    0    0 -0.94233000037E-01  0.98676742916E-01  0.32833983015E-01  0.89112009759E+00  0.88000000000E+00 0.  1.
        -11    1    4    4    0    0  0.28748344419E-01 -0.51297411595E-01 -0.26169016542E-01  0.64365909385E-01  0.51100000000E-03 0. -1.
         11    1    4    4    0    0  0.37595204120E-01 -0.43730643778E-01 -0.14060241413E-01  0.59360930650E-01  0.51100000000E-03 0.  1.
</event>
<event>
 8    1  0.1132492E+005  0.1043930E+01  0.7957747E-01            NaN
         13   -1    0    0    0    0  0.00000000000E+00  0.00000000000E+00  0.74505805969E-08  0.10566000000E+00  0.10566000000E+00 0. -1.
     999900   -1    0    0    0    0 -0.00000000000E+00 -0.00000000000E+00 -0.74505805969E-08  0.93827000000E+00  0.93827000000E+00 0. -1.
     999902    2    1    2    0    0  0.16749846283E-01  0.87199782071E-02  0.12786418053E-01  0.10211245652E+01  0.10208698692E+01 0.  0.
     999903    2    3    3    0    0 -0.75674458776E-01 -0.10067286011E+00  0.22733966784E-01  0.12949235459E+00  0.19743053933E-01 0.  0.
         14    1    1    2    0    0 -0.16749846283E-01 -0.87199782071E-02 -0.12786418053E-01  0.22805434814E-01  0.00000000000E+00 0.  1.
     999901    1    3    3    0    0  0.92424305059E-01  0.10939283832E+00 -0.99475487312E-02  0.89163221059E+00  0.88000000000E+00 0.  1.
        -11    1    4    4    0    0 -0.13064141687E-01 -0.14873403824E-01  0.10939229635E-01  0.22623390668E-01  0.51100000000E-03 0.  1.
         11    1    4    4    0    0 -0.62610317090E-01 -0.85799456285E-01  0.11794737150E-01  0.10686896392E+00  0.51100000000E-03 0. -1.
</event>
<event>
 8    1  0.1132492E+005  0.1043930E+01  0.7957747E-01            NaN
         13   -1    0    0    0    0  0.00000000000E+00  0.00000000000E+00  0.74505805969E-08  0.10566000000E+00  0.10566000000E+00 0.  1.
     999900   -1    0    0    0    0 -0.00000000000E+00 -0.00000000000E+00 -0.74505805969E-08  0.93827000000E+00  0.93827000000E+00 0.  1.
     999902    2    1    2    0    0  0.12677056948E-01  0.10189928431E-01 -0.17121616419E-01  0.10203144932E+01  0.10200411623E+01 0.  0.
     999903    2    3    3    0    0  0.96212903359E-01 -0.76870935890E-01 -0.42141726807E-01  0.13172919188E+00  0.20263052540E-01 0.  0.
         14    1    1    2    0    0 -0.12677056948E-01 -0.10189928431E-01  0.17121616419E-01  0.23615506835E-01  0.00000000000E+00 0.  1.
     999901    1    3    3    0    0 -0.83535846411E-01  0.87060864321E-01  0.25020110389E-01  0.88858530128E+00  0.88000000000E+00 0.  1.
        -11    1    4    4    0    0  0.38308969628E-01 -0.30571732222E-01 -0.64245555445E-02  0.49434239146E-01  0.51100000000E-03 0. -1.
         11    1    4    4    0    0  0.57903933731E-01 -0.46299203668E-01 -0.35717171263E-01  0.82294952736E-01  0.51100000000E-03 0.  1.
</event>
<event>
 8    1  0.1132492E+005  0.1043930E+01  0.7957747E-01            NaN
         13   -1    0    0    0    0  0.00000000000E+00  0.00000000000E+00  0.74505805969E-08  0.10566000000E+00  0.10566000000E+00 0. -1.
     999900   -1    0    0    0    0 -0.00000000000E+00 -0.00000000000E+00 -0.74505805969E-08  0.93827000000E+00  0.93827000000E+00 0. -1.
     999902    2    1    2    0    0 -0.16854493592E-01  0.37564355541E-02 -0.15755477144E-01  0.10205543755E+01  0.10202866330E+01 0.  0.
     999903    2    3    3    0    0  0.34100578225E-01 -0.52380075527E-01  0.11025947417E+00  0.12835064583E+00  0.20253762448E-01 0.  0.
         14    1    1    2    0    0  0.16854493592E-01 -0.37564355541E-02  0.15755477144E-01  0.23375624534E-01  0.00000000000E+00 0. -1.
     999901    1    3    3    0    0 -0.50955071816E-01  0.56136511082E-01 -0.12601495131E+00  0.89220372964E+00  0.88000000000E+00 0. -1.
        -11    1    4    4    0    0  0.14393124615E-01 -0.29160986210E-01  0.38528637506E-01  0.50420652336E-01  0.51100000000E-03 0.  1.
         11    1    4    4    0    0  0.19707453609E-01 -0.23219089318E-01  0.71730836665E-01  0.77929993495E-01  0.51100000000E-03 0. -1.
</event>
<event>
 8    1  0.1132492E+005  0.1043930E+01  0.7957747E-01            NaN
         13   -1    0    0    0    0  0.00000000000E+00  0.00000000000E+00  0.74505805969E-08  0.10566000000E+00  0.10566000000E+00 0. -1.
     999900   -1    0    0    0    0 -0.00000000000E+00 -0.00000000000E+00 -0.74505805969E-08  0.93827000000E+00  0.93827000000E+00 0.  1.
     999902    2    1    2    0    0  0.94559379833E-03 -0.27008272611E-02 -0.23543286836E-01  0.10202134452E+01  0.10199377426E+01 0.  0.
     999903    2    3    3    0    0  0.11186604735E+00  0.40962842280E-01 -0.52336542637E-01  0.13170969473E+00  0.20404974705E-01 0.  0.
         14    1    1    2    0    0 -0.94559379833E-03  0.27008272611E-02  0.23543286836E-01  0.23716554779E-01  0.00000000000E+00 0. -1.
     999901    1    3    3    0    0 -0.11092045356E+00 -0.43663669541E-01  0.28793255800E-01  0.88850375049E+00  0.88000000000E+00 0.  1.
        -11    1    4    4    0    0  0.58719141733E-01  0.32010265257E-01 -0.26486898554E-01  0.71933383097E-01  0.51100000000E-03 0. -1.
         11    1    4    4    0    0  0.53146905621E-01  0.89525770233E-02 -0.25849644083E-01  0.59776311635E-01  0.51100000000E-03 0.  1.
</event>
<event>
 8    1  0.1132492E+005  0.1043930E+01  0.7957747E-01            NaN
         13   -1    0    0    0    0  0.00000000000E+00  0.00000000000E+00  0.74505805969E-08  0.10566000000E+00  0.10566000000E+00 0. -1.
     999900   -1    0    0    0    0 -0.00000000000E+00 -0.00000000000E+00 -0.74505805969E-08  0.93827000000E+00  0.93827000000E+00 0. -1.
     999902    2    1    2    0    0 -0.18038955456E-02 -0.11415340384E-01 -0.20381159093E-01  0.10205001967E+01  0.10202311973E+01 0.  0.
     999903    2    3    3    0    0  0.38971772401E-01 -0.79618792512E-01 -0.97446890985E-01  0.13356531016E+00  0.22041877219E-01 0.  0.
         14    1    1    2    0    0  0.18038955456E-02  0.11415340384E-01  0.20381159093E-01  0.23429803268E-01  0.00000000000E+00 0. -1.
     999901    1    3    3    0    0 -0.40775667947E-01  0.68203452128E-01  0.77065731892E-01  0.88693488657E+00  0.88000000000E+00 0.  1.
        -11    1    4    4    0    0  0.36861277328E-02 -0.30655174206E-01 -0.29936371306E-01  0.43009007095E-01  0.51100000000E-03 0. -1.
         11    1    4    4    0    0  0.35285644669E-01 -0.48963618306E-01 -0.67510519679E-01  0.90556303070E-01  0.51100000000E-03 0.  1.
</event>
<event>
 8    1  0.1132492E+005  0.1043930E+01  0.7957747E-01            NaN
         13   -1    0    0    0    0  0.00000000000E+00  0.00000000000E+00  0.74505805969E-08  0.10566000000E+00  0.10566000000E+00 0. -1.
     999900   -1    0    0    0    0 -0.00000000000E+00 -0.00000000000E+00 -0.74505805969E-08  0.93827000000E+00  0.93827000000E+00 0.  1.
     999902    2    1    2    0    0 -0.14550278120E-01 -0.22836039119E-01  0.18895323403E-01  0.10109113913E+01  0.10103720169E+01 0.  0.
     999903    2    3    3    0    0  0.42633667672E-01  0.25683705098E-01 -0.10625504516E+00  0.11889862007E+00  0.19221469927E-01 0.  0.
         14    1    1    2    0    0  0.14550278120E-01  0.22836039119E-01 -0.18895323403E-01  0.33018608731E-01  0.00000000000E+00 0.  1.
     999901    1    3    3    0    0 -0.57183945792E-01 -0.48519744217E-01  0.12515036856E+00  0.89201277120E+00  0.88000000000E+00 0. -1.
        -11    1    4    4    0    0  0.16031891619E-01  0.68766818053E-02 -0.19201920701E-01  0.25947739422E-01  0.51100000000E-03 0. -1.
         11    1    4    4    0    0  0.26601776053E-01  0.18807023293E-01 -0.87053124456E-01  0.92950880646E-01  0.51100000000E-03 0.  1.
</event>
<event>
 8    1  0.1132492E+005  0.1043930E+01  0.7957747E-01            NaN
         13   -1    0    0    0    0  0.00000000000E+00  0.00000000000E+00  0.74505805969E-08  0.10566000000E+00  0.10566000000E+00 0.  1.
     999900   -1    0    0    0    0 -0.00000000000E+00 -0.00000000000E+00 -0.74505805969E-08  0.93827000000E+00  0.93827000000E+00 0.  1.
     999902    2    1    2    0    0 -0.92258241046E-02  0.98438015029E-02  0.19286749172E-01  0.10203929026E+01  0.10201214049E+01 0.  0.
     999903    2    3    3    0    0 -0.12907787178E+00  0.36905326984E-02  0.20377703730E-01  0.13224676251E+00  0.19980950214E-01 0.  0.
         14    1    1    2    0    0  0.92258241046E-02 -0.98438015029E-02 -0.19286749172E-01  0.23537097359E-01  0.00000000000E+00 0. -1.
     999901    1    3    3    0    0  0.11985204767E+00  0.61532688045E-02 -0.10909545582E-02  0.88814614013E+00  0.88000000000E+00 0. -1.
        -11    1    4    4    0    0 -0.69872920772E-01  0.97217586126E-02  0.47073690100E-02  0.70704724678E-01  0.51100000000E-03 0.  1.
         11    1    4    4    0    0 -0.59204951003E-01 -0.60312259142E-02  0.15670334720E-01  0.61542037832E-01  0.51100000000E-03 0. -1.
</event>
<event>
 8    1  0.1132492E+005  0.1043930E+01  0.7957747E-01            NaN
         13   -1    0    0    0    0  0.00000000000E+00  0.00000000000E+00  0.74505805969E-08  0.10566000000E+00  0.10566000000E+00 0.  1.
     999900   -1    0    0    0    0 -0.00000000000E+00 -0.00000000000E+00 -0.74505805969E-08  0.93827000000E+00  0.93827000000E+00 0.  1.
     999902    2    1    2    0    0  0.23393600153E-02  0.66644664317E-02 -0.23226742510E-01  0.10196530709E+01  0.10193640251E+01 0.  0.
     999903    2    3    3    0    0  0.12774259889E+00 -0.72155139363E-02  0.11912587467E-01  0.12996020330E+00  0.19429603425E-01 0.  0.
         14    1    1    2    0    0 -0.23393600153E-02 -0.66644664317E-02  0.23226742510E-01  0.24276929083E-01  0.00000000000E+00 0.  1.
     999901    1    3    3    0    0 -0.12540323887E+00  0.13879980368E-01 -0.35139329976E-01  0.88969286762E+00  0.88000000000E+00 0. -1.
        -11    1    4    4    0    0  0.54317729598E-01  0.18393009180E-02 -0.32162320237E-02  0.54446340979E-01  0.51100000000E-03 0.  1.
         11    1    4    4    0    0  0.73424869292E-01 -0.90548148542E-02  0.15128819490E-01  0.75513862322E-01  0.51100000000E-03 0. -1.
</event>
<event>
 8    1  0.1132492E+005  0.1043930E+01  0.7957747E-01            NaN
         13   -1    0    0    0    0  0.00000000000E+00  0.00000000000E+00  0.74505805969E-08  0.10566000000E+00  0.10566000000E+00 0. -1.
     999900   -1    0    0    0    0 -0.00000000000E+00 -0.00000000000E+00 -0.74505805969E-08  0.93827000000E+00  0.93827000000E+00 0. -1.
     999902    2    1    2    0    0  0.20724402873E-01 -0.29612014512E-02 -0.76991755456E-02  0.10216242408E+01  0.10213807040E+01 0.  0.
     999903    2    3    3    0    0  0.46830883587E-01  0.12213009258E+00 -0.32851660846E-02  0.13238363016E+00  0.20143039663E-01 0.  0.
         14    1    1    2    0    0 -0.20724402873E-01  0.29612014512E-02  0.76991755456E-02  0.22305759179E-01  0.00000000000E+00 0. -1.
     999901    1    3    3    0    0 -0.26106480714E-01 -0.12509129403E+00 -0.44140094611E-02  0.88924061067E+00  0.88000000000E+00 0. -1.
        -11    1    4    4    0    0  0.12868573986E-01  0.38386614304E-01 -0.10185619102E-01  0.41750931865E-01  0.51100000000E-03 0.  1.
         11    1    4    4    0    0  0.33962309601E-01  0.83743478272E-01  0.69004530171E-02  0.90632698290E-01  0.51100000000E-03 0. -1.
</event>
<event>
 8    1  0.1132492E+005  0.1043930E+01  0.7957747E-01            NaN
         13   -1    0    0    0    0  0.00000000000E+00  0.00000000000E+00  0.74505805969E-08  0.10566000000E+00  0.10566000000E+00 0.  1.
     999900   -1    0    0    0    0 -0.00000000000E+00 -0.00000000000E+00 -0.74505805969E-08  0.93827000000E+00  0.93827000000E+00 0.  1.
     999902    2    1    2    0    0  0.14184714855E-01 -0.12239245683E-01  0.15731896945E-01  0.10194657843E+01  0.10191722070E+01 0.  0.
     999903    2    3    3    0    0 -0.16754467181E-01  0.99635481854E-01  0.78180559421E-01  0.12964949811E+00  0.22109976807E-01 0.  0.
         14    1    1    2    0    0 -0.14184714855E-01  0.12239245683E-01 -0.15731896945E-01  0.24464215742E-01  0.00000000000E+00 0.  1.
     999901    1    3    3    0    0  0.30939182036E-01 -0.11187472754E+00 -0.62448662476E-01  0.88981628615E+00  0.88000000000E+00 0.  1.
        -11    1    4    4    0    0 -0.69519726678E-02  0.44869914209E-01  0.49068331865E-01  0.66855077878E-01  0.51100000000E-03 0. -1.
         11    1    4    4    0    0 -0.98024945131E-02  0.54765567645E-01  0.29112227556E-01  0.62794420233E-01  0.51100000000E-03 0.  1.
</event>
<event>
 8    1  0.1132492E+005  0.1043930E+01  0.7957747E-01            NaN
         13   -1    0    0    0    0  0.00000000000E+00  0.00000000000E+00  0.74505805969E-08  0.10566000000E+00  0.10566000000E+00 0. -1.
     999900   -1    0    0    0    0 -0.00000000000E+00 -0.00000000000E+00 -0.74505805969E-08  0.93827000000E+00  0.93827000000E+00 0. -1.
     999902    2    1    2    0    0  0.23372166434E-01 -0.45355587792E-02  0.26315914776E-02  0.10199768221E+01  0.10196955246E+01 0.  0.
     999903    2    3    3    0    0  0.43060999638E-01 -0.76427147043E-01 -0.95893938461E-01  0.13134679186E+00  0.18999310598E-01 0.  0.
         14    1    1    2    0    0 -0.23372166434E-01  0.45355587792E-02 -0.26315914776E-02  0.23953177888E-01  0.00000000000E+00 0.  1.
     999901    1    3    3    0    0 -0.19688833204E-01  0.71891588264E-01  0.98525529939E-01  0.88863003025E+00  0.88000000000E+00 0.  1.
        -11    1    4    4    0    0  0.71003470604E-02 -0.23272853318E-01 -0.17203493746E-01  0.29803723727E-01  0.51100000000E-03 0.  1.
         11    1    4    4    0    0  0.35960652578E-01 -0.53154293725E-01 -0.78690444716E-01  0.10154306813E+00  0.51100000000E-03 0. -1.
</event>
<event>
 8    1  0.1132492E+005  0.1043930E+01  0.7957747E-01            NaN
         13   -1    0    0    0    0  0.00000000000E+00  0.00000000000E+00  0.74505805969E-08  0.10566000000E+00  0.10566000000E+00 0.  1.
     999900   -1    0    0    0    0 -0.00000000000E+00 -0.00000000000E+00 -0.74505805969E-08  0.93827000000E+00  0.93827000000E+00 0.  1.
     999902    2    1    2    0    0 -0.93805478453E-02 -0.86070899149E-02  0.19812192853E-01  0.10203800603E+01  0.10201082628E+01 0.  0.
     999903    2    3    3    0    0 -0.95831009987E-01 -0.67054244441E-01 -0.55457026390E-01  0.13102343461E+00  0.20292965977E-01 0.  0.
         14    1    1    2    0    0  0.93805478453E-02  0.86070899149E-02 -0.19812192853E-01  0.23549939710E-01  0.00000000000E+00 0. -1.
     999901    1    3    3    0    0  0.86450462142E-01  0.58447154526E-01  0.75269219243E-01  0.88935662568E+00  0.88000000000E+00 0. -1.
        -11    1    4    4    0    0 -0.66938860993E-01 -0.54441151122E-01 -0.33297960273E-01  0.92486027733E-01  0.51100000000E-03 0.  1.
         11    1    4    4    0    0 -0.28892148994E-01 -0.12613093319E-01 -0.22159066117E-01  0.38537406876E-01  0.51100000000E-03 0. -1.
</event>
<event>
 8    1  0.1132492E+005  0.1043930E+01  0.7957747E-01            NaN
         13   -1    0    0    0    0  0.00000000000E+00  0.00000000000E+00  0.74505805969E-08  0.10566000000E+00  0.10566000000E+00 0. -1.
     999900   -1    0    0    0    0 -0.00000000000E+00 -0.00000000000E+00 -0.74505805969E-08  0.93827000000E+00  0.93827000000E+00 0. -1.
     999902    2    1    2    0    0  0.11196276688E-01 -0.15996020935E-01  0.18195515918E-01  0.10172409368E+01  0.10168907598E+01 0.  0.
     999903    2    3    3    0    0  0.71832981115E-01  0.70294654190E-01  0.77819756888E-01  0.12894034537E+00  0.21642146821E-01 0.  0.
         14    1    1    2    0    0 -0.11196276688E-01  0.15996020935E-01 -0.18195515918E-01  0.26689063246E-01  0.00000000000E+00 0.  1.
     999901    1    3    3    0    0 -0.60636704427E-01 -0.86290675126E-01 -0.59624240971E-01  0.88830059138E+00  0.88000000000E+00 0. -1.
        -11    1    4    4    0    0  0.30512439066E-01  0.43288944063E-01  0.34051038071E-01  0.62965672636E-01  0.51100000000E-03 0. -1.
         11    1    4    4    0    0  0.41320542049E-01  0.27005710127E-01  0.43768718818E-01  0.65974672736E-01  0.51100000000E-03 0.  1.
</event>
<event>
 8    1  0.1132492E+005  0.1043930E+01  0.7957747E-01            NaN
         13   -1    0    0    0    0  0.00000000000E+00  0.00000000000E+00  0.74505805969E-08  0.10566000000E+00  0.10566000000E+00 0. -1.
     999900   -1    0    0    0    0 -0.00000000000E+00 -0.00000000000E+00 -0.74505805969E-08  0.93827000000E+00  0.93827000000E+00 0.  1.
     999902    2    1    2    0    0 -0.69952906477E-02 -0.11560048989E-01 -0.18319727222E-01  0.10211664056E+01  0.10209126538E+01 0.  0.
     999903    2    3    3    0    0  0.26674800699E-01 -0.15628571190E-02 -0.12921565423E+00  0.13351133436E+00  0.20361816943E-01 0.  0.
         14    1    1    2    0    0  0.69952906477E-02  0.11560048989E-01  0.18319727222E-01  0.22763594386E-01  0.00000000000E+00 0. -1.
     999901    1    3    3    0    0 -0.33670091347E-01 -0.99971918700E-02  0.11089592701E+00  0.88765507125E+00  0.88000000000E+00 0. -1.
        -11    1    4    4    0    0  0.41692871525E-02  0.57599524784E-02 -0.58632033463E-01  0.59063833917E-01  0.51100000000E-03 0. -1.
         11    1    4    4    0    0  0.22505513547E-01 -0.73228095973E-02 -0.70583620768E-01  0.74447500442E-01  0.51100000000E-03 0.  1.
</event>
<event>
 8    1  0.1132492E+005  0.1043930E+01  0.7957747E-01            NaN
         13   -1    0    0    0    0  0.00000000000E+00  0.00000000000E+00  0.74505805969E-08  0.10566000000E+00  0.10566000000E+00 0. -1.
     999900   -1    0    0    0    0 -0.00000000000E+00 -0.00000000000E+00 -0.74505805969E-08  0.93827000000E+00  0.93827000000E+00 0. -1.
     999902    2    1    2    0    0 -0.15894430272E-01 -0.92684376609E-02  0.21069581075E-01  0.10159574403E+01  0.10155722802E+01 0.  0.
     999903    2    3    3    0    0 -0.26820605678E-01  0.71596614103E-01  0.10141050779E+00  0.12853803413E+00  0.19811993547E-01 0.  0.
         14    1    1    2    0    0  0.15894430272E-01  0.92684376609E-02 -0.21069581075E-01  0.27972559715E-01  0.00000000000E+00 0. -1.
     999901    1    3    3    0    0  0.10926175406E-01 -0.80865051763E-01 -0.80340926719E-01  0.88741940615E+00  0.88000000000E+00 0. -1.
        -11    1    4    4    0    0  0.28076453773E-02  0.99561821248E-02  0.10228781950E-01  0.14556700734E-01  0.51100000000E-03 0.  1.
         11    1    4    4    0    0 -0.29628251055E-01  0.61640431978E-01  0.91181725844E-01  0.11398133340E+00  0.51100000000E-03 0. -1.
</event>
<event>
 8    1  0.1132492E+005  0.1043930E+01  0.7957747E-01            NaN
         13   -1    0    0    0    0  0.00000000000E+00  0.00000000000E+00  0.74505805969E-08  0.10566000000E+00  0.10566000000E+00 0.  1.
     999900   -1    0    0    0    0 -0.00000000000E+00 -0.00000000000E+00 -0.74505805969E-08  0.93827000000E+00  0.93827000000E+00 0.  1.
     999902    2    1    2    0    0 -0.11520116687E-01  0.19791254061E-01 -0.40960419658E-03  0.10210264064E+01  0.10207694881E+01 0.  0.
     999903    2    3    3    0    0  0.44038848269E-01  0.12106169154E+00  0.26630463369E-01  0.13306601009E+00  0.20050639573E-01 0.  0.
         14    1    1    2    0    0  0.11520116687E-01 -0.19791254061E-01  0.40960419658E-03  0.22903593635E-01  0.00000000000E+00 0. -1.
     999901    1    3    3    0    0 -0.55558964956E-01 -0.10127043748E+00 -0.27040067566E-01  0.88796039627E+00  0.88000000000E+00 0. -1.
        -11    1    4    4    0    0  0.22806058372E-01  0.42597759376E-01  0.16931535547E-01  0.51201791173E-01  0.51100000000E-03 0.  1.
         11    1    4    4    0    0  0.21232789897E-01  0.78463932164E-01  0.96989278225E-02  0.81864218920E-01  0.51100000000E-03 0. -1.
</event>
<event>
 8    1  0.1132492E+005  0.1043930E+01  0.7957747E-01            NaN
         13   -1    0    0    0    0  0.00000000000E+00  0.00000000000E+00  0.74505805969E-08  0.10566000000E+00  0.10566000000E+00 0. -1.
     999900   -1    0    0    0    0 -0.00000000000E+00 -0.00000000000E+00 -0.74505805969E-08  0.93827000000E+00  0.93827000000E+00 0. -1.
     999902    2    1    2    0    0 -0.22158297029E-01 -0.86446630825E-02 -0.36970922920E-03  0.10201422508E+01  0.10198648709E+01 0.  0.
     999903    2    3    3    0    0 -0.31086778126E-01  0.66887948595E-01  0.10582640827E+00  0.13050046414E+00  0.19767574760E-01 0.  0.
         14    1    1    2    0    0  0.22158297029E-01  0.86446630825E-02  0.36970922920E-03  0.23787749199E-01  0.00000000000E+00 0. -1.
     999901    1    3    3    0    0  0.89284810967E-02 -0.75532611677E-01 -0.10619611750E+00  0.88964178666E+00  0.88000000000E+00 0. -1.
        -11    1    4    4    0    0 -0.12647653522E-01  0.46558818388E-01  0.75451988991E-01  0.89559759228E-01  0.51100000000E-03 0.  1.
         11    1    4    4    0    0 -0.18439124604E-01  0.20329130207E-01  0.30374419279E-01  0.40940704912E-01  0.51100000000E-03 0. -1.
</event>
<event>
 8    1  0.1132492E+005  0.1043930E+01  0.7957747E-01            NaN
         13   -1    0    0    0    0  0.00000000000E+00  0.00000000000E+00  0.74505805969E-08  0.10566000000E+00  0.10566000000E+00 0.  1.
     999900   -1    0    0    0    0 -0.00000000000E+00 -0.00000000000E+00 -0.74505805969E-08  0.93827000000E+00  0.93827000000E+00 0. -1.
     999902    2    1    2    0    0  0.18819391083E-01  0.10599806017E-01 -0.66869966142E-02  0.10213193545E+01  0.10210690390E+01 0.  0.
     999903    2    3    3    0    0 -0.63219941094E-01 -0.10867954504E+00  0.20920185300E-01  0.12906368924E+00  0.20292295708E-01 0.  0.
         14    1    1    2    0    0 -0.18819391083E-01 -0.10599806017E-01  0.66869966142E-02  0.22610645547E-01  0.00000000000E+00 0. -1.
     999901    1    3    3    0    0  0.82039332178E-01  0.11927935106E+00 -0.27607181915E-01  0.89225566521E+00  0.88000000000E+00 0. -1.
        -11    1    4    4    0    0 -0.14080695907E-01 -0.28892153200E-01  0.14123927583E-01  0.35110809804E-01  0.51100000000E-03 0.  1.
         11    1    4    4    0    0 -0.49139245187E-01 -0.79787391839E-01  0.67962577172E-02  0.93952879434E-01  0.51100000000E-03 0. -1.
</event>
<event>
 8    1  0.1132492E+005  0.1043930E+01  0.7957747E-01            NaN
         13   -1    0    0    0    0  0.00000000000E+00  0.00000000000E+00  0.74505805969E-08  0.10566000000E+00  0.10566000000E+00 0.  1.
     999900   -1    0    0    0    0 -0.00000000000E+00 -0.00000000000E+00 -0.74505805969E-08  0.93827000000E+00  0.93827000000E+00 0.  1.
     999902    2    1    2    0    0  0.38337090480E-02  0.46787484525E-02 -0.24545999237E-01  0.10186496897E+01  0.10183359446E+01 0.  0.
     999903    2    3    3    0    0 -0.54534849917E-01  0.49241026446E-01  0.10120061748E+00  0.12668281981E+00  0.20205031949E-01 0.  0.
         14    1    1    2    0    0 -0.38337090480E-02 -0.46787484525E-02  0.24545999237E-01  0.25280310337E-01  0.00000000000E+00 0.  1.
     999901    1    3    3    0    0  0.58368558965E-01 -0.44562277994E-01 -0.12574661672E+00  0.89196686985E+00  0.88000000000E+00 0.  1.
        -11    1    4    4    0    0 -0.33680285457E-01  0.17320194469E-01  0.54951645972E-01  0.66740507048E-01  0.51100000000E-03 0. -1.
         11    1    4    4    0    0 -0.20854564460E-01  0.31920831977E-01  0.46248971509E-01  0.59942312765E-01  0.51100000000E-03 0.  1.
</event>
<event>
 8    1  0.1132492E+005  0.1043930E+01  0.7957747E-01            NaN
         13   -1    0    0    0    0  0.00000000000E+00  0.00000000000E+00  0.74505805969E-08  0.10566000000E+00  0.10566000000E+00 0. -1.
     999900   -1    0    0    0    0 -0.00000000000E+00 -0.00000000000E+00 -0.74505805969E-08  0.93827000000E+00  0.93827000000E+00 0. -1.
     999902    2    1    2    0    0  0.69115582107E-02 -0.14599014133E-01 -0.17848711100E-01  0.10198576645E+01  0.10195735277E+01 0.  0.
     999903    2    3    3    0    0  0.34418391767E-01  0.69859741076E-01  0.99193023770E-01  0.12767569035E+00  0.19920261701E-01 0.  0.
         14    1    1    2    0    0 -0.69115582107E-02  0.14599014133E-01  0.17848711100E-01  0.24072335543E-01  0.00000000000E+00 0. -1.
     999901    1    3    3    0    0 -0.27506833556E-01 -0.84458755209E-01 -0.11704173487E+00  0.89218197411E+00  0.88000000000E+00 0. -1.
        -11    1    4    4    0    0  0.51858557524E-02  0.19468260957E-01  0.39040150378E-01  0.43935188029E-01  0.51100000000E-03 0. -1.
         11    1    4    4    0    0  0.29232536015E-01  0.50391480119E-01  0.60152873393E-01  0.83740502320E-01  0.51100000000E-03 0.  1.
</event>
<event>
 8    1  0.1132492E+005  0.1043930E+01  0.7957747E-01            NaN
         13   -1    0    0    0    0  0.00000000000E+00  0.00000000000E+00  0.74505805969E-08  0.10566000000E+00  0.10566000000E+00 0.  1.
     999900   -1    0    0    0    0 -0.00000000000E+00 -0.00000000000E+00 -0.74505805969E-08  0.93827000000E+00  0.93827000000E+00 0.  1.
     999902    2    1    2    0    0 -0.12526818634E-01  0.18850863110E-01 -0.86258204215E-02  0.10197085012E+01  0.10194207897E+01 0.  0.
     999903    2    3    3    0    0 -0.10000369726E-01  0.84379591415E-01 -0.99487001145E-01  0.13260301069E+00  0.21586389326E-01 0.  0.
         14    1    1    2    0    0  0.12526818634E-01 -0.18850863110E-01  0.86258204215E-02  0.24221498778E-01  0.00000000000E+00 0.  1.
     999901    1    3    3    0    0 -0.25264489086E-02 -0.65528728305E-01  0.90861180724E-01  0.88710549054E+00  0.88000000000E+00 0. -1.
        -11    1    4    4    0    0 -0.11968548445E-01  0.68522048462E-01 -0.67933064920E-01  0.97230035008E-01  0.51100000000E-03 0.  1.
         11    1    4    4    0    0  0.19681787191E-02  0.15857542952E-01 -0.31553936226E-01  0.35372975678E-01  0.51100000000E-03 0. -1.
</event>
<event>
 8    1  0.1132492E+005  0.1043930E+01  0.7957747E-01            NaN
         13   -1    0    0    0    0  0.00000000000E+00  0.00000000000E+00  0.74505805969E-08  0.10566000000E+00  0.10566000000E+00 0.  1.
     999900   -1    0    0    0    0 -0.00000000000E+00 -0.00000000000E+00 -0.74505805969E-08  0.93827000000E+00  0.93827000000E+00 0. -1.
     999902    2    1    2    0    0  0.21394362409E-01  0.85893970783E-02  0.40677736382E-02  0.10205196761E+01  0.10202511289E+01 0.  0.
     999903    2    3    3    0    0 -0.10264742810E+00 -0.58347669271E-01  0.45139839409E-01  0.12835721818E+00  0.22294065399E-01 0.  0.
         14    1    1    2    0    0 -0.21394362409E-01 -0.85893970783E-02 -0.40677736382E-02  0.23410323950E-01  0.00000000000E+00 0.  1.
     999901    1    3    3    0    0  0.12404179051E+00  0.66937066349E-01 -0.41072065771E-01  0.89216245787E+00  0.88000000000E+00 0.  1.
        -11    1    4    4    0    0 -0.53298486276E-01 -0.29496219796E-01  0.35128568227E-01  0.70320928949E-01  0.51100000000E-03 0.  1.
         11    1    4    4    0    0 -0.49348941826E-01 -0.28851449475E-01  0.10011271182E-01  0.58036289232E-01  0.51100000000E-03 0. -1.
</event>
<event>
 8    1  0.1132492E+005  0.1043930E+01  0.7957747E-01            NaN
         13   -1    0    0    0    0  0.00000000000E+00  0.00000000000E+00  0.74505805969E-08  0.10566000000E+00  0.10566000000E+00 0. -1.
     999900   -1    0    0    0    0 -0.00000000000E+00 -0.00000000000E+00 -0.74505805969E-08  0.93827000000E+00  0.93827000000E+00 0. -1.
     999902    2    1    2    0    0  0.15896815007E-01 -0.15334797851E-01  0.84599048840E-02  0.10202776271E+01  0.10200034322E+01 0.  0.
     999903    2    3    3    0    0 -0.81861244691E-01 -0.57513087063E-01  0.81896329467E-01  0.13082355029E+00  0.19969325610E-01 0.  0.
         14    1    1    2    0    0 -0.15896815007E-01  0.15334797851E-01 -0.84599048840E-02  0.23652372886E-01  0.00000000000E+00 0.  1.
     999901    1    3    3    0    0  0.97758059698E-01  0.42178289211E-01 -0.73436424583E-01  0.88945407682E+00  0.88000000000E+00 0. -1.
        -11    1    4    4    0    0 -0.37832098444E-01 -0.34318438785E-01  0.31592878956E-01  0.60061585352E-01  0.51100000000E-03 0. -1.
         11    1    4    4    0    0 -0.44029146248E-01 -0.23194648278E-01  0.50303450512E-01  0.70761964942E-01  0.51100000000E-03 0.  1.
</event>
<event>
 8    1  0.1132492E+005  0.1043930E+01  0.7957747E-01            NaN
         13   -1    0    0    0    0  0.00000000000E+00  0.00000000000E+00  0.74505805969E-08  0.10566000000E+00  0.10566000000E+00 0.  1.
     999900   -1    0    0    0    0 -0.00000000000E+00 -0.00000000000E+00 -0.74505805969E-08  0.93827000000E+00  0.93827000000E+00 0. -1.
     999902    2    1    2    0    0  0.21945554161E-01 -0.68017321430E-02 -0.10385549780E-01  0.10187163023E+01  0.10184042292E+01 0.  0.
     999903    2    3    3    0    0 -0.11261273412E+00 -0.24712381685E-01  0.47843751637E-01  0.12640616795E+00  0.19928999765E-01 0.  0.
         14    1    1    2    0    0 -0.21945554161E-01  0.68017321430E-02  0.10385549780E-01  0.25213697702E-01  0.00000000000E+00 0. -1.
     999901    1    3    3    0    0  0.13455828828E+00  0.17910649542E-01 -0.58229301417E-01  0.89231013435E+00  0.88000000000E+00 0. -1.
        -11    1    4    4    0    0 -0.29683067045E-01  0.15594837974E-02  0.16056666390E-01  0.33787484598E-01  0.51100000000E-03 0. -1.
         11    1    4    4    0    0 -0.82929667074E-01 -0.26271865483E-01  0.31787085247E-01  0.92618683355E-01  0.51100000000E-03 0.  1.
</event>
<event>
 8    1  0.1132492E+005  0.1043930E+01  0.7957747E-01            NaN
         13   -1    0    0    0    0  0.00000000000E+00  0.00000000000E+00  0.74505805969E-08  0.10566000000E+00  0.10566000000E+00 0.  1.
     999900   -1    0    0    0    0 -0.00000000000E+00 -0.00000000000E+00 -0.74505805969E-08  0.93827000000E+00  0.93827000000E+00 0. -1.
     999902    2    1    2    0    0  0.15287293384E-01  0.12347307682E-01 -0.11283109517E-01  0.10212702139E+01  0.10210187970E+01 0.  0.
     999903    2    3    3    0    0  0.38591104325E-01  0.18751693403E-01 -0.12492448827E+00  0.13363377552E+00  0.20272120097E-01 0.  0.
         14    1    1    2    0    0 -0.15287293384E-01 -0.12347307682E-01  0.11283109517E-01  0.22659786106E-01  0.00000000000E+00 0.  1.
     999901    1    3    3    0    0 -0.23303810942E-01 -0.64043857207E-02  0.11364137875E+00  0.88763643837E+00  0.88000000000E+00 0.  1.
        -11    1    4    4    0    0  0.20868643812E-01  0.40264865377E-02 -0.36355928178E-01  0.42115644636E-01  0.51100000000E-03 0.  1.
         11    1    4    4    0    0  0.17722460513E-01  0.14725206865E-01 -0.88568560088E-01  0.91518130886E-01  0.51100000000E-03 0. -1.
</event>
<event>
 8    1  0.1132492E+005  0.1043930E+01  0.7957747E-01            NaN
         13   -1    0    0    0    0  0.00000000000E+00  0.00000000000E+00  0.74505805969E-08  0.10566000000E+00  0.10566000000E+00 0. -1.
     999900   -1    0    0    0    0 -0.00000000000E+00 -0.00000000000E+00 -0.74505805969E-08  0.93827000000E+00  0.93827000000E+00 0.  1.
     999902    2    1    2    0    0  0.28295444448E-02  0.19927312965E-01  0.11842984062E-01  0.10205770474E+01  0.10203098300E+01 0.  0.
     999903    2    3    3    0    0  0.10945776025E+00  0.71345769231E-01 -0.82451051627E-02  0.13242336397E+00  0.19918471363E-01 0.  0.
         14    1    1    2    0    0 -0.28295444448E-02 -0.19927312965E-01 -0.11842984062E-01  0.23352952603E-01  0.00000000000E+00 0.  1.
     999901    1    3    3    0    0 -0.10662821580E+00 -0.51418456265E-01  0.20088089225E-01  0.88815368342E+00  0.88000000000E+00 0. -1.
        -11    1    4    4    0    0  0.61682585512E-01  0.51630949881E-01 -0.66050998586E-02  0.80711738961E-01  0.51100000000E-03 0. -1.
         11    1    4    4    0    0  0.47775174736E-01  0.19714819350E-01 -0.16400053040E-02  0.51711625012E-01  0.51100000000E-03 0.  1.
</event>
<event>
 8    1  0.1132492E+005  0.1043930E+01  0.7957747E-01            NaN
         13   -1    0    0    0    0  0.00000000000E+00  0.00000000000E+00  0.74505805969E-08  0.10566000000E+00  0.10566000000E+00 0.  1.
     999900   -1    0    0    0    0 -0.00000000000E+00 -0.00000000000E+00 -0.74505805969E-08  0.93827000000E+00  0.93827000000E+00 0. -1.
     999902    2    1    2    0    0 -0.10097489102E-01 -0.63435872475E-02  0.20737530324E-01  0.10200083456E+01  0.10197277968E+01 0.  0.
     999903    2    3    3    0    0  0.70446618009E-02 -0.12455734059E+00 -0.32252210219E-01  0.13035883179E+00  0.19724644685E-01 0.  0.
         14    1    1    2    0    0  0.10097489102E-01  0.63435872475E-02 -0.20737530324E-01  0.23921654401E-01  0.00000000000E+00 0. -1.
     999901    1    3    3    0    0 -0.17142150903E-01  0.11821375334E+00  0.52989740543E-01  0.88964951381E+00  0.88000000000E+00 0.  1.
        -11    1    4    4    0    0  0.45349030743E-02 -0.17340623046E-01  0.13201619206E-02  0.17979613511E-01  0.51100000000E-03 0.  1.
         11    1    4    4    0    0  0.25097587266E-02 -0.10721671754E+00 -0.33572372140E-01  0.11237921828E+00  0.51100000000E-03 0. -1.
</event>
<event>
 8    1  0.1132492E+005  0.1043930E+01  0.7957747E-01            NaN
         13   -1    0    0    0    0  0.00000000000E+00  0.00000000000E+00  0.74505805969E-08  0.10566000000E+00  0.10566000000E+00 0.  1.
     999900   -1    0    0    0    0 -0.00000000000E+00 -0.00000000000E+00 -0.74505805969E-08  0.93827000000E+00  0.93827000000E+00 0.  1.
     999902    2    1    2    0    0 -0.31751560859E-02 -0.94687461283E-02 -0.21046774606E-01  0.10206339598E+01  0.10203680583E+01 0.  0.
     999903    2    3    3    0    0 -0.43438723748E-01 -0.18379355460E-01 -0.12353929674E+00  0.13372625829E+00  0.19900524820E-01 0.  0.
         14    1    1    2    0    0  0.31751560859E-02  0.94687461283E-02  0.21046774606E-01  0.23296040237E-01  0.00000000000E+00 0.  1.
     999901    1    3    3    0    0  0.40263567662E-01  0.89106093317E-02  0.10249252214E+00  0.88690770147E+00  0.88000000000E+00 0. -1.
        -11    1    4    4    0    0 -0.34492074669E-01 -0.19265796080E-01 -0.79516936510E-01  0.88792333151E-01  0.51100000000E-03 0. -1.
         11    1    4    4    0    0 -0.89466490790E-02  0.88644061996E-03 -0.44022360234E-01  0.44933925138E-01  0.51100000000E-03 0.  1.
</event>
<event>
 8    1  0.1132492E+005  0.1043930E+01  0.7957747E-01            NaN
         13   -1    0    0    0    0  0.00000000000E+00  0.00000000000E+00  0.74505805969E-08  0.10566000000E+00  0.10566000000E+00 0.  1.
     999900   -1    0    0    0    0 -0.00000000000E+00 -0.00000000000E+00 -0.74505805969E-08  0.93827000000E+00  0.93827000000E+00 0.  1.
     999902    2    1    2    0    0  0.41396809243E-02  0.11292406257E-01  0.20000919095E-01  0.10205913590E+01  0.10203244729E+01 0.  0.
     999903    2    3    3    0    0  0.93725354778E-01  0.26879274834E-01 -0.83724849283E-01  0.12984584069E+00  0.18524427479E-01 0.  0.
         14    1    1    2    0    0 -0.41396809243E-02 -0.11292406257E-01 -0.20000919095E-01  0.23338640961E-01  0.00000000000E+00 0. -1.
     999901    1    3    3    0    0 -0.89585673854E-01 -0.15586868577E-01  0.10372576838E+00  0.89074551835E+00  0.88000000000E+00 0. -1.
        -11    1    4    4    0    0  0.26689615683E-01  0.59190740407E-02 -0.13388703060E-01  0.30444860214E-01  0.51100000000E-03 0. -1.
         11    1    4    4    0    0  0.67035739095E-01  0.20960200794E-01 -0.70336146223E-01  0.99400980477E-01  0.51100000000E-03 0.  1.
</event>
<event>
 8    1  0.1132492E+005  0.1043930E+01  0.7957747E-01            NaN
         13   -1    0    0    0    0  0.00000000000E+00  0.00000000000E+00  0.74505805969E-08  0.10566000000E+00  0.10566000000E+00 0.  1.
     999900   -1    0    0    0    0 -0.00000000000E+00 -0.00000000000E+00 -0.74505805969E-08  0.93827000000E+00  0.93827000000E+00 0. -1.
     999902    2    1    2    0    0 -0.12485091952E-01 -0.13893458089E-01  0.18186798980E-02  0.10251626535E+01  0.10249908550E+01 0.  0.
     999903    2    3    3    0    0  0.74341470304E-01 -0.81054638185E-02  0.10932563467E+00  0.13435958988E+00  0.22540014356E-01 0.  0.
         14    1    1    2    0    0  0.12485091952E-01  0.13893458089E-01 -0.18186798980E-02  0.18767346517E-01  0.00000000000E+00 0.  1.
     999901    1    3    3    0    0 -0.86826562256E-01 -0.57879942703E-02 -0.10750695477E+00  0.89080306360E+00  0.88000000000E+00 0. -1.
        -11    1    4    4    0    0  0.30238534144E-01  0.73668674462E-02  0.48891211884E-01  0.57959049368E-01  0.51100000000E-03 0.  1.
         11    1    4    4    0    0  0.44102936160E-01 -0.15472331265E-01  0.60434422787E-01  0.76400540517E-01  0.51100000000E-03 0. -1.
</event>
<event>
 8    1  0.1132492E+005  0.1043930E+01  0.7957747E-01            NaN
         13   -1    0    0    0    0  0.00000000000E+00  0.00000000000E+00  0.74505805969E-08  0.10566000000E+00  0.10566000000E+00 0. -1.
     999900   -1    0    0    0    0 -0.00000000000E+00 -0.00000000000E+00 -0.74505805969E-08  0.93827000000E+00  0.93827000000E+00 0.  1.
     999902    2    1    2    0    0 -0.16442282700E-01 -0.11968355785E-01  0.10661327560E-01  0.10209679856E+01  0.10207097401E+01 0.  0.
     999903    2    3    3    0    0  0.41350367922E-01 -0.12322171833E+00 -0.86996773390E-02  0.13187173115E+00  0.20518876559E-01 0.  0.
         14    1    1    2    0    0  0.16442282700E-01  0.11968355785E-01 -0.10661327560E-01  0.22962014413E-01  0.00000000000E+00 0.  1.
     999901    1    3    3    0    0 -0.57792650622E-01  0.11125336254E+00  0.19361004899E-01  0.88909625444E+00  0.88000000000E+00 0. -1.
        -11    1    4    4    0    0  0.35767231989E-01 -0.92811807947E-01 -0.14164970015E-01  0.10047006557E+00  0.51100000000E-03 0. -1.
         11    1    4    4    0    0  0.55831359330E-02 -0.30409910383E-01  0.54652926761E-02  0.31401665583E-01  0.51100000000E-03 0.  1.
</event>
<event>
 8    1  0.1132492E+005  0.1043930E+01  0.7957747E-01            NaN
         13   -1    0    0    0    0  0.00000000000E+00  0.00000000000E+00  0.74505805969E-08  0.10566000000E+00  0.10566000000E+00 0.  1.
     999900   -1    0    0    0    0 -0.00000000000E+00 -0.00000000000E+00 -0.74505805969E-08  0.93827000000E+00  0.93827000000E+00 0. -1.
     999902    2    1    2    0    0  0.15247778502E-02  0.13553426798E-01  0.19248197106E-01  0.10203394634E+01  0.10200667170E+01 0.  0.
     999903    2    3    3    0    0  0.66080598421E-01  0.82023842055E-01 -0.74275274863E-01  0.13039435748E+00  0.19781705016E-01 0.  0.
         14    1    1    2    0    0 -0.15247778502E-02 -0.13553426798E-01 -0.19248197106E-01  0.23590536605E-01  0.00000000000E+00 0. -1.
     999901    1    3    3    0    0 -0.64555820571E-01 -0.68470415257E-01  0.93523471969E-01  0.88994510592E+00  0.88000000000E+00 0. -1.
        -11    1    4    4    0    0  0.81937553471E-02  0.22947386989E-01 -0.14709587061E-01  0.28466704565E-01  0.51100000000E-03 0. -1.
         11    1    4    4    0    0  0.57886843074E-01  0.59076455066E-01 -0.59565687802E-01  0.10192765291E+00  0.51100000000E-03 0.  1.
</event>
<event>
 8    1  0.1132492E+005  0.1043930E+01  0.7957747E-01            NaN
         13   -1    0    0    0    0  0.00000000000E+00  0.00000000000E+00  0.74505805969E-08  0.10566000000E+00  0.10566000000E+00 0. -1.
     999900   -1    0    0    0    0 -0.00000000000E+00 -0.00000000000E+00 -0.74505805969E-08  0.93827000000E+00  0.93827000000E+00 0. -1.
     999902    2    1    2    0    0 -0.22541354952E-01 -0.89442003705E-02  0.29840526557E-02  0.10194960897E+01  0.10192032481E+01 0.  0.
     999903    2    3    3    0    0 -0.10929747202E+00  0.70036979987E-01 -0.95329454066E-02  0.13162147807E+00  0.19550459969E-01 0.  0.
         14    1    1    2    0    0  0.22541354952E-01  0.89442003705E-02 -0.29840526557E-02  0.24433910322E-01  0.00000000000E+00 0.  1.
     999901    1    3    3    0    0  0.86756117069E-01 -0.78981180357E-01  0.12516998062E-01  0.88787461161E+00  0.88000000000E+00 0.  1.
        -11    1    4    4    0    0 -0.52536314439E-01  0.31485273732E-01 -0.14099175160E-01  0.62852483309E-01  0.51100000000E-03 0.  1.
         11    1    4    4    0    0 -0.56761157582E-01  0.38551706255E-01  0.45662297534E-02  0.68768994761E-01  0.51100000000E-03 0. -1.
</event>
<event>
 8    1  0.1132492E+005  0.1043930E+01  0.7957747E-01            NaN
         13   -1    0    0    0    0  0.00000000000E+00  0.00000000000E+00  0.74505805969E-08  0.10566000000E+00  0.10566000000E+00 0. -1.
     999900   -1    0    0    0    0 -0.00000000000E+00 -0.00000000000E+00 -0.74505805969E-08  0.93827000000E+00  0.93827000000E+00 0.  1.
     999902    2    1    2    0    0 -0.12318759993E-01  0.11627127689E-01  0.14659927499E-01  0.10215278702E+01  0.10212822010E+01 0.  0.
     999903    2    3    3    0    0  0.61386350163E-01 -0.10845070907E+00  0.31896987940E-01  0.13015351202E+00  0.19816118871E-01 0.  0.
         14    1    1    2    0    0  0.12318759993E-01 -0.11627127689E-01 -0.14659927499E-01  0.22402129817E-01  0.00000000000E+00 0.  1.
     999901    1    3    3    0    0 -0.73705110156E-01  0.12007783676E+00 -0.17237060440E-01  0.89137435817E+00  0.88000000000E+00 0. -1.
        -11    1    4    4    0    0  0.56654100668E-01 -0.95853929447E-01  0.34226061816E-01  0.11648754157E+00  0.51100000000E-03 0. -1.
         11    1    4    4    0    0  0.47322494958E-02 -0.12596779620E-01 -0.23290738767E-02  0.13665970445E-01  0.51100000000E-03 0.  1.
</event>
<event>
 8    1  0.1132492E+005  0.1043930E+01  0.7957747E-01            NaN
         13   -1    0    0    0    0  0.00000000000E+00  0.00000000000E+00  0.74505805969E-08  0.10566000000E+00  0.10566000000E+00 0.  1.
     999900   -1    0    0    0    0 -0.00000000000E+00 -0.00000000000E+00 -0.74505805969E-08  0.93827000000E+00  0.93827000000E+00 0.  1.
     999902    2    1    2    0    0  0.19130471395E-01  0.69443582471E-03 -0.13997673117E-01  0.10202151939E+01  0.10199395324E+01 0.  0.
     999903    2    3    3    0    0  0.10462351191E+00 -0.41603909509E-01  0.64930296926E-01  0.13154887042E+00  0.20302643111E-01 0.  0.
         14    1    1    2    0    0 -0.19130471395E-01 -0.69443582471E-03  0.13997673117E-01  0.23714806126E-01  0.00000000000E+00 0.  1.
     999901    1    3    3    0    0 -0.85493040518E-01  0.42298345334E-01 -0.78927970042E-01  0.88866632346E+00  0.88000000000E+00 0.  1.
        -11    1    4    4    0    0  0.56558302232E-01 -0.20802731574E-01  0.23180344390E-01  0.64569223934E-01  0.51100000000E-03 0. -1.
         11    1    4    4    0    0  0.48065209681E-01 -0.20801177935E-01  0.41749952535E-01  0.66979646482E-01  0.51100000000E-03 0.  1.
</event>
<event>
 8    1  0.1132492E+005  0.1043930E+01  0.7957747E-01            NaN
         13   -1    0    0    0    0  0.00000000000E+00  0.00000000000E+00  0.74505805969E-08  0.10566000000E+00  0.10566000000E+00 0. -1.
     999900   -1    0    0    0    0 -0.00000000000E+00 -0.00000000000E+00 -0.74505805969E-08  0.93827000000E+00  0.93827000000E+00 0. -1.
     999902    2    1    2    0    0 -0.98035425171E-02  0.10049723524E-01  0.20040699575E-01  0.10194609169E+01  0.10191672213E+01 0.  0.
     999903    2    3    3    0    0  0.38896388115E-01  0.95030532375E-01 -0.75167555722E-01  0.12892285875E+00  0.20669082793E-01 0.  0.
         14    1    1    2    0    0  0.98035425171E-02 -0.10049723524E-01 -0.20040699575E-01  0.24469083110E-01  0.00000000000E+00 0.  1.
     999901    1    3    3    0    0 -0.48699930633E-01 -0.84980808851E-01  0.95208255297E-01  0.89053805814E+00  0.88000000000E+00 0.  1.
        -11    1    4    4    0    0  0.31738418516E-01  0.91120797778E-01 -0.70594325135E-01  0.11955813172E+00  0.51100000000E-03 0. -1.
         11    1    4    4    0    0  0.71579695998E-02  0.39097345968E-02 -0.45732305872E-02  0.93647270336E-02  0.51100000000E-03 0.  1.
</event>
<event>
 8    1  0.1132492E+005  0.1043930E+01  0.7957747E-01            NaN
         13   -1    0    0    0    0  0.00000000000E+00  0.00000000000E+00  0.74505805969E-08  0.10566000000E+00  0.10566000000E+00 0.  1.
     999900   -1    0    0    0    0 -0.00000000000E+00 -0.00000000000E+00 -0.74505805969E-08  0.93827000000E+00  0.93827000000E+00 0. -1.
     999902    2    1    2    0    0  0.83815676117E-02 -0.10128360270E-01 -0.19884630725E-01  0.10200923639E+01  0.10198138055E+01 0.  0.
     999903    2    3    3    0    0  0.11605050788E+00 -0.53470534926E-01 -0.28543939705E-01  0.13242906710E+00  0.19896804610E-01 0.  0.
         14    1    1    2    0    0 -0.83815676117E-02  0.10128360270E-01  0.19884630725E-01  0.23837636134E-01  0.00000000000E+00 0.  1.
     999901    1    3    3    0    0 -0.10766894027E+00  0.43342174657E-01  0.86593089796E-02  0.88766329677E+00  0.88000000000E+00 0.  1.
        -11    1    4    4    0    0  0.15752524602E-01 -0.14946701528E-01 -0.24193380815E-02  0.21855439498E-01  0.51100000000E-03 0.  1.
         11    1    4    4    0    0  0.10029798328E+00 -0.38523833399E-01 -0.26124601623E-01  0.11057362760E+00  0.51100000000E-03 0. -1.
</event>
<event>
 8    1  0.1132492E+005  0.1043930E+01  0.7957747E-01            NaN
         13   -1    0    0    0    0  0.00000000000E+00  0.00000000000E+00  0.74505805969E-08  0.10566000000E+00  0.10566000000E+00 0. -1.
     999900   -1    0    0    0    0 -0.00000000000E+00 -0.00000000000E+00 -0.74505805969E-08  0.93827000000E+00  0.93827000000E+00 0.  1.
     999902    2    1    2    0    0 -0.92018955580E-03 -0.22787897467E-01  0.20939301229E-02  0.10210276079E+01  0.10207707169E+01 0.  0.
     999903    2    3    3    0    0  0.36108285582E-02  0.77655769470E-01 -0.10135050715E+00  0.12928200969E+00  0.19961365542E-01 0.  0.
         14    1    1    2    0    0  0.92018955580E-03  0.22787897467E-01 -0.20939301229E-02  0.22902392084E-01  0.00000000000E+00 0. -1.
     999901    1    3    3    0    0 -0.45310181140E-02 -0.10044366694E+00  0.10344443728E+00  0.89174559823E+00  0.88000000000E+00 0. -1.
        -11    1    4    4    0    0  0.11645506442E-01  0.37871560732E-01 -0.47878652534E-01  0.62149009824E-01  0.51100000000E-03 0.  1.
         11    1    4    4    0    0 -0.80346778834E-02  0.39784208738E-01 -0.53471854620E-01  0.67132999866E-01  0.51100000000E-03 0. -1.
</event>
<event>
 8    1  0.1132492E+005  0.1043930E+01  0.7957747E-01            NaN
         13   -1    0    0    0    0  0.00000000000E+00  0.00000000000E+00  0.74505805969E-08  0.10566000000E+00  0.10566000000E+00 0. -1.
     999900   -1    0    0    0    0 -0.00000000000E+00 -0.00000000000E+00 -0.74505805969E-08  0.93827000000E+00  0.93827000000E+00 0. -1.
     999902    2    1    2    0    0  0.85661987814E-02  0.48823567680E-02 -0.20610117285E-01  0.10210828097E+01  0.10208271696E+01 0.  0.
     999903    2    3    3    0    0 -0.68960632190E-01 -0.86969970711E-01  0.62626052485E-01  0.12902030096E+00  0.20121406798E-01 0.  0.
         14    1    1    2    0    0 -0.85661987814E-02 -0.48823567680E-02  0.20610117285E-01  0.22847190280E-01  0.00000000000E+00 0. -1.
     999901    1    3    3    0    0  0.77526830972E-01  0.91852327479E-01 -0.83236169771E-01  0.89206250876E+00  0.88000000000E+00 0. -1.
        -11    1    4    4    0    0 -0.26590858137E-01 -0.26170306628E-01  0.30736015505E-01  0.48341725823E-01  0.51100000000E-03 0.  1.
         11    1    4    4    0    0 -0.42369774054E-01 -0.60799664083E-01  0.31890036980E-01  0.80678575133E-01  0.51100000000E-03 0. -1.
</event>
<event>
 8    1  0.1132492E+005  0.1043930E+01  0.7957747E-01            NaN
         13   -1    0    0    0    0  0.00000000000E+00  0.00000000000E+00  0.74505805969E-08  0.10566000000E+00  0.10566000000E+00 0. -1.
     999900   -1    0    0    0    0 -0.00000000000E+00 -0.00000000000E+00 -0.74505805969E-08  0.93827000000E+00  0.93827000000E+00 0.  1.
     999902    2    1    2    0    0  0.20382161308E-01  0.43672484586E-02 -0.10897719665E-01  0.10204084003E+01  0.10201372642E+01 0.  0.
     999903    2    3    3    0    0 -0.47369204131E-01 -0.51972550064E-01  0.10558831533E+00  0.12836949040E+00  0.19617499111E-01 0.  0.
         14    1    1    2    0    0 -0.20382161308E-01 -0.43672484586E-02  0.10897719665E-01  0.23521599703E-01  0.00000000000E+00 0. -1.
     999901    1    3    3    0    0  0.67751365439E-01  0.56339798523E-01 -0.11648603500E+00  0.89203890989E+00  0.88000000000E+00 0.  1.
        -11    1    4    4    0    0 -0.13818295895E-01 -0.27077312307E-01  0.54136948605E-01  0.62090228446E-01  0.51100000000E-03 0.  1.
         11    1    4    4    0    0 -0.33550908235E-01 -0.24895237757E-01  0.51451366727E-01  0.66279261956E-01  0.51100000000E-03 0. -1.
</event>
<event>
 8    1  0.1132492E+005  0.1043930E+01  0.7957747E-01            NaN
         13   -1    0    0    0    0  0.00000000000E+00  0.00000000000E+00  0.74505805969E-08  0.10566000000E+00  0.10566000000E+00 0.  1.
     999900   -1    0    0    0    0 -0.00000000000E+00 -0.00000000000E+00 -0.74505805969E-08  0.93827000000E+00  0.93827000000E+00 0. -1.
     999902    2    1    2    0    0 -0.34485307042E-02 -0.11193294397E-01  0.12506957760E-01  0.10267950592E+01  0.10266520771E+01 0.  0.
     999903    2    3    3    0    0  0.10755355873E+00  0.46333772951E-01  0.66762747213E-01  0.13630389248E+00  0.20171766849E-01 0.  0.
         14    1    1    2    0    0  0.34485307042E-02  0.11193294397E-01 -0.12506957760E-01  0.17134940790E-01  0.00000000000E+00 0. -1.
     999901    1    3    3    0    0 -0.11100208944E+00 -0.57527067348E-01 -0.54255789452E-01  0.89049116673E+00  0.88000000000E+00 0. -1.
        -11    1    4    4    0    0  0.44268911543E-01  0.21320765678E-01  0.16985373931E-01  0.51991111038E-01  0.51100000000E-03 0.  1.
         11    1    4    4    0    0  0.63284647188E-01  0.25013007273E-01  0.49777373281E-01  0.84312781441E-01  0.51100000000E-03 0. -1.
</event>
<event>
 8    1  0.1132492E+005  0.1043930E+01  0.7957747E-01            NaN
         13   -1    0    0    0    0  0.00000000000E+00  0.00000000000E+00  0.74505805969E-08  0.10566000000E+00  0.10566000000E+00 0. -1.
     999900   -1    0    0    0    0 -0.00000000000E+00 -0.00000000000E+00 -0.74505805969E-08  0.93827000000E+00  0.93827000000E+00 0. -1.
     999902    2    1    2    0    0  0.22006709056E-01  0.67935615566E-02  0.51112584126E-02  0.10203382073E+01  0.10200654315E+01 0.  0.
     999903    2    3    3    0    0 -0.65032222296E-01 -0.10476200567E-01  0.10989968373E+00  0.12968977250E+00  0.20063795604E-01 0.  0.
         14    1    1    2    0    0 -0.22006709056E-01 -0.67935615566E-02 -0.51112584126E-02  0.23591792739E-01  0.00000000000E+00 0.  1.
     999901    1    3    3    0    0  0.87038931352E-01  0.17269762124E-01 -0.10478842531E+00  0.89064843476E+00  0.88000000000E+00 0. -1.
        -11    1    4    4    0    0 -0.44918749104E-01 -0.11813420906E-01  0.90421243200E-01  0.10165388963E+00  0.51100000000E-03 0. -1.
         11    1    4    4    0    0 -0.20113473192E-01  0.13372203391E-02  0.19478440526E-01  0.28035882871E-01  0.51100000000E-03 0.  1.
</event>
<event>
 8    1  0.1132492E+005  0.1043930E+01  0.7957747E-01            NaN
         13   -1    0    0    0    0  0.00000000000E+00  0.00000000000E+00  0.74505805969E-08  0.10566000000E+00  0.10566000000E+00 0. -1.
     999900   -1    0    0    0    0 -0.00000000000E+00 -0.00000000000E+00 -0.74505805969E-08  0.93827000000E+00  0.93827000000E+00 0. -1.
     999902    2    1    2    0    0 -0.15431069260E-02 -0.14880607683E-01 -0.18123856816E-01  0.10204291947E+01  0.10201585433E+01 0.  0.
     999903    2    3    3    0    0 -0.11473938345E+00 -0.55978447452E-01 -0.27746651811E-01  0.13217527400E+00  0.20042796142E-01 0.  0.
         14    1    1    2    0    0  0.15431069260E-02  0.14880607683E-01  0.18123856816E-01  0.23500805303E-01  0.00000000000E+00 0. -1.
     999901    1    3    3    0    0  0.11319627652E+00  0.41097839769E-01  0.96227949944E-02  0.88825392070E+00  0.88000000000E+00 0.  1.
        -11    1    4    4    0    0 -0.47619929031E-01 -0.27162617709E-01 -0.24700566122E-02  0.54880121559E-01  0.51100000000E-03 0.  1.
         11    1    4    4    0    0 -0.67119454415E-01 -0.28815829743E-01 -0.25276595198E-01  0.77295152439E-01  0.51100000000E-03 0. -1.
</event>
<event>
 8    1  0.1132492E+005  0.1043930E+01  0.7957747E-01            NaN
         13   -1    0    0    0    0  0.00000000000E+00  0.00000000000E+00  0.74505805969E-08  0.10566000000E+00  0.10566000000E+00 0.  1.
     999900   -1    0    0    0    0 -0.00000000000E+00 -0.00000000000E+00 -0.74505805969E-08  0.93827000000E+00  0.93827000000E+00 0. -1.
     999902    2    1    2    0    0  0.21075219721E-01 -0.41629504716E-02 -0.21482679684E-01  0.10135490756E+01  0.10130936423E+01 0.  0.
     999903    2    3    3    0    0  0.45442195256E-01  0.37621777173E-01  0.10587721241E+00  0.12306591735E+00  0.21327087891E-01 0.  0.
         14    1    1    2    0    0 -0.21075219721E-01  0.41629504716E-02  0.21482679684E-01  0.30380924431E-01  0.00000000000E+00 0.  1.
     999901    1    3    3    0    0 -0.24366975535E-01 -0.41784727644E-01 -0.12735989209E+00  0.89048315822E+00  0.88000000000E+00 0. -1.
        -11    1    4    4    0    0  0.90407313809E-02  0.26271321239E-02  0.60759907012E-02  0.11216747795E-01  0.51100000000E-03 0.  1.
         11    1    4    4    0    0  0.36401463875E-01  0.34994645049E-01  0.99801221707E-01  0.11184916955E+00  0.51100000000E-03 0. -1.
</event>
<event>
 8    1  0.1132492E+005  0.1043930E+01  0.7957747E-01            NaN
         13   -1    0    0    0    0  0.00000000000E+00  0.00000000000E+00  0.74505805969E-08  0.10566000000E+00  0.10566000000E+00 0. -1.
     999900   -1    0    0    0    0 -0.00000000000E+00 -0.00000000000E+00 -0.74505805969E-08  0.93827000000E+00  0.93827000000E+00 0.  1.
     999902    2    1    2    0    0 -0.16716714328E-01  0.15594086082E-01  0.42984487950E-02  0.10206684282E+01  0.10204033221E+01 0.  0.
     999903    2    3    3    0    0  0.57459998134E-01 -0.11085317654E+00  0.22044452642E-01  0.12836465959E+00  0.20036212344E-01 0.  0.
         14    1    1    2    0    0  0.16716714328E-01 -0.15594086082E-01 -0.42984487950E-02  0.23261571759E-01  0.00000000000E+00 0. -1.
     999901    1    3    3    0    0 -0.74176712462E-01  0.12644726262E+00 -0.17746003847E-01  0.89230376865E+00  0.88000000000E+00 0.  1.
        -11    1    4    4    0    0  0.45937973461E-01 -0.68733397565E-01  0.11824088508E-01  0.83514355273E-01  0.51100000000E-03 0. -1.
         11    1    4    4    0    0  0.11522024673E-01 -0.42119778973E-01  0.10220364134E-01  0.44850304317E-01  0.51100000000E-03 0.  1.
</event>
<event>
 8    1  0.1132492E+005  0.1043930E+01  0.7957747E-01            NaN
         13   -1    0    0    0    0  0.00000000000E+00  0.00000000000E+00  0.74505805969E-08  0.10566000000E+00  0.10566000000E+00 0. -1.
     999900   -1    0    0    0    0 -0.00000000000E+00 -0.00000000000E+00 -0.74505805969E-08  0.93827000000E+00  0.93827000000E+00 0.  1.
     999902    2    1    2    0    0  0.20779082763E-01  0.56089327677E-02  0.95913932619E-02  0.10203667822E+01  0.10200946745E+01 0.  0.
     999903    2    3    3    0    0 -0.96697579941E-01 -0.77639787876E-01 -0.24599311945E-01  0.12801028390E+00  0.20078545998E-01 0.  0.
         14    1    1    2    0    0 -0.20779082763E-01 -0.56089327677E-02 -0.95913932619E-02  0.23563217776E-01  0.00000000000E+00 0.  1.
     999901    1    3    3    0    0  0.11747666270E+00  0.83248720643E-01  0.34190705207E-01  0.89235649832E+00  0.88000000000E+00 0. -1.
        -11    1    4    4    0    0 -0.90799277447E-01 -0.68628643835E-01 -0.26971034345E-01  0.11697049779E+00  0.51100000000E-03 0.  1.
         11    1    4    4    0    0 -0.58983024944E-02 -0.90111440405E-02  0.23717224003E-02  0.11039786111E-01  0.51100000000E-03 0. -1.
</event>
<event>
 8    1  0.1132492E+005  0.1043930E+01  0.7957747E-01            NaN
         13   -1    0    0    0    0  0.00000000000E+00  0.00000000000E+00  0.74505805969E-08  0.10566000000E+00  0.10566000000E+00 0. -1.
     999900   -1    0    0    0    0 -0.00000000000E+00 -0.00000000000E+00 -0.74505805969E-08  0.93827000000E+00  0.93827000000E+00 0.  1.
     999902    2    1    2    0    0  0.16385413531E-01  0.15584082874E-01  0.75577300291E-02  0.10200875023E+01  0.10198088289E+01 0.  0.
     999903    2    3    3    0    0  0.61877957944E-01  0.40091803755E-01 -0.10642179171E+00  0.13123344710E+00  0.21456595274E-01 0.  0.
         14    1    1    2    0    0 -0.16385413531E-01 -0.15584082874E-01 -0.75577300291E-02  0.23842497747E-01  0.00000000000E+00 0.  1.
     999901    1    3    3    0    0 -0.45492544413E-01 -0.24507720881E-01  0.11397952174E+00  0.88885405515E+00  0.88000000000E+00 0. -1.
        -11    1    4    4    0    0  0.52082804740E-01  0.38497260651E-01 -0.79544813147E-01  0.10257824354E+00  0.51100000000E-03 0.  1.
         11    1    4    4    0    0  0.97951532044E-02  0.15945431046E-02 -0.26876978560E-01  0.28655203569E-01  0.51100000000E-03 0. -1.
</event>
<event>
 8    1  0.1132492E+005  0.1043930E+01  0.7957747E-01            NaN
         13   -1    0    0    0    0  0.00000000000E+00  0.00000000000E+00  0.74505805969E-08  0.10566000000E+00  0.10566000000E+00 0. -1.
     999900   -1    0    0    0    0 -0.00000000000E+00 -0.00000000000E+00 -0.74505805969E-08  0.93827000000E+00  0.93827000000E+00 0. -1.
     999902    2    1    2    0    0  0.15698371840E-01 -0.14672838162E-01  0.91496659406E-02  0.10205751837E+01  0.10203079232E+01 0.  0.
     999903    2    3    3    0    0 -0.20147148102E-01  0.12151622676E+00 -0.30667801698E-01  0.12848898077E+00  0.19919919078E-01 0.  0.
         14    1    1    2    0    0 -0.15698371840E-01  0.14672838162E-01 -0.91496659406E-02  0.23354816312E-01  0.00000000000E+00 0.  1.
     999901    1    3    3    0    0  0.35845519942E-01 -0.13618906492E+00  0.39817467639E-01  0.89208620292E+00  0.88000000000E+00 0.  1.
        -11    1    4    4    0    0 -0.12180333314E-01  0.60180658753E-01 -0.25274726679E-01  0.66401394092E-01  0.51100000000E-03 0.  1.
         11    1    4    4    0    0 -0.79668147883E-02  0.61335568007E-01 -0.53930750191E-02  0.62087586680E-01  0.51100000000E-03 0. -1.
</event>
<event>
 8    1  0.1132492E+005  0.1043930E+01  0.7957747E-01            NaN
         13   -1    0    0    0    0  0.00000000000E+00  0.00000000000E+00  0.74505805969E-08  0.10566000000E+00  0.10566000000E+00 0.  1.
     999900   -1    0    0    0    0 -0.00000000000E+00 -0.00000000000E+00 -0.74505805969E-08  0.93827000000E+00  0.93827000000E+00 0. -1.
     999902    2    1    2    0    0  0.22353612792E-01  0.13554848454E-02 -0.10827185057E-01  0.10190553285E+01  0.10187516937E+01 0.  0.
     999903    2    3    3    0    0 -0.10870305862E+00 -0.57432893738E-01  0.21193200306E-01  0.12683493555E+00  0.22870437257E-01 0.  0.
         14    1    1    2    0    0 -0.22353612792E-01 -0.13554848454E-02  0.10827185057E-01  0.24874671461E-01  0.00000000000E+00 0.  1.
     999901    1    3    3    0    0  0.13105667142E+00  0.58788378584E-01 -0.32020385363E-01  0.89222039298E+00  0.88000000000E+00 0.  1.
        -11    1    4    4    0    0 -0.82654880841E-01 -0.53801536873E-01  0.19010310425E-01  0.10043947292E+00  0.51100000000E-03 0.  1.
         11    1    4    4    0    0 -0.26048177783E-01 -0.36313568659E-02  0.21828898813E-02  0.26395462635E-01  0.51100000000E-03 0. -1.
</event>
<event>
 8    1  0.1132492E+005  0.1043930E+01  0.7957747E-01            NaN
         13   -1    0    0    0    0  0.00000000000E+00  0.00000000000E+00  0.74505805969E-08  0.10566000000E+00  0.10566000000E+00 0.  1.
     999900   -1    0    0    0    0 -0.00000000000E+00 -0.00000000000E+00 -0.74505805969E-08  0.93827000000E+00  0.93827000000E+00 0. -1.
     999902    2    1    2    0    0  0.76272363161E-02 -0.95492624878E-02  0.19367191386E-01  0.10210290994E+01  0.10207722422E+01 0.  0.
     999903    2    3    3    0    0 -0.78946024797E-02 -0.54692874408E-01 -0.11532653047E+00  0.12950160574E+00  0.20416219028E-01 0.  0.
         14    1    1    2    0    0 -0.76272363161E-02  0.95492624878E-02 -0.19367191386E-01  0.22900900638E-01  0.00000000000E+00 0.  1.
     999901    1    3    3    0    0  0.15521838796E-01  0.45143611920E-01  0.13469372186E+00  0.89152749362E+00  0.88000000000E+00 0.  1.
        -11    1    4    4    0    0  0.61867214723E-02 -0.28472819678E-01 -0.56450754916E-01  0.63528936986E-01  0.51100000000E-03 0. -1.
         11    1    4    4    0    0 -0.14081323952E-01 -0.26220054729E-01 -0.58875775555E-01  0.65972668753E-01  0.51100000000E-03 0.  1.
</event>
<event>
 8    1  0.1132492E+005  0.1043930E+01  0.7957747E-01            NaN
         13   -1    0    0    0    0  0.00000000000E+00  0.00000000000E+00  0.74505805969E-08  0.10566000000E+00  0.10566000000E+00 0.  1.
     999900   -1    0    0    0    0 -0.00000000000E+00 -0.00000000000E+00 -0.74505805969E-08  0.93827000000E+00  0.93827000000E+00 0. -1.
     999902    2    1    2    0    0  0.63104170707E-02 -0.15602249095E-01  0.12610162437E-01  0.10228998374E+01  0.10226836313E+01 0.  0.
     999903    2    3    3    0    0 -0.80335095689E-01 -0.10536521388E+00  0.22707795870E-02  0.13404004109E+00  0.20149944956E-01 0.  0.
         14    1    1    2    0    0 -0.63104170707E-02  0.15602249095E-01 -0.12610162437E-01  0.21030162556E-01  0.00000000000E+00 0. -1.
     999901    1    3    3    0    0  0.86645512760E-01  0.89762964783E-01  0.10339382850E-01  0.88885979635E+00  0.88000000000E+00 0.  1.
        -11    1    4    4    0    0 -0.39807832234E-01 -0.39573638740E-01  0.72806591538E-02  0.56603935455E-01  0.51100000000E-03 0.  1.
         11    1    4    4    0    0 -0.40527263455E-01 -0.65791575139E-01 -0.50098795668E-02  0.77436105640E-01  0.51100000000E-03 0. -1.
</event>
<event>
 8    1  0.1132492E+005  0.1043930E+01  0.7957747E-01            NaN
         13   -1    0    0    0    0  0.00000000000E+00  0.00000000000E+00  0.74505805969E-08  0.10566000000E+00  0.10566000000E+00 0.  1.
     999900   -1    0    0    0    0 -0.00000000000E+00 -0.00000000000E+00 -0.74505805969E-08  0.93827000000E+00  0.93827000000E+00 0. -1.
     999902    2    1    2    0    0  0.55774420732E-02  0.16116222611E-01  0.16600368907E-01  0.10201305727E+01  0.10198529172E+01 0.  0.
     999903    2    3    3    0    0  0.11524725792E+00  0.60546389245E-01 -0.73478938608E-02  0.13188791020E+00  0.19814984351E-01 0.  0.
         14    1    1    2    0    0 -0.55774420732E-02 -0.16116222611E-01 -0.16600368907E-01  0.23799427287E-01  0.00000000000E+00 0. -1.
     999901    1    3    3    0    0 -0.10966981585E+00 -0.44430166634E-01  0.23948262768E-01  0.88824266251E+00  0.88000000000E+00 0. -1.
        -11    1    4    4    0    0  0.96754395287E-01  0.48040637914E-01 -0.13130954130E-01  0.10882094916E+00  0.51100000000E-03 0. -1.
         11    1    4    4    0    0  0.18492862632E-01  0.12505751332E-01  0.57830602689E-02  0.23066961044E-01  0.51100000000E-03 0.  1.
</event>
<event>
 8    1  0.1132492E+005  0.1043930E+01  0.7957747E-01            NaN
         13   -1    0    0    0    0  0.00000000000E+00  0.00000000000E+00  0.74505805969E-08  0.10566000000E+00  0.10566000000E+00 0. -1.
     999900   -1    0    0    0    0 -0.00000000000E+00 -0.00000000000E+00 -0.74505805969E-08  0.93827000000E+00  0.93827000000E+00 0.  1.
     999902    2    1    2    0    0  0.22192186897E-01  0.53193520364E-02  0.75197185286E-02  0.10199022071E+01  0.10196191334E+01 0.  0.
     999903    2    3    3    0    0 -0.66713795933E-01 -0.51317072803E-01  0.95845989379E-01  0.12922073287E+00  0.20672967710E-01 0.  0.
         14    1    1    2    0    0 -0.22192186897E-01 -0.53193520364E-02 -0.75197185286E-02  0.24027792909E-01  0.00000000000E+00 0.  1.
     999901    1    3    3    0    0  0.88905982830E-01  0.56636424839E-01 -0.88326270850E-01  0.89068147422E+00  0.88000000000E+00 0.  1.
        -11    1    4    4    0    0 -0.35896174482E-01 -0.14833674489E-01  0.40500895665E-01  0.56117349474E-01  0.51100000000E-03 0.  1.
         11    1    4    4    0    0 -0.30817621451E-01 -0.36483398314E-01  0.55345093714E-01  0.73103383394E-01  0.51100000000E-03 0. -1.
</event>
<event>
 8    1  0.1132492E+005  0.1043930E+01  0.7957747E-01            NaN
         13   -1    0    0    0    0  0.00000000000E+00  0.00000000000E+00  0.74505805969E-08  0.10566000000E+00  0.10566000000E+00 0.  1.
     999900   -1    0    0    0    0 -0.00000000000E+00 -0.00000000000E+00 -0.74505805969E-08  0.93827000000E+00  0.93827000000E+00 0.  1.
     999902    2    1    2    0    0  0.22501869828E-01 -0.13142850918E-02 -0.68900674209E-02  0.10203602202E+01  0.10200879592E+01 0.  0.
     999903    2    3    3    0    0 -0.50460767492E-01  0.10321232562E+00 -0.56775183215E-01  0.12977733041E+00  0.20485625322E-01 0.  0.
         14    1    1    2    0    0 -0.22501869828E-01  0.13142850918E-02  0.68900674209E-02  0.23569779807E-01  0.00000000000E+00 0. -1.
     999901    1    3    3    0    0  0.72962637320E-01 -0.10452661071E+00  0.49885115794E-01  0.89058288978E+00  0.88000000000E+00 0. -1.
        -11    1    4    4    0    0 -0.30479526528E-01  0.48997883070E-01 -0.19045487477E-01  0.60768295985E-01  0.51100000000E-03 0. -1.
         11    1    4    4    0    0 -0.19981240964E-01  0.54214442548E-01 -0.37729695738E-01  0.69009034428E-01  0.51100000000E-03 0.  1.
</event>
<event>
 8    1  0.1132492E+005  0.1043930E+01  0.7957747E-01            NaN
         13   -1    0    0    0    0  0.00000000000E+00  0.00000000000E+00  0.74505805969E-08  0.10566000000E+00  0.10566000000E+00 0.  1.
     999900   -1    0    0    0    0 -0.00000000000E+00 -0.00000000000E+00 -0.74505805969E-08  0.93827000000E+00  0.93827000000E+00 0. -1.
     999902    2    1    2    0    0  0.15282990245E-01 -0.14427315747E-01  0.10816480005E-01  0.10202928794E+01  0.10200190421E+01 0.  0.
     999903    2    3    3    0    0  0.36110523893E-01 -0.12355247245E+00  0.27175784335E-01  0.13315720048E+00  0.20570206649E-01 0.  0.
         14    1    1    2    0    0 -0.15282990245E-01  0.14427315747E-01 -0.10816480005E-01  0.23637120598E-01  0.00000000000E+00 0. -1.
     999901    1    3    3    0    0 -0.20827533648E-01  0.10912515670E+00 -0.16359304331E-01  0.88713567892E+00  0.88000000000E+00 0.  1.
        -11    1    4    4    0    0  0.17281907696E-01 -0.28959598697E-01  0.10095464677E-01  0.35206564989E-01  0.51100000000E-03 0.  1.
         11    1    4    4    0    0  0.18828616197E-01 -0.94592873748E-01  0.17080319658E-01  0.97950635488E-01  0.51100000000E-03 0. -1.
</event>
<event>
 8    1  0.1132492E+005  0.1043930E+01  0.7957747E-01            NaN
         13   -1    0    0    0    0  0.00000000000E+00  0.00000000000E+00  0.74505805969E-08  0.10566000000E+00  0.10566000000E+00 0.  1.
     999900   -1    0    0    0    0 -0.00000000000E+00 -0.00000000000E+00 -0.74505805969E-08  0.93827000000E+00  0.93827000000E+00 0.  1.
     999902    2    1    2    0    0 -0.15044629393E-01  0.45775737318E-02 -0.16353949872E-01  0.10212419694E+01  0.10209899184E+01 0.  0.
     999903    2    3    3    0    0 -0.71452650364E-01  0.10572538223E+00 -0.35039132349E-01  0.13345715314E+00  0.17312805525E-01 0.  0.
         14    1    1    2    0    0  0.15044629393E-01 -0.45775737318E-02  0.16353949872E-01  0.22688030572E-01  0.00000000000E+00 0.  1.
     999901    1    3    3    0    0  0.56408020970E-01 -0.10114780850E+00  0.18685182478E-01  0.88778481629E+00  0.88000000000E+00 0. -1.
        -11    1    4    4    0    0 -0.12011308718E-01  0.11803070742E-01  0.21030262779E-03  0.16849016715E-01  0.51100000000E-03 0.  1.
         11    1    4    4    0    0 -0.59441341645E-01  0.93922311491E-01 -0.35249434977E-01  0.11660813642E+00  0.51100000000E-03 0. -1.
</event>
<event>
 8    1  0.1132492E+005  0.1043930E+01  0.7957747E-01            NaN
         13   -1    0    0    0    0  0.00000000000E+00  0.00000000000E+00  0.74505805969E-08  0.10566000000E+00  0.10566000000E+00 0. -1.
     999900   -1    0    0    0    0 -0.00000000000E+00 -0.00000000000E+00 -0.74505805969E-08  0.93827000000E+00  0.93827000000E+00 0.  1.
     999902    2    1    2    0    0 -0.59494861225E-02 -0.22413747734E-01 -0.15418689905E-02  0.10206888763E+01  0.10204242413E+01 0.  0.
     999903    2    3    3    0    0 -0.48270235816E-01  0.33820847278E-01  0.11441311738E+00  0.13029630307E+00  0.20319935738E-01 0.  0.
         14    1    1    2    0    0  0.59494861225E-02  0.22413747734E-01  0.15418689905E-02  0.23241123738E-01  0.00000000000E+00 0.  1.
     999901    1    3    3    0    0  0.42320749694E-01 -0.56234595012E-01 -0.11595498637E+00  0.89039257319E+00  0.88000000000E+00 0.  1.
        -11    1    4    4    0    0 -0.14401951452E-01  0.22213359204E-01  0.45839425841E-01  0.52937355574E-01  0.51100000000E-03 0.  1.
         11    1    4    4    0    0 -0.33868284364E-01  0.11607488074E-01  0.68573691541E-01  0.77358947496E-01  0.51100000000E-03 0. -1.
</event>
<event>
 8    1  0.1132492E+005  0.1043930E+01  0.7957747E-01            NaN
         13   -1    0    0    0    0  0.00000000000E+00  0.00000000000E+00  0.74505805969E-08  0.10566000000E+00  0.10566000000E+00 0. -1.
     999900   -1    0    0    0    0 -0.00000000000E+00 -0.00000000000E+00 -0.74505805969E-08  0.93827000000E+00  0.93827000000E+00 0.  1.
     999902    2    1    2    0    0  0.13323770727E-01  0.48700450906E-02  0.18453359327E-01  0.10206541181E+01  0.10203886819E+01 0.  0.
     999903    2    3    3    0    0  0.22647739385E-01  0.17114045475E-01 -0.12441955537E+00  0.12899862319E+00  0.18831048113E-01 0.  0.
         14    1    1    2    0    0 -0.13323770727E-01 -0.48700450906E-02 -0.18453359327E-01  0.23275881853E-01  0.00000000000E+00 0.  1.
     999901    1    3    3    0    0 -0.93239686577E-02 -0.12244000384E-01  0.14287291470E+00  0.89165549496E+00  0.88000000000E+00 0. -1.
        -11    1    4    4    0    0  0.24536057804E-02 -0.40266104435E-02 -0.14475598484E-01  0.15232788499E-01  0.51100000000E-03 0. -1.
         11    1    4    4    0    0  0.20194133605E-01  0.21140655918E-01 -0.10994395689E+00  0.11376583469E+00  0.51100000000E-03 0.  1.
</event>
<event>
 8    1  0.1132492E+005  0.1043930E+01  0.7957747E-01            NaN
         13   -1    0    0    0    0  0.00000000000E+00  0.00000000000E+00  0.74505805969E-08  0.10566000000E+00  0.10566000000E+00 0.  1.
     999900   -1    0    0    0    0 -0.00000000000E+00 -0.00000000000E+00 -0.74505805969E-08  0.93827000000E+00  0.93827000000E+00 0.  1.
     999902    2    1    2    0    0  0.17824760220E-01 -0.13902180824E-01 -0.89858534060E-02  0.10196043290E+01  0.10193141073E+01 0.  0.
     999903    2    3    3    0    0  0.65938531609E-01  0.45302475368E-01 -0.10234494595E+00  0.13138360953E+00  0.19671315837E-01 0.  0.
         14    1    1    2    0    0 -0.17824760220E-01  0.13902180824E-01  0.89858534060E-02  0.24325671009E-01  0.00000000000E+00 0.  1.
     999901    1    3    3    0    0 -0.48113771388E-01 -0.59204656193E-01  0.93359092548E-01  0.88822071946E+00  0.88000000000E+00 0. -1.
        -11    1    4    4    0    0  0.11596527980E-01  0.16487532005E-01 -0.33151076213E-01  0.38801715786E-01  0.51100000000E-03 0. -1.
         11    1    4    4    0    0  0.54342003629E-01  0.28814943363E-01 -0.69193869740E-01  0.92581893748E-01  0.51100000000E-03 0.  1.
</event>
<event>
 8    1  0.1132492E+005  0.1043930E+01  0.7957747E-01            NaN
         13   -1    0    0    0    0  0.00000000000E+00  0.00000000000E+00  0.74505805969E-08  0.10566000000E+00  0.10566000000E+00 0.  1.
     999900   -1    0    0    0    0 -0.00000000000E+00 -0.00000000000E+00 -0.74505805969E-08  0.93827000000E+00  0.93827000000E+00 0.  1.
     999902    2    1    2    0    0 -0.13109740614E-01  0.20163170563E-01  0.29270582578E-02  0.10197021975E+01  0.10194143343E+01 0.  0.
     999903    2    3    3    0    0  0.33324733028E-01 -0.94522774699E-01  0.76942652234E-01  0.12796942665E+00  0.20270906612E-01 0.  0.
         14    1    1    2    0    0  0.13109740614E-01 -0.20163170563E-01 -0.29270582578E-02  0.24227802545E-01  0.00000000000E+00 0. -1.
     999901    1    3    3    0    0 -0.46434473642E-01  0.11468594526E+00 -0.74015593977E-01  0.89173277081E+00  0.88000000000E+00 0. -1.
        -11    1    4    4    0    0  0.19045447702E-01 -0.41262178967E-01  0.46321388646E-01  0.64893980140E-01  0.51100000000E-03 0. -1.
         11    1    4    4    0    0  0.14279285326E-01 -0.53260595732E-01  0.30621263589E-01  0.63075446506E-01  0.51100000000E-03 0.  1.
</event>
<event>
 8    1  0.1132492E+005  0.1043930E+01  0.7957747E-01            NaN
         13   -1    0    0    0    0  0.00000000000E+00  0.00000000000E+00  0.74505805969E-08  0.10566000000E+00  0.10566000000E+00 0. -1.
     999900   -1    0    0    0    0 -0.00000000000E+00 -0.00000000000E+00 -0.74505805969E-08  0.93827000000E+00  0.93827000000E+00 0. -1.
     999902    2    1    2    0    0 -0.65045738057E-02 -0.14827833059E-01 -0.17187975151E-01  0.10203164318E+01  0.10200431463E+01 0.  0.
     999903    2    3    3    0    0 -0.52170589648E-01  0.39502791185E-01  0.10875350133E+00  0.12852135599E+00  0.20203315535E-01 0.  0.
         14    1    1    2    0    0  0.65045738057E-02  0.14827833059E-01  0.17187975151E-01  0.23613568206E-01  0.00000000000E+00 0. -1.
     999901    1    3    3    0    0  0.45666015843E-01 -0.54330624245E-01 -0.12594147648E+00  0.89179507581E+00  0.88000000000E+00 0. -1.
        -11    1    4    4    0    0 -0.36209281209E-01  0.36576073180E-01  0.73735569655E-01  0.89922836523E-01  0.51100000000E-03 0. -1.
         11    1    4    4    0    0 -0.15961308439E-01  0.29267180051E-02  0.35017931671E-01  0.38598519465E-01  0.51100000000E-03 0.  1.
</event>
<event>
 8    1  0.1132492E+005  0.1043930E+01  0.7957747E-01            NaN
         13   -1    0    0    0    0  0.00000000000E+00  0.00000000000E+00  0.74505805969E-08  0.10566000000E+00  0.10566000000E+00 0. -1.
     999900   -1    0    0    0    0 -0.00000000000E+00 -0.00000000000E+00 -0.74505805969E-08  0.93827000000E+00  0.93827000000E+00 0.  1.
     999902    2    1    2    0    0 -0.21177431452E-01  0.92279651165E-02 -0.56461912463E-02  0.10201493688E+01  0.10198721568E+01 0.  0.
     999903    2    3    3    0    0 -0.63538901738E-02  0.10166894287E+00  0.79846066695E-01  0.13106332243E+00  0.20621693803E-01 0.  0.
         14    1    1    2    0    0  0.21177431452E-01 -0.92279651165E-02  0.56461912463E-02  0.23780631167E-01  0.00000000000E+00 0. -1.
     999901    1    3    3    0    0 -0.14823541279E-01 -0.92440977750E-01 -0.85492257942E-01  0.88908604640E+00  0.88000000000E+00 0. -1.
        -11    1    4    4    0    0 -0.57764192051E-02  0.55273987101E-01  0.55982321151E-01  0.78885119454E-01  0.51100000000E-03 0. -1.
         11    1    4    4    0    0 -0.57747096868E-03  0.46394955765E-01  0.23863745544E-01  0.52178202974E-01  0.51100000000E-03 0.  1.
</event>
<event>
 8    1  0.1132492E+005  0.1043930E+01  0.7957747E-01            NaN
         13   -1    0    0    0    0  0.00000000000E+00  0.00000000000E+00  0.74505805969E-08  0.10566000000E+00  0.10566000000E+00 0.  1.
     999900   -1    0    0    0    0 -0.00000000000E+00 -0.00000000000E+00 -0.74505805969E-08  0.93827000000E+00  0.93827000000E+00 0. -1.
     999902    2    1    2    0    0 -0.16571825453E-01  0.74512961432E-02  0.15136927429E-01  0.10202810299E+01  0.10200069148E+01 0.  0.
     999903    2    3    3    0    0 -0.60432234721E-01  0.11575972575E+00 -0.85644855485E-02  0.13224037298E+00  0.19020955118E-01 0.  0.
         14    1    1    2    0    0  0.16571825453E-01 -0.74512961432E-02 -0.15136927429E-01  0.23648970064E-01  0.00000000000E+00 0.  1.
     999901    1    3    3    0    0  0.43860409268E-01 -0.10830842961E+00  0.23701412978E-01  0.88804065695E+00  0.88000000000E+00 0. -1.
        -11    1    4    4    0    0 -0.43936599628E-01  0.71471604221E-01 -0.12454578914E-01  0.84817407728E-01  0.51100000000E-03 0. -1.
         11    1    4    4    0    0 -0.16495635093E-01  0.44288121534E-01  0.38900933651E-02  0.47422965255E-01  0.51100000000E-03 0.  1.
</event>
<event>
 8    1  0.1132492E+005  0.1043930E+01  0.7957747E-01            NaN
         13   -1    0    0    0    0  0.00000000000E+00  0.00000000000E+00  0.74505805969E-08  0.10566000000E+00  0.10566000000E+00 0. -1.
     999900   -1    0    0    0    0 -0.00000000000E+00 -0.00000000000E+00 -0.74505805969E-08  0.93827000000E+00  0.93827000000E+00 0. -1.
     999902    2    1    2    0    0 -0.22231772045E-01 -0.74400266723E-02  0.41842845296E-02  0.10201158462E+01  0.10198378428E+01 0.  0.
     999903    2    3    3    0    0 -0.51081383437E-01  0.47411992267E-01 -0.10869852052E+00  0.13074327423E+00  0.20523904332E-01 0.  0.
         14    1    1    2    0    0  0.22231772045E-01  0.74400266723E-02 -0.41842845296E-02  0.23814153820E-01  0.00000000000E+00 0.  1.
     999901    1    3    3    0    0  0.28849611392E-01 -0.54852018940E-01  0.11288280505E+00  0.88937257195E+00  0.88000000000E+00 0.  1.
        -11    1    4    4    0    0 -0.27788103610E-01  0.22514073183E-01 -0.73474790555E-01  0.81718224171E-01  0.51100000000E-03 0. -1.
         11    1    4    4    0    0 -0.23293279827E-01  0.24897919084E-01 -0.35223729964E-01  0.49025050060E-01  0.51100000000E-03 0.  1.
</event>
<event>
 8    1  0.1132492E+005  0.1043930E+01  0.7957747E-01            NaN
         13   -1    0    0    0    0  0.00000000000E+00  0.00000000000E+00  0.74505805969E-08  0.10566000000E+00  0.10566000000E+00 0. -1.
     999900   -1    0    0    0    0 -0.00000000000E+00 -0.00000000000E+00 -0.74505805969E-08  0.93827000000E+00  0.93827000000E+00 0.  1.
     999902    2    1    2    0    0 -0.74698587618E-02 -0.20079279775E-01 -0.10494704123E-01  0.10200738670E+01  0.10197948711E+01 0.  0.
     999903    2    3    3    0    0  0.82978894781E-01 -0.41730938203E-01 -0.90994806192E-01  0.13151883903E+00  0.19753027199E-01 0.  0.
         14    1    1    2    0    0  0.74698587618E-02  0.20079279775E-01  0.10494704123E-01  0.23856132982E-01  0.00000000000E+00 0. -1.
     999901    1    3    3    0    0 -0.90448753543E-01  0.21651658428E-01  0.80500102069E-01  0.88855502799E+00  0.88000000000E+00 0. -1.
        -11    1    4    4    0    0  0.29990543191E-01 -0.24790315192E-01 -0.43548101275E-01  0.58401118601E-01  0.51100000000E-03 0.  1.
         11    1    4    4    0    0  0.52988351590E-01 -0.16940623011E-01 -0.47446704917E-01  0.73117720429E-01  0.51100000000E-03 0. -1.
</event>
<event>
 8    1  0.1132492E+005  0.1043930E+01  0.7957747E-01            NaN
         13   -1    0    0    0    0  0.00000000000E+00  0.00000000000E+00  0.74505805969E-08  0.10566000000E+00  0.10566000000E+00 0. -1.
     999900   -1    0    0    0    0 -0.00000000000E+00 -0.00000000000E+00 -0.74505805969E-08  0.93827000000E+00  0.93827000000E+00 0.  1.
     999902    2    1    2    0    0  0.12572877993E-02  0.20919152969E-01 -0.77873027616E-02  0.10215730365E+01  0.10213283679E+01 0.  0.
     999903    2    3    3    0    0  0.60893397135E-01 -0.41677563793E-01  0.10496750866E+00  0.13017612041E+00  0.21968598290E-01 0.  0.
         14    1    1    2    0    0 -0.12572877993E-02 -0.20919152969E-01  0.77873027616E-02  0.22356963520E-01  0.00000000000E+00 0. -1.
     999901    1    3    3    0    0 -0.59636109335E-01  0.62596716762E-01 -0.11275481142E+00  0.89139691607E+00  0.88000000000E+00 0.  1.
        -11    1    4    4    0    0  0.45247243167E-01 -0.37226019711E-01  0.67862032526E-01  0.89658274226E-01  0.51100000000E-03 0. -1.
         11    1    4    4    0    0  0.15646153967E-01 -0.44515440828E-02  0.37105476138E-01  0.40517846180E-01  0.51100000000E-03 0.  1.
</event>
<event>
 7    1  0.1132492E+005  0.1043930E+01  0.7957747E-01            NaN
         13   -1    0    0    0    0  0.00000000000E+00  0.00000000000E+00  0.74505805969E-08  0.10566000000E+00  0.10566000000E+00 0.  1.
     999900   -1    0    0    0    0 -0.00000000000E+00 -0.00000000000E+00 -0.74505805969E-08  0.93827000000E+00  0.93827000000E+00 0.  1.
     999902    2    1    2    0    0  0.14954943468E-02  0.43283532291E-02  0.23288431014E-01  0.10201955911E+01  0.10199194684E+01 0.  0.
         14    1    1    2    0    0 -0.14954943468E-02 -0.43283532291E-02 -0.23288431014E-01  0.23734408864E-01  0.00000000000E+00 0. -1.
     999901    1    3    3    0    0  0.21175380506E-02  0.31832149659E-01  0.12356718414E+00  0.88920561105E+00  0.88000000000E+00 0. -1.
        -11    1    3    3    0    0  0.27824967741E-01 -0.38963491031E-01 -0.36460035047E-01  0.60182869155E-01  0.51100000000E-03 0.  1.
         11    1    3    3    0    0 -0.28447011445E-01  0.11459694601E-01 -0.63818718081E-01  0.70807110935E-01  0.51100000000E-03 0. -1.
</event>
<event>
 8    1  0.1132492E+005  0.1043930E+01  0.7957747E-01            NaN
         13   -1    0    0    0    0  0.00000000000E+00  0.00000000000E+00  0.74505805969E-08  0.10566000000E+00  0.10566000000E+00 0. -1.
     999900   -1    0    0    0    0 -0.00000000000E+00 -0.00000000000E+00 -0.74505805969E-08  0.93827000000E+00  0.93827000000E+00 0.  1.
     999902    2    1    2    0    0  0.90257298878E-02 -0.17794013752E-01  0.10865707351E-01  0.10212109701E+01  0.10209582220E+01 0.  0.
     999903    2    3    3    0    0  0.41045409636E-01  0.69855942661E-02  0.12490943964E+00  0.13292877292E+00  0.18280218300E-01 0.  0.
         14    1    1    2    0    0 -0.90257298878E-02  0.17794013752E-01 -0.10865707351E-01  0.22719029945E-01  0.00000000000E+00 0.  1.
     999901    1    3    3    0    0 -0.32019679748E-01 -0.24779608018E-01 -0.11404373229E+00  0.88828219713E+00  0.88000000000E+00 0.  1.
        -11    1    4    4    0    0  0.34981627924E-01  0.84630754243E-03  0.81969152929E-01  0.89127064809E-01  0.51100000000E-03 0. -1.
         11    1    4    4    0    0  0.60637817115E-02  0.61392867236E-02  0.42940286709E-01  0.43801708115E-01  0.51100000000E-03 0.  1.
</event>
<event>
 8    1  0.1132492E+005  0.1043930E+01  0.7957747E-01            NaN
         13   -1    0    0    0    0  0.00000000000E+00  0.00000000000E+00  0.74505805969E-08  0.10566000000E+00  0.10566000000E+00 0.  1.
     999900   -1    0    0    0    0 -0.00000000000E+00 -0.00000000000E+00 -0.74505805969E-08  0.93827000000E+00  0.93827000000E+00 0.  1.
     999902    2    1    2    0    0  0.11191229525E-01  0.15205846832E-01 -0.13917049075E-01  0.10204748161E+01  0.10202052267E+01 0.  0.
     999903    2    3    3    0    0  0.71111656549E-01 -0.87240864867E-02  0.10632724239E+00  0.12995710775E+00  0.21222393764E-01 0.  0.
         14    1    1    2    0    0 -0.11191229525E-01 -0.15205846832E-01  0.13917049075E-01  0.23455183886E-01  0.00000000000E+00 0.  1.
     999901    1    3    3    0    0 -0.59920427024E-01  0.23929933318E-01 -0.12024429147E+00  0.89051770837E+00  0.88000000000E+00 0.  1.
        -11    1    4    4    0    0  0.54837322920E-01 -0.12681684604E-01  0.92279263086E-01  0.10809107561E+00  0.51100000000E-03 0. -1.
         11    1    4    4    0    0  0.16274333629E-01  0.39575981173E-02  0.14047979308E-01  0.21866032140E-01  0.51100000000E-03 0.  1.
</event>
<event>
 8    1  0.1132492E+005  0.1043930E+01  0.7957747E-01            NaN
         13   -1    0    0    0    0  0.00000000000E+00  0.00000000000E+00  0.74505805969E-08  0.10566000000E+00  0.10566000000E+00 0.  1.
     999900   -1    0    0    0    0 -0.00000000000E+00 -0.00000000000E+00 -0.74505805969E-08  0.93827000000E+00  0.93827000000E+00 0. -1.
     999902    2    1    2    0    0 -0.19354053820E-01 -0.12752310888E-01  0.61970856492E-02  0.10199382368E+01  0.10196560215E+01 0.  0.
     999903    2    3    3    0    0  0.11232526327E+00  0.31096885874E-01 -0.47645986431E-01  0.12743542388E+00  0.19638384767E-01 0.  0.
         14    1    1    2    0    0  0.19354053820E-01  0.12752310888E-01 -0.61970856492E-02  0.23991763228E-01  0.00000000000E+00 0. -1.
     999901    1    3    3    0    0 -0.13167931709E+00 -0.43849196762E-01  0.53843072080E-01  0.89250281289E+00  0.88000000000E+00 0.  1.
        -11    1    4    4    0    0  0.50966517163E-01  0.21627288547E-01 -0.15378073745E-01  0.57463655946E-01  0.51100000000E-03 0.  1.
         11    1    4    4    0    0  0.61358746110E-01  0.94695973267E-02 -0.32267912686E-01  0.69971767934E-01  0.51100000000E-03 0. -1.
</event>
<event>
 8    1  0.1132492E+005  0.1043930E+01  0.7957747E-01            NaN
         13   -1    0    0    0    0  0.00000000000E+00  0.00000000000E+00  0.74505805969E-08  0.10566000000E+00  0.10566000000E+00 0.  1.
     999900   -1    0    0    0    0 -0.00000000000E+00 -0.00000000000E+00 -0.74505805969E-08  0.93827000000E+00  0.93827000000E+00 0. -1.
     999902    2    1    2    0    0 -0.13565296258E-01  0.16873401480E-01  0.74075769295E-03  0.10222671825E+01  0.10220376288E+01 0.  0.
     999903    2    3    3    0    0  0.51145328400E-01 -0.83619031377E-01 -0.80772852683E-01  0.13045405035E+00  0.29766062815E-01 0.  0.
         14    1    1    2    0    0  0.13565296258E-01 -0.16873401480E-01 -0.74075769295E-03  0.21662817500E-01  0.00000000000E+00 0. -1.
     999901    1    3    3    0    0 -0.64710624659E-01  0.10049243286E+00  0.81513610376E-01  0.89181313215E+00  0.88000000000E+00 0.  1.
        -11    1    4    4    0    0  0.19170413808E-01 -0.44728979881E-01 -0.56465492641E-01  0.74543942658E-01  0.51100000000E-03 0.  1.
         11    1    4    4    0    0  0.31974914592E-01 -0.38890051496E-01 -0.24307360043E-01  0.55910107689E-01  0.51100000000E-03 0. -1.
</event>
<event>
 8    1  0.1132492E+005  0.1043930E+01  0.7957747E-01            NaN
         13   -1    0    0    0    0  0.00000000000E+00  0.00000000000E+00  0.74505805969E-08  0.10566000000E+00  0.10566000000E+00 0. -1.
     999900   -1    0    0    0    0 -0.00000000000E+00 -0.00000000000E+00 -0.74505805969E-08  0.93827000000E+00  0.93827000000E+00 0. -1.
     999902    2    1    2    0    0  0.70469362002E-02 -0.21964366686E-01  0.44913379187E-02  0.10204296845E+01  0.10201590445E+01 0.  0.
     999903    2    3    3    0    0 -0.62215533550E-01 -0.24350524560E-01  0.11105274484E+00  0.13129622041E+00  0.21030090232E-01 0.  0.
         14    1    1    2    0    0 -0.70469362002E-02  0.21964366686E-01 -0.44913379187E-02  0.23500315531E-01  0.00000000000E+00 0. -1.
     999901    1    3    3    0    0  0.69262469750E-01  0.23861578733E-02 -0.10656140693E+00  0.88913346406E+00  0.88000000000E+00 0. -1.
        -11    1    4    4    0    0 -0.41152821799E-01 -0.19062138791E-01  0.91256485628E-01  0.10190646284E+00  0.51100000000E-03 0. -1.
         11    1    4    4    0    0 -0.21062711751E-01 -0.52883857687E-02  0.19796259216E-01  0.29389757574E-01  0.51100000000E-03 0.  1.
</event>
<event>
 8    1  0.1132492E+005  0.1043930E+01  0.7957747E-01            NaN
         13   -1    0    0    0    0  0.00000000000E+00  0.00000000000E+00  0.74505805969E-08  0.10566000000E+00  0.10566000000E+00 0.  1.
     999900   -1    0    0    0    0 -0.00000000000E+00 -0.00000000000E+00 -0.74505805969E-08  0.93827000000E+00  0.93827000000E+00 0.  1.
     999902    2    1    2    0    0  0.18892394833E-01 -0.87035525610E-02  0.93435357412E-02  0.10211270162E+01  0.10208723755E+01 0.  0.
     999903    2    3    3    0    0  0.10052870085E+00 -0.23575216911E-01 -0.80890773931E-01  0.13262947344E+00  0.19632864560E-01 0.  0.
         14    1    1    2    0    0 -0.18892394833E-01  0.87035525610E-02 -0.93435357412E-02  0.22802983793E-01  0.00000000000E+00 0.  1.
     999901    1    3    3    0    0 -0.81636306017E-01  0.14871664350E-01  0.90234309672E-01  0.88849754277E+00  0.88000000000E+00 0. -1.
        -11    1    4    4    0    0  0.53622351686E-01 -0.37361374066E-02 -0.35611991873E-01  0.64480930586E-01  0.51100000000E-03 0. -1.
         11    1    4    4    0    0  0.46906349164E-01 -0.19839079505E-01 -0.45278782058E-01  0.68148542854E-01  0.51100000000E-03 0.  1.
</event>
<event>
 8    1  0.1132492E+005  0.1043930E+01  0.7957747E-01            NaN
         13   -1    0    0    0    0  0.00000000000E+00  0.00000000000E+00  0.74505805969E-08  0.10566000000E+00  0.10566000000E+00 0. -1.
     999900   -1    0    0    0    0 -0.00000000000E+00 -0.00000000000E+00 -0.74505805969E-08  0.93827000000E+00  0.93827000000E+00 0. -1.
     999902    2    1    2    0    0  0.46503476506E-03  0.20339330371E-01  0.16361059754E-01  0.10178227425E+01  0.10174878605E+01 0.  0.
     999903    2    3    3    0    0  0.83981401603E-01  0.94494784107E-01 -0.22438342171E-01  0.12991542278E+00  0.19809034234E-01 0.  0.
         14    1    1    2    0    0 -0.46503476506E-03 -0.20339330371E-01 -0.16361059754E-01  0.26107257488E-01  0.00000000000E+00 0.  1.
     999901    1    3    3    0    0 -0.83516366838E-01 -0.74155453737E-01  0.38799401926E-01  0.88790731973E+00  0.88000000000E+00 0.  1.
        -11    1    4    4    0    0  0.17140845093E-01  0.31000966771E-01 -0.19953419056E-02  0.35483954424E-01  0.51100000000E-03 0.  1.
         11    1    4    4    0    0  0.66840556510E-01  0.63493817336E-01 -0.20443000266E-01  0.94431468353E-01  0.51100000000E-03 0. -1.
</event>
<event>
 8    1  0.1132492E+005  0.1043930E+01  0.7957747E-01            NaN
         13   -1    0    0    0    0  0.00000000000E+00  0.00000000000E+00  0.74505805969E-08  0.10566000000E+00  0.10566000000E+00 0.  1.
     999900   -1    0    0    0    0 -0.00000000000E+00 -0.00000000000E+00 -0.74505805969E-08  0.93827000000E+00  0.93827000000E+00 0.  1.
     999902    2    1    2    0    0  0.22300558248E-02  0.19941347537E-01 -0.12158202481E-01  0.10204682784E+01  0.10201985370E+01 0.  0.
     999903    2    3    3    0    0  0.22176328178E-01 -0.12353829192E+00 -0.20204203019E-01  0.12858880293E+00  0.19322818618E-01 0.  0.
         14    1    1    2    0    0 -0.22300558248E-02 -0.19941347537E-01  0.12158202481E-01  0.23461721551E-01  0.00000000000E+00 0.  1.
     999901    1    3    3    0    0 -0.19946272353E-01  0.14347963945E+00  0.80460005380E-02  0.89187947551E+00  0.88000000000E+00 0.  1.
        -11    1    4    4    0    0  0.82179048557E-02 -0.82309225262E-01 -0.19797184990E-01  0.85056053153E-01  0.51100000000E-03 0. -1.
         11    1    4    4    0    0  0.13958423322E-01 -0.41229066655E-01 -0.40701802857E-03  0.43532749782E-01  0.51100000000E-03 0.  1.
</event>
<event>
 8    1  0.1132492E+005  0.1043930E+01  0.7957747E-01            NaN
         13   -1    0    0    0    0  0.00000000000E+00  0.00000000000E+00  0.74505805969E-08  0.10566000000E+00  0.10566000000E+00 0. -1.
     999900   -1    0    0    0    0 -0.00000000000E+00 -0.00000000000E+00 -0.74505805969E-08  0.93827000000E+00  0.93827000000E+00 0.  1.
     999902    2    1    2    0    0  0.46309009478E-03  0.20744233064E-01 -0.76352614949E-02  0.10218203895E+01  0.10215811635E+01 0.  0.
     999903    2    3    3    0    0  0.32654262254E-01 -0.10317751446E+00  0.67856668346E-01  0.12935643923E+00  0.20412265882E-01 0.  0.
         14    1    1    2    0    0 -0.46309009478E-03 -0.20744233064E-01  0.76352614949E-02  0.22109610489E-01  0.00000000000E+00 0. -1.
     999901    1    3    3    0    0 -0.32191172160E-01  0.12392174753E+00 -0.75491929841E-01  0.89246395028E+00  0.88000000000E+00 0.  1.
        -11    1    4    4    0    0  0.29559072620E-01 -0.95351990998E-01  0.54988975547E-01  0.11397275777E+00  0.51100000000E-03 0. -1.
         11    1    4    4    0    0  0.30951896345E-02 -0.78255234632E-02  0.12867692799E-01  0.15383681462E-01  0.51100000000E-03 0.  1.
</event>
<event>
 8    1  0.1132492E+005  0.1043930E+01  0.7957747E-01            NaN
         13   -1    0    0    0    0  0.00000000000E+00  0.00000000000E+00  0.74505805969E-08  0.10566000000E+00  0.10566000000E+00 0. -1.
     999900   -1    0    0    0    0 -0.00000000000E+00 -0.00000000000E+00 -0.74505805969E-08  0.93827000000E+00  0.93827000000E+00 0.  1.
     999902    2    1    2    0    0 -0.22290786138E-01  0.14638388025E-02 -0.53018127980E-02  0.10209706623E+01  0.10207124776E+01 0.  0.
     999903    2    3    3    0    0  0.78566601165E-01  0.17242576103E-01 -0.10010026666E+00  0.13001166882E+00  0.20321254779E-01 0.  0.
         14    1    1    2    0    0  0.22290786138E-01 -0.14638388025E-02  0.53018127980E-02  0.22959337743E-01  0.00000000000E+00 0.  1.
     999901    1    3    3    0    0 -0.10085738730E+00 -0.15778737301E-01  0.94798453862E-01  0.89095899343E+00  0.88000000000E+00 0. -1.
        -11    1    4    4    0    0  0.56782201988E-01  0.94669705135E-02 -0.56548346259E-01  0.80695839911E-01  0.51100000000E-03 0. -1.
         11    1    4    4    0    0  0.21784399176E-01  0.77756055897E-02 -0.43551920400E-01  0.49315828912E-01  0.51100000000E-03 0.  1.
</event>
<event>
 8    1  0.1132492E+005  0.1043930E+01  0.7957747E-01            NaN
         13   -1    0    0    0    0  0.00000000000E+00  0.00000000000E+00  0.74505805969E-08  0.10566000000E+00  0.10566000000E+00 0.  1.
     999900   -1    0    0    0    0 -0.00000000000E+00 -0.00000000000E+00 -0.74505805969E-08  0.93827000000E+00  0.93827000000E+00 0.  1.
     999902    2    1    2    0    0  0.85296771055E-02  0.21327944832E-01 -0.31351250666E-02  0.10207466950E+01  0.10204833902E+01 0.  0.
     999903    2    3    3    0    0 -0.21933524690E-01  0.12327121082E+00 -0.41766487257E-01  0.13349655084E+00  0.20000467624E-01 0.  0.
         14    1    1    2    0    0 -0.85296771055E-02 -0.21327944832E-01  0.31351250666E-02  0.23183305016E-01  0.00000000000E+00 0.  1.
     999901    1    3    3    0    0  0.30463201795E-01 -0.10194326599E+00  0.38631362190E-01  0.88725014415E+00  0.88000000000E+00 0. -1.
        -11    1    4    4    0    0 -0.20386326922E-01  0.60691664973E-01 -0.24550532226E-01  0.68571643382E-01  0.51100000000E-03 0.  1.
         11    1    4    4    0    0 -0.15471977682E-02  0.62579545848E-01 -0.17215955031E-01  0.64924907455E-01  0.51100000000E-03 0. -1.
</event>
<event>
 8    1  0.1132492E+005  0.1043930E+01  0.7957747E-01            NaN
         13   -1    0    0    0    0  0.00000000000E+00  0.00000000000E+00  0.74505805969E-08  0.10566000000E+00  0.10566000000E+00 0.  1.
     999900   -1    0    0    0    0 -0.00000000000E+00 -0.00000000000E+00 -0.74505805969E-08  0.93827000000E+00  0.93827000000E+00 0.  1.
     999902    2    1    2    0    0  0.71633188062E-02 -0.22761326456E-01  0.50141049171E-02  0.10195469656E+01  0.10192553570E+01 0.  0.
     999903    2    3    3    0    0 -0.19346591994E-01  0.30029620612E-01  0.12308957417E+00  0.12969783462E+00  0.19859916929E-01 0.  0.
         14    1    1    2    0    0 -0.71633188062E-02  0.22761326456E-01 -0.50141049171E-02  0.24383034399E-01  0.00000000000E+00 0.  1.
     999901    1    3    3    0    0  0.26509910800E-01 -0.52790947068E-01 -0.11807546925E+00  0.88984913098E+00  0.88000000000E+00 0.  1.
        -11    1    4    4    0    0  0.21050267779E-02  0.30279823028E-02  0.33377144326E-01  0.33584143564E-01  0.51100000000E-03 0.  1.
         11    1    4    4    0    0 -0.21451618771E-01  0.27001638309E-01  0.89712429845E-01  0.96113691059E-01  0.51100000000E-03 0. -1.
</event>
<event>
 8    1  0.1132492E+005  0.1043930E+01  0.7957747E-01            NaN
         13   -1    0    0    0    0  0.00000000000E+00  0.00000000000E+00  0.74505805969E-08  0.10566000000E+00  0.10566000000E+00 0.  1.
     999900   -1    0    0    0    0 -0.00000000000E+00 -0.00000000000E+00 -0.74505805969E-08  0.93827000000E+00  0.93827000000E+00 0.  1.
     999902    2    1    2    0    0  0.16203390048E-02  0.23202657272E-01  0.32917322828E-03  0.10206685048E+01  0.10204034004E+01 0.  0.
     999903    2    3    3    0    0  0.70510752898E-01  0.97941772971E-01 -0.52698978953E-01  0.13323185386E+00  0.20228379410E-01 0.  0.
         14    1    1    2    0    0 -0.16203390048E-02 -0.23202657272E-01 -0.32917322828E-03  0.23261495180E-01  0.00000000000E+00 0. -1.
     999901    1    3    3    0    0 -0.68890413894E-01 -0.74739115699E-01  0.53028152181E-01  0.88743665096E+00  0.88000000000E+00 0.  1.
        -11    1    4    4    0    0  0.36784396023E-01  0.49576669562E-01 -0.37890637311E-01  0.72435484899E-01  0.51100000000E-03 0.  1.
         11    1    4    4    0    0  0.33726356875E-01  0.48365103409E-01 -0.14808341642E-01  0.60796368962E-01  0.51100000000E-03 0. -1.
</event>
<event>
 8    1  0.1132492E+005  0.1043930E+01  0.7957747E-01            NaN
         13   -1    0    0    0    0  0.00000000000E+00  0.00000000000E+00  0.74505805969E-08  0.10566000000E+00  0.10566000000E+00 0. -1.
     999900   -1    0    0    0    0 -0.00000000000E+00 -0.00000000000E+00 -0.74505805969E-08  0.93827000000E+00  0.93827000000E+00 0.  1.
     999902    2    1    2    0    0 -0.21669684710E-01 -0.22929891767E-02  0.44350838708E-02  0.10216925765E+01  0.10214505460E+01 0.  0.
     999903    2    3    3    0    0 -0.29247733580E-01 -0.10261649155E+00  0.76854932531E-01  0.13300429233E+00  0.19947101708E-01 0.  0.
         14    1    1    2    0    0  0.21669684710E-01  0.22929891767E-02 -0.44350838708E-02  0.22237423496E-01  0.00000000000E+00 0.  1.
     999901    1    3    3    0    0  0.75780488701E-02  0.10032350237E+00 -0.72419848660E-01  0.88868828418E+00  0.88000000000E+00 0.  1.
        -11    1    4    4    0    0 -0.11746137061E-02 -0.25629198028E-01  0.11196526511E-01  0.27997479097E-01  0.51100000000E-03 0. -1.
         11    1    4    4    0    0 -0.28073119874E-01 -0.76987293518E-01  0.65658406020E-01  0.10500681323E+00  0.51100000000E-03 0.  1.
</event>
<event>
 8    1  0.1132492E+005  0.1043930E+01  0.7957747E-01            NaN
         13   -1    0    0    0    0  0.00000000000E+00  0.00000000000E+00  0.74505805969E-08  0.10566000000E+00  0.10566000000E+00 0.  1.
     999900   -1    0    0    0    0 -0.00000000000E+00 -0.00000000000E+00 -0.74505805969E-08  0.93827000000E+00  0.93827000000E+00 0. -1.
     999902    2    1    2    0    0  0.47908848788E-02 -0.12230201577E-02  0.23465035013E-01  0.10199496701E+01  0.10196677269E+01 0.  0.
     999903    2    3    3    0    0  0.70281419209E-01  0.55497403785E-01  0.95788177947E-01  0.13274233601E+00  0.20632814189E-01 0.  0.
         14    1    1    2    0    0 -0.47908848788E-02  0.12230201577E-02 -0.23465035013E-01  0.23980329948E-01  0.00000000000E+00 0. -1.
     999901    1    3    3    0    0 -0.65490534331E-01 -0.56720423943E-01 -0.72323142933E-01  0.88720733404E+00  0.88000000000E+00 0. -1.
        -11    1    4    4    0    0  0.17926848653E-01  0.26090457960E-01  0.37157818544E-01  0.48816477742E-01  0.51100000000E-03 0. -1.
         11    1    4    4    0    0  0.52354570556E-01  0.29406945825E-01  0.58630359402E-01  0.83925858265E-01  0.51100000000E-03 0.  1.
</event>
<event>
 8    1  0.1132492E+005  0.1043930E+01  0.7957747E-01            NaN
         13   -1    0    0    0    0  0.00000000000E+00  0.00000000000E+00  0.74505805969E-08  0.10566000000E+00  0.10566000000E+00 0.  1.
     999900   -1    0    0    0    0 -0.00000000000E+00 -0.00000000000E+00 -0.74505805969E-08  0.93827000000E+00  0.93827000000E+00 0.  1.
     999902    2    1    2    0    0 -0.10749365460E-01 -0.21601694054E-01  0.12492020325E-02  0.10197692353E+01  0.10194829821E+01 0.  0.
     999903    2    3    3    0    0  0.93864566916E-01  0.50040888291E-01  0.68432914235E-01  0.12814690181E+00  0.20589251282E-01 0.  0.
         14    1    1    2    0    0  0.10749365460E-01  0.21601694054E-01 -0.12492020325E-02  0.24160764672E-01  0.00000000000E+00 0.  1.
     999901    1    3    3    0    0 -0.10461393238E+00 -0.71642582345E-01 -0.67183712203E-01  0.89162233352E+00  0.88000000000E+00 0. -1.
        -11    1    4    4    0    0  0.55578187556E-01  0.18035708546E-01  0.36195496083E-01  0.68735702313E-01  0.51100000000E-03 0.  1.
         11    1    4    4    0    0  0.38286379359E-01  0.32005179745E-01  0.32237418152E-01  0.59411199492E-01  0.51100000000E-03 0. -1.
</event>
<event>
 8    1  0.1132492E+005  0.1043930E+01  0.7957747E-01            NaN
         13   -1    0    0    0    0  0.00000000000E+00  0.00000000000E+00  0.74505805969E-08  0.10566000000E+00  0.10566000000E+00 0. -1.
     999900   -1    0    0    0    0 -0.00000000000E+00 -0.00000000000E+00 -0.74505805969E-08  0.93827000000E+00  0.93827000000E+00 0.  1.
     999902    2    1    2    0    0  0.16163111547E-01  0.16596341356E-01  0.57811608141E-02  0.10200530961E+01  0.10197736083E+01 0.  0.
     999903    2    3    3    0    0 -0.12425964709E-01 -0.95200681526E-01  0.83958663553E-01  0.12908304520E+00  0.19894748290E-01 0.  0.
         14    1    1    2    0    0 -0.16163111547E-01 -0.16596341356E-01 -0.57811608141E-02  0.23876903938E-01  0.00000000000E+00 0. -1.
     999901    1    3    3    0    0  0.28589076256E-01  0.11179702288E+00 -0.78177502739E-01  0.89097005087E+00  0.88000000000E+00 0.  1.
        -11    1    4    4    0    0  0.35758505382E-03 -0.60151865828E-01  0.58529923015E-01  0.83930851531E-01  0.51100000000E-03 0.  1.
         11    1    4    4    0    0 -0.12783549763E-01 -0.35048815698E-01  0.25428740538E-01  0.45152193665E-01  0.51100000000E-03 0. -1.
</event>
<event>
 8    1  0.1132492E+005  0.1043930E+01  0.7957747E-01            NaN
         13   -1    0    0    0    0  0.00000000000E+00  0.00000000000E+00  0.74505805969E-08  0.10566000000E+00  0.10566000000E+00 0.  1.
     999900   -1    0    0    0    0 -0.00000000000E+00 -0.00000000000E+00 -0.74505805969E-08  0.93827000000E+00  0.93827000000E+00 0. -1.
     999902    2    1    2    0    0 -0.51443188734E-02 -0.22111166442E-01 -0.71317854081E-02  0.10201344109E+01  0.10198568459E+01 0.  0.
     999903    2    3    3    0    0  0.21265352899E-01  0.75010976657E-01  0.99705823968E-01  0.12797721834E+00  0.18922347291E-01 0.  0.
         14    1    1    2    0    0  0.51443188734E-02  0.22111166442E-01  0.71317854081E-02  0.23795589113E-01  0.00000000000E+00 0.  1.
     999901    1    3    3    0    0 -0.26409671772E-01 -0.97122143100E-01 -0.10683760938E+00  0.89215719255E+00  0.88000000000E+00 0. -1.
        -11    1    4    4    0    0  0.31617892775E-02  0.13612705913E-01  0.31349377674E-01  0.34327063307E-01  0.51100000000E-03 0. -1.
         11    1    4    4    0    0  0.18103563621E-01  0.61398270744E-01  0.68356446293E-01  0.93650155029E-01  0.51100000000E-03 0.  1.
</event>
<event>
 8    1  0.1132492E+005  0.1043930E+01  0.7957747E-01            NaN
         13   -1    0    0    0    0  0.00000000000E+00  0.00000000000E+00  0.74505805969E-08  0.10566000000E+00  0.10566000000E+00 0. -1.
     999900   -1    0    0    0    0 -0.00000000000E+00 -0.00000000000E+00 -0.74505805969E-08  0.93827000000E+00  0.93827000000E+00 0. -1.
     999902    2    1    2    0    0  0.11699377068E-01 -0.92831179473E-02 -0.19350437047E-01  0.10194863686E+01  0.10191932911E+01 0.  0.
     999903    2    3    3    0    0  0.11215899908E+00  0.54276911316E-01 -0.36301294796E-01  0.13133134577E+00  0.20112538450E-01 0.  0.
         14    1    1    2    0    0 -0.11699377068E-01  0.92831179473E-02  0.19350437047E-01  0.24443631410E-01  0.00000000000E+00 0. -1.
     999901    1    3    3    0    0 -0.10045962201E+00 -0.63560029264E-01  0.16950857749E-01  0.88815502282E+00  0.88000000000E+00 0.  1.
        -11    1    4    4    0    0  0.57962038326E-01  0.37646356458E-01 -0.25159529389E-01  0.73553443709E-01  0.51100000000E-03 0. -1.
         11    1    4    4    0    0  0.54196960752E-01  0.16630554858E-01 -0.11141765407E-01  0.57777902065E-01  0.51100000000E-03 0.  1.
</event>
<event>
 8    1  0.1132492E+005  0.1043930E+01  0.7957747E-01            NaN
         13   -1    0    0    0    0  0.00000000000E+00  0.00000000000E+00  0.74505805969E-08  0.10566000000E+00  0.10566000000E+00 0. -1.
     999900   -1    0    0    0    0 -0.00000000000E+00 -0.00000000000E+00 -0.74505805969E-08  0.93827000000E+00  0.93827000000E+00 0.  1.
     999902    2    1    2    0    0  0.11557520359E-01  0.17465620152E-01  0.11588012933E-01  0.10199945408E+01  0.10197136642E+01 0.  0.
     999903    2    3    3    0    0 -0.45265747672E-02 -0.12548492591E+00 -0.15067967319E-01  0.12791601396E+00  0.19196522558E-01 0.  0.
         14    1    1    2    0    0 -0.11557520359E-01 -0.17465620152E-01 -0.11588012933E-01  0.23935459216E-01  0.00000000000E+00 0.  1.
     999901    1    3    3    0    0  0.16084095126E-01  0.14295054606E+00  0.26655980253E-01  0.89207852682E+00  0.88000000000E+00 0.  1.
        -11    1    4    4    0    0  0.70779781948E-02 -0.60284998938E-01 -0.47015754801E-02  0.60883042017E-01  0.51100000000E-03 0. -1.
         11    1    4    4    0    0 -0.11604552962E-01 -0.65199926973E-01 -0.10366391839E-01  0.67032971943E-01  0.51100000000E-03 0.  1.
</event>
<event>
 8    1  0.1132492E+005  0.1043930E+01  0.7957747E-01            NaN
         13   -1    0    0    0    0  0.00000000000E+00  0.00000000000E+00  0.74505805969E-08  0.10566000000E+00  0.10566000000E+00 0. -1.
     999900   -1    0    0    0    0 -0.00000000000E+00 -0.00000000000E+00 -0.74505805969E-08  0.93827000000E+00  0.93827000000E+00 0.  1.
     999902    2    1    2    0    0 -0.21905093073E-01  0.35055902671E-02 -0.25254502031E-03  0.10217447336E+01  0.10215038495E+01 0.  0.
     999903    2    3    3    0    0  0.86543754402E-02 -0.58671925740E-01  0.11568716728E+00  0.13144032415E+00  0.19384144457E-01 0.  0.
         14    1    1    2    0    0  0.21905093073E-01 -0.35055902671E-02  0.25254502031E-03  0.22185266387E-01  0.00000000000E+00 0. -1.
     999901    1    3    3    0    0 -0.30559468513E-01  0.62177516007E-01 -0.11593971230E+00  0.89030440946E+00  0.88000000000E+00 0.  1.
        -11    1    4    4    0    0  0.11488052803E-01 -0.58234495130E-01  0.10831446314E+00  0.12351322126E+00  0.51100000000E-03 0.  1.
         11    1    4    4    0    0 -0.28336773632E-02 -0.43743061041E-03  0.73727041374E-02  0.79271028905E-02  0.51100000000E-03 0. -1.
</event>
<event>
 8    1  0.1132492E+005  0.1043930E+01  0.7957747E-01            NaN
         13   -1    0    0    0    0  0.00000000000E+00  0.00000000000E+00  0.74505805969E-08  0.10566000000E+00  0.10566000000E+00 0. -1.
     999900   -1    0    0    0    0 -0.00000000000E+00 -0.00000000000E+00 -0.74505805969E-08  0.93827000000E+00  0.93827000000E+00 0.  1.
     999902    2    1    2    0    0  0.10665188520E-01  0.30550528168E-01 -0.21003035411E-02  0.10115032781E+01  0.10109833774E+01 0.  0.
     999903    2    3    3    0    0 -0.64888212466E-01 -0.59528719885E-01  0.79394816302E-01  0.11995179789E+00  0.18186488194E-01 0.  0.
         14    1    1    2    0    0 -0.10665188520E-01 -0.30550528168E-01  0.21003035411E-02  0.32426721889E-01  0.00000000000E+00 0.  1.
     999901    1    3    3    0    0  0.75553400985E-01  0.90079248052E-01 -0.81495119843E-01  0.89155148022E+00  0.88000000000E+00 0. -1.
        -11    1    4    4    0    0 -0.60121819646E-01 -0.47200530872E-01  0.70708874477E-01  0.10412746690E+00  0.51100000000E-03 0. -1.
         11    1    4    4    0    0 -0.47663928203E-02 -0.12328189012E-01  0.86859418244E-02  0.15824330988E-01  0.51100000000E-03 0.  1.
</event>
<event>
 8    1  0.1132492E+005  0.1043930E+01  0.7957747E-01            NaN
         13   -1    0    0    0    0  0.00000000000E+00  0.00000000000E+00  0.74505805969E-08  0.10566000000E+00  0.10566000000E+00 0.  1.
     999900   -1    0    0    0    0 -0.00000000000E+00 -0.00000000000E+00 -0.74505805969E-08  0.93827000000E+00  0.93827000000E+00 0.  1.
     999902    2    1    2    0    0  0.10796384014E-02 -0.75655078303E-02 -0.22450338589E-01  0.10202145993E+01  0.10199389239E+01 0.  0.
     999903    2    3    3    0    0  0.42256835991E-01 -0.10987161530E+00 -0.57755919976E-01  0.13262878074E+00  0.19930758934E-01 0.  0.
         14    1    1    2    0    0 -0.10796384014E-02  0.75655078303E-02  0.22450338589E-01  0.23715400704E-01  0.00000000000E+00 0.  1.
     999901    1    3    3    0    0 -0.41177197589E-01  0.10230610747E+00  0.35305581387E-01  0.88758581856E+00  0.88000000000E+00 0. -1.
        -11    1    4    4    0    0  0.17597987320E-01 -0.58781019234E-01 -0.39735427673E-01  0.73103096468E-01  0.51100000000E-03 0.  1.
         11    1    4    4    0    0  0.24658848670E-01 -0.51090596065E-01 -0.18020492303E-01  0.59525684271E-01  0.51100000000E-03 0. -1.
</event>
<event>
 8    1  0.1132492E+005  0.1043930E+01  0.7957747E-01            NaN
         13   -1    0    0    0    0  0.00000000000E+00  0.00000000000E+00  0.74505805969E-08  0.10566000000E+00  0.10566000000E+00 0.  1.
     999900   -1    0    0    0    0 -0.00000000000E+00 -0.00000000000E+00 -0.74505805969E-08  0.93827000000E+00  0.93827000000E+00 0.  1.
     999902    2    1    2    0    0 -0.25348526870E-02  0.26834371746E-02 -0.23972748003E-01  0.10196747127E+01  0.10193861883E+01 0.  0.
     999903    2    3    3    0    0 -0.16708976701E-01 -0.10404599959E+00  0.70073086295E-01  0.12813856798E+00  0.20112067227E-01 0.  0.
         14    1    1    2    0    0  0.25348526870E-02 -0.26834371746E-02  0.23972748003E-01  0.24255287260E-01  0.00000000000E+00 0.  1.
     999901    1    3    3    0    0  0.14174124014E-01  0.10672943676E+00 -0.94045834299E-01  0.89153614476E+00  0.88000000000E+00 0. -1.
        -11    1    4    4    0    0 -0.13687812872E-01 -0.52977739849E-01  0.25868090713E-01  0.60526162763E-01  0.51100000000E-03 0.  1.
         11    1    4    4    0    0 -0.30211638289E-02 -0.51068259742E-01  0.44204995582E-01  0.67612405218E-01  0.51100000000E-03 0. -1.
</event>
<event>
 8    1  0.1132492E+005  0.1043930E+01  0.7957747E-01            NaN
         13   -1    0    0    0    0  0.00000000000E+00  0.00000000000E+00  0.74505805969E-08  0.10566000000E+00  0.10566000000E+00 0. -1.
     999900   -1    0    0    0    0 -0.00000000000E+00 -0.00000000000E+00 -0.74505805969E-08  0.93827000000E+00  0.93827000000E+00 0.  1.
     999902    2    1    2    0    0 -0.14306283556E-01 -0.18211683972E-01 -0.49424552807E-02  0.10202495641E+01  0.10199747104E+01 0.  0.
     999903    2    3    3    0    0 -0.37595987719E-01 -0.85850034052E-01  0.91052796374E-01  0.13214346394E+00  0.19687475603E-01 0.  0.
         14    1    1    2    0    0  0.14306283556E-01  0.18211683972E-01  0.49424552807E-02  0.23680435944E-01  0.00000000000E+00 0. -1.
     999901    1    3    3    0    0  0.23289704162E-01  0.67638350080E-01 -0.95995251655E-01  0.88810610012E+00  0.88000000000E+00 0.  1.
        -11    1    4    4    0    0 -0.15295861040E-01 -0.41827068794E-01  0.56281311999E-01  0.71772656702E-01  0.51100000000E-03 0.  1.
         11    1    4    4    0    0 -0.22300126678E-01 -0.44022965258E-01  0.34771484375E-01  0.60370807239E-01  0.51100000000E-03 0. -1.
</event>
<event>
 8    1  0.1132492E+005  0.1043930E+01  0.7957747E-01            NaN
         13   -1    0    0    0    0  0.00000000000E+00  0.00000000000E+00  0.74505805969E-08  0.10566000000E+00  0.10566000000E+00 0.  1.
     999900   -1    0    0    0    0 -0.00000000000E+00 -0.00000000000E+00 -0.74505805969E-08  0.93827000000E+00  0.93827000000E+00 0. -1.
     999902    2    1    2    0    0  0.10977899993E-01  0.15600267910E-01  0.13557723217E-01  0.10205271261E+01  0.10202587518E+01 0.  0.
     999903    2    3    3    0    0  0.80550115635E-01 -0.64982629134E-01 -0.75534929170E-01  0.12964475611E+00  0.19778120322E-01 0.  0.
         14    1    1    2    0    0 -0.10977899993E-01 -0.15600267910E-01 -0.13557723217E-01  0.23402873882E-01  0.00000000000E+00 0.  1.
     999901    1    3    3    0    0 -0.69572215643E-01  0.80582897044E-01  0.89092652387E-01  0.89088237001E+00  0.88000000000E+00 0.  1.
        -11    1    4    4    0    0  0.30132460265E-01 -0.32317902338E-01 -0.22890343036E-01  0.49765860773E-01  0.51100000000E-03 0. -1.
         11    1    4    4    0    0  0.50417655370E-01 -0.32664726796E-01 -0.52644586134E-01  0.79878895335E-01  0.51100000000E-03 0.  1.
</event>
<event>
 8    1  0.1132492E+005  0.1043930E+01  0.7957747E-01            NaN
         13   -1    0    0    0    0  0.00000000000E+00  0.00000000000E+00  0.74505805969E-08  0.10566000000E+00  0.10566000000E+00 0.  1.
     999900   -1    0    0    0    0 -0.00000000000E+00 -0.00000000000E+00 -0.74505805969E-08  0.93827000000E+00  0.93827000000E+00 0. -1.
     999902    2    1    2    0    0 -0.22029835948E-01  0.23048072036E-02  0.81596879681E-02  0.10203247820E+01  0.10200516921E+01 0.  0.
     999903    2    3    3    0    0  0.36759213270E-01 -0.11844856091E+00  0.33091103392E-01  0.12978612273E+00  0.19186328168E-01 0.  0.
         14    1    1    2    0    0  0.22029835948E-01 -0.23048072036E-02 -0.81596879681E-02  0.23605217980E-01  0.00000000000E+00 0. -1.
     999901    1    3    3    0    0 -0.58789049218E-01  0.12075336811E+00 -0.24931415424E-01  0.89053865929E+00  0.88000000000E+00 0.  1.
        -11    1    4    4    0    0  0.25649394385E-01 -0.65955260865E-01  0.27155978425E-01  0.75800370404E-01  0.51100000000E-03 0. -1.
         11    1    4    4    0    0  0.11109818885E-01 -0.52493300040E-01  0.59351249669E-02  0.53985752325E-01  0.51100000000E-03 0.  1.
</event>
<event>
 8    1  0.1132492E+005  0.1043930E+01  0.7957747E-01            NaN
         13   -1    0    0    0    0  0.00000000000E+00  0.00000000000E+00  0.74505805969E-08  0.10566000000E+00  0.10566000000E+00 0.  1.
     999900   -1    0    0    0    0 -0.00000000000E+00 -0.00000000000E+00 -0.74505805969E-08  0.93827000000E+00  0.93827000000E+00 0.  1.
     999902    2    1    2    0    0  0.65201133320E-02 -0.11007950566E-01  0.19798589326E-01  0.10203573253E+01  0.10200849966E+01 0.  0.
     999903    2    3    3    0    0  0.54287222145E-01 -0.92596629869E-01 -0.71558896477E-01  0.13059072697E+00  0.20298373212E-01 0.  0.
         14    1    1    2    0    0 -0.65201133320E-02  0.11007950566E-01 -0.19798589326E-01  0.23572674707E-01  0.00000000000E+00 0. -1.
     999901    1    3    3    0    0 -0.47767108813E-01  0.81588679303E-01  0.91357485803E-01  0.88976659832E+00  0.88000000000E+00 0.  1.
        -11    1    4    4    0    0  0.42842007855E-01 -0.76040354067E-01 -0.48027951955E-01  0.99621876983E-01  0.51100000000E-03 0. -1.
         11    1    4    4    0    0  0.11445214290E-01 -0.16556275801E-01 -0.23530944523E-01  0.30968849990E-01  0.51100000000E-03 0.  1.
</event>
<event>
 8    1  0.1132492E+005  0.1043930E+01  0.7957747E-01            NaN
         13   -1    0    0    0    0  0.00000000000E+00  0.00000000000E+00  0.74505805969E-08  0.10566000000E+00  0.10566000000E+00 0. -1.
     999900   -1    0    0    0    0 -0.00000000000E+00 -0.00000000000E+00 -0.74505805969E-08  0.93827000000E+00  0.93827000000E+00 0. -1.
     999902    2    1    2    0    0 -0.11510999236E-01  0.14417972613E-01  0.11905313695E-01  0.10219728250E+01  0.10217369219E+01 0.  0.
     999903    2    3    3    0    0  0.97659378171E-02  0.90297925176E-01  0.96935183716E-01  0.13436899786E+00  0.20236326496E-01 0.  0.
         14    1    1    2    0    0  0.11510999236E-01 -0.14417972613E-01 -0.11905313695E-01  0.21957174952E-01  0.00000000000E+00 0.  1.
     999901    1    3    3    0    0 -0.21276937053E-01 -0.75879952563E-01 -0.85029870021E-01  0.88760382719E+00  0.88000000000E+00 0. -1.
        -11    1    4    4    0    0 -0.47822302794E-02  0.45468968916E-01  0.43379960522E-01  0.63026811411E-01  0.51100000000E-03 0.  1.
         11    1    4    4    0    0  0.14548168096E-01  0.44828956260E-01  0.53555223194E-01  0.71342186445E-01  0.51100000000E-03 0. -1.
</event>
<event>
 8    1  0.1132492E+005  0.1043930E+01  0.7957747E-01            NaN
         13   -1    0    0    0    0  0.00000000000E+00  0.00000000000E+00  0.74505805969E-08  0.10566000000E+00  0.10566000000E+00 0.  1.
     999900   -1    0    0    0    0 -0.00000000000E+00 -0.00000000000E+00 -0.74505805969E-08  0.93827000000E+00  0.93827000000E+00 0. -1.
     999902    2    1    2    0    0  0.14383808628E-01 -0.27603848071E-02 -0.18910887766E-01  0.10200106490E+01  0.10197301549E+01 0.  0.
     999903    2    3    3    0    0 -0.10102047388E+00  0.75110047360E-01  0.13753637360E-01  0.12846764735E+00  0.21636046744E-01 0.  0.
         14    1    1    2    0    0 -0.14383808628E-01  0.27603848071E-02  0.18910887766E-01  0.23919350974E-01  0.00000000000E+00 0.  1.
     999901    1    3    3    0    0  0.11540428251E+00 -0.77870432167E-01 -0.32664525126E-01  0.89154300167E+00  0.88000000000E+00 0. -1.
        -11    1    4    4    0    0 -0.78366747885E-01  0.54445011048E-01  0.19154711378E-01  0.97328158778E-01  0.51100000000E-03 0.  1.
         11    1    4    4    0    0 -0.22653725995E-01  0.20665036312E-01 -0.54010740188E-02  0.31139488577E-01  0.51100000000E-03 0. -1.
</event>
<event>
 8    1  0.1132492E+005  0.1043930E+01  0.7957747E-01            NaN
         13   -1    0    0    0    0  0.00000000000E+00  0.00000000000E+00  0.74505805969E-08  0.10566000000E+00  0.10566000000E+00 0. -1.
     999900   -1    0    0    0    0 -0.00000000000E+00 -0.00000000000E+00 -0.74505805969E-08  0.93827000000E+00  0.93827000000E+00 0. -1.
     999902    2    1    2    0    0 -0.29533979847E-02  0.22662786091E-01 -0.72271088458E-02  0.10199601119E+01  0.10196784171E+01 0.  0.
     999903    2    3    3    0    0  0.95076541166E-01  0.29864751014E-01 -0.83090669111E-01  0.13124361209E+00  0.19732571735E-01 0.  0.
         14    1    1    2    0    0  0.29533979847E-02 -0.22662786091E-01  0.72271088458E-02  0.23969888096E-01  0.00000000000E+00 0. -1.
     999901    1    3    3    0    0 -0.98029939151E-01 -0.72019649230E-02  0.75863560266E-01  0.88871649982E+00  0.88000000000E+00 0.  1.
        -11    1    4    4    0    0  0.19203656838E-01  0.27785598998E-02 -0.26245972981E-01  0.32643729104E-01  0.51100000000E-03 0.  1.
         11    1    4    4    0    0  0.75872884328E-01  0.27086191115E-01 -0.56844696130E-01  0.98599882984E-01  0.51100000000E-03 0. -1.
</event>
<event>
 8    1  0.1132492E+005  0.1043930E+01  0.7957747E-01            NaN
         13   -1    0    0    0    0  0.00000000000E+00  0.00000000000E+00  0.74505805969E-08  0.10566000000E+00  0.10566000000E+00 0.  1.
     999900   -1    0    0    0    0 -0.00000000000E+00 -0.00000000000E+00 -0.74505805969E-08  0.93827000000E+00  0.93827000000E+00 0. -1.
     999902    2    1    2    0    0 -0.19852570565E-01 -0.83391567514E-02  0.95577616827E-02  0.10203712033E+01  0.10200991989E+01 0.  0.
     999903    2    3    3    0    0  0.82205774902E-01  0.85818505024E-01  0.45217771015E-01  0.12876971866E+00  0.20356532047E-01 0.  0.
         14    1    1    2    0    0  0.19852570565E-01  0.83391567514E-02 -0.95577616827E-02  0.23558796695E-01  0.00000000000E+00 0. -1.
     999901    1    3    3    0    0 -0.10205834547E+00 -0.94157661776E-01 -0.35660009332E-01  0.89160148464E+00  0.88000000000E+00 0.  1.
        -11    1    4    4    0    0  0.55214543550E-01  0.58113890100E-01  0.20089771811E-01  0.82642181084E-01  0.51100000000E-03 0.  1.
         11    1    4    4    0    0  0.26991231353E-01  0.27704614925E-01  0.25127999204E-01  0.46127537579E-01  0.51100000000E-03 0. -1.
</event>
<event>
 8    1  0.1132492E+005  0.1043930E+01  0.7957747E-01            NaN
         13   -1    0    0    0    0  0.00000000000E+00  0.00000000000E+00  0.74505805969E-08  0.10566000000E+00  0.10566000000E+00 0. -1.
     999900   -1    0    0    0    0 -0.00000000000E+00 -0.00000000000E+00 -0.74505805969E-08  0.93827000000E+00  0.93827000000E+00 0. -1.
     999902    2    1    2    0    0  0.47245617770E-03  0.13091688129E-01 -0.19702399797E-01  0.10202699055E+01  0.10199955294E+01 0.  0.
     999903    2    3    3    0    0  0.40006697391E-01 -0.11549836741E+00  0.33871516455E-01  0.12843554696E+00  0.20199044143E-01 0.  0.
         14    1    1    2    0    0 -0.47245617770E-03 -0.13091688129E-01  0.19702399797E-01  0.23660094477E-01  0.00000000000E+00 0. -1.
     999901    1    3    3    0    0 -0.39534241214E-01  0.12859005554E+00 -0.53573916252E-01  0.89183435856E+00  0.88000000000E+00 0. -1.
        -11    1    4    4    0    0  0.20594890766E-01 -0.72739239607E-01  0.29926989102E-01  0.81308254821E-01  0.51100000000E-03 0.  1.
         11    1    4    4    0    0  0.19411806625E-01 -0.42759127806E-01  0.39445273531E-02  0.47127292138E-01  0.51100000000E-03 0. -1.
</event>
<event>
 8    1  0.1132492E+005  0.1043930E+01  0.7957747E-01            NaN
         13   -1    0    0    0    0  0.00000000000E+00  0.00000000000E+00  0.74505805969E-08  0.10566000000E+00  0.10566000000E+00 0.  1.
     999900   -1    0    0    0    0 -0.00000000000E+00 -0.00000000000E+00 -0.74505805969E-08  0.93827000000E+00  0.93827000000E+00 0.  1.
     999902    2    1    2    0    0 -0.27582577222E-02 -0.88309851245E-02  0.22528211279E-01  0.10195760560E+01  0.10192851512E+01 0.  0.
     999903    2    3    3    0    0 -0.39424419172E-01 -0.89973593360E-01  0.86642467654E-01  0.13276200103E+00  0.21663318903E-01 0.  0.
         14    1    1    2    0    0  0.27582577222E-02  0.88309851245E-02 -0.22528211279E-01  0.24353943979E-01  0.00000000000E+00 0. -1.
     999901    1    3    3    0    0  0.36666161450E-01  0.81142608235E-01 -0.64114256376E-01  0.88681405500E+00  0.88000000000E+00 0.  1.
        -11    1    4    4    0    0 -0.24833547682E-02 -0.27313148476E-01  0.29305773551E-01  0.40140560721E-01  0.51100000000E-03 0.  1.
         11    1    4    4    0    0 -0.36941064404E-01 -0.62660444884E-01  0.57336694103E-01  0.92621440304E-01  0.51100000000E-03 0. -1.
</event>
<event>
 8    1  0.1132492E+005  0.1043930E+01  0.7957747E-01            NaN
         13   -1    0    0    0    0  0.00000000000E+00  0.00000000000E+00  0.74505805969E-08  0.10566000000E+00  0.10566000000E+00 0.  1.
     999900   -1    0    0    0    0 -0.00000000000E+00 -0.00000000000E+00 -0.74505805969E-08  0.93827000000E+00  0.93827000000E+00 0.  1.
     999902    2    1    2    0    0  0.73191177975E-02  0.82052532001E-02  0.20750740965E-01  0.10204461989E+01  0.10201759436E+01 0.  0.
     999903    2    3    3    0    0 -0.33701116798E-01 -0.12274894862E+00  0.15956968454E-01  0.12979775931E+00  0.19742437015E-01 0.  0.
         14    1    1    2    0    0 -0.73191177975E-02 -0.82052532001E-02 -0.20750740965E-01  0.23483801140E-01  0.00000000000E+00 0. -1.
     999901    1    3    3    0    0  0.41020234596E-01  0.13095420182E+00  0.47937725108E-02  0.89064843955E+00  0.88000000000E+00 0. -1.
        -11    1    4    4    0    0 -0.25994966612E-01 -0.69362051287E-01  0.21042015431E-02  0.74104798988E-01  0.51100000000E-03 0.  1.
         11    1    4    4    0    0 -0.77061501862E-02 -0.53386897330E-01  0.13852766911E-01  0.55692960321E-01  0.51100000000E-03 0. -1.
</event>
<event>
 8    1  0.1132492E+005  0.1043930E+01  0.7957747E-01            NaN
         13   -1    0    0    0    0  0.00000000000E+00  0.00000000000E+00  0.74505805969E-08  0.10566000000E+00  0.10566000000E+00 0. -1.
     999900   -1    0    0    0    0 -0.00000000000E+00 -0.00000000000E+00 -0.74505805969E-08  0.93827000000E+00  0.93827000000E+00 0. -1.
     999902    2    1    2    0    0  0.52461283511E-02 -0.73919458333E-02 -0.21658007935E-01  0.10204516688E+01  0.10201815409E+01 0.  0.
     999903    2    3    3    0    0  0.93076536968E-01 -0.89832656073E-01  0.10903960751E-01  0.13164857863E+00  0.21893014040E-01 0.  0.
         14    1    1    2    0    0 -0.52461283511E-02  0.73919458333E-02  0.21658007935E-01  0.23478331150E-01  0.00000000000E+00 0. -1.
     999901    1    3    3    0    0 -0.87830408617E-01  0.82440710239E-01 -0.32561968686E-01  0.88880309022E+00  0.88000000000E+00 0. -1.
        -11    1    4    4    0    0  0.33105310392E-01 -0.44465784090E-01  0.10630888695E-01  0.56448600039E-01  0.51100000000E-03 0. -1.
         11    1    4    4    0    0  0.59971226576E-01 -0.45366871983E-01  0.27307205613E-03  0.75199978590E-01  0.51100000000E-03 0.  1.
</event>
<event>
 8    1  0.1132492E+005  0.1043930E+01  0.7957747E-01            NaN
         13   -1    0    0    0    0  0.00000000000E+00  0.00000000000E+00  0.74505805969E-08  0.10566000000E+00  0.10566000000E+00 0.  1.
     999900   -1    0    0    0    0 -0.00000000000E+00 -0.00000000000E+00 -0.74505805969E-08  0.93827000000E+00  0.93827000000E+00 0. -1.
     999902    2    1    2    0    0 -0.19046823843E-02  0.23561313100E-01 -0.22510894764E-02  0.10201848806E+01  0.10199085057E+01 0.  0.
     999903    2    3    3    0    0  0.12303091520E-01  0.99317801846E-02  0.12871508423E+00  0.13027490560E+00  0.12408537453E-01 0.  0.
         14    1    1    2    0    0  0.19046823843E-02 -0.23561313100E-01  0.22510894764E-02  0.23745119369E-01  0.00000000000E+00 0.  1.
     999901    1    3    3    0    0 -0.14207773904E-01  0.13629532916E-01 -0.13096617371E+00  0.88990997503E+00  0.88000000000E+00 0. -1.
        -11    1    4    4    0    0 -0.25259424445E-02  0.13288948421E-02  0.15652734167E-01  0.15919031209E-01  0.51100000000E-03 0. -1.
         11    1    4    4    0    0  0.14829033964E-01  0.86028853425E-02  0.11306235006E+00  0.11435587439E+00  0.51100000000E-03 0.  1.
</event>
<event>
 8    1  0.1132492E+005  0.1043930E+01  0.7957747E-01            NaN
         13   -1    0    0    0    0  0.00000000000E+00  0.00000000000E+00  0.74505805969E-08  0.10566000000E+00  0.10566000000E+00 0.  1.
     999900   -1    0    0    0    0 -0.00000000000E+00 -0.00000000000E+00 -0.74505805969E-08  0.93827000000E+00  0.93827000000E+00 0.  1.
     999902    2    1    2    0    0  0.23680105843E-01  0.14159221436E-02 -0.48763478725E-02  0.10197115976E+01  0.10194239605E+01 0.  0.
     999903    2    3    3    0    0 -0.15105658046E-01  0.10518569808E+00 -0.72447728561E-01  0.13019577793E+00  0.20249820565E-01 0.  0.
         14    1    1    2    0    0 -0.23680105843E-01 -0.14159221436E-02  0.48763478725E-02  0.24218402441E-01  0.00000000000E+00 0.  1.
     999901    1    3    3    0    0  0.38785763889E-01 -0.10376977593E+00  0.67571380688E-01  0.88951581963E+00  0.88000000000E+00 0. -1.
        -11    1    4    4    0    0 -0.15427635530E-01  0.98159654683E-01 -0.60537908566E-01  0.11635475598E+00  0.51100000000E-03 0.  1.
         11    1    4    4    0    0  0.32197748377E-03  0.70260433934E-02 -0.11909819994E-01  0.13841021948E-01  0.51100000000E-03 0. -1.
</event>
<event>
 8    1  0.1132492E+005  0.1043930E+01  0.7957747E-01            NaN
         13   -1    0    0    0    0  0.00000000000E+00  0.00000000000E+00  0.74505805969E-08  0.10566000000E+00  0.10566000000E+00 0.  1.
     999900   -1    0    0    0    0 -0.00000000000E+00 -0.00000000000E+00 -0.74505805969E-08  0.93827000000E+00  0.93827000000E+00 0.  1.
     999902    2    1    2    0    0  0.14148876056E-01 -0.15227125994E-01 -0.10224762767E-01  0.10207653322E+01  0.10205024555E+01 0.  0.
     999903    2    3    3    0    0 -0.12258018696E+00  0.17517793052E-01 -0.31772160869E-01  0.12934435605E+00  0.19690528840E-01 0.  0.
         14    1    1    2    0    0 -0.14148876056E-01  0.15227125994E-01  0.10224762767E-01  0.23164667779E-01  0.00000000000E+00 0.  1.
     999901    1    3    3    0    0  0.13672906302E+00 -0.32744919046E-01  0.21547398102E-01  0.89142097617E+00  0.88000000000E+00 0.  1.
        -11    1    4    4    0    0 -0.47272510812E-01  0.27707775970E-02 -0.21180448643E-01  0.51877162727E-01  0.51100000000E-03 0.  1.
         11    1    4    4    0    0 -0.75307676151E-01  0.14747015455E-01 -0.10591712226E-01  0.77467193320E-01  0.51100000000E-03 0. -1.
</event>
<event>
 8    1  0.1132492E+005  0.1043930E+01  0.7957747E-01            NaN
         13   -1    0    0    0    0  0.00000000000E+00  0.00000000000E+00  0.74505805969E-08  0.10566000000E+00  0.10566000000E+00 0.  1.
     999900   -1    0    0    0    0 -0.00000000000E+00 -0.00000000000E+00 -0.74505805969E-08  0.93827000000E+00  0.93827000000E+00 0.  1.
     999902    2    1    2    0    0  0.10957780521E-01  0.13815977832E-01  0.16061995037E-01  0.10200774974E+01  0.10197985873E+01 0.  0.
     999903    2    3    3    0    0  0.46055826169E-01  0.50649047863E-01 -0.10850524161E+00  0.12984969264E+00  0.20027232675E-01 0.  0.
         14    1    1    2    0    0 -0.10957780521E-01 -0.13815977832E-01 -0.16061995037E-01  0.23852502635E-01  0.00000000000E+00 0. -1.
     999901    1    3    3    0    0 -0.35098045649E-01 -0.36833070031E-01  0.12456723665E+00  0.89022780472E+00  0.88000000000E+00 0. -1.
        -11    1    4    4    0    0 -0.10292128726E-02  0.42388759873E-02 -0.29241180383E-02  0.52762615624E-02  0.51100000000E-03 0. -1.
         11    1    4    4    0    0  0.47085039042E-01  0.46410171876E-01 -0.10558112357E+00  0.12457343108E+00  0.51100000000E-03 0.  1.
</event>
<event>
 8    1  0.1132492E+005  0.1043930E+01  0.7957747E-01            NaN
         13   -1    0    0    0    0  0.00000000000E+00  0.00000000000E+00  0.74505805969E-08  0.10566000000E+00  0.10566000000E+00 0. -1.
     999900   -1    0    0    0    0 -0.00000000000E+00 -0.00000000000E+00 -0.74505805969E-08  0.93827000000E+00  0.93827000000E+00 0.  1.
     999902    2    1    2    0    0  0.11844270488E-01  0.77870249749E-02 -0.18180702826E-01  0.10208765305E+01  0.10206162002E+01 0.  0.
     999903    2    3    3    0    0  0.30555589493E-01 -0.93039757448E-01  0.82432087888E-01  0.12922688675E+00  0.17734109265E-01 0.  0.
         14    1    1    2    0    0 -0.11844270488E-01 -0.77870249749E-02  0.18180702826E-01  0.23053469514E-01  0.00000000000E+00 0. -1.
     999901    1    3    3    0    0 -0.18711319005E-01  0.10082678242E+00 -0.10061279071E+00  0.89164964373E+00  0.88000000000E+00 0.  1.
        -11    1    4    4    0    0  0.18039570986E-01 -0.35788056099E-01  0.25403489735E-01  0.47453234794E-01  0.51100000000E-03 0. -1.
         11    1    4    4    0    0  0.12516018507E-01 -0.57251701348E-01  0.57028598153E-01  0.81773651960E-01  0.51100000000E-03 0.  1.
</event>
<event>
 8    1  0.1132492E+005  0.1043930E+01  0.7957747E-01            NaN
         13   -1    0    0    0    0  0.00000000000E+00  0.00000000000E+00  0.74505805969E-08  0.10566000000E+00  0.10566000000E+00 0. -1.
     999900   -1    0    0    0    0 -0.00000000000E+00 -0.00000000000E+00 -0.74505805969E-08  0.93827000000E+00  0.93827000000E+00 0. -1.
     999902    2    1    2    0    0  0.81326057458E-03  0.21403709580E-01  0.10708726995E-01  0.10199830376E+01  0.10197018878E+01 0.  0.
     999903    2    3    3    0    0  0.37177721486E-01 -0.11918231314E+00  0.20916739285E-01  0.12802395367E+00  0.19131544445E-01 0.  0.
         14    1    1    2    0    0 -0.81326057458E-03 -0.21403709580E-01 -0.10708726995E-01  0.23946962446E-01  0.00000000000E+00 0.  1.
     999901    1    3    3    0    0 -0.36364460911E-01  0.14058602272E+00 -0.10208012290E-01  0.89195908388E+00  0.88000000000E+00 0.  1.
        -11    1    4    4    0    0  0.65911214135E-02 -0.45204349341E-01  0.18048877850E-02  0.45720835750E-01  0.51100000000E-03 0. -1.
         11    1    4    4    0    0  0.30586600072E-01 -0.73977963795E-01  0.19111851500E-01  0.82303117924E-01  0.51100000000E-03 0.  1.
</event>
<event>
 8    1  0.1132492E+005  0.1043930E+01  0.7957747E-01            NaN
         13   -1    0    0    0    0  0.00000000000E+00  0.00000000000E+00  0.74505805969E-08  0.10566000000E+00  0.10566000000E+00 0. -1.
     999900   -1    0    0    0    0 -0.00000000000E+00 -0.00000000000E+00 -0.74505805969E-08  0.93827000000E+00  0.93827000000E+00 0. -1.
     999902    2    1    2    0    0 -0.13374932304E-01  0.23701856242E-02 -0.19477530066E-01  0.10201838262E+01  0.10199074264E+01 0.  0.
     999903    2    3    3    0    0  0.62240543576E-01  0.14108918832E-01 -0.11353618469E+00  0.13186939504E+00  0.20642801646E-01 0.  0.
         14    1    1    2    0    0  0.13374932304E-01 -0.23701856242E-02  0.19477530066E-01  0.23746173828E-01  0.00000000000E+00 0. -1.
     999901    1    3    3    0    0 -0.75615475879E-01 -0.11738733208E-01  0.94058654620E-01  0.88831443113E+00  0.88000000000E+00 0.  1.
        -11    1    4    4    0    0  0.78161447559E-02 -0.47463428917E-02 -0.20386075233E-01  0.22348894248E-01  0.51100000000E-03 0.  1.
         11    1    4    4    0    0  0.54424398820E-01  0.18855261724E-01 -0.93150109452E-01  0.10952050079E+00  0.51100000000E-03 0. -1.
</event>
<event>
 8    1  0.1132492E+005  0.1043930E+01  0.7957747E-01            NaN
         13   -1    0    0    0    0  0.00000000000E+00  0.00000000000E+00  0.74505805969E-08  0.10566000000E+00  0.10566000000E+00 0. -1.
     999900   -1    0    0    0    0 -0.00000000000E+00 -0.00000000000E+00 -0.74505805969E-08  0.93827000000E+00  0.93827000000E+00 0.  1.
     999902    2    1    2    0    0 -0.20904268585E-01  0.98035679592E-02  0.40649154679E-02  0.10204859831E+01  0.10202166534E+01 0.  0.
     999903    2    3    3    0    0 -0.10046618589E+00 -0.62501055100E-02  0.84432133409E-01  0.13310404233E+00  0.21339695563E-01 0.  0.
         14    1    1    2    0    0  0.20904268585E-01 -0.98035679592E-02 -0.40649154679E-02  0.23444016882E-01  0.00000000000E+00 0. -1.
     999901    1    3    3    0    0  0.79561917303E-01  0.16053673469E-01 -0.80367217941E-01  0.88738194079E+00  0.88000000000E+00 0.  1.
        -11    1    4    4    0    0 -0.24549519146E-01  0.15214012718E-02  0.32642113072E-01  0.40874958336E-01  0.51100000000E-03 0. -1.
         11    1    4    4    0    0 -0.75916666742E-01 -0.77715067818E-02  0.51790020337E-01  0.92229083994E-01  0.51100000000E-03 0.  1.
</event>
<event>
 8    1  0.1132492E+005  0.1043930E+01  0.7957747E-01            NaN
         13   -1    0    0    0    0  0.00000000000E+00  0.00000000000E+00  0.74505805969E-08  0.10566000000E+00  0.10566000000E+00 0.  1.
     999900   -1    0    0    0    0 -0.00000000000E+00 -0.00000000000E+00 -0.74505805969E-08  0.93827000000E+00  0.93827000000E+00 0. -1.
     999902    2    1    2    0    0 -0.12404760455E-01  0.87316802967E-02 -0.17430620999E-01  0.10208227096E+01  0.10205611483E+01 0.  0.
     999903    2    3    3    0    0 -0.17328811194E-01  0.11681051861E+00  0.53681834523E-01  0.13134968418E+00  0.20640136160E-01 0.  0.
         14    1    1    2    0    0  0.12404760455E-01 -0.87316802967E-02  0.17430620999E-01  0.23107290433E-01  0.00000000000E+00 0.  1.
     999901    1    3    3    0    0  0.49240507388E-02 -0.10807883831E+00 -0.71112455522E-01  0.88947302539E+00  0.88000000000E+00 0. -1.
        -11    1    4    4    0    0 -0.21697280205E-01  0.84491162259E-01  0.37809129117E-01  0.95075337674E-01  0.51100000000E-03 0.  1.
         11    1    4    4    0    0  0.43684690112E-02  0.32319356349E-01  0.15872705405E-01  0.36274346503E-01  0.51100000000E-03 0. -1.
</event>
<event>
 8    1  0.1132492E+005  0.1043930E+01  0.7957747E-01            NaN
         13   -1    0    0    0    0  0.00000000000E+00  0.00000000000E+00  0.74505805969E-08  0.10566000000E+00  0.10566000000E+00 0. -1.
     999900   -1    0    0    0    0 -0.00000000000E+00 -0.00000000000E+00 -0.74505805969E-08  0.93827000000E+00  0.93827000000E+00 0. -1.
     999902    2    1    2    0    0 -0.80812787594E-02 -0.11889115947E-02 -0.22037845893E-01  0.10204270804E+01  0.10201563798E+01 0.  0.
     999903    2    3    3    0    0 -0.76023402352E-02 -0.57303050903E-01 -0.11850683425E+00  0.13337843929E+00  0.20112262027E-01 0.  0.
         14    1    1    2    0    0  0.80812787594E-02  0.11889115947E-02  0.22037845893E-01  0.23502919580E-01  0.00000000000E+00 0. -1.
     999901    1    3    3    0    0 -0.47893852418E-03  0.56114139308E-01  0.96468988358E-01  0.88704864113E+00  0.88000000000E+00 0. -1.
        -11    1    4    4    0    0 -0.84425779546E-02 -0.30811487083E-01 -0.44622595374E-01  0.54882255764E-01  0.51100000000E-03 0.  1.
         11    1    4    4    0    0  0.84023771937E-03 -0.26491563820E-01 -0.73884238877E-01  0.78496183528E-01  0.51100000000E-03 0. -1.
</event>
<event>
 8    1  0.1132492E+005  0.1043930E+01  0.7957747E-01            NaN
         13   -1    0    0    0    0  0.00000000000E+00  0.00000000000E+00  0.74505805969E-08  0.10566000000E+00  0.10566000000E+00 0.  1.
     999900   -1    0    0    0    0 -0.00000000000E+00 -0.00000000000E+00 -0.74505805969E-08  0.93827000000E+00  0.93827000000E+00 0.  1.
     999902    2    1    2    0    0  0.20766486893E-01  0.66466002914E-02 -0.92442523737E-02  0.10202470847E+01  0.10199721729E+01 0.  0.
     999903    2    3    3    0    0 -0.11383776333E+00 -0.20898531448E-01 -0.52229114616E-01  0.12854941353E+00  0.20032132395E-01 0.  0.
         14    1    1    2    0    0 -0.20766486893E-01 -0.66466002914E-02  0.92442523737E-02  0.23682915261E-01  0.00000000000E+00 0. -1.
     999901    1    3    3    0    0  0.13460425022E+00  0.27545131740E-01  0.42984862242E-01  0.89169767121E+00  0.88000000000E+00 0. -1.
        -11    1    4    4    0    0 -0.73216680415E-01 -0.14708091002E-01 -0.23075083352E-01  0.78164767156E-01  0.51100000000E-03 0.  1.
         11    1    4    4    0    0 -0.40621082915E-01 -0.61904404461E-02 -0.29154031264E-01  0.50384646372E-01  0.51100000000E-03 0. -1.
</event>
<event>
 8    1  0.1132492E+005  0.1043930E+01  0.7957747E-01            NaN
         13   -1    0    0    0    0  0.00000000000E+00  0.00000000000E+00  0.74505805969E-08  0.10566000000E+00  0.10566000000E+00 0.  1.
     999900   -1    0    0    0    0 -0.00000000000E+00 -0.00000000000E+00 -0.74505805969E-08  0.93827000000E+00  0.93827000000E+00 0.  1.
     999902    2    1    2    0    0 -0.21216764566E-01 -0.25241761014E-03  0.10234200399E-01  0.10203725453E+01  0.10201005723E+01 0.  0.
     999903    2    3    3    0    0 -0.67585370008E-01 -0.90673889541E-01  0.66509941311E-01  0.13273914736E+00  0.20163642150E-01 0.  0.
         14    1    1    2    0    0  0.21216764566E-01  0.25241761014E-03 -0.10234200399E-01  0.23557454683E-01  0.00000000000E+00 0.  1.
     999901    1    3    3    0    0  0.46368605442E-01  0.90421471931E-01 -0.56275740911E-01  0.88763339796E+00  0.88000000000E+00 0.  1.
        -11    1    4    4    0    0 -0.45374915249E-01 -0.65944136920E-01  0.36592642895E-01  0.88015877903E-01  0.51100000000E-03 0.  1.
         11    1    4    4    0    0 -0.22210454759E-01 -0.24729752620E-01  0.29917298416E-01  0.44723269455E-01  0.51100000000E-03 0. -1.
</event>
<event>
 8    1  0.1132492E+005  0.1043930E+01  0.7957747E-01            NaN
         13   -1    0    0    0    0  0.00000000000E+00  0.00000000000E+00  0.74505805969E-08  0.10566000000E+00  0.10566000000E+00 0.  1.
     999900   -1    0    0    0    0 -0.00000000000E+00 -0.00000000000E+00 -0.74505805969E-08  0.93827000000E+00  0.93827000000E+00 0. -1.
     999902    2    1    2    0    0 -0.23405575893E-03 -0.18416147568E-01  0.15732770058E-01  0.10197075037E+01  0.10194197682E+01 0.  0.
     999903    2    3    3    0    0 -0.18367148341E-01  0.12418958402E+00  0.15659727321E-01  0.12804321202E+00  0.19734035762E-01 0.  0.
         14    1    1    2    0    0  0.23405575893E-03  0.18416147568E-01 -0.15732770058E-01  0.24222496300E-01  0.00000000000E+00 0. -1.
     999901    1    3    3    0    0  0.18133092582E-01 -0.14260573158E+00  0.73042736994E-04  0.89166429168E+00  0.88000000000E+00 0. -1.
        -11    1    4    4    0    0 -0.51137070729E-02  0.86849921431E-01  0.15760166046E-01  0.88417774273E-01  0.51100000000E-03 0. -1.
         11    1    4    4    0    0 -0.13253441268E-01  0.37339662585E-01 -0.10043872557E-03  0.39625437743E-01  0.51100000000E-03 0.  1.
</event>
<event>
 8    1  0.1132492E+005  0.1043930E+01  0.7957747E-01            NaN
         13   -1    0    0    0    0  0.00000000000E+00  0.00000000000E+00  0.74505805969E-08  0.10566000000E+00  0.10566000000E+00 0. -1.
     999900   -1    0    0    0    0 -0.00000000000E+00 -0.00000000000E+00 -0.74505805969E-08  0.93827000000E+00  0.93827000000E+00 0. -1.
     999902    2    1    2    0    0  0.12034567699E-01 -0.88406005249E-02 -0.14132028641E-01  0.10233702998E+01  0.10231637549E+01 0.  0.
     999903    2    3    3    0    0 -0.12496261346E+00 -0.38589715070E-01  0.43794308559E-03  0.13215454507E+00  0.18968687808E-01 0.  0.
         14    1    1    2    0    0 -0.12034567699E-01  0.88406005249E-02  0.14132028641E-01  0.20559700164E-01  0.00000000000E+00 0.  1.
     999901    1    3    3    0    0  0.13699718116E+00  0.29749114545E-01 -0.14569971727E-01  0.89121575476E+00  0.88000000000E+00 0. -1.
        -11    1    4    4    0    0 -0.10263517354E+00 -0.23933751300E-01 -0.11251666856E-02  0.10539606453E+00  0.51100000000E-03 0. -1.
         11    1    4    4    0    0 -0.22327439923E-01 -0.14655963770E-01  0.15631097712E-02  0.26758480538E-01  0.51100000000E-03 0.  1.
</event>
<event>
 8    1  0.1132492E+005  0.1043930E+01  0.7957747E-01            NaN
         13   -1    0    0    0    0  0.00000000000E+00  0.00000000000E+00  0.74505805969E-08  0.10566000000E+00  0.10566000000E+00 0.  1.
     999900   -1    0    0    0    0 -0.00000000000E+00 -0.00000000000E+00 -0.74505805969E-08  0.93827000000E+00  0.93827000000E+00 0.  1.
     999902    2    1    2    0    0 -0.22774472674E-01  0.53964464902E-02 -0.50743105262E-02  0.10199811615E+01  0.10196999671E+01 0.  0.
     999903    2    3    3    0    0 -0.97853447209E-01  0.28083844915E-01 -0.82097232151E-01  0.13314177300E+00  0.24955494670E-01 0.  0.
         14    1    1    2    0    0  0.22774472674E-01 -0.53964464902E-02  0.50743105262E-02  0.23948838544E-01  0.00000000000E+00 0. -1.
     999901    1    3    3    0    0  0.75078974535E-01 -0.22687398425E-01  0.77022921625E-01  0.88683938846E+00  0.88000000000E+00 0.  1.
        -11    1    4    4    0    0 -0.65171098940E-01  0.72045178444E-02 -0.45456381139E-01  0.79785468111E-01  0.51100000000E-03 0. -1.
         11    1    4    4    0    0 -0.32682348270E-01  0.20879327071E-01 -0.36640851012E-01  0.53356304887E-01  0.51100000000E-03 0.  1.
</event>
<event>
 8    1  0.1132492E+005  0.1043930E+01  0.7957747E-01            NaN
         13   -1    0    0    0    0  0.00000000000E+00  0.00000000000E+00  0.74505805969E-08  0.10566000000E+00  0.10566000000E+00 0.  1.
     999900   -1    0    0    0    0 -0.00000000000E+00 -0.00000000000E+00 -0.74505805969E-08  0.93827000000E+00  0.93827000000E+00 0.  1.
     999902    2    1    2    0    0  0.20406825643E-01  0.11266298450E-01 -0.78983963782E-02  0.10193179566E+01  0.10190207770E+01 0.  0.
     999903    2    3    3    0    0  0.93564611392E-01 -0.71060095967E-01 -0.54816888295E-01  0.13121264659E+00  0.20198852425E-01 0.  0.
         14    1    1    2    0    0 -0.20406825643E-01 -0.11266298450E-01  0.78983963782E-02  0.24612043372E-01  0.00000000000E+00 0. -1.
     999901    1    3    3    0    0 -0.73157785749E-01  0.82326394416E-01  0.46918491917E-01  0.88810531004E+00  0.88000000000E+00 0. -1.
        -11    1    4    4    0    0  0.34107747810E-01 -0.25472978272E-01 -0.30755121591E-01  0.52519993410E-01  0.51100000000E-03 0.  1.
         11    1    4    4    0    0  0.59456863582E-01 -0.45587117695E-01 -0.24061766704E-01  0.78692653181E-01  0.51100000000E-03 0. -1.
</event>
<event>
 8    1  0.1132492E+005  0.1043930E+01  0.7957747E-01            NaN
         13   -1    0    0    0    0  0.00000000000E+00  0.00000000000E+00  0.74505805969E-08  0.10566000000E+00  0.10566000000E+00 0.  1.
     999900   -1    0    0    0    0 -0.00000000000E+00 -0.00000000000E+00 -0.74505805969E-08  0.93827000000E+00  0.93827000000E+00 0. -1.
     999902    2    1    2    0    0 -0.20302114959E-01  0.73400911964E-02 -0.10072905861E-01  0.10201074006E+01  0.10198291977E+01 0.  0.
     999903    2    3    3    0    0 -0.11365890580E+00 -0.52384955980E-01 -0.36728339989E-01  0.13275567560E+00  0.24750110417E-01 0.  0.
         14    1    1    2    0    0  0.20302114959E-01 -0.73400911964E-02  0.10072905861E-01  0.23822599419E-01  0.00000000000E+00 0.  1.
     999901    1    3    3    0    0  0.93356790839E-01  0.59725047176E-01  0.26655434128E-01  0.88735172498E+00  0.88000000000E+00 0. -1.
        -11    1    4    4    0    0 -0.20864977571E-01  0.59263000738E-04 -0.39686609506E-02  0.21245286345E-01  0.51100000000E-03 0.  1.
         11    1    4    4    0    0 -0.92793928228E-01 -0.52444218980E-01 -0.32759679038E-01  0.11151038926E+00  0.51100000000E-03 0. -1.
</event>
<event>
 8    1  0.1132492E+005  0.1043930E+01  0.7957747E-01            NaN
         13   -1    0    0    0    0  0.00000000000E+00  0.00000000000E+00  0.74505805969E-08  0.10566000000E+00  0.10566000000E+00 0. -1.
     999900   -1    0    0    0    0 -0.00000000000E+00 -0.00000000000E+00 -0.74505805969E-08  0.93827000000E+00  0.93827000000E+00 0. -1.
     999902    2    1    2    0    0 -0.58772820664E-02  0.16823459655E-01 -0.14788612507E-01  0.10207724030E+01  0.10205096885E+01 0.  0.
     999903    2    3    3    0    0 -0.97066342654E-01 -0.76967170962E-02  0.84156720425E-01  0.13020692940E+00  0.19757948829E-01 0.  0.
         14    1    1    2    0    0  0.58772820664E-02 -0.16823459655E-01  0.14788612507E-01  0.23157597007E-01  0.00000000000E+00 0. -1.
     999901    1    3    3    0    0  0.91189060588E-01  0.24520176751E-01 -0.98945332932E-01  0.89056547359E+00  0.88000000000E+00 0. -1.
        -11    1    4    4    0    0 -0.15103604693E-01 -0.33218994345E-02  0.23537279502E-01  0.28167686060E-01  0.51100000000E-03 0. -1.
         11    1    4    4    0    0 -0.81962737961E-01 -0.43748176616E-02  0.60619440923E-01  0.10203924335E+00  0.51100000000E-03 0.  1.
</event>
<event>
 8    1  0.1132492E+005  0.1043930E+01  0.7957747E-01            NaN
         13   -1    0    0    0    0  0.00000000000E+00  0.00000000000E+00  0.74505805969E-08  0.10566000000E+00  0.10566000000E+00 0. -1.
     999900   -1    0    0    0    0 -0.00000000000E+00 -0.00000000000E+00 -0.74505805969E-08  0.93827000000E+00  0.93827000000E+00 0.  1.
     999902    2    1    2    0    0 -0.80323986209E-02  0.24397255525E-02  0.22373168575E-01  0.10200337584E+01  0.10197538125E+01 0.  0.
     999903    2    3    3    0    0  0.45213257754E-01 -0.92657740947E-01 -0.73008212894E-01  0.12819507573E+00  0.21773439258E-01 0.  0.
         14    1    1    2    0    0  0.80323986209E-02 -0.24397255525E-02 -0.22373168575E-01  0.23896241555E-01  0.00000000000E+00 0.  1.
     999901    1    3    3    0    0 -0.53245656375E-01  0.95097466500E-01  0.95381381469E-01  0.89183868272E+00  0.88000000000E+00 0. -1.
        -11    1    4    4    0    0  0.27740059928E-01 -0.76607936204E-01 -0.59485277370E-01  0.10088134693E+00  0.51100000000E-03 0.  1.
         11    1    4    4    0    0  0.17473197827E-01 -0.16049804743E-01 -0.13522935524E-01  0.27313728797E-01  0.51100000000E-03 0. -1.
</event>
<event>
 8    1  0.1132492E+005  0.1043930E+01  0.7957747E-01            NaN
         13   -1    0    0    0    0  0.00000000000E+00  0.00000000000E+00  0.74505805969E-08  0.10566000000E+00  0.10566000000E+00 0. -1.
     999900   -1    0    0    0    0 -0.00000000000E+00 -0.00000000000E+00 -0.74505805969E-08  0.93827000000E+00  0.93827000000E+00 0. -1.
     999902    2    1    2    0    0 -0.39675562554E-02  0.10921711892E-01  0.20617769736E-01  0.10202631937E+01  0.10199886600E+01 0.  0.
     999903    2    3    3    0    0 -0.35523259819E-01 -0.12235291340E+00  0.12949536250E-01  0.12963606070E+00  0.20141507857E-01 0.  0.
         14    1    1    2    0    0  0.39675562554E-02 -0.10921711892E-01 -0.20617769736E-01  0.23666806337E-01  0.00000000000E+00 0.  1.
     999901    1    3    3    0    0  0.31555703564E-01  0.13327462529E+00  0.76682334862E-02  0.89062713297E+00  0.88000000000E+00 0. -1.
        -11    1    4    4    0    0 -0.32232701750E-01 -0.84882255065E-01  0.35785285644E-02  0.90868098223E-01  0.51100000000E-03 0. -1.
         11    1    4    4    0    0 -0.32905580691E-02 -0.37470658332E-01  0.93710076858E-02  0.38767962473E-01  0.51100000000E-03 0.  1.
</event>
<event>
 8    1  0.1132492E+005  0.1043930E+01  0.7957747E-01            NaN
         13   -1    0    0    0    0  0.00000000000E+00  0.00000000000E+00  0.74505805969E-08  0.10566000000E+00  0.10566000000E+00 0.  1.
     999900   -1    0    0    0    0 -0.00000000000E+00 -0.00000000000E+00 -0.74505805969E-08  0.93827000000E+00  0.93827000000E+00 0.  1.
     999902    2    1    2    0    0  0.13963404805E-01  0.46018056249E-02 -0.18878662718E-01  0.10200018326E+01  0.10197211292E+01 0.  0.
     999903    2    3    3    0    0 -0.55705427793E-01 -0.97674058310E-01 -0.62859392912E-01  0.13025557484E+00  0.19284583163E-01 0.  0.
         14    1    1    2    0    0 -0.13963404805E-01 -0.46018056249E-02  0.18878662718E-01  0.23928167393E-01  0.00000000000E+00 0.  1.
     999901    1    3    3    0    0  0.69668832598E-01  0.10227586393E+00  0.43980730194E-01  0.88974625777E+00  0.88000000000E+00 0.  1.
        -11    1    4    4    0    0 -0.41809002692E-01 -0.87086267676E-01 -0.52901783390E-01  0.11014023121E+00  0.51100000000E-03 0. -1.
         11    1    4    4    0    0 -0.13896425101E-01 -0.10587790634E-01 -0.99576095221E-02  0.20115343633E-01  0.51100000000E-03 0.  1.
</event>
<event>
 8    1  0.1132492E+005  0.1043930E+01  0.7957747E-01            NaN
         13   -1    0    0    0    0  0.00000000000E+00  0.00000000000E+00  0.74505805969E-08  0.10566000000E+00  0.10566000000E+00 0. -1.
     999900   -1    0    0    0    0 -0.00000000000E+00 -0.00000000000E+00 -0.74505805969E-08  0.93827000000E+00  0.93827000000E+00 0. -1.
     999902    2    1    2    0    0  0.30820805489E-02 -0.12474010537E-01 -0.20141428236E-01  0.10200390542E+01  0.10197592338E+01 0.  0.
     999903    2    3    3    0    0 -0.10240979677E+00  0.31602726301E-01 -0.72872175635E-01  0.13107796022E+00  0.19610683052E-01 0.  0.
         14    1    1    2    0    0 -0.30820805489E-02  0.12474010537E-01  0.20141428236E-01  0.23890945790E-01  0.00000000000E+00 0. -1.
     999901    1    3    3    0    0  0.10549187732E+00 -0.44076736838E-01  0.52730747399E-01  0.88896109399E+00  0.88000000000E+00 0.  1.
        -11    1    4    4    0    0 -0.59362489912E-01  0.81250263584E-02 -0.40227001885E-01  0.72169204399E-01  0.51100000000E-03 0. -1.
         11    1    4    4    0    0 -0.43047306854E-01  0.23477699943E-01 -0.32645173750E-01  0.58908755819E-01  0.51100000000E-03 0.  1.
</event>
<event>
 8    1  0.1132492E+005  0.1043930E+01  0.7957747E-01            NaN
         13   -1    0    0    0    0  0.00000000000E+00  0.00000000000E+00  0.74505805969E-08  0.10566000000E+00  0.10566000000E+00 0.  1.
     999900   -1    0    0    0    0 -0.00000000000E+00 -0.00000000000E+00 -0.74505805969E-08  0.93827000000E+00  0.93827000000E+00 0. -1.
     999902    2    1    2    0    0 -0.40540681670E-02  0.21028675782E-01  0.85219348275E-02  0.10208808341E+01  0.10206206021E+01 0.  0.
     999903    2    3    3    0    0  0.10033542422E+00 -0.37791436511E-01  0.71632488178E-01  0.13052140465E+00  0.20229525029E-01 0.  0.
         14    1    1    2    0    0  0.40540681670E-02 -0.21028675782E-01 -0.85219348275E-02  0.23049165864E-01  0.00000000000E+00 0. -1.
     999901    1    3    3    0    0 -0.10438949238E+00  0.58820112293E-01 -0.63110553350E-01  0.89035942949E+00  0.88000000000E+00 0. -1.
        -11    1    4    4    0    0  0.72190292526E-01 -0.28378970183E-01  0.40496366443E-01  0.87504406173E-01  0.51100000000E-03 0. -1.
         11    1    4    4    0    0  0.28145131691E-01 -0.94124663279E-02  0.31136121735E-01  0.43016998477E-01  0.51100000000E-03 0.  1.
</event>
<event>
 8    1  0.1132492E+005  0.1043930E+01  0.7957747E-01            NaN
         13   -1    0    0    0    0  0.00000000000E+00  0.00000000000E+00  0.74505805969E-08  0.10566000000E+00  0.10566000000E+00 0.  1.
     999900   -1    0    0    0    0 -0.00000000000E+00 -0.00000000000E+00 -0.74505805969E-08  0.93827000000E+00  0.93827000000E+00 0. -1.
     999902    2    1    2    0    0 -0.39374619491E-02  0.29286692154E-01 -0.25465035464E-02  0.10142702862E+01  0.10138365326E+01 0.  0.
     999903    2    3    3    0    0 -0.25930023410E-01 -0.11171342604E+00 -0.36199881246E-01  0.12213954692E+00  0.21339677779E-01 0.  0.
         14    1    1    2    0    0  0.39374619491E-02 -0.29286692154E-01  0.25465035464E-02  0.29659713826E-01  0.00000000000E+00 0.  1.
     999901    1    3    3    0    0  0.21992561461E-01  0.14100011820E+00  0.33653377700E-01  0.89213073925E+00  0.88000000000E+00 0. -1.
        -11    1    4    4    0    0  0.31757023333E-02 -0.97162641585E-02 -0.59579132848E-02  0.11842665503E-01  0.51100000000E-03 0. -1.
         11    1    4    4    0    0 -0.29105725743E-01 -0.10199716188E+00 -0.30241967961E-01  0.11029688142E+00  0.51100000000E-03 0.  1.
</event>
<event>
 8    1  0.1132492E+005  0.1043930E+01  0.7957747E-01            NaN
         13   -1    0    0    0    0  0.00000000000E+00  0.00000000000E+00  0.74505805969E-08  0.10566000000E+00  0.10566000000E+00 0.  1.
     999900   -1    0    0    0    0 -0.00000000000E+00 -0.00000000000E+00 -0.74505805969E-08  0.93827000000E+00  0.93827000000E+00 0. -1.
     999902    2    1    2    0    0  0.20523077655E-01 -0.10247853297E-01  0.50249166595E-02  0.10204467080E+01  0.10201764646E+01 0.  0.
     999903    2    3    3    0    0  0.11895317213E+00  0.19928406601E-01 -0.52581751567E-01  0.13257418432E+00  0.16250390763E-01 0.  0.
         14    1    1    2    0    0 -0.20523077655E-01  0.10247853297E-01 -0.50249166595E-02  0.23483291956E-01  0.00000000000E+00 0.  1.
     999901    1    3    3    0    0 -0.98430094478E-01 -0.30176259898E-01  0.57606668226E-01  0.88787252372E+00  0.88000000000E+00 0.  1.
        -11    1    4    4    0    0  0.61797082576E-01  0.17902627116E-01 -0.24373015720E-01  0.68801805855E-01  0.51100000000E-03 0. -1.
         11    1    4    4    0    0  0.57156089557E-01  0.20257794844E-02 -0.28208735847E-01  0.63772378465E-01  0.51100000000E-03 0.  1.
</event>
<event>
 8    1  0.1132492E+005  0.1043930E+01  0.7957747E-01            NaN
         13   -1    0    0    0    0  0.00000000000E+00  0.00000000000E+00  0.74505805969E-08  0.10566000000E+00  0.10566000000E+00 0.  1.
     999900   -1    0    0    0    0 -0.00000000000E+00 -0.00000000000E+00 -0.74505805969E-08  0.93827000000E+00  0.93827000000E+00 0.  1.
     999902    2    1    2    0    0  0.11491926701E-01 -0.15271335540E-01  0.12675737803E-01  0.10209963479E+01  0.10207387472E+01 0.  0.
     999903    2    3    3    0    0  0.84367335194E-01 -0.41711735084E-01 -0.89989420527E-01  0.13164261930E+00  0.19338234615E-01 0.  0.
         14    1    1    2    0    0 -0.11491926701E-01  0.15271335540E-01 -0.12675737803E-01  0.22933652071E-01  0.00000000000E+00 0. -1.
     999901    1    3    3    0    0 -0.72875408492E-01  0.26440399544E-01  0.10266515833E+00  0.88935372863E+00  0.88000000000E+00 0. -1.
        -11    1    4    4    0    0  0.24510803646E-01 -0.78468515711E-02 -0.14588677637E-01  0.29587889603E-01  0.51100000000E-03 0. -1.
         11    1    4    4    0    0  0.59856531548E-01 -0.33864883512E-01 -0.75400742890E-01  0.10205472970E+00  0.51100000000E-03 0.  1.
</event>
<event>
 8    1  0.1132492E+005  0.1043930E+01  0.7957747E-01            NaN
         13   -1    0    0    0    0  0.00000000000E+00  0.00000000000E+00  0.74505805969E-08  0.10566000000E+00  0.10566000000E+00 0. -1.
     999900   -1    0    0    0    0 -0.00000000000E+00 -0.00000000000E+00 -0.74505805969E-08  0.93827000000E+00  0.93827000000E+00 0.  1.
     999902    2    1    2    0    0  0.23509414026E-01 -0.46610065414E-02  0.13192427825E-03  0.10199626277E+01  0.10196809928E+01 0.  0.
     999903    2    3    3    0    0 -0.65079490164E-01 -0.39877858174E-02 -0.10915568490E+00  0.12878799350E+00  0.20497347338E-01 0.  0.
         14    1    1    2    0    0 -0.23509414026E-01  0.46610065414E-02 -0.13192427825E-03  0.23967372277E-01  0.00000000000E+00 0.  1.
     999901    1    3    3    0    0  0.88588904190E-01 -0.67322072398E-03  0.10928760917E+00  0.89117463423E+00  0.88000000000E+00 0. -1.
        -11    1    4    4    0    0 -0.42790077498E-01  0.68364378161E-02 -0.74398947900E-01  0.86099896538E-01  0.51100000000E-03 0. -1.
         11    1    4    4    0    0 -0.22289412666E-01 -0.10824223634E-01 -0.34756736996E-01  0.42688096958E-01  0.51100000000E-03 0.  1.
</event>
<event>
 8    1  0.1132492E+005  0.1043930E+01  0.7957747E-01            NaN
         13   -1    0    0    0    0  0.00000000000E+00  0.00000000000E+00  0.74505805969E-08  0.10566000000E+00  0.10566000000E+00 0. -1.
     999900   -1    0    0    0    0 -0.00000000000E+00 -0.00000000000E+00 -0.74505805969E-08  0.93827000000E+00  0.93827000000E+00 0.  1.
     999902    2    1    2    0    0 -0.16358501068E-01 -0.70437810261E-02 -0.16463883821E-01  0.10196756215E+01  0.10193871189E+01 0.  0.
     999903    2    3    3    0    0 -0.34999629274E-02 -0.45511236498E-01 -0.12290862195E+00  0.13233376545E+00  0.17949198903E-01 0.  0.
         14    1    1    2    0    0  0.16358501068E-01  0.70437810261E-02  0.16463883821E-01  0.24254378549E-01  0.00000000000E+00 0. -1.
     999901    1    3    3    0    0 -0.12858538141E-01  0.38467455472E-01  0.10644473813E+00  0.88734185600E+00  0.88000000000E+00 0. -1.
        -11    1    4    4    0    0 -0.74866323271E-02 -0.14171151259E-01 -0.27552017445E-01  0.31878613174E-01  0.51100000000E-03 0. -1.
         11    1    4    4    0    0  0.39866693996E-02 -0.31340085239E-01 -0.95356604504E-01  0.10045515228E+00  0.51100000000E-03 0.  1.
</event>
<event>
 8    1  0.1132492E+005  0.1043930E+01  0.7957747E-01            NaN
         13   -1    0    0    0    0  0.00000000000E+00  0.00000000000E+00  0.74505805969E-08  0.10566000000E+00  0.10566000000E+00 0. -1.
     999900   -1    0    0    0    0 -0.00000000000E+00 -0.00000000000E+00 -0.74505805969E-08  0.93827000000E+00  0.93827000000E+00 0. -1.
     999902    2    1    2    0    0  0.10278585382E-01 -0.85384623665E-02 -0.16503847769E-01  0.10226948488E+01  0.10224743625E+01 0.  0.
     999903    2    3    3    0    0 -0.52661051604E-01  0.20091023002E-02  0.11757515913E+00  0.13025447029E+00  0.19107227439E-01 0.  0.
         14    1    1    2    0    0 -0.10278585382E-01  0.85384623665E-02  0.16503847769E-01  0.21235151240E-01  0.00000000000E+00 0. -1.
     999901    1    3    3    0    0  0.62939636986E-01 -0.10547564667E-01 -0.13407900689E+00  0.89244037846E+00  0.88000000000E+00 0. -1.
        -11    1    4    4    0    0 -0.31649288133E-01 -0.78983496326E-02  0.73967394156E-01  0.80842426271E-01  0.51100000000E-03 0. -1.
         11    1    4    4    0    0 -0.21011763472E-01  0.99074519328E-02  0.43607764969E-01  0.49412044023E-01  0.51100000000E-03 0.  1.
</event>
<event>
 8    1  0.1132492E+005  0.1043930E+01  0.7957747E-01            NaN
         13   -1    0    0    0    0  0.00000000000E+00  0.00000000000E+00  0.74505805969E-08  0.10566000000E+00  0.10566000000E+00 0. -1.
     999900   -1    0    0    0    0 -0.00000000000E+00 -0.00000000000E+00 -0.74505805969E-08  0.93827000000E+00  0.93827000000E+00 0. -1.
     999902    2    1    2    0    0  0.32534669052E-02  0.15578212064E-01  0.19163083141E-01  0.10190203735E+01  0.10187158741E+01 0.  0.
     999903    2    3    3    0    0  0.27437995360E-01  0.61506520524E-01  0.11253635036E+00  0.13255950690E+00  0.19279446617E-01 0.  0.
         14    1    1    2    0    0 -0.32534669052E-02 -0.15578212064E-01 -0.19163083141E-01  0.24909626522E-01  0.00000000000E+00 0.  1.
     999901    1    3    3    0    0 -0.24184528455E-01 -0.45928308459E-01 -0.93373267220E-01  0.88646086657E+00  0.88000000000E+00 0. -1.
        -11    1    4    4    0    0  0.14190845861E-01  0.26892740583E-01  0.33388832679E-01  0.45162759781E-01  0.51100000000E-03 0. -1.
         11    1    4    4    0    0  0.13247149499E-01  0.34613779940E-01  0.79147517682E-01  0.87396747124E-01  0.51100000000E-03 0.  1.
</event>
<event>
 7    1  0.1132492E+005  0.1043930E+01  0.7957747E-01            NaN
         13   -1    0    0    0    0  0.00000000000E+00  0.00000000000E+00  0.74505805969E-08  0.10566000000E+00  0.10566000000E+00 0. -1.
     999900   -1    0    0    0    0 -0.00000000000E+00 -0.00000000000E+00 -0.74505805969E-08  0.93827000000E+00  0.93827000000E+00 0.  1.
     999903    2    1    2    0    0 -0.43029988260E-01 -0.52656614934E-01  0.93577192757E-01  0.11828584989E+00  0.24709356393E-01 0.  0.
         14    1    1    2    0    0 -0.36028232890E-02  0.37797648129E-01  0.68468198770E-02  0.38581361850E-01  0.00000000000E+00 0. -1.
     999901    1    1    2    0    0  0.46632811549E-01  0.14858966805E-01 -0.10042401263E+00  0.88706278826E+00  0.88000000000E+00 0.  1.
        -11    1    3    3    0    0 -0.25151608988E-01 -0.29507346183E-01  0.72539882255E-01  0.82253161350E-01  0.51100000000E-03 0. -1.
         11    1    3    3    0    0 -0.17878379272E-01 -0.23149268751E-01  0.21037310502E-01  0.36032688537E-01  0.51100000000E-03 0.  1.
</event>
<event>
 8    1  0.1132492E+005  0.1043930E+01  0.7957747E-01            NaN
         13   -1    0    0    0    0  0.00000000000E+00  0.00000000000E+00  0.74505805969E-08  0.10566000000E+00  0.10566000000E+00 0.  1.
     999900   -1    0    0    0    0 -0.00000000000E+00 -0.00000000000E+00 -0.74505805969E-08  0.93827000000E+00  0.93827000000E+00 0.  1.
     999902    2    1    2    0    0  0.14077790019E-01 -0.12843026037E-01 -0.10937445699E-01  0.10219583089E+01  0.10217220904E+01 0.  0.
     999903    2    3    3    0    0 -0.10695870454E+00  0.61994323473E-01 -0.34197727555E-01  0.13022320107E+00  0.22475250972E-01 0.  0.
         14    1    1    2    0    0 -0.14077790019E-01  0.12843026037E-01  0.10937445699E-01  0.21971691060E-01  0.00000000000E+00 0.  1.
     999901    1    3    3    0    0  0.12103649456E+00 -0.74837349510E-01  0.23260281856E-01  0.89173510787E+00  0.88000000000E+00 0.  1.
        -11    1    4    4    0    0 -0.30383840182E-01  0.27161483084E-01 -0.17981113058E-01  0.44547788445E-01  0.51100000000E-03 0.  1.
         11    1    4    4    0    0 -0.76574864362E-01  0.34832840389E-01 -0.16216614496E-01  0.85675412624E-01  0.51100000000E-03 0. -1.
</event>
<event>
 8    1  0.1132492E+005  0.1043930E+01  0.7957747E-01            NaN
         13   -1    0    0    0    0  0.00000000000E+00  0.00000000000E+00  0.74505805969E-08  0.10566000000E+00  0.10566000000E+00 0.  1.
     999900   -1    0    0    0    0 -0.00000000000E+00 -0.00000000000E+00 -0.74505805969E-08  0.93827000000E+00  0.93827000000E+00 0.  1.
     999902    2    1    2    0    0 -0.46760586651E-02  0.23861951350E-01 -0.74377885762E-02  0.10185020833E+01  0.10181846173E+01 0.  0.
     999903    2    3    3    0    0  0.94461539983E-01 -0.75139528578E-01  0.32141077077E-01  0.12654017658E+00  0.20259224156E-01 0.  0.
         14    1    1    2    0    0  0.46760586651E-02 -0.23861951350E-01  0.74377885762E-02  0.25427916662E-01  0.00000000000E+00 0. -1.
     999901    1    3    3    0    0 -0.99137598648E-01  0.99001479928E-01 -0.39578865654E-01  0.89196190675E+00  0.88000000000E+00 0.  1.
        -11    1    4    4    0    0  0.45247168574E-01 -0.28608290527E-01  0.57252098313E-02  0.53840316673E-01  0.51100000000E-03 0. -1.
         11    1    4    4    0    0  0.49214371409E-01 -0.46531238051E-01  0.26415867246E-01  0.72699859912E-01  0.51100000000E-03 0.  1.
</event>
<event>
 8    1  0.1132492E+005  0.1043930E+01  0.7957747E-01            NaN
         13   -1    0    0    0    0  0.00000000000E+00  0.00000000000E+00  0.74505805969E-08  0.10566000000E+00  0.10566000000E+00 0.  1.
     999900   -1    0    0    0    0 -0.00000000000E+00 -0.00000000000E+00 -0.74505805969E-08  0.93827000000E+00  0.93827000000E+00 0.  1.
     999902    2    1    2    0    0 -0.46163363827E-02  0.87819616673E-02 -0.19527838229E-01  0.10220263501E+01  0.10217916081E+01 0.  0.
     999903    2    3    3    0    0 -0.10990224195E+00 -0.13818412788E-01  0.67488043773E-01  0.13120220217E+00  0.19746657566E-01 0.  0.
         14    1    1    2    0    0  0.46163363827E-02 -0.87819616673E-02  0.19527838229E-01  0.21903649883E-01  0.00000000000E+00 0.  1.
     999901    1    3    3    0    0  0.10528590557E+00  0.22600374455E-01 -0.87015882002E-01  0.89082414794E+00  0.88000000000E+00 0. -1.
        -11    1    4    4    0    0 -0.25261645140E-01  0.53289520944E-03  0.71340826415E-02  0.26260063759E-01  0.51100000000E-03 0.  1.
         11    1    4    4    0    0 -0.84640596811E-01 -0.14351307997E-01  0.60353961132E-01  0.10494213841E+00  0.51100000000E-03 0. -1.
</event>
<event>
 8    1  0.1132492E+005  0.1043930E+01  0.7957747E-01            NaN
         13   -1    0    0    0    0  0.00000000000E+00  0.00000000000E+00  0.74505805969E-08  0.10566000000E+00  0.10566000000E+00 0.  1.
     999900   -1    0    0    0    0 -0.00000000000E+00 -0.00000000000E+00 -0.74505805969E-08  0.93827000000E+00  0.93827000000E+00 0.  1.
     999902    2    1    2    0    0 -0.61294681442E-02 -0.19283398260E-01 -0.76017728380E-02  0.10223150335E+01  0.10220865036E+01 0.  0.
     999903    2    3    3    0    0  0.98029070394E-01 -0.87842780145E-01  0.49221401508E-02  0.13343582997E+00  0.21326992082E-01 0.  0.
         14    1    1    2    0    0  0.61294681442E-02  0.19283398260E-01  0.76017728380E-02  0.21614966538E-01  0.00000000000E+00 0.  1.
     999901    1    3    3    0    0 -0.10415853854E+00  0.68559381885E-01 -0.12523912989E-01  0.88887920349E+00  0.88000000000E+00 0. -1.
        -11    1    4    4    0    0  0.73849105043E-01 -0.56535006444E-01  0.10032141363E-01  0.93545722781E-01  0.51100000000E-03 0. -1.
         11    1    4    4    0    0  0.24179965351E-01 -0.31307773701E-01 -0.51100012123E-02  0.39890107193E-01  0.51100000000E-03 0.  1.
</event>
<event>
 8    1  0.1132492E+005  0.1043930E+01  0.7957747E-01            NaN
         13   -1    0    0    0    0  0.00000000000E+00  0.00000000000E+00  0.74505805969E-08  0.10566000000E+00  0.10566000000E+00 0. -1.
     999900   -1    0    0    0    0 -0.00000000000E+00 -0.00000000000E+00 -0.74505805969E-08  0.93827000000E+00  0.93827000000E+00 0.  1.
     999902    2    1    2    0    0  0.20270078099E-01 -0.94513845894E-02  0.12276024896E-01  0.10184171498E+01  0.10180975324E+01 0.  0.
     999903    2    3    3    0    0  0.11912282361E+00  0.27202209562E-01 -0.41024375509E-01  0.13052285209E+00  0.20567163739E-01 0.  0.
         14    1    1    2    0    0 -0.20270078099E-01  0.94513845894E-02 -0.12276024896E-01  0.25512850175E-01  0.00000000000E+00 0.  1.
     999901    1    3    3    0    0 -0.98852745506E-01 -0.36653594151E-01  0.53300400406E-01  0.88789429773E+00  0.88000000000E+00 0. -1.
        -11    1    4    4    0    0  0.48778425832E-01  0.28252798361E-02 -0.22547227629E-01  0.53814083914E-01  0.51100000000E-03 0.  1.
         11    1    4    4    0    0  0.70344397773E-01  0.24376929726E-01 -0.18477147881E-01  0.76708768181E-01  0.51100000000E-03 0. -1.
</event>
<event>
 8    1  0.1132492E+005  0.1043930E+01  0.7957747E-01            NaN
         13   -1    0    0    0    0  0.00000000000E+00  0.00000000000E+00  0.74505805969E-08  0.10566000000E+00  0.10566000000E+00 0. -1.
     999900   -1    0    0    0    0 -0.00000000000E+00 -0.00000000000E+00 -0.74505805969E-08  0.93827000000E+00  0.93827000000E+00 0. -1.
     999902    2    1    2    0    0 -0.41730193115E-02  0.14474165021E-02  0.23315454931E-01  0.10201998600E+01  0.10199238378E+01 0.  0.
     999903    2    3    3    0    0  0.18959715140E-02 -0.16922029443E-01 -0.12492792978E+00  0.12759111578E+00  0.19559023399E-01 0.  0.
         14    1    1    2    0    0  0.41730193115E-02 -0.14474165021E-02 -0.23315454931E-01  0.23730139977E-01  0.00000000000E+00 0.  1.
     999901    1    3    3    0    0 -0.60689908254E-02  0.18369445945E-01  0.14824338472E+00  0.89260874425E+00  0.88000000000E+00 0.  1.
        -11    1    4    4    0    0  0.10756321687E-01 -0.94495457375E-02 -0.67898239547E-01  0.69393259222E-01  0.51100000000E-03 0. -1.
         11    1    4    4    0    0 -0.88603501726E-02 -0.74724837052E-02 -0.57029690238E-01  0.58197856555E-01  0.51100000000E-03 0.  1.
</event>
<event>
 8    1  0.1132492E+005  0.1043930E+01  0.7957747E-01            NaN
         13   -1    0    0    0    0  0.00000000000E+00  0.00000000000E+00  0.74505805969E-08  0.10566000000E+00  0.10566000000E+00 0. -1.
     999900   -1    0    0    0    0 -0.00000000000E+00 -0.00000000000E+00 -0.74505805969E-08  0.93827000000E+00  0.93827000000E+00 0. -1.
     999902    2    1    2    0    0  0.30038681445E-02 -0.23182706513E-01  0.17638937364E-02  0.10204870389E+01  0.10202177337E+01 0.  0.
     999903    2    3    3    0    0  0.89579221879E-01 -0.32076832384E-01 -0.89395255786E-01  0.13150763085E+00  0.15791929813E-01 0.  0.
         14    1    1    2    0    0 -0.30038681445E-02  0.23182706513E-01 -0.17638937364E-02  0.23442961123E-01  0.00000000000E+00 0.  1.
     999901    1    3    3    0    0 -0.86575353735E-01  0.88941258714E-02  0.91159149522E-01  0.88897940802E+00  0.88000000000E+00 0. -1.
        -11    1    4    4    0    0  0.62270751001E-03 -0.19644295447E-02 -0.42018587146E-02  0.47078111407E-02  0.51100000000E-03 0. -1.
         11    1    4    4    0    0  0.88956514369E-01 -0.30112402840E-01 -0.85193397071E-01  0.12679981971E+00  0.51100000000E-03 0.  1.
</event>
<event>
 8    1  0.1132492E+005  0.1043930E+01  0.7957747E-01            NaN
         13   -1    0    0    0    0  0.00000000000E+00  0.00000000000E+00  0.74505805969E-08  0.10566000000E+00  0.10566000000E+00 0.  1.
     999900   -1    0    0    0    0 -0.00000000000E+00 -0.00000000000E+00 -0.74505805969E-08  0.93827000000E+00  0.93827000000E+00 0.  1.
     999902    2    1    2    0    0  0.19790492215E-01  0.31237659027E-02 -0.14496883602E-01  0.10191998336E+01  0.10188997594E+01 0.  0.
     999903    2    3    3    0    0  0.35904056709E-01 -0.19447805977E-01 -0.12388862822E+00  0.13199316287E+00  0.20161458185E-01 0.  0.
         14    1    1    2    0    0 -0.19790492215E-01 -0.31237659027E-02  0.14496883602E-01  0.24730166390E-01  0.00000000000E+00 0.  1.
     999901    1    3    3    0    0 -0.16113564495E-01  0.22571571879E-01  0.10939174462E+00  0.88720667074E+00  0.88000000000E+00 0. -1.
        -11    1    4    4    0    0  0.13876261916E-01  0.22768874244E-02 -0.48543317519E-01  0.50541563666E-01  0.51100000000E-03 0. -1.
         11    1    4    4    0    0  0.22027794794E-01 -0.21724693401E-01 -0.75345310702E-01  0.81451599202E-01  0.51100000000E-03 0.  1.
</event>
<event>
 8    1  0.1132492E+005  0.1043930E+01  0.7957747E-01            NaN
         13   -1    0    0    0    0  0.00000000000E+00  0.00000000000E+00  0.74505805969E-08  0.10566000000E+00  0.10566000000E+00 0. -1.
     999900   -1    0    0    0    0 -0.00000000000E+00 -0.00000000000E+00 -0.74505805969E-08  0.93827000000E+00  0.93827000000E+00 0.  1.
     999902    2    1    2    0    0 -0.21060208370E-01 -0.74061980579E-02 -0.70130232811E-02  0.10205298581E+01  0.10202615472E+01 0.  0.
     999903    2    3    3    0    0 -0.10536516488E+00 -0.78577856476E-01 -0.13504762754E-01  0.13361674321E+00  0.19868516533E-01 0.  0.
         14    1    1    2    0    0  0.21060208370E-01  0.74061980579E-02  0.70130232811E-02  0.23400141918E-01  0.00000000000E+00 0. -1.
     999901    1    3    3    0    0  0.84304956512E-01  0.71171658418E-01  0.64917394725E-02  0.88691311487E+00  0.88000000000E+00 0.  1.
        -11    1    4    4    0    0 -0.44631122044E-01 -0.44924969578E-01 -0.30874623145E-02  0.63403339747E-01  0.51100000000E-03 0.  1.
         11    1    4    4    0    0 -0.60734042838E-01 -0.33652886898E-01 -0.10417300439E-01  0.70213403460E-01  0.51100000000E-03 0. -1.
</event>
<event>
 8    1  0.1132492E+005  0.1043930E+01  0.7957747E-01            NaN
         13   -1    0    0    0    0  0.00000000000E+00  0.00000000000E+00  0.74505805969E-08  0.10566000000E+00  0.10566000000E+00 0.  1.
     999900   -1    0    0    0    0 -0.00000000000E+00 -0.00000000000E+00 -0.74505805969E-08  0.93827000000E+00  0.93827000000E+00 0.  1.
     999902    2    1    2    0    0  0.24007916788E-01  0.21307977426E-02  0.56909190341E-02  0.10191649656E+01  0.10188640342E+01 0.  0.
     999903    2    3    3    0    0  0.77659664643E-01  0.10212137945E+00  0.22211514940E-01  0.13172507665E+00  0.19958576316E-01 0.  0.
         14    1    1    2    0    0 -0.24007916788E-01 -0.21307977426E-02 -0.56909190341E-02  0.24765034363E-01  0.00000000000E+00 0.  1.
     999901    1    3    3    0    0 -0.53651747854E-01 -0.99990581710E-01 -0.16520595906E-01  0.88743988899E+00  0.88000000000E+00 0. -1.
        -11    1    4    4    0    0  0.21876779271E-01  0.28137891739E-01  0.15359674217E-01  0.38813852371E-01  0.51100000000E-03 0.  1.
         11    1    4    4    0    0  0.55782885371E-01  0.73983487713E-01  0.68518407235E-02  0.92911224278E-01  0.51100000000E-03 0. -1.
</event>
<event>
 8    1  0.1132492E+005  0.1043930E+01  0.7957747E-01            NaN
         13   -1    0    0    0    0  0.00000000000E+00  0.00000000000E+00  0.74505805969E-08  0.10566000000E+00  0.10566000000E+00 0.  1.
     999900   -1    0    0    0    0 -0.00000000000E+00 -0.00000000000E+00 -0.74505805969E-08  0.93827000000E+00  0.93827000000E+00 0. -1.
     999902    2    1    2    0    0  0.30044089784E-02 -0.14679923599E-02  0.23931597886E-01  0.10197659181E+01  0.10194795853E+01 0.  0.
     999903    2    3    3    0    0  0.11836333969E+00  0.51380234998E-01  0.88929206470E-02  0.13053772479E+00  0.17640998391E-01 0.  0.
         14    1    1    2    0    0 -0.30044089784E-02  0.14679923599E-02 -0.23931597886E-01  0.24164081862E-01  0.00000000000E+00 0. -1.
     999901    1    3    3    0    0 -0.11535893071E+00 -0.52848227358E-01  0.15038677239E-01  0.88922819335E+00  0.88000000000E+00 0.  1.
        -11    1    4    4    0    0  0.87205927629E-01  0.35077076080E-01  0.13881342645E-01  0.95016987295E-01  0.51100000000E-03 0. -1.
         11    1    4    4    0    0  0.31157412064E-01  0.16303158918E-01 -0.49884219982E-02  0.35520737496E-01  0.51100000000E-03 0.  1.
</event>
<event>
 8    1  0.1132492E+005  0.1043930E+01  0.7957747E-01            NaN
         13   -1    0    0    0    0  0.00000000000E+00  0.00000000000E+00  0.74505805969E-08  0.10566000000E+00  0.10566000000E+00 0.  1.
     999900   -1    0    0    0    0 -0.00000000000E+00 -0.00000000000E+00 -0.74505805969E-08  0.93827000000E+00  0.93827000000E+00 0.  1.
     999902    2    1    2    0    0  0.46325430235E-02  0.23379198265E-01  0.43093473723E-02  0.10197098051E+01  0.10194221249E+01 0.  0.
     999903    2    3    3    0    0 -0.10301658304E+00  0.72955063415E-01  0.31308250527E-01  0.13135455998E+00  0.18410763662E-01 0.  0.
         14    1    1    2    0    0 -0.46325430235E-02 -0.23379198265E-01 -0.43093473723E-02  0.24220194903E-01  0.00000000000E+00 0.  1.
     999901    1    3    3    0    0  0.10764912606E+00 -0.49575865150E-01 -0.26998903154E-01  0.88835524511E+00  0.88000000000E+00 0.  1.
        -11    1    4    4    0    0 -0.96380603801E-01  0.67290998286E-01  0.33718872256E-01  0.12228868593E+00  0.51100000000E-03 0. -1.
         11    1    4    4    0    0 -0.66359792389E-02  0.56640651290E-02 -0.24106217295E-02  0.90658740542E-02  0.51100000000E-03 0.  1.
</event>
<event>
 8    1  0.1132492E+005  0.1043930E+01  0.7957747E-01            NaN
         13   -1    0    0    0    0  0.00000000000E+00  0.00000000000E+00  0.74505805969E-08  0.10566000000E+00  0.10566000000E+00 0.  1.
     999900   -1    0    0    0    0 -0.00000000000E+00 -0.00000000000E+00 -0.74505805969E-08  0.93827000000E+00  0.93827000000E+00 0.  1.
     999902    2    1    2    0    0 -0.94392310682E-02 -0.19870138532E-01  0.21868508236E-02  0.10218233538E+01  0.10215841926E+01 0.  0.
     999903    2    3    3    0    0  0.12516060615E+00 -0.22866482285E-01 -0.24321231175E-01  0.13118943764E+00  0.20762777244E-01 0.  0.
         14    1    1    2    0    0  0.94392310682E-02  0.19870138532E-01 -0.21868508236E-02  0.22106646172E-01  0.00000000000E+00 0.  1.
     999901    1    3    3    0    0 -0.13459983722E+00  0.29963437524E-02  0.26508081998E-01  0.89063391619E+00  0.88000000000E+00 0.  1.
        -11    1    4    4    0    0  0.41504061907E-01 -0.19725150811E-03 -0.13841916025E-02  0.41530749697E-01  0.51100000000E-03 0.  1.
         11    1    4    4    0    0  0.83656544240E-01 -0.22669230777E-01 -0.22937039572E-01  0.89658687943E-01  0.51100000000E-03 0. -1.
</event>
<event>
 8    1  0.1132492E+005  0.1043930E+01  0.7957747E-01            NaN
         13   -1    0    0    0    0  0.00000000000E+00  0.00000000000E+00  0.74505805969E-08  0.10566000000E+00  0.10566000000E+00 0. -1.
     999900   -1    0    0    0    0 -0.00000000000E+00 -0.00000000000E+00 -0.74505805969E-08  0.93827000000E+00  0.93827000000E+00 0. -1.
     999902    2    1    2    0    0 -0.18507067360E-01 -0.17812138760E-02  0.13059371975E-01  0.10212092724E+01  0.10209564862E+01 0.  0.
     999903    2    3    3    0    0  0.36572921984E-01 -0.24835720493E-01  0.12316686688E+00  0.13233977923E+00  0.19731914114E-01 0.  0.
         14    1    1    2    0    0  0.18507067360E-01  0.17812138760E-02 -0.13059371975E-01  0.22720727574E-01  0.00000000000E+00 0.  1.
     999901    1    3    3    0    0 -0.55079989343E-01  0.23054506617E-01 -0.11010749491E+00  0.88886949320E+00  0.88000000000E+00 0. -1.
        -11    1    4    4    0    0  0.10191802517E-01 -0.13044155242E-01  0.68836179424E-01  0.70800448750E-01  0.51100000000E-03 0. -1.
         11    1    4    4    0    0  0.26381119467E-01 -0.11791565251E-01  0.54330687456E-01  0.61539330480E-01  0.51100000000E-03 0.  1.
</event>
<event>
 8    1  0.1132492E+005  0.1043930E+01  0.7957747E-01            NaN
         13   -1    0    0    0    0  0.00000000000E+00  0.00000000000E+00  0.74505805969E-08  0.10566000000E+00  0.10566000000E+00 0.  1.
     999900   -1    0    0    0    0 -0.00000000000E+00 -0.00000000000E+00 -0.74505805969E-08  0.93827000000E+00  0.93827000000E+00 0.  1.
     999902    2    1    2    0    0 -0.35554121262E-02  0.20925869425E-01  0.94278697205E-02  0.10207046325E+01  0.10204403604E+01 0.  0.
     999903    2    3    3    0    0 -0.82220936818E-01 -0.48897244283E-02 -0.98793817805E-01  0.13021788737E+00  0.20304873750E-01 0.  0.
         14    1    1    2    0    0  0.35554121262E-02 -0.20925869425E-01 -0.94278697205E-02  0.23225367468E-01  0.00000000000E+00 0. -1.
     999901    1    3    3    0    0  0.78665524692E-01  0.25815593853E-01  0.10822168753E+00  0.89048674516E+00  0.88000000000E+00 0. -1.
        -11    1    4    4    0    0 -0.45792867454E-01  0.44764527273E-02 -0.43350826395E-01  0.63218514763E-01  0.51100000000E-03 0.  1.
         11    1    4    4    0    0 -0.36428069365E-01 -0.93661771556E-02 -0.55442991409E-01  0.66999372606E-01  0.51100000000E-03 0. -1.
</event>
<event>
 8    1  0.1132492E+005  0.1043930E+01  0.7957747E-01            NaN
         13   -1    0    0    0    0  0.00000000000E+00  0.00000000000E+00  0.74505805969E-08  0.10566000000E+00  0.10566000000E+00 0.  1.
     999900   -1    0    0    0    0 -0.00000000000E+00 -0.00000000000E+00 -0.74505805969E-08  0.93827000000E+00  0.93827000000E+00 0.  1.
     999902    2    1    2    0    0  0.19195691206E-01 -0.58255460682E-02  0.12742448219E-01  0.10201648673E+01  0.10198880207E+01 0.  0.
     999903    2    3    3    0    0 -0.93195755939E-01 -0.55016882081E-01  0.68978255739E-01  0.12987609894E+00  0.19937278480E-01 0.  0.
         14    1    1    2    0    0 -0.19195691206E-01  0.58255460682E-02 -0.12742448219E-01  0.23765132747E-01  0.00000000000E+00 0. -1.
     999901    1    3    3    0    0  0.11239144715E+00  0.49191336012E-01 -0.56235807520E-01  0.89028876831E+00  0.88000000000E+00 0.  1.
        -11    1    4    4    0    0 -0.12062620975E-01 -0.12687734085E-01  0.49906523490E-02  0.18211346816E-01  0.51100000000E-03 0. -1.
         11    1    4    4    0    0 -0.81133134965E-01 -0.42329147996E-01  0.63987603390E-01  0.11166475213E+00  0.51100000000E-03 0.  1.
</event>
<event>
 8    1  0.1132492E+005  0.1043930E+01  0.7957747E-01            NaN
         13   -1    0    0    0    0  0.00000000000E+00  0.00000000000E+00  0.74505805969E-08  0.10566000000E+00  0.10566000000E+00 0.  1.
     999900   -1    0    0    0    0 -0.00000000000E+00 -0.00000000000E+00 -0.74505805969E-08  0.93827000000E+00  0.93827000000E+00 0.  1.
     999902    2    1    2    0    0 -0.64369825713E-02  0.99277281867E-04 -0.23483438434E-01  0.10195801236E+01  0.10192893171E+01 0.  0.
     999903    2    3    3    0    0 -0.50208549295E-01  0.11767479365E+00 -0.17874467492E-01  0.13066425993E+00  0.19631524455E-01 0.  0.
         14    1    1    2    0    0  0.64369825713E-02 -0.99277281867E-04  0.23483438434E-01  0.24349876412E-01  0.00000000000E+00 0.  1.
     999901    1    3    3    0    0  0.43771566724E-01 -0.11757551637E+00 -0.56089709418E-02  0.88891586366E+00  0.88000000000E+00 0.  1.
        -11    1    4    4    0    0 -0.67690790389E-02  0.18699333480E-01 -0.10060096790E-01  0.22292424096E-01  0.51100000000E-03 0.  1.
         11    1    4    4    0    0 -0.43439470256E-01  0.98975460171E-01 -0.78143707026E-02  0.10837183584E+00  0.51100000000E-03 0. -1.
</event>
<event>
 8    1  0.1132492E+005  0.1043930E+01  0.7957747E-01            NaN
         13   -1    0    0    0    0  0.00000000000E+00  0.00000000000E+00  0.74505805969E-08  0.10566000000E+00  0.10566000000E+00 0. -1.
     999900   -1    0    0    0    0 -0.00000000000E+00 -0.00000000000E+00 -0.74505805969E-08  0.93827000000E+00  0.93827000000E+00 0.  1.
     999902    2    1    2    0    0 -0.18179625744E-01  0.31155424081E-02  0.15579479415E-01  0.10197861483E+01  0.10195003005E+01 0.  0.
     999903    2    3    3    0    0 -0.86226200103E-01  0.80488948593E-01 -0.53682837168E-01  0.13107120593E+00  0.19605753958E-01 0.  0.
         14    1    1    2    0    0  0.18179625744E-01 -0.31155424081E-02 -0.15579479415E-01  0.24143851713E-01  0.00000000000E+00 0.  1.
     999901    1    3    3    0    0  0.68046574359E-01 -0.77373406185E-01  0.69262316584E-01  0.88871494236E+00  0.88000000000E+00 0. -1.
        -11    1    4    4    0    0 -0.52565154255E-01  0.42416683749E-01 -0.39748942994E-01  0.78374167251E-01  0.51100000000E-03 0. -1.
         11    1    4    4    0    0 -0.33661045848E-01  0.38072264844E-01 -0.13933894174E-01  0.52697038681E-01  0.51100000000E-03 0.  1.
</event>
<event>
 7    1  0.1132492E+005  0.1043930E+01  0.7957747E-01            NaN
         13   -1    0    0    0    0  0.00000000000E+00  0.00000000000E+00  0.74505805969E-08  0.10566000000E+00  0.10566000000E+00 0. -1.
     999900   -1    0    0    0    0 -0.00000000000E+00 -0.00000000000E+00 -0.74505805969E-08  0.93827000000E+00  0.93827000000E+00 0.  1.
     999903    2    1    2    0    0 -0.43352425796E-01 -0.11545779685E-01 -0.65570797312E-01  0.81841614617E-01  0.19641348531E-01 0.  0.
         14    1    1    2    0    0  0.66332918855E-01 -0.28217816681E-01 -0.24885920152E-01  0.76260148989E-01  0.00000000000E+00 0. -1.
     999901    1    1    2    0    0 -0.22980493059E-01  0.39763596366E-01  0.90456717464E-01  0.88582823639E+00  0.88000000000E+00 0. -1.
        -11    1    3    3    0    0 -0.13487266572E-01  0.45096628129E-02 -0.12952290595E-01  0.19242306799E-01  0.51100000000E-03 0.  1.
         11    1    3    3    0    0 -0.29865159223E-01 -0.16055442498E-01 -0.52618506717E-01  0.62599307818E-01  0.51100000000E-03 0. -1.
</event>
<event>
 8    1  0.1132492E+005  0.1043930E+01  0.7957747E-01            NaN
         13   -1    0    0    0    0  0.00000000000E+00  0.00000000000E+00  0.74505805969E-08  0.10566000000E+00  0.10566000000E+00 0.  1.
     999900   -1    0    0    0    0 -0.00000000000E+00 -0.00000000000E+00 -0.74505805969E-08  0.93827000000E+00  0.93827000000E+00 0. -1.
     999902    2    1    2    0    0 -0.21667809547E-01  0.76665812309E-02 -0.72730501071E-02  0.10198225801E+01  0.10195376046E+01 0.  0.
     999903    2    3    3    0    0  0.66102610839E-01 -0.10483987402E+00  0.23132349515E-01  0.12781033940E+00  0.20962416821E-01 0.  0.
         14    1    1    2    0    0  0.21667809547E-01 -0.76665812309E-02  0.72730501071E-02  0.24107419941E-01  0.00000000000E+00 0.  1.
     999901    1    3    3    0    0 -0.87770420386E-01  0.11250645525E+00 -0.30405399622E-01  0.89201224066E+00  0.88000000000E+00 0. -1.
        -11    1    4    4    0    0  0.29461366731E-01 -0.43246205831E-01 -0.53597686800E-03  0.52333114188E-01  0.51100000000E-03 0.  1.
         11    1    4    4    0    0  0.36641244108E-01 -0.61593668185E-01  0.23668326383E-01  0.75477225208E-01  0.51100000000E-03 0. -1.
</event>
<event>
 8    1  0.1132492E+005  0.1043930E+01  0.7957747E-01            NaN
         13   -1    0    0    0    0  0.00000000000E+00  0.00000000000E+00  0.74505805969E-08  0.10566000000E+00  0.10566000000E+00 0.  1.
     999900   -1    0    0    0    0 -0.00000000000E+00 -0.00000000000E+00 -0.74505805969E-08  0.93827000000E+00  0.93827000000E+00 0. -1.
     999902    2    1    2    0    0  0.17654920544E-01 -0.17000117373E-01 -0.32452560928E-02  0.10192068955E+01  0.10189069947E+01 0.  0.
     999903    2    3    3    0    0 -0.20868288715E-01 -0.60557987314E-01  0.11099235495E+00  0.12991978916E+00  0.21379744071E-01 0.  0.
         14    1    1    2    0    0 -0.17654920544E-01  0.17000117373E-01  0.32452560928E-02  0.24723104522E-01  0.00000000000E+00 0. -1.
     999901    1    3    3    0    0  0.38523209259E-01  0.43557869941E-01 -0.11423761104E+00  0.88928710632E+00  0.88000000000E+00 0. -1.
        -11    1    4    4    0    0 -0.55106348774E-03 -0.74581385315E-02  0.30268362946E-01  0.31182726272E-01  0.51100000000E-03 0. -1.
         11    1    4    4    0    0 -0.20317225227E-01 -0.53099848782E-01  0.80723992006E-01  0.98737062889E-01  0.51100000000E-03 0.  1.
</event>
<event>
 7    1  0.1132492E+005  0.1043930E+01  0.7957747E-01            NaN
         13   -1    0    0    0    0  0.00000000000E+00  0.00000000000E+00  0.74505805969E-08  0.10566000000E+00  0.10566000000E+00 0. -1.
     999900   -1    0    0    0    0 -0.00000000000E+00 -0.00000000000E+00 -0.74505805969E-08  0.93827000000E+00  0.93827000000E+00 0.  1.
     999903    2    1    2    0    0  0.77193647324E-01  0.45492817542E-01 -0.37112937864E-01  0.98862291175E-01  0.19181418723E-01 0.  0.
         14    1    1    2    0    0  0.30161714333E-01  0.43898125629E-01 -0.31622189139E-03  0.53262317275E-01  0.00000000000E+00 0. -1.
     999901    1    1    2    0    0 -0.10735536166E+00 -0.89390943171E-01  0.37429159756E-01  0.89180539155E+00  0.88000000000E+00 0.  1.
        -11    1    3    3    0    0  0.50981415869E-01  0.39175564519E-01 -0.22047774087E-01  0.67972016908E-01  0.51100000000E-03 0. -1.
         11    1    3    3    0    0  0.26212231455E-01  0.63172530236E-02 -0.15065163778E-01  0.30890274266E-01  0.51100000000E-03 0.  1.
</event>
<event>
 8    1  0.1132492E+005  0.1043930E+01  0.7957747E-01            NaN
         13   -1    0    0    0    0  0.00000000000E+00  0.00000000000E+00  0.74505805969E-08  0.10566000000E+00  0.10566000000E+00 0. -1.
     999900   -1    0    0    0    0 -0.00000000000E+00 -0.00000000000E+00 -0.74505805969E-08  0.93827000000E+00  0.93827000000E+00 0.  1.
     999902    2    1    2    0    0  0.22389565748E-01 -0.68921252413E-02 -0.14257514135E-03  0.10205032125E+01  0.10202342831E+01 0.  0.
     999903    2    3    3    0    0  0.16426650859E-01  0.12766387618E+00 -0.13158902138E-02  0.13025479181E+00  0.19916804082E-01 0.  0.
         14    1    1    2    0    0 -0.22389565748E-01  0.68921252413E-02  0.14257514135E-03  0.23426787497E-01  0.00000000000E+00 0.  1.
     999901    1    3    3    0    0  0.59629148895E-02 -0.13455600142E+00  0.11733150725E-02  0.89024842069E+00  0.88000000000E+00 0.  1.
        -11    1    4    4    0    0  0.11561247248E-01  0.56750689026E-01 -0.95394458737E-02  0.58698937737E-01  0.51100000000E-03 0. -1.
         11    1    4    4    0    0  0.48654036107E-02  0.70913187150E-01  0.82235556598E-02  0.71555854078E-01  0.51100000000E-03 0.  1.
</event>
<event>
 8    1  0.1132492E+005  0.1043930E+01  0.7957747E-01            NaN
         13   -1    0    0    0    0  0.00000000000E+00  0.00000000000E+00  0.74505805969E-08  0.10566000000E+00  0.10566000000E+00 0. -1.
     999900   -1    0    0    0    0 -0.00000000000E+00 -0.00000000000E+00 -0.74505805969E-08  0.93827000000E+00  0.93827000000E+00 0. -1.
     999902    2    1    2    0    0  0.14625915584E-01 -0.17071926101E-01  0.80909898168E-02  0.10200379054E+01  0.10197580577E+01 0.  0.
     999903    2    3    3    0    0 -0.92966979042E-01 -0.50177283758E-01  0.73743514100E-01  0.13044111494E+00  0.20399990131E-01 0.  0.
         14    1    1    2    0    0 -0.14625915584E-01  0.17071926101E-01 -0.80909898168E-02  0.23892094585E-01  0.00000000000E+00 0.  1.
     999901    1    3    3    0    0  0.10759289463E+00  0.33105357657E-01 -0.65652524283E-01  0.88959679048E+00  0.88000000000E+00 0. -1.
        -11    1    4    4    0    0 -0.88752937648E-02 -0.16469221477E-02  0.13266185208E-01  0.16054157808E-01  0.51100000000E-03 0.  1.
         11    1    4    4    0    0 -0.84091685277E-01 -0.48530361610E-01  0.60477328892E-01  0.11438695713E+00  0.51100000000E-03 0. -1.
</event>
<event>
 8    1  0.1132492E+005  0.1043930E+01  0.7957747E-01            NaN
         13   -1    0    0    0    0  0.00000000000E+00  0.00000000000E+00  0.74505805969E-08  0.10566000000E+00  0.10566000000E+00 0.  1.
     999900   -1    0    0    0    0 -0.00000000000E+00 -0.00000000000E+00 -0.74505805969E-08  0.93827000000E+00  0.93827000000E+00 0.  1.
     999902    2    1    2    0    0  0.61648917818E-02 -0.22836371978E-01 -0.35321958069E-02  0.10200138510E+01  0.10197334328E+01 0.  0.
     999903    2    3    3    0    0  0.67009981860E-02  0.11163456221E+00  0.58356720218E-01  0.12765015974E+00  0.19541689555E-01 0.  0.
         14    1    1    2    0    0 -0.61648917818E-02  0.22836371978E-01  0.35321958069E-02  0.23916149000E-01  0.00000000000E+00 0. -1.
     999901    1    3    3    0    0 -0.53610640420E-03 -0.13447093419E+00 -0.61888916025E-01  0.89236369126E+00  0.88000000000E+00 0. -1.
        -11    1    4    4    0    0  0.12261487461E-01  0.74194845030E-01  0.33240045884E-01  0.82221535349E-01  0.51100000000E-03 0. -1.
         11    1    4    4    0    0 -0.55604892753E-02  0.37439717180E-01  0.25116674334E-01  0.45428624391E-01  0.51100000000E-03 0.  1.
</event>
<event>
 8    1  0.1132492E+005  0.1043930E+01  0.7957747E-01            NaN
         13   -1    0    0    0    0  0.00000000000E+00  0.00000000000E+00  0.74505805969E-08  0.10566000000E+00  0.10566000000E+00 0.  1.
     999900   -1    0    0    0    0 -0.00000000000E+00 -0.00000000000E+00 -0.74505805969E-08  0.93827000000E+00  0.93827000000E+00 0.  1.
     999902    2    1    2    0    0  0.41531968039E-02 -0.18029045805E-01 -0.14075509729E-01  0.10206831613E+01  0.10204183947E+01 0.  0.
     999903    2    3    3    0    0 -0.95791297281E-01  0.21239984541E-01  0.81337924457E-01  0.12903598775E+00  0.20182135699E-01 0.  0.
         14    1    1    2    0    0 -0.41531968039E-02  0.18029045805E-01  0.14075509729E-01  0.23246838720E-01  0.00000000000E+00 0.  1.
     999901    1    3    3    0    0  0.99944494085E-01 -0.39269030346E-01 -0.95413434185E-01  0.89164717353E+00  0.88000000000E+00 0.  1.
        -11    1    4    4    0    0 -0.52006516370E-01  0.24861629137E-02  0.48688892572E-01  0.71286240831E-01  0.51100000000E-03 0. -1.
         11    1    4    4    0    0 -0.43784780911E-01  0.18753821627E-01  0.32649031885E-01  0.57749746918E-01  0.51100000000E-03 0.  1.
</event>
<event>
 8    1  0.1132492E+005  0.1043930E+01  0.7957747E-01            NaN
         13   -1    0    0    0    0  0.00000000000E+00  0.00000000000E+00  0.74505805969E-08  0.10566000000E+00  0.10566000000E+00 0.  1.
     999900   -1    0    0    0    0 -0.00000000000E+00 -0.00000000000E+00 -0.74505805969E-08  0.93827000000E+00  0.93827000000E+00 0.  1.
     999902    2    1    2    0    0 -0.15434482194E-01  0.25109558726E-02 -0.16862069160E-01  0.10209330977E+01  0.10206740579E+01 0.  0.
     999903    2    3    3    0    0 -0.11900483393E+00  0.54024022501E-01 -0.17879180692E-01  0.13336256622E+00  0.19625581806E-01 0.  0.
         14    1    1    2    0    0  0.15434482194E-01 -0.25109558726E-02  0.16862069160E-01  0.22996902321E-01  0.00000000000E+00 0.  1.
     999901    1    3    3    0    0  0.10357035174E+00 -0.51513066629E-01  0.10171115318E-02  0.88757053146E+00  0.88000000000E+00 0. -1.
        -11    1    4    4    0    0 -0.70885337404E-01  0.21716518712E-01 -0.11997488773E-01  0.75103522565E-01  0.51100000000E-03 0.  1.
         11    1    4    4    0    0 -0.48119496528E-01  0.32307503789E-01 -0.58816919188E-02  0.58259043659E-01  0.51100000000E-03 0. -1.
</event>
<event>
 8    1  0.1132492E+005  0.1043930E+01  0.7957747E-01            NaN
         13   -1    0    0    0    0  0.00000000000E+00  0.00000000000E+00  0.74505805969E-08  0.10566000000E+00  0.10566000000E+00 0.  1.
     999900   -1    0    0    0    0 -0.00000000000E+00 -0.00000000000E+00 -0.74505805969E-08  0.93827000000E+00  0.93827000000E+00 0. -1.
     999902    2    1    2    0    0 -0.14341957458E-01 -0.90516417853E-02 -0.16331028229E-01  0.10203858618E+01  0.10201141997E+01 0.  0.
     999903    2    3    3    0    0 -0.37209463071E-01  0.10869469307E+00  0.56022728759E-01  0.12930663501E+00  0.19559633844E-01 0.  0.
         14    1    1    2    0    0  0.14341957458E-01  0.90516417853E-02  0.16331028229E-01  0.23544138246E-01  0.00000000000E+00 0. -1.
     999901    1    3    3    0    0  0.22867505613E-01 -0.11774633486E+00 -0.72353756987E-01  0.89107922674E+00  0.88000000000E+00 0.  1.
        -11    1    4    4    0    0 -0.20515445678E-01  0.35023548256E-01  0.14492386561E-01  0.43102468990E-01  0.51100000000E-03 0.  1.
         11    1    4    4    0    0 -0.16694017393E-01  0.73671144816E-01  0.41530342197E-01  0.86204166020E-01  0.51100000000E-03 0. -1.
</event>
<event>
 8    1  0.1132492E+005  0.1043930E+01  0.7957747E-01            NaN
         13   -1    0    0    0    0  0.00000000000E+00  0.00000000000E+00  0.74505805969E-08  0.10566000000E+00  0.10566000000E+00 0.  1.
     999900   -1    0    0    0    0 -0.00000000000E+00 -0.00000000000E+00 -0.74505805969E-08  0.93827000000E+00  0.93827000000E+00 0. -1.
     999902    2    1    2    0    0  0.12405076965E-01 -0.12872922470E-01  0.13910404100E-01  0.10212783464E+01  0.10210271120E+01 0.  0.
     999903    2    3    3    0    0 -0.29487923825E-01 -0.54808672985E-01  0.11630887583E+00  0.13335995057E+00  0.19585543996E-01 0.  0.
         14    1    1    2    0    0 -0.12405076965E-01  0.12872922470E-01 -0.13910404100E-01  0.22651653574E-01  0.00000000000E+00 0. -1.
     999901    1    3    3    0    0  0.41893000789E-01  0.41935750515E-01 -0.10239847173E+00  0.88791839586E+00  0.88000000000E+00 0. -1.
        -11    1    4    4    0    0 -0.22431411566E-01 -0.50405420076E-01  0.88142750224E-01  0.10398692291E+00  0.51100000000E-03 0.  1.
         11    1    4    4    0    0 -0.70565122588E-02 -0.44032529091E-02  0.28166125604E-01  0.29373027662E-01  0.51100000000E-03 0. -1.
</event>
<event>
 8    1  0.1132492E+005  0.1043930E+01  0.7957747E-01            NaN
         13   -1    0    0    0    0  0.00000000000E+00  0.00000000000E+00  0.74505805969E-08  0.10566000000E+00  0.10566000000E+00 0.  1.
     999900   -1    0    0    0    0 -0.00000000000E+00 -0.00000000000E+00 -0.74505805969E-08  0.93827000000E+00  0.93827000000E+00 0.  1.
     999902    2    1    2    0    0  0.25093207095E-02 -0.27606881320E-02  0.22352283841E-01  0.10212685199E+01  0.10210170650E+01 0.  0.
     999903    2    3    3    0    0 -0.86457332243E-01  0.22706180690E-02 -0.94040844654E-01  0.12914311402E+00  0.18821196305E-01 0.  0.
         14    1    1    2    0    0 -0.25093207095E-02  0.27606881320E-02 -0.22352283841E-01  0.22661480144E-01  0.00000000000E+00 0. -1.
     999901    1    3    3    0    0  0.88966652952E-01 -0.50313062009E-02  0.11639312850E+00  0.89212540584E+00  0.88000000000E+00 0. -1.
        -11    1    4    4    0    0 -0.46802642863E-01  0.44495953358E-02 -0.63650348823E-01  0.79132258302E-01  0.51100000000E-03 0. -1.
         11    1    4    4    0    0 -0.39654689380E-01 -0.21789772669E-02 -0.30390495831E-01  0.50010855717E-01  0.51100000000E-03 0.  1.
</event>
<event>
 8    1  0.1132492E+005  0.1043930E+01  0.7957747E-01            NaN
         13   -1    0    0    0    0  0.00000000000E+00  0.00000000000E+00  0.74505805969E-08  0.10566000000E+00  0.10566000000E+00 0. -1.
     999900   -1    0    0    0    0 -0.00000000000E+00 -0.00000000000E+00 -0.74505805969E-08  0.93827000000E+00  0.93827000000E+00 0.  1.
     999902    2    1    2    0    0 -0.19786688956E-01  0.12012303654E-01  0.52135883307E-02  0.10202025896E+01  0.10199266316E+01 0.  0.
     999903    2    3    3    0    0 -0.91929438550E-01  0.64382094688E-02 -0.92840013882E-01  0.13180506840E+00  0.16150407586E-01 0.  0.
         14    1    1    2    0    0  0.19786688956E-01 -0.12012303654E-01 -0.52135883307E-02  0.23727410356E-01  0.00000000000E+00 0.  1.
     999901    1    3    3    0    0  0.72142749595E-01  0.55740941857E-02  0.98053602212E-01  0.88839752124E+00  0.88000000000E+00 0. -1.
        -11    1    4    4    0    0 -0.38183352958E-01 -0.52722542440E-02 -0.38007612761E-01  0.54135061252E-01  0.51100000000E-03 0. -1.
         11    1    4    4    0    0 -0.53746085592E-01  0.11710463713E-01 -0.54832401121E-01  0.77670007149E-01  0.51100000000E-03 0.  1.
</event>
<event>
 8    1  0.1132492E+005  0.1043930E+01  0.7957747E-01            NaN
         13   -1    0    0    0    0  0.00000000000E+00  0.00000000000E+00  0.74505805969E-08  0.10566000000E+00  0.10566000000E+00 0. -1.
     999900   -1    0    0    0    0 -0.00000000000E+00 -0.00000000000E+00 -0.74505805969E-08  0.93827000000E+00  0.93827000000E+00 0. -1.
     999902    2    1    2    0    0 -0.16541445498E-02 -0.15458799944E-01  0.17254874237E-01  0.10207041227E+01  0.10204398389E+01 0.  0.
     999903    2    3    3    0    0  0.11752082973E+00  0.53384129403E-01  0.17605240393E-02  0.12987187236E+00  0.14233520072E-01 0.  0.
         14    1    1    2    0    0  0.16541445498E-02  0.15458799944E-01 -0.17254874237E-01  0.23225877267E-01  0.00000000000E+00 0.  1.
     999901    1    3    3    0    0 -0.11917497428E+00 -0.68842929347E-01  0.15494350197E-01  0.89083225037E+00  0.88000000000E+00 0. -1.
        -11    1    4    4    0    0  0.24678312870E-01  0.13281043609E-01 -0.51592489085E-02  0.28500600270E-01  0.51100000000E-03 0.  1.
         11    1    4    4    0    0  0.92842516858E-01  0.40103085794E-01  0.69197729477E-02  0.10137127209E+00  0.51100000000E-03 0. -1.
</event>
<event>
 8    1  0.1132492E+005  0.1043930E+01  0.7957747E-01            NaN
         13   -1    0    0    0    0  0.00000000000E+00  0.00000000000E+00  0.74505805969E-08  0.10566000000E+00  0.10566000000E+00 0.  1.
     999900   -1    0    0    0    0 -0.00000000000E+00 -0.00000000000E+00 -0.74505805969E-08  0.93827000000E+00  0.93827000000E+00 0. -1.
     999902    2    1    2    0    0  0.93817140111E-02  0.89886429228E-02  0.19050425136E-01  0.10208707078E+01  0.10206102444E+01 0.  0.
     999903    2    3    3    0    0 -0.47128990821E-01  0.74495871002E-02 -0.11769286068E+00  0.12851732786E+00  0.19709286702E-01 0.  0.
         14    1    1    2    0    0 -0.93817140111E-02 -0.89886429228E-02 -0.19050425136E-01  0.23059292211E-01  0.00000000000E+00 0. -1.
     999901    1    3    3    0    0  0.56510704832E-01  0.15390558226E-02  0.13674328581E+00  0.89235337993E+00  0.88000000000E+00 0.  1.
        -11    1    4    4    0    0 -0.17627885754E-01 -0.13607388687E-02 -0.23458776436E-01  0.29379742669E-01  0.51100000000E-03 0.  1.
         11    1    4    4    0    0 -0.29501105066E-01  0.88103259690E-02 -0.94234084242E-01  0.99137585192E-01  0.51100000000E-03 0. -1.
</event>
<event>
 8    1  0.1132492E+005  0.1043930E+01  0.7957747E-01            NaN
         13   -1    0    0    0    0  0.00000000000E+00  0.00000000000E+00  0.74505805969E-08  0.10566000000E+00  0.10566000000E+00 0. -1.
     999900   -1    0    0    0    0 -0.00000000000E+00 -0.00000000000E+00 -0.74505805969E-08  0.93827000000E+00  0.93827000000E+00 0. -1.
     999902    2    1    2    0    0 -0.15996144708E-01  0.46822621142E-02  0.11764758874E-01  0.10235287801E+01  0.10233254389E+01 0.  0.
     999903    2    3    3    0    0  0.88055465385E-01 -0.91539737562E-01 -0.27096845646E-01  0.13134290531E+00  0.19581399182E-01 0.  0.
         14    1    1    2    0    0  0.15996144708E-01 -0.46822621142E-02 -0.11764758874E-01  0.20401219948E-01  0.00000000000E+00 0.  1.
     999901    1    3    3    0    0 -0.10405161009E+00  0.96221999676E-01  0.38861604520E-01  0.89218587474E+00  0.88000000000E+00 0.  1.
        -11    1    4    4    0    0  0.55413052624E-01 -0.58104091590E-01 -0.26683574865E-01  0.84610673967E-01  0.51100000000E-03 0.  1.
         11    1    4    4    0    0  0.32642412761E-01 -0.33435645972E-01 -0.41327078098E-03  0.46732231342E-01  0.51100000000E-03 0. -1.
</event>
<event>
 8    1  0.1132492E+005  0.1043930E+01  0.7957747E-01            NaN
         13   -1    0    0    0    0  0.00000000000E+00  0.00000000000E+00  0.74505805969E-08  0.10566000000E+00  0.10566000000E+00 0.  1.
     999900   -1    0    0    0    0 -0.00000000000E+00 -0.00000000000E+00 -0.74505805969E-08  0.93827000000E+00  0.93827000000E+00 0.  1.
     999902    2    1    2    0    0 -0.74965341129E-02 -0.15963068522E-01 -0.16330955744E-01  0.10198942413E+01  0.10196109777E+01 0.  0.
     999903    2    3    3    0    0 -0.26543837227E-01 -0.11114039665E+00  0.61095168607E-01  0.13117812900E+00  0.20452844256E-01 0.  0.
         14    1    1    2    0    0  0.74965341129E-02  0.15963068522E-01  0.16330955744E-01  0.24035758691E-01  0.00000000000E+00 0.  1.
     999901    1    3    3    0    0  0.19047303114E-01  0.95177328130E-01 -0.77426124351E-01  0.88871611231E+00  0.88000000000E+00 0.  1.
        -11    1    4    4    0    0 -0.18340362475E-01 -0.95479823004E-01  0.58030951497E-01  0.11322816765E+00  0.51100000000E-03 0. -1.
         11    1    4    4    0    0 -0.82034747527E-02 -0.15660573647E-01  0.30642171103E-02  0.17949961350E-01  0.51100000000E-03 0.  1.
</event>
<event>
 8    1  0.1213479E+005  0.1043930E+01  0.7957747E-01            NaN
         13   -1    0    0    0    0  0.00000000000E+00  0.00000000000E+00  0.74505805969E-08  0.10566000000E+00  0.10566000000E+00 0.  1.
     999900   -1    0    0    0    0 -0.00000000000E+00 -0.00000000000E+00 -0.74505805969E-08  0.93827000000E+00  0.93827000000E+00 0.  1.
     999902    2    1    2    0    0  0.16759602012E-01 -0.20432404100E-01 -0.24041069910E-01  0.10082040929E+01  0.10075709168E+01 0.  0.
     999903    2    3    3    0    0  0.40842507976E-01 -0.10906251137E+00 -0.35658487621E-01  0.12334803302E+00  0.19505580418E-01 0.  0.
         14    1    1    2    0    0 -0.16759602012E-01  0.20432404100E-01  0.24041069910E-01  0.35725907117E-01  0.00000000000E+00 0.  1.
     999901    1    3    3    0    0 -0.24082905964E-01  0.88630107269E-01  0.11617417711E-01  0.88485605986E+00  0.88000000000E+00 0.  1.
        -11    1    4    4    0    0  0.17451569758E-01 -0.71362657532E-01 -0.18370862779E-01  0.75729359546E-01  0.51100000000E-03 0.  1.
         11    1    4    4    0    0  0.23390938218E-01 -0.37699853838E-01 -0.17287624842E-01  0.47618673478E-01  0.51100000000E-03 0. -1.
</event>
<event>
 8    1  0.1132492E+005  0.1043930E+01  0.7957747E-01            NaN
         13   -1    0    0    0    0  0.00000000000E+00  0.00000000000E+00  0.74505805969E-08  0.10566000000E+00  0.10566000000E+00 0. -1.
     999900   -1    0    0    0    0 -0.00000000000E+00 -0.00000000000E+00 -0.74505805969E-08  0.93827000000E+00  0.93827000000E+00 0. -1.
     999902    2    1    2    0    0  0.70116039555E-02 -0.86846952788E-02 -0.20317038149E-01  0.10207487886E+01  0.10204855319E+01 0.  0.
     999903    2    3    3    0    0  0.10378534103E+00  0.57376557863E-01  0.49401560904E-01  0.13024896918E+00  0.21466563494E-01 0.  0.
         14    1    1    2    0    0 -0.70116039555E-02  0.86846952788E-02  0.20317038149E-01  0.23181211385E-01  0.00000000000E+00 0. -1.
     999901    1    3    3    0    0 -0.96773737077E-01 -0.66061253142E-01 -0.69718599053E-01  0.89049981943E+00  0.88000000000E+00 0. -1.
        -11    1    4    4    0    0  0.76999668614E-01  0.43200992507E-01  0.26259659621E-01  0.92114632739E-01  0.51100000000E-03 0.  1.
         11    1    4    4    0    0  0.26785672418E-01  0.14175565356E-01  0.23141901283E-01  0.38134336444E-01  0.51100000000E-03 0. -1.
</event>
<event>
 8    1  0.1132492E+005  0.1043930E+01  0.7957747E-01            NaN
         13   -1    0    0    0    0  0.00000000000E+00  0.00000000000E+00  0.74505805969E-08  0.10566000000E+00  0.10566000000E+00 0. -1.
     999900   -1    0    0    0    0 -0.00000000000E+00 -0.00000000000E+00 -0.74505805969E-08  0.93827000000E+00  0.93827000000E+00 0.  1.
     999902    2    1    2    0    0 -0.17763815008E-01  0.23619654312E-01 -0.43769395609E-02  0.10140536081E+01  0.10136133983E+01 0.  0.
     999903    2    3    3    0    0 -0.21322082940E-01  0.73183130221E-01  0.98841543046E-01  0.12662853826E+00  0.21324500007E-01 0.  0.
         14    1    1    2    0    0  0.17763815008E-01 -0.23619654312E-01  0.43769395609E-02  0.29876391907E-01  0.00000000000E+00 0. -1.
     999901    1    3    3    0    0  0.35582679312E-02 -0.49563475909E-01 -0.10321848261E+00  0.88742506983E+00  0.88000000000E+00 0.  1.
        -11    1    4    4    0    0 -0.18802568013E-02  0.57192000197E-02  0.20763339502E-01  0.21624569424E-01  0.51100000000E-03 0. -1.
         11    1    4    4    0    0 -0.19441826138E-01  0.67463930201E-01  0.78078203544E-01  0.10500396884E+00  0.51100000000E-03 0.  1.
</event>
<event>
 8    1  0.1132492E+005  0.1043930E+01  0.7957747E-01            NaN
         13   -1    0    0    0    0  0.00000000000E+00  0.00000000000E+00  0.74505805969E-08  0.10566000000E+00  0.10566000000E+00 0. -1.
     999900   -1    0    0    0    0 -0.00000000000E+00 -0.00000000000E+00 -0.74505805969E-08  0.93827000000E+00  0.93827000000E+00 0. -1.
     999902    2    1    2    0    0  0.21772079256E-01  0.75977047129E-02  0.24391110413E-02  0.10207416880E+01  0.10204782681E+01 0.  0.
     999903    2    3    3    0    0  0.18678101824E-01  0.56605919417E-01  0.11639385755E+00  0.13203641509E+00  0.18247828179E-01 0.  0.
         14    1    1    2    0    0 -0.21772079256E-01 -0.75977047129E-02 -0.24391110413E-02  0.23188312028E-01  0.00000000000E+00 0.  1.
     999901    1    3    3    0    0  0.30939774321E-02 -0.49008214704E-01 -0.11395474651E+00  0.88870527289E+00  0.88000000000E+00 0. -1.
        -11    1    4    4    0    0  0.11323644997E-01  0.26017184119E-01  0.36965259265E-01  0.46602685749E-01  0.51100000000E-03 0.  1.
         11    1    4    4    0    0  0.73544568269E-02  0.30588735298E-01  0.79428598282E-01  0.85433729336E-01  0.51100000000E-03 0. -1.
</event>
<event>
 8    1  0.1132492E+005  0.1043930E+01  0.7957747E-01            NaN
         13   -1    0    0    0    0  0.00000000000E+00  0.00000000000E+00  0.74505805969E-08  0.10566000000E+00  0.10566000000E+00 0.  1.
     999900   -1    0    0    0    0 -0.00000000000E+00 -0.00000000000E+00 -0.74505805969E-08  0.93827000000E+00  0.93827000000E+00 0. -1.
     999902    2    1    2    0    0 -0.13634454302E-01 -0.15328391594E-01 -0.11510411712E-01  0.10204066603E+01  0.10201354836E+01 0.  0.
     999903    2    3    3    0    0 -0.17582859244E-01 -0.31066526065E-01 -0.12629238959E+00  0.13280416975E+00  0.20319789745E-01 0.  0.
         14    1    1    2    0    0  0.13634454302E-01  0.15328391594E-01  0.11510411712E-01  0.23523339702E-01  0.00000000000E+00 0.  1.
     999901    1    3    3    0    0  0.39484049419E-02  0.15738134472E-01  0.11478197787E+00  0.88760249055E+00  0.88000000000E+00 0.  1.
        -11    1    4    4    0    0 -0.96025985842E-02 -0.67373314057E-03 -0.28523073972E-01  0.30107983754E-01  0.51100000000E-03 0. -1.
         11    1    4    4    0    0 -0.79802606600E-02 -0.30392792925E-01 -0.97769315613E-01  0.10269618600E+00  0.51100000000E-03 0.  1.
</event>
<event>
 8    1  0.1132492E+005  0.1043930E+01  0.7957747E-01            NaN
         13   -1    0    0    0    0  0.00000000000E+00  0.00000000000E+00  0.74505805969E-08  0.10566000000E+00  0.10566000000E+00 0.  1.
     999900   -1    0    0    0    0 -0.00000000000E+00 -0.00000000000E+00 -0.74505805969E-08  0.93827000000E+00  0.93827000000E+00 0. -1.
     999902    2    1    2    0    0  0.16758040329E-01  0.14044875854E-01  0.20525108457E-03  0.10220637570E+01  0.10218298248E+01 0.  0.
     999903    2    3    3    0    0 -0.11253496647E+00 -0.28051196311E-01  0.55578053627E-01  0.12990070682E+00  0.18283470523E-01 0.  0.
         14    1    1    2    0    0 -0.16758040329E-01 -0.14044875854E-01 -0.20525108457E-03  0.21866242966E-01  0.00000000000E+00 0.  1.
     999901    1    3    3    0    0  0.12929300680E+00  0.42096072165E-01 -0.55372802543E-01  0.89216305021E+00  0.88000000000E+00 0. -1.
        -11    1    4    4    0    0 -0.62842604852E-01 -0.24162992009E-01  0.35971762321E-01  0.76336570351E-01  0.51100000000E-03 0. -1.
         11    1    4    4    0    0 -0.49692361623E-01 -0.38882043024E-02  0.19606291306E-01  0.53564136473E-01  0.51100000000E-03 0.  1.
</event>
<event>
 8    1  0.1132492E+005  0.1043930E+01  0.7957747E-01            NaN
         13   -1    0    0    0    0  0.00000000000E+00  0.00000000000E+00  0.74505805969E-08  0.10566000000E+00  0.10566000000E+00 0.  1.
     999900   -1    0    0    0    0 -0.00000000000E+00 -0.00000000000E+00 -0.74505805969E-08  0.93827000000E+00  0.93827000000E+00 0. -1.
     999902    2    1    2    0    0 -0.33961416435E-02 -0.28214198230E-01 -0.89209325451E-02  0.10141448057E+01  0.10137073193E+01 0.  0.
     999903    2    3    3    0    0 -0.11756211453E+00 -0.24877456981E-01 -0.33314277313E-01  0.12642861321E+00  0.20847410528E-01 0.  0.
         14    1    1    2    0    0  0.33961416435E-02  0.28214198230E-01  0.89209325451E-02  0.29785194263E-01  0.00000000000E+00 0. -1.
     999901    1    3    3    0    0  0.11416597289E+00 -0.33367412494E-02  0.24393344768E-01  0.88771619253E+00  0.88000000000E+00 0.  1.
        -11    1    4    4    0    0 -0.25128268385E-01 -0.10282817700E-01 -0.18232197237E-03  0.27156225330E-01  0.51100000000E-03 0. -1.
         11    1    4    4    0    0 -0.92433846147E-01 -0.14594639281E-01 -0.33131955341E-01  0.99272387878E-01  0.51100000000E-03 0.  1.
</event>
<event>
 8    1  0.1132492E+005  0.1043930E+01  0.7957747E-01            NaN
         13   -1    0    0    0    0  0.00000000000E+00  0.00000000000E+00  0.74505805969E-08  0.10566000000E+00  0.10566000000E+00 0.  1.
     999900   -1    0    0    0    0 -0.00000000000E+00 -0.00000000000E+00 -0.74505805969E-08  0.93827000000E+00  0.93827000000E+00 0.  1.
     999902    2    1    2    0    0 -0.73526528832E-02 -0.13908858268E-01 -0.17612059970E-01  0.10203142743E+01  0.10200409383E+01 0.  0.
     999903    2    3    3    0    0 -0.11563570372E+00 -0.32022626372E-01 -0.52603775914E-01  0.13280216293E+00  0.21729994555E-01 0.  0.
         14    1    1    2    0    0  0.73526528832E-02  0.13908858268E-01  0.17612059970E-01  0.23615725674E-01  0.00000000000E+00 0.  1.
     999901    1    3    3    0    0  0.10828305084E+00  0.18113768104E-01  0.34991715944E-01  0.88751211140E+00  0.88000000000E+00 0.  1.
        -11    1    4    4    0    0 -0.69822021001E-01 -0.12615050671E-01 -0.21572130742E-01  0.74161122334E-01  0.51100000000E-03 0.  1.
         11    1    4    4    0    0 -0.45813682719E-01 -0.19407575701E-01 -0.31031645171E-01  0.58641040594E-01  0.51100000000E-03 0. -1.
</event>
<event>
 8    1  0.1132492E+005  0.1043930E+01  0.7957747E-01            NaN
         13   -1    0    0    0    0  0.00000000000E+00  0.00000000000E+00  0.74505805969E-08  0.10566000000E+00  0.10566000000E+00 0. -1.
     999900   -1    0    0    0    0 -0.00000000000E+00 -0.00000000000E+00 -0.74505805969E-08  0.93827000000E+00  0.93827000000E+00 0. -1.
     999902    2    1    2    0    0  0.58295787774E-02  0.15089831507E-01  0.17773592531E-01  0.10198969479E+01  0.10196137488E+01 0.  0.
     999903    2    3    3    0    0  0.11720854538E+00  0.38385580705E-01  0.43062887433E-01  0.13221033955E+00  0.20343689316E-01 0.  0.
         14    1    1    2    0    0 -0.58295787774E-02 -0.15089831507E-01 -0.17773592531E-01  0.24033052139E-01  0.00000000000E+00 0.  1.
     999901    1    3    3    0    0 -0.11137896660E+00 -0.23295749198E-01 -0.25289294902E-01  0.88768660831E+00  0.88000000000E+00 0. -1.
        -11    1    4    4    0    0  0.86920718081E-01  0.24766679547E-01  0.22475336660E-01  0.93134319810E-01  0.51100000000E-03 0.  1.
         11    1    4    4    0    0  0.30287827298E-01  0.13618901158E-01  0.20587550774E-01  0.39076019744E-01  0.51100000000E-03 0. -1.
</event>
<event>
 8    1  0.1132492E+005  0.1043930E+01  0.7957747E-01            NaN
         13   -1    0    0    0    0  0.00000000000E+00  0.00000000000E+00  0.74505805969E-08  0.10566000000E+00  0.10566000000E+00 0. -1.
     999900   -1    0    0    0    0 -0.00000000000E+00 -0.00000000000E+00 -0.74505805969E-08  0.93827000000E+00  0.93827000000E+00 0. -1.
     999902    2    1    2    0    0 -0.11116073720E-01 -0.58176310143E-02  0.20150002964E-01  0.10201932238E+01  0.10199170453E+01 0.  0.
     999903    2    3    3    0    0 -0.10768738610E+00 -0.73413673751E-01  0.10110600651E-01  0.13227654247E+00  0.20216795553E-01 0.  0.
         14    1    1    2    0    0  0.11116073720E-01  0.58176310143E-02 -0.20150002964E-01  0.23736776214E-01  0.00000000000E+00 0.  1.
     999901    1    3    3    0    0  0.96571312380E-01  0.67596042736E-01  0.10039402314E-01  0.88791668132E+00  0.88000000000E+00 0.  1.
        -11    1    4    4    0    0 -0.40828724604E-01 -0.18527092548E-01 -0.22461155586E-02  0.44894811139E-01  0.51100000000E-03 0.  1.
         11    1    4    4    0    0 -0.66858661496E-01 -0.54886581203E-01  0.12356716209E-01  0.87381731327E-01  0.51100000000E-03 0. -1.
</event>
<event>
 8    1  0.1132492E+005  0.1043930E+01  0.7957747E-01            NaN
         13   -1    0    0    0    0  0.00000000000E+00  0.00000000000E+00  0.74505805969E-08  0.10566000000E+00  0.10566000000E+00 0. -1.
     999900   -1    0    0    0    0 -0.00000000000E+00 -0.00000000000E+00 -0.74505805969E-08  0.93827000000E+00  0.93827000000E+00 0.  1.
     999902    2    1    2    0    0 -0.17892495314E-01  0.12315541530E-01  0.96925619436E-02  0.10201442961E+01  0.10198669645E+01 0.  0.
     999903    2    3    3    0    0  0.42821437770E-01 -0.69549177222E-01  0.99515410754E-01  0.12971958959E+00  0.15908845343E-01 0.  0.
         14    1    1    2    0    0  0.17892495314E-01 -0.12315541530E-01 -0.96925619436E-02  0.23785703874E-01  0.00000000000E+00 0.  1.
     999901    1    3    3    0    0 -0.60713933084E-01  0.81864718752E-01 -0.89822848811E-01  0.89042470654E+00  0.88000000000E+00 0.  1.
        -11    1    4    4    0    0  0.13916482704E-01 -0.19180621001E-01  0.40466376737E-01  0.46897265166E-01  0.51100000000E-03 0.  1.
         11    1    4    4    0    0  0.28904955066E-01 -0.50368556221E-01  0.59049034017E-01  0.82822324421E-01  0.51100000000E-03 0. -1.
</event>
<event>
 8    1  0.1132492E+005  0.1043930E+01  0.7957747E-01            NaN
         13   -1    0    0    0    0  0.00000000000E+00  0.00000000000E+00  0.74505805969E-08  0.10566000000E+00  0.10566000000E+00 0.  1.
     999900   -1    0    0    0    0 -0.00000000000E+00 -0.00000000000E+00 -0.74505805969E-08  0.93827000000E+00  0.93827000000E+00 0. -1.
     999902    2    1    2    0    0  0.92387501651E-02 -0.16315518741E-01 -0.15174286589E-01  0.10198092697E+01  0.10195239757E+01 0.  0.
     999903    2    3    3    0    0  0.74600320409E-01  0.76886429114E-01 -0.72268438311E-01  0.13064197380E+00  0.19179868495E-01 0.  0.
         14    1    1    2    0    0 -0.92387501651E-02  0.16315518741E-01  0.15174286589E-01  0.24120730293E-01  0.00000000000E+00 0.  1.
     999901    1    3    3    0    0 -0.65361570244E-01 -0.93201947855E-01  0.57094151721E-01  0.88916729591E+00  0.88000000000E+00 0.  1.
        -11    1    4    4    0    0  0.41032112749E-01  0.55309458946E-01 -0.43740178049E-01  0.81585751344E-01  0.51100000000E-03 0. -1.
         11    1    4    4    0    0  0.33568207661E-01  0.21576970168E-01 -0.28528260261E-01  0.49056222457E-01  0.51100000000E-03 0.  1.
</event>
<event>
 8    1  0.1132492E+005  0.1043930E+01  0.7957747E-01            NaN
         13   -1    0    0    0    0  0.00000000000E+00  0.00000000000E+00  0.74505805969E-08  0.10566000000E+00  0.10566000000E+00 0.  1.
     999900   -1    0    0    0    0 -0.00000000000E+00 -0.00000000000E+00 -0.74505805969E-08  0.93827000000E+00  0.93827000000E+00 0.  1.
     999902    2    1    2    0    0 -0.15043882906E-01  0.13871774764E-01 -0.84604503897E-02  0.10217867444E+01  0.10215467817E+01 0.  0.
     999903    2    3    3    0    0  0.11113954871E+00 -0.54872891910E-01  0.31933705373E-01  0.12921754515E+00  0.17730732698E-01 0.  0.
         14    1    1    2    0    0  0.15043882906E-01 -0.13871774764E-01  0.84604503897E-02  0.22143255605E-01  0.00000000000E+00 0.  1.
     999901    1    3    3    0    0 -0.12618343162E+00  0.68744666674E-01 -0.40394155763E-01  0.89256919924E+00  0.88000000000E+00 0.  1.
        -11    1    4    4    0    0  0.24939267295E-01 -0.10534051047E-01  0.14534825316E-01  0.30731995585E-01  0.51100000000E-03 0.  1.
         11    1    4    4    0    0  0.86200281419E-01 -0.44338840863E-01  0.17398880057E-01  0.98485549570E-01  0.51100000000E-03 0. -1.
</event>
<event>
 8    1  0.1132492E+005  0.1043930E+01  0.7957747E-01            NaN
         13   -1    0    0    0    0  0.00000000000E+00  0.00000000000E+00  0.74505805969E-08  0.10566000000E+00  0.10566000000E+00 0. -1.
     999900   -1    0    0    0    0 -0.00000000000E+00 -0.00000000000E+00 -0.74505805969E-08  0.93827000000E+00  0.93827000000E+00 0. -1.
     999902    2    1    2    0    0 -0.22336757200E-01 -0.56728178572E-02  0.64818141254E-02  0.10199899603E+01  0.10197089750E+01 0.  0.
     999903    2    3    3    0    0 -0.67533397934E-01  0.71842748303E-01 -0.83841268510E-01  0.13082762500E+00  0.19088447735E-01 0.  0.
         14    1    1    2    0    0  0.22336757200E-01  0.56728178572E-02 -0.64818141254E-02  0.23940039661E-01  0.00000000000E+00 0. -1.
     999901    1    3    3    0    0  0.45196640735E-01 -0.77515566161E-01  0.90323082636E-01  0.88916233534E+00  0.88000000000E+00 0.  1.
        -11    1    4    4    0    0 -0.51800379689E-01  0.42501211224E-01 -0.52868296525E-01  0.85351919662E-01  0.51100000000E-03 0. -1.
         11    1    4    4    0    0 -0.15733018245E-01  0.29341537079E-01 -0.30972971985E-01  0.45475705336E-01  0.51100000000E-03 0.  1.
</event>
<event>
 8    1  0.1132492E+005  0.1043930E+01  0.7957747E-01            NaN
         13   -1    0    0    0    0  0.00000000000E+00  0.00000000000E+00  0.74505805969E-08  0.10566000000E+00  0.10566000000E+00 0. -1.
     999900   -1    0    0    0    0 -0.00000000000E+00 -0.00000000000E+00 -0.74505805969E-08  0.93827000000E+00  0.93827000000E+00 0. -1.
     999902    2    1    2    0    0 -0.15839606797E-01  0.10488529009E-01 -0.14412027123E-01  0.10200844782E+01  0.10198057333E+01 0.  0.
     999903    2    3    3    0    0 -0.30018946394E-01 -0.10209127443E+00 -0.73268718252E-01  0.13084920230E+00  0.20723011607E-01 0.  0.
         14    1    1    2    0    0  0.15839606797E-01 -0.10488529009E-01  0.14412027123E-01  0.23845521803E-01  0.00000000000E+00 0. -1.
     999901    1    3    3    0    0  0.14179339597E-01  0.11257980344E+00  0.58856691129E-01  0.88923527590E+00  0.88000000000E+00 0. -1.
        -11    1    4    4    0    0 -0.22840020960E-01 -0.43270797876E-01 -0.28989705932E-01  0.56874358698E-01  0.51100000000E-03 0. -1.
         11    1    4    4    0    0 -0.71789254337E-02 -0.58820476554E-01 -0.44279012320E-01  0.73974843599E-01  0.51100000000E-03 0.  1.
</event>
<event>
 8    1  0.1132492E+005  0.1043930E+01  0.7957747E-01            NaN
         13   -1    0    0    0    0  0.00000000000E+00  0.00000000000E+00  0.74505805969E-08  0.10566000000E+00  0.10566000000E+00 0.  1.
     999900   -1    0    0    0    0 -0.00000000000E+00 -0.00000000000E+00 -0.74505805969E-08  0.93827000000E+00  0.93827000000E+00 0.  1.
     999902    2    1    2    0    0 -0.11019361632E-01  0.11802769514E-03  0.22922470792E-01  0.10184961657E+01  0.10181785499E+01 0.  0.
     999903    2    3    3    0    0  0.98895374392E-01 -0.16856606288E-01 -0.73958216864E-01  0.12622084099E+00  0.19935962670E-01 0.  0.
         14    1    1    2    0    0  0.11019361632E-01 -0.11802769514E-03 -0.22922470792E-01  0.25433834326E-01  0.00000000000E+00 0. -1.
     999901    1    3    3    0    0 -0.10991473602E+00  0.16974633983E-01  0.96880687656E-01  0.89227532468E+00  0.88000000000E+00 0. -1.
        -11    1    4    4    0    0  0.24459939999E-01  0.59184590731E-03 -0.27255956046E-01  0.36630413692E-01  0.51100000000E-03 0. -1.
         11    1    4    4    0    0  0.74435434393E-01 -0.17448452195E-01 -0.46702260818E-01  0.89590427300E-01  0.51100000000E-03 0.  1.
</event>
<event>
 8    1  0.1132492E+005  0.1043930E+01  0.7957747E-01            NaN
         13   -1    0    0    0    0  0.00000000000E+00  0.00000000000E+00  0.74505805969E-08  0.10566000000E+00  0.10566000000E+00 0. -1.
     999900   -1    0    0    0    0 -0.00000000000E+00 -0.00000000000E+00 -0.74505805969E-08  0.93827000000E+00  0.93827000000E+00 0.  1.
     999902    2    1    2    0    0 -0.69726121542E-03  0.20306202621E-01 -0.62178382871E-02  0.10226817165E+01  0.10224609546E+01 0.  0.
     999903    2    3    3    0    0 -0.70700442281E-01 -0.10467444988E+00 -0.27355020816E-01  0.13084799359E+00  0.20435441434E-01 0.  0.
         14    1    1    2    0    0  0.69726121542E-03 -0.20306202621E-01  0.62178382871E-02  0.21248283485E-01  0.00000000000E+00 0. -1.
     999901    1    3    3    0    0  0.70003181065E-01  0.12498065250E+00  0.21137182529E-01  0.89183372292E+00  0.88000000000E+00 0.  1.
        -11    1    4    4    0    0 -0.37846870913E-01 -0.46443032178E-01 -0.40847908490E-02  0.60052373085E-01  0.51100000000E-03 0. -1.
         11    1    4    4    0    0 -0.32853571368E-01 -0.58231417702E-01 -0.23270229967E-01  0.70795620507E-01  0.51100000000E-03 0.  1.
</event>
<event>
 8    1  0.1132492E+005  0.1043930E+01  0.7957747E-01            NaN
         13   -1    0    0    0    0  0.00000000000E+00  0.00000000000E+00  0.74505805969E-08  0.10566000000E+00  0.10566000000E+00 0.  1.
     999900   -1    0    0    0    0 -0.00000000000E+00 -0.00000000000E+00 -0.74505805969E-08  0.93827000000E+00  0.93827000000E+00 0. -1.
     999902    2    1    2    0    0 -0.52846079506E-04 -0.23511896350E-01 -0.59572271258E-03  0.10204104986E+01  0.10201394114E+01 0.  0.
     999903    2    3    3    0    0 -0.98677397636E-01 -0.87285870493E-02  0.83282212730E-01  0.13081460352E+00  0.19055616010E-01 0.  0.
         14    1    1    2    0    0  0.52846079506E-04  0.23511896350E-01  0.59572271258E-03  0.23519501445E-01  0.00000000000E+00 0. -1.
     999901    1    3    3    0    0  0.98624551557E-01 -0.14783309301E-01 -0.83877935443E-01  0.88959589503E+00  0.88000000000E+00 0. -1.
        -11    1    4    4    0    0 -0.53569686772E-01 -0.34436606695E-02  0.32810589862E-01  0.62915547107E-01  0.51100000000E-03 0.  1.
         11    1    4    4    0    0 -0.45107710864E-01 -0.52849263798E-02  0.50471622869E-01  0.67899056416E-01  0.51100000000E-03 0. -1.
</event>
<event>
 8    1  0.1132492E+005  0.1043930E+01  0.7957747E-01            NaN
         13   -1    0    0    0    0  0.00000000000E+00  0.00000000000E+00  0.74505805969E-08  0.10566000000E+00  0.10566000000E+00 0. -1.
     999900   -1    0    0    0    0 -0.00000000000E+00 -0.00000000000E+00 -0.74505805969E-08  0.93827000000E+00  0.93827000000E+00 0.  1.
     999902    2    1    2    0    0  0.20415090591E-01  0.11295379305E-01 -0.71967642969E-02  0.10195137158E+01  0.10192213017E+01 0.  0.
     999903    2    3    3    0    0 -0.26035426860E-01  0.23185002719E-01  0.12231699256E+00  0.12874279861E+00  0.19946772199E-01 0.  0.
         14    1    1    2    0    0 -0.20415090591E-01 -0.11295379305E-01  0.71967642969E-02  0.24416284193E-01  0.00000000000E+00 0. -1.
     999901    1    3    3    0    0  0.46450517451E-01 -0.11889623414E-01 -0.12951375686E+00  0.89077091720E+00  0.88000000000E+00 0.  1.
        -11    1    4    4    0    0 -0.46927446438E-02  0.15001300128E-01  0.33150062992E-01  0.36691261292E-01  0.51100000000E-03 0.  1.
         11    1    4    4    0    0 -0.21342682216E-01  0.81837025902E-02  0.89166929568E-01  0.92051537314E-01  0.51100000000E-03 0. -1.
</event>
<event>
 8    1  0.1132492E+005  0.1043930E+01  0.7957747E-01            NaN
         13   -1    0    0    0    0  0.00000000000E+00  0.00000000000E+00  0.74505805969E-08  0.10566000000E+00  0.10566000000E+00 0. -1.
     999900   -1    0    0    0    0 -0.00000000000E+00 -0.00000000000E+00 -0.74505805969E-08  0.93827000000E+00  0.93827000000E+00 0.  1.
     999902    2    1    2    0    0  0.96858554175E-02 -0.18551245955E-01 -0.10773098736E-01  0.10203922818E+01  0.10201207696E+01 0.  0.
     999903    2    3    3    0    0  0.42215690273E-01  0.11983341257E+00 -0.92899571839E-02  0.12898289012E+00  0.20200776384E-01 0.  0.
         14    1    1    2    0    0 -0.96858554175E-02  0.18551245955E-01  0.10773098736E-01  0.23537718199E-01  0.00000000000E+00 0.  1.
     999901    1    3    3    0    0 -0.32529834856E-01 -0.13838465852E+00 -0.14831415522E-02  0.89140939168E+00  0.88000000000E+00 0. -1.
        -11    1    4    4    0    0  0.21738525549E-01  0.47120555932E-01 -0.12470353278E-01  0.53373037353E-01  0.51100000000E-03 0.  1.
         11    1    4    4    0    0  0.20477164724E-01  0.72712856633E-01  0.31803960940E-02  0.75609852766E-01  0.51100000000E-03 0. -1.
</event>
<event>
 8    1  0.1132492E+005  0.1043930E+01  0.7957747E-01            NaN
         13   -1    0    0    0    0  0.00000000000E+00  0.00000000000E+00  0.74505805969E-08  0.10566000000E+00  0.10566000000E+00 0.  1.
     999900   -1    0    0    0    0 -0.00000000000E+00 -0.00000000000E+00 -0.74505805969E-08  0.93827000000E+00  0.93827000000E+00 0.  1.
     999902    2    1    2    0    0  0.17120481597E-01 -0.50220191602E-02  0.14795274072E-01  0.10207517408E+01  0.10204885519E+01 0.  0.
     999903    2    3    3    0    0 -0.10952259948E+00  0.15021767033E-01  0.64819945135E-01  0.13005387332E+00  0.22170507377E-01 0.  0.
         14    1    1    2    0    0 -0.17120481597E-01  0.50220191602E-02 -0.14795274072E-01  0.23178259240E-01  0.00000000000E+00 0.  1.
     999901    1    3    3    0    0  0.12664308107E+00 -0.20043786193E-01 -0.50024671063E-01  0.89069786744E+00  0.88000000000E+00 0.  1.
        -11    1    4    4    0    0 -0.63984706253E-01  0.10873887091E-02  0.27989342528E-01  0.69849047700E-01  0.51100000000E-03 0.  1.
         11    1    4    4    0    0 -0.45537893223E-01  0.13934378324E-01  0.36830602607E-01  0.60204825619E-01  0.51100000000E-03 0. -1.
</event>
<event>
 8    1  0.1132492E+005  0.1043930E+01  0.7957747E-01            NaN
         13   -1    0    0    0    0  0.00000000000E+00  0.00000000000E+00  0.74505805969E-08  0.10566000000E+00  0.10566000000E+00 0.  1.
     999900   -1    0    0    0    0 -0.00000000000E+00 -0.00000000000E+00 -0.74505805969E-08  0.93827000000E+00  0.93827000000E+00 0.  1.
     999902    2    1    2    0    0  0.78723213615E-02 -0.18618402720E-02  0.20022839752E-01  0.10223347689E+01  0.10221066607E+01 0.  0.
     999903    2    3    3    0    0 -0.21844459769E-01  0.10155471768E+00 -0.76559857653E-01  0.13053530214E+00  0.19685329491E-01 0.  0.
         14    1    1    2    0    0 -0.78723213615E-02  0.18618402720E-02 -0.20022839752E-01  0.21595231061E-01  0.00000000000E+00 0. -1.
     999901    1    3    3    0    0  0.29716781130E-01 -0.10341655795E+00  0.96582697405E-01  0.89179946680E+00  0.88000000000E+00 0. -1.
        -11    1    4    4    0    0 -0.13172650849E-01  0.43618250441E-01 -0.44776939633E-01  0.63885099560E-01  0.51100000000E-03 0. -1.
         11    1    4    4    0    0 -0.86718089195E-02  0.57936467235E-01 -0.31782918020E-01  0.66650202584E-01  0.51100000000E-03 0.  1.
</event>
<event>
 8    1  0.1132492E+005  0.1043930E+01  0.7957747E-01            NaN
         13   -1    0    0    0    0  0.00000000000E+00  0.00000000000E+00  0.74505805969E-08  0.10566000000E+00  0.10566000000E+00 0. -1.
     999900   -1    0    0    0    0 -0.00000000000E+00 -0.00000000000E+00 -0.74505805969E-08  0.93827000000E+00  0.93827000000E+00 0.  1.
     999902    2    1    2    0    0 -0.22512015632E-01  0.17985843604E-01  0.58168106380E-02  0.10145341380E+01  0.10141081798E+01 0.  0.
     999903    2    3    3    0    0  0.10847438580E+00 -0.50218684719E-01 -0.56798115045E-02  0.12215447250E+00  0.24512164769E-01 0.  0.
         14    1    1    2    0    0  0.22512015632E-01 -0.17985843604E-01 -0.58168106380E-02  0.29395862021E-01  0.00000000000E+00 0.  1.
     999901    1    3    3    0    0 -0.13098640144E+00  0.68204528323E-01  0.11496622142E-01  0.89237966548E+00  0.88000000000E+00 0. -1.
        -11    1    4    4    0    0  0.77234017283E-01 -0.47466156344E-01 -0.44807270315E-02  0.90766003875E-01  0.51100000000E-03 0. -1.
         11    1    4    4    0    0  0.31240368522E-01 -0.27525283746E-02 -0.11990844729E-02  0.31388468622E-01  0.51100000000E-03 0.  1.
</event>
<event>
 8    1  0.1132492E+005  0.1043930E+01  0.7957747E-01            NaN
         13   -1    0    0    0    0  0.00000000000E+00  0.00000000000E+00  0.74505805969E-08  0.10566000000E+00  0.10566000000E+00 0.  1.
     999900   -1    0    0    0    0 -0.00000000000E+00 -0.00000000000E+00 -0.74505805969E-08  0.93827000000E+00  0.93827000000E+00 0.  1.
     999902    2    1    2    0    0  0.21842876240E-01 -0.66430361887E-02 -0.23016813360E-02  0.10209835643E+01  0.10207256731E+01 0.  0.
     999903    2    3    3    0    0  0.19292673626E-01  0.10404899054E+00  0.74121551569E-01  0.13075902029E+00  0.20137459905E-01 0.  0.
         14    1    1    2    0    0 -0.21842876240E-01  0.66430361887E-02  0.23016813360E-02  0.22946435654E-01  0.00000000000E+00 0.  1.
     999901    1    3    3    0    0  0.25502026142E-02 -0.11069202673E+00 -0.76423232905E-01  0.89022454406E+00  0.88000000000E+00 0.  1.
        -11    1    4    4    0    0 -0.15727009064E-02  0.36387768959E-01  0.19389098879E-01  0.41264287153E-01  0.51100000000E-03 0.  1.
         11    1    4    4    0    0  0.20865374532E-01  0.67661221583E-01  0.54732452690E-01  0.89494733135E-01  0.51100000000E-03 0. -1.
</event>
<event>
 8    1  0.1132492E+005  0.1043930E+01  0.7957747E-01            NaN
         13   -1    0    0    0    0  0.00000000000E+00  0.00000000000E+00  0.74505805969E-08  0.10566000000E+00  0.10566000000E+00 0.  1.
     999900   -1    0    0    0    0 -0.00000000000E+00 -0.00000000000E+00 -0.74505805969E-08  0.93827000000E+00  0.93827000000E+00 0. -1.
     999902    2    1    2    0    0 -0.15583224525E-01  0.23392739429E-02  0.17656565721E-01  0.10202643413E+01  0.10199898346E+01 0.  0.
     999903    2    3    3    0    0  0.10240205212E+00 -0.28508890616E-01 -0.68082670186E-01  0.12772675030E+00  0.19491937774E-01 0.  0.
         14    1    1    2    0    0  0.15583224525E-01 -0.23392739429E-02 -0.17656565721E-01  0.23665658711E-01  0.00000000000E+00 0.  1.
     999901    1    3    3    0    0 -0.11798527665E+00  0.30848164559E-01  0.85739235906E-01  0.89253759099E+00  0.88000000000E+00 0. -1.
        -11    1    4    4    0    0  0.28483125986E-01 -0.14001928992E-01 -0.28350723647E-01  0.42560158995E-01  0.51100000000E-03 0.  1.
         11    1    4    4    0    0  0.73918926138E-01 -0.14506961624E-01 -0.39731946539E-01  0.85166591300E-01  0.51100000000E-03 0. -1.
</event>
<event>
 8    1  0.1132492E+005  0.1043930E+01  0.7957747E-01            NaN
         13   -1    0    0    0    0  0.00000000000E+00  0.00000000000E+00  0.74505805969E-08  0.10566000000E+00  0.10566000000E+00 0. -1.
     999900   -1    0    0    0    0 -0.00000000000E+00 -0.00000000000E+00 -0.74505805969E-08  0.93827000000E+00  0.93827000000E+00 0. -1.
     999902    2    1    2    0    0 -0.19996105753E-01 -0.14018586617E-01  0.50268101148E-03  0.10195042410E+01  0.10192115971E+01 0.  0.
     999903    2    3    3    0    0  0.37949654226E-01 -0.92237302974E-01 -0.82000693823E-01  0.13030084155E+00  0.17501405774E-01 0.  0.
         14    1    1    2    0    0  0.19996105753E-01  0.14018586617E-01 -0.50268101148E-03  0.24425759031E-01  0.00000000000E+00 0.  1.
     999901    1    3    3    0    0 -0.57945759979E-01  0.78218716357E-01  0.82503374835E-01  0.88920339942E+00  0.88000000000E+00 0.  1.
        -11    1    4    4    0    0  0.32998859865E-01 -0.58576858228E-01 -0.54020805800E-01  0.86247792161E-01  0.51100000000E-03 0. -1.
         11    1    4    4    0    0  0.49507943610E-02 -0.33660444746E-01 -0.27979888023E-01  0.44053049384E-01  0.51100000000E-03 0.  1.
</event>
<event>
 8    1  0.1132492E+005  0.1043930E+01  0.7957747E-01            NaN
         13   -1    0    0    0    0  0.00000000000E+00  0.00000000000E+00  0.74505805969E-08  0.10566000000E+00  0.10566000000E+00 0. -1.
     999900   -1    0    0    0    0 -0.00000000000E+00 -0.00000000000E+00 -0.74505805969E-08  0.93827000000E+00  0.93827000000E+00 0. -1.
     999902    2    1    2    0    0  0.41972357099E-02  0.22729461523E-01  0.32458205690E-03  0.10208139761E+01  0.10205522148E+01 0.  0.
     999903    2    3    3    0    0 -0.34539543485E-01  0.70430292293E-01  0.10502524693E+00  0.13247950272E+00  0.19160115128E-01 0.  0.
         14    1    1    2    0    0 -0.41972357099E-02 -0.22729461523E-01 -0.32458205690E-03  0.23116023928E-01  0.00000000000E+00 0. -1.
     999901    1    3    3    0    0  0.38736779195E-01 -0.47700830769E-01 -0.10470066487E+00  0.88833447335E+00  0.88000000000E+00 0. -1.
        -11    1    4    4    0    0 -0.19334111160E-01  0.37060684100E-01  0.71324334075E-01  0.82672389058E-01  0.51100000000E-03 0.  1.
         11    1    4    4    0    0 -0.15205432325E-01  0.33369608193E-01  0.33700912856E-01  0.49807113663E-01  0.51100000000E-03 0. -1.
</event>
<event>
 8    1  0.1132492E+005  0.1043930E+01  0.7957747E-01            NaN
         13   -1    0    0    0    0  0.00000000000E+00  0.00000000000E+00  0.74505805969E-08  0.10566000000E+00  0.10566000000E+00 0.  1.
     999900   -1    0    0    0    0 -0.00000000000E+00 -0.00000000000E+00 -0.74505805969E-08  0.93827000000E+00  0.93827000000E+00 0. -1.
     999902    2    1    2    0    0  0.84749952354E-02  0.97030758674E-02 -0.17922949149E-01  0.10218572265E+01  0.10216188056E+01 0.  0.
     999903    2    3    3    0    0 -0.10316483334E+00 -0.49560948796E-01 -0.61779795710E-01  0.13174538016E+00  0.20995988930E-01 0.  0.
         14    1    1    2    0    0 -0.84749952354E-02 -0.97030758674E-02  0.17922949149E-01  0.22072773539E-01  0.00000000000E+00 0.  1.
     999901    1    3    3    0    0  0.11163982857E+00  0.59264024664E-01  0.43856846561E-01  0.89011184631E+00  0.88000000000E+00 0. -1.
        -11    1    4    4    0    0 -0.39127130492E-01 -0.22035857292E-01 -0.13289755012E-01  0.46833642357E-01  0.51100000000E-03 0.  1.
         11    1    4    4    0    0 -0.64037702845E-01 -0.27525091504E-01 -0.48490040698E-01  0.84911737798E-01  0.51100000000E-03 0. -1.
</event>
<event>
 8    1  0.1132492E+005  0.1043930E+01  0.7957747E-01            NaN
         13   -1    0    0    0    0  0.00000000000E+00  0.00000000000E+00  0.74505805969E-08  0.10566000000E+00  0.10566000000E+00 0. -1.
     999900   -1    0    0    0    0 -0.00000000000E+00 -0.00000000000E+00 -0.74505805969E-08  0.93827000000E+00  0.93827000000E+00 0.  1.
     999902    2    1    2    0    0  0.19264335464E-01 -0.13505524623E-01 -0.41335344872E-02  0.10200427665E+01  0.10197630340E+01 0.  0.
     999903    2    3    3    0    0  0.18019898863E-01  0.47392249611E-01  0.11765922775E+00  0.12956898000E+00  0.19330924075E-01 0.  0.
         14    1    1    2    0    0 -0.19264335464E-01  0.13505524623E-01  0.41335344872E-02  0.23887233485E-01  0.00000000000E+00 0.  1.
     999901    1    3    3    0    0  0.12444366010E-02 -0.60897774233E-01 -0.12179276224E+00  0.89047378651E+00  0.88000000000E+00 0.  1.
        -11    1    4    4    0    0  0.21983126060E-01  0.40395924994E-01  0.10389308139E+00  0.11361831749E+00  0.51100000000E-03 0.  1.
         11    1    4    4    0    0 -0.39632271968E-02  0.69963246163E-02  0.13766146367E-01  0.15950662517E-01  0.51100000000E-03 0. -1.
</event>
<event>
 8    1  0.1132492E+005  0.1043930E+01  0.7957747E-01            NaN
         13   -1    0    0    0    0  0.00000000000E+00  0.00000000000E+00  0.74505805969E-08  0.10566000000E+00  0.10566000000E+00 0.  1.
     999900   -1    0    0    0    0 -0.00000000000E+00 -0.00000000000E+00 -0.74505805969E-08  0.93827000000E+00  0.93827000000E+00 0.  1.
     999902    2    1    2    0    0 -0.10149794683E-01  0.10102327824E-01 -0.19725061436E-01  0.10195547378E+01  0.10192633173E+01 0.  0.
     999903    2    3    3    0    0 -0.86372075284E-01 -0.64663901213E-01 -0.72224176396E-01  0.13154799111E+00  0.21142062329E-01 0.  0.
         14    1    1    2    0    0  0.10149794683E-01 -0.10102327824E-01  0.19725061436E-01  0.24375262219E-01  0.00000000000E+00 0.  1.
     999901    1    3    3    0    0  0.76222280601E-01  0.74766229037E-01  0.52499114960E-01  0.88800674667E+00  0.88000000000E+00 0. -1.
        -11    1    4    4    0    0 -0.74637569285E-01 -0.50370372412E-01 -0.67261459155E-01  0.11239353262E+00  0.51100000000E-03 0. -1.
         11    1    4    4    0    0 -0.11734505999E-01 -0.14293528802E-01 -0.49627172414E-02  0.19154458491E-01  0.51100000000E-03 0.  1.
</event>
<event>
 8    1  0.1132492E+005  0.1043930E+01  0.7957747E-01            NaN
         13   -1    0    0    0    0  0.00000000000E+00  0.00000000000E+00  0.74505805969E-08  0.10566000000E+00  0.10566000000E+00 0. -1.
     999900   -1    0    0    0    0 -0.00000000000E+00 -0.00000000000E+00 -0.74505805969E-08  0.93827000000E+00  0.93827000000E+00 0.  1.
     999902    2    1    2    0    0  0.21748957550E-01 -0.50568747273E-02 -0.71352690803E-02  0.10204885580E+01  0.10202192881E+01 0.  0.
     999903    2    3    3    0    0 -0.33595913571E-01 -0.89654399675E-01  0.85620737514E-01  0.12985761722E+00  0.19117878193E-01 0.  0.
         14    1    1    2    0    0 -0.21748957550E-01  0.50568747273E-02  0.71352690803E-02  0.23441441965E-01  0.00000000000E+00 0. -1.
     999901    1    3    3    0    0  0.55344871121E-01  0.84597524948E-01 -0.92756006594E-01  0.89063094082E+00  0.88000000000E+00 0. -1.
        -11    1    4    4    0    0  0.10305159295E-02 -0.80861507646E-02  0.29989165408E-02  0.87007136884E-02  0.51100000000E-03 0.  1.
         11    1    4    4    0    0 -0.34626429501E-01 -0.81568248910E-01  0.82621820973E-01  0.12115690353E+00  0.51100000000E-03 0. -1.
</event>
<event>
 8    1  0.1132492E+005  0.1043930E+01  0.7957747E-01            NaN
         13   -1    0    0    0    0  0.00000000000E+00  0.00000000000E+00  0.74505805969E-08  0.10566000000E+00  0.10566000000E+00 0.  1.
     999900   -1    0    0    0    0 -0.00000000000E+00 -0.00000000000E+00 -0.74505805969E-08  0.93827000000E+00  0.93827000000E+00 0. -1.
     999902    2    1    2    0    0  0.18782002999E-02  0.21962304531E-01 -0.88347819700E-02  0.10201829196E+01  0.10199064984E+01 0.  0.
     999903    2    3    3    0    0  0.27235021737E-01  0.77697834317E-01 -0.10191425961E+00  0.13315800062E+00  0.23787327514E-01 0.  0.
         14    1    1    2    0    0 -0.18782002999E-02 -0.21962304531E-01  0.88347819700E-02  0.23747080434E-01  0.00000000000E+00 0.  1.
     999901    1    3    3    0    0 -0.25356821437E-01 -0.55735529787E-01  0.93079477642E-01  0.88702491895E+00  0.88000000000E+00 0. -1.
        -11    1    4    4    0    0  0.15884031339E-01  0.40334167297E-01 -0.71675997815E-01  0.83766683633E-01  0.51100000000E-03 0.  1.
         11    1    4    4    0    0  0.11350990398E-01  0.37363667020E-01 -0.30238261797E-01  0.49391316987E-01  0.51100000000E-03 0. -1.
</event>
<event>
 8    1  0.1132492E+005  0.1043930E+01  0.7957747E-01            NaN
         13   -1    0    0    0    0  0.00000000000E+00  0.00000000000E+00  0.74505805969E-08  0.10566000000E+00  0.10566000000E+00 0. -1.
     999900   -1    0    0    0    0 -0.00000000000E+00 -0.00000000000E+00 -0.74505805969E-08  0.93827000000E+00  0.93827000000E+00 0.  1.
     999902    2    1    2    0    0 -0.16090838846E-01 -0.10226828609E-01 -0.13086968184E-01  0.10208048653E+01  0.10205428953E+01 0.  0.
     999903    2    3    3    0    0  0.12124593890E+00  0.36468368326E-01  0.10211855611E-01  0.12862513727E+00  0.20239178687E-01 0.  0.
         14    1    1    2    0    0  0.16090838846E-01  0.10226828609E-01  0.13086968184E-01  0.23125134690E-01  0.00000000000E+00 0. -1.
     999901    1    3    3    0    0 -0.13733677775E+00 -0.46695196935E-01 -0.23298823796E-01  0.89217972804E+00  0.88000000000E+00 0.  1.
        -11    1    4    4    0    0  0.92474813251E-01  0.18865074189E-01  0.52231854294E-02  0.94525260629E-01  0.51100000000E-03 0.  1.
         11    1    4    4    0    0  0.28771125650E-01  0.17603294136E-01  0.49886701821E-02  0.34099876639E-01  0.51100000000E-03 0. -1.
</event>
<event>
 8    1  0.1132492E+005  0.1043930E+01  0.7957747E-01            NaN
         13   -1    0    0    0    0  0.00000000000E+00  0.00000000000E+00  0.74505805969E-08  0.10566000000E+00  0.10566000000E+00 0. -1.
     999900   -1    0    0    0    0 -0.00000000000E+00 -0.00000000000E+00 -0.74505805969E-08  0.93827000000E+00  0.93827000000E+00 0. -1.
     999902    2    1    2    0    0 -0.11820482448E-01 -0.14027220059E-01  0.15466139014E-01  0.10199364975E+01  0.10196542408E+01 0.  0.
     999903    2    3    3    0    0 -0.46187061155E-01  0.57329796712E-01 -0.10333471893E+00  0.12842848885E+00  0.19896291160E-01 0.  0.
         14    1    1    2    0    0  0.11820482448E-01  0.14027220059E-01 -0.15466139014E-01  0.23993502535E-01  0.00000000000E+00 0. -1.
     999901    1    3    3    0    0  0.34366578707E-01 -0.71357016772E-01  0.11880085795E+00  0.89150800861E+00  0.88000000000E+00 0. -1.
        -11    1    4    4    0    0 -0.17877628447E-01  0.33104257090E-01 -0.64032183706E-01  0.74268991561E-01  0.51100000000E-03 0.  1.
         11    1    4    4    0    0 -0.28309432708E-01  0.24225539622E-01 -0.39302535228E-01  0.54159497289E-01  0.51100000000E-03 0. -1.
</event>
<event>
 8    1  0.1132492E+005  0.1043930E+01  0.7957747E-01            NaN
         13   -1    0    0    0    0  0.00000000000E+00  0.00000000000E+00  0.74505805969E-08  0.10566000000E+00  0.10566000000E+00 0. -1.
     999900   -1    0    0    0    0 -0.00000000000E+00 -0.00000000000E+00 -0.74505805969E-08  0.93827000000E+00  0.93827000000E+00 0. -1.
     999902    2    1    2    0    0 -0.13453143064E-01  0.18457697335E-01 -0.80097097265E-02  0.10197260933E+01  0.10194388046E+01 0.  0.
     999903    2    3    3    0    0  0.53372516924E-01  0.60486417381E-01 -0.10156137797E+00  0.13125324804E+00  0.20136270198E-01 0.  0.
         14    1    1    2    0    0  0.13453143064E-01 -0.18457697335E-01  0.80097097265E-02  0.24203906691E-01  0.00000000000E+00 0. -1.
     999901    1    3    3    0    0 -0.66825659988E-01 -0.42028720046E-01  0.93551668240E-01  0.88847284526E+00  0.88000000000E+00 0.  1.
        -11    1    4    4    0    0  0.22815694671E-01  0.21880496261E-01 -0.55257854834E-01  0.63663205086E-01  0.51100000000E-03 0.  1.
         11    1    4    4    0    0  0.30556822252E-01  0.38605921120E-01 -0.46303523132E-01  0.67590042958E-01  0.51100000000E-03 0. -1.
</event>
<event>
 8    1  0.1132492E+005  0.1043930E+01  0.7957747E-01            NaN
         13   -1    0    0    0    0  0.00000000000E+00  0.00000000000E+00  0.74505805969E-08  0.10566000000E+00  0.10566000000E+00 0. -1.
     999900   -1    0    0    0    0 -0.00000000000E+00 -0.00000000000E+00 -0.74505805969E-08  0.93827000000E+00  0.93827000000E+00 0. -1.
     999902    2    1    2    0    0 -0.15425429085E-01  0.17816636939E-01 -0.41989877068E-02  0.10199924163E+01  0.10197114893E+01 0.  0.
     999903    2    3    3    0    0  0.88643895272E-01  0.31682506010E-02  0.90804124884E-01  0.12866161865E+00  0.20991546771E-01 0.  0.
         14    1    1    2    0    0  0.15425429085E-01 -0.17816636939E-01  0.41989877068E-02  0.23937583672E-01  0.00000000000E+00 0. -1.
     999901    1    3    3    0    0 -0.10406932436E+00  0.14648386338E-01 -0.95003112591E-01  0.89133079768E+00  0.88000000000E+00 0. -1.
        -11    1    4    4    0    0  0.44861085787E-01  0.88854901332E-02  0.56825121989E-01  0.72943982363E-01  0.51100000000E-03 0.  1.
         11    1    4    4    0    0  0.43782809485E-01 -0.57172395321E-02  0.33979002895E-01  0.55717636283E-01  0.51100000000E-03 0. -1.
</event>
<event>
 8    1  0.1132492E+005  0.1043930E+01  0.7957747E-01            NaN
         13   -1    0    0    0    0  0.00000000000E+00  0.00000000000E+00  0.74505805969E-08  0.10566000000E+00  0.10566000000E+00 0.  1.
     999900   -1    0    0    0    0 -0.00000000000E+00 -0.00000000000E+00 -0.74505805969E-08  0.93827000000E+00  0.93827000000E+00 0. -1.
     999902    2    1    2    0    0 -0.17472813962E-01 -0.14639404291E-01  0.63340536508E-02  0.10202713521E+01  0.10199970099E+01 0.  0.
     999903    2    3    3    0    0  0.42816927412E-01  0.10197769964E+00 -0.61759841197E-01  0.12793106925E+00  0.17870086688E-01 0.  0.
         14    1    1    2    0    0  0.17472813962E-01  0.14639404291E-01 -0.63340536508E-02  0.23658647919E-01  0.00000000000E+00 0. -1.
     999901    1    3    3    0    0 -0.60289741374E-01 -0.11661710393E+00  0.68093894848E-01  0.89234028283E+00  0.88000000000E+00 0. -1.
        -11    1    4    4    0    0  0.31149139663E-01  0.87627556833E-01 -0.46659465994E-01  0.10404914467E+00  0.51100000000E-03 0.  1.
         11    1    4    4    0    0  0.11667787749E-01  0.14350142807E-01 -0.15100375203E-01  0.23881924584E-01  0.51100000000E-03 0. -1.
</event>
<event>
 8    1  0.1132492E+005  0.1043930E+01  0.7957747E-01            NaN
         13   -1    0    0    0    0  0.00000000000E+00  0.00000000000E+00  0.74505805969E-08  0.10566000000E+00  0.10566000000E+00 0. -1.
     999900   -1    0    0    0    0 -0.00000000000E+00 -0.00000000000E+00 -0.74505805969E-08  0.93827000000E+00  0.93827000000E+00 0. -1.
     999902    2    1    2    0    0 -0.68053139738E-02  0.10908709141E-01 -0.14516002382E-02  0.10309909360E+01  0.10309097394E+01 0.  0.
     999903    2    3    3    0    0 -0.92014072732E-01  0.10510741624E+00 -0.14332240979E-01  0.14177789074E+00  0.19529430154E-01 0.  0.
         14    1    1    2    0    0  0.68053139738E-02 -0.10908709141E-01  0.14516002382E-02  0.12939063979E-01  0.00000000000E+00 0.  1.
     999901    1    3    3    0    0  0.85208758759E-01 -0.94198707100E-01  0.12880640740E-01  0.88921304528E+00  0.88000000000E+00 0.  1.
        -11    1    4    4    0    0 -0.39321241236E-01  0.39354378209E-01 -0.14585188645E-01  0.57514484657E-01  0.51100000000E-03 0. -1.
         11    1    4    4    0    0 -0.52692831497E-01  0.65753038032E-01  0.25294766627E-03  0.84263406085E-01  0.51100000000E-03 0.  1.
</event>
<event>
 8    1  0.1132492E+005  0.1043930E+01  0.7957747E-01            NaN
         13   -1    0    0    0    0  0.00000000000E+00  0.00000000000E+00  0.74505805969E-08  0.10566000000E+00  0.10566000000E+00 0.  1.
     999900   -1    0    0    0    0 -0.00000000000E+00 -0.00000000000E+00 -0.74505805969E-08  0.93827000000E+00  0.93827000000E+00 0.  1.
     999902    2    1    2    0    0  0.60498321681E-02 -0.13342928567E-01  0.20975864377E-01  0.10183444357E+01  0.10180229706E+01 0.  0.
     999903    2    3    3    0    0  0.10688547128E+00 -0.60316149321E-01 -0.36461699786E-01  0.12948371360E+00  0.19339976685E-01 0.  0.
         14    1    1    2    0    0 -0.60498321681E-02  0.13342928567E-01 -0.20975864377E-01  0.25585564258E-01  0.00000000000E+00 0. -1.
     999901    1    3    3    0    0 -0.10083563911E+00  0.46973220754E-01  0.57437564164E-01  0.88886072214E+00  0.88000000000E+00 0.  1.
        -11    1    4    4    0    0  0.44684849357E-01 -0.18536297090E-01 -0.22099673011E-01  0.53188219937E-01  0.51100000000E-03 0. -1.
         11    1    4    4    0    0  0.62200621921E-01 -0.41779852231E-01 -0.14362026775E-01  0.76295493667E-01  0.51100000000E-03 0.  1.
</event>
<event>
 8    1  0.1132492E+005  0.1043930E+01  0.7957747E-01            NaN
         13   -1    0    0    0    0  0.00000000000E+00  0.00000000000E+00  0.74505805969E-08  0.10566000000E+00  0.10566000000E+00 0.  1.
     999900   -1    0    0    0    0 -0.00000000000E+00 -0.00000000000E+00 -0.74505805969E-08  0.93827000000E+00  0.93827000000E+00 0. -1.
     999902    2    1    2    0    0  0.10984467808E-01  0.16637099011E-01 -0.12886216673E-01  0.10201917150E+01  0.10199155010E+01 0.  0.
     999903    2    3    3    0    0  0.56666868148E-01 -0.96161356051E-01 -0.64758789717E-01  0.13030344276E+00  0.18087177947E-01 0.  0.
         14    1    1    2    0    0 -0.10984467808E-01 -0.16637099011E-01  0.12886216673E-01  0.23738285041E-01  0.00000000000E+00 0.  1.
     999901    1    3    3    0    0 -0.45682400340E-01  0.11279845506E+00  0.51872573044E-01  0.88988827220E+00  0.88000000000E+00 0.  1.
        -11    1    4    4    0    0  0.47135419544E-01 -0.70609029174E-01 -0.41700793604E-01  0.94586468825E-01  0.51100000000E-03 0. -1.
         11    1    4    4    0    0  0.95314486037E-02 -0.25552326877E-01 -0.23057996113E-01  0.35716973935E-01  0.51100000000E-03 0.  1.
</event>
<event>
 8    1  0.1132492E+005  0.1043930E+01  0.7957747E-01            NaN
         13   -1    0    0    0    0  0.00000000000E+00  0.00000000000E+00  0.74505805969E-08  0.10566000000E+00  0.10566000000E+00 0. -1.
     999900   -1    0    0    0    0 -0.00000000000E+00 -0.00000000000E+00 -0.74505805969E-08  0.93827000000E+00  0.93827000000E+00 0.  1.
     999902    2    1    2    0    0  0.84120330246E-02 -0.18846791892E-01  0.10412154973E-01  0.10208134078E+01  0.10205516335E+01 0.  0.
     999903    2    3    3    0    0 -0.66615800743E-01  0.95515670639E-01 -0.50053493871E-01  0.12819700453E+00  0.19188837269E-01 0.  0.
         14    1    1    2    0    0 -0.84120330246E-02  0.18846791892E-01 -0.10412154973E-01  0.23116592210E-01  0.00000000000E+00 0.  1.
     999901    1    3    3    0    0  0.75027833767E-01 -0.11436246253E+00  0.60465648845E-01  0.89261640326E+00  0.88000000000E+00 0. -1.
        -11    1    4    4    0    0 -0.62882926203E-01  0.81039369882E-01 -0.47426041980E-01  0.11300943526E+00  0.51100000000E-03 0.  1.
         11    1    4    4    0    0 -0.37328745395E-02  0.14476300757E-01 -0.26274518912E-02  0.15187569271E-01  0.51100000000E-03 0. -1.
</event>
<event>
 8    1  0.1132492E+005  0.1043930E+01  0.7957747E-01            NaN
         13   -1    0    0    0    0  0.00000000000E+00  0.00000000000E+00  0.74505805969E-08  0.10566000000E+00  0.10566000000E+00 0. -1.
     999900   -1    0    0    0    0 -0.00000000000E+00 -0.00000000000E+00 -0.74505805969E-08  0.93827000000E+00  0.93827000000E+00 0.  1.
     999902    2    1    2    0    0  0.10131034350E-01 -0.11036477470E-01  0.18116092039E-01  0.10204218209E+01  0.10201509977E+01 0.  0.
     999903    2    3    3    0    0  0.44080352381E-01 -0.99477581683E-01  0.74395109324E-01  0.13354995145E+00  0.21496290777E-01 0.  0.
         14    1    1    2    0    0 -0.10131034350E-01  0.11036477470E-01 -0.18116092039E-01  0.23508179060E-01  0.00000000000E+00 0.  1.
     999901    1    3    3    0    0 -0.33949318031E-01  0.88441104212E-01 -0.56279017285E-01  0.88687186949E+00  0.88000000000E+00 0.  1.
        -11    1    4    4    0    0  0.22567413016E-01 -0.74099191683E-01  0.55432326779E-01  0.95252203709E-01  0.51100000000E-03 0. -1.
         11    1    4    4    0    0  0.21512939364E-01 -0.25378390000E-01  0.18962782545E-01  0.38297747739E-01  0.51100000000E-03 0.  1.
</event>
<event>
 8    1  0.1132492E+005  0.1043930E+01  0.7957747E-01            NaN
         13   -1    0    0    0    0  0.00000000000E+00  0.00000000000E+00  0.74505805969E-08  0.10566000000E+00  0.10566000000E+00 0.  1.
     999900   -1    0    0    0    0 -0.00000000000E+00 -0.00000000000E+00 -0.74505805969E-08  0.93827000000E+00  0.93827000000E+00 0.  1.
     999902    2    1    2    0    0 -0.57529181890E-02 -0.33570342558E-02 -0.24656229600E-01  0.10183899255E+01  0.10180696170E+01 0.  0.
     999903    2    3    3    0    0 -0.87277760424E-01 -0.53819641160E-01  0.73822095155E-01  0.12772121323E+00  0.18682755055E-01 0.  0.
         14    1    1    2    0    0  0.57529181890E-02  0.33570342558E-02  0.24656229600E-01  0.25540074486E-01  0.00000000000E+00 0.  1.
     999901    1    3    3    0    0  0.81524842235E-01  0.50462606904E-01 -0.98478324755E-01  0.89066871229E+00  0.88000000000E+00 0.  1.
        -11    1    4    4    0    0 -0.66048573171E-01 -0.48054456012E-01  0.63258737472E-01  0.10331298925E+00  0.51100000000E-03 0. -1.
         11    1    4    4    0    0 -0.21229187253E-01 -0.57651851484E-02  0.10563357684E-01  0.24408223978E-01  0.51100000000E-03 0.  1.
</event>
<event>
 8    1  0.1132492E+005  0.1043930E+01  0.7957747E-01            NaN
         13   -1    0    0    0    0  0.00000000000E+00  0.00000000000E+00  0.74505805969E-08  0.10566000000E+00  0.10566000000E+00 0.  1.
     999900   -1    0    0    0    0 -0.00000000000E+00 -0.00000000000E+00 -0.74505805969E-08  0.93827000000E+00  0.93827000000E+00 0. -1.
     999902    2    1    2    0    0  0.71673802744E-02  0.20221300791E-01 -0.47031397519E-02  0.10219665788E+01  0.10217305400E+01 0.  0.
     999903    2    3    3    0    0  0.12014572448E+00  0.45355749883E-01 -0.31672118888E-01  0.13397830604E+00  0.21328952506E-01 0.  0.
         14    1    1    2    0    0 -0.71673802744E-02 -0.20221300791E-01  0.47031397519E-02  0.21963421164E-01  0.00000000000E+00 0. -1.
     999901    1    3    3    0    0 -0.11297834421E+00 -0.25134449092E-01  0.26968979136E-01  0.88798827280E+00  0.88000000000E+00 0.  1.
        -11    1    4    4    0    0  0.69896997928E-01  0.25413166239E-01 -0.74861015257E-02  0.74751068050E-01  0.51100000000E-03 0. -1.
         11    1    4    4    0    0  0.50248726555E-01  0.19942583644E-01 -0.24186017362E-01  0.59227237988E-01  0.51100000000E-03 0.  1.
</event>
<event>
 8    1  0.1132492E+005  0.1043930E+01  0.7957747E-01            NaN
         13   -1    0    0    0    0  0.00000000000E+00  0.00000000000E+00  0.74505805969E-08  0.10566000000E+00  0.10566000000E+00 0. -1.
     999900   -1    0    0    0    0 -0.00000000000E+00 -0.00000000000E+00 -0.74505805969E-08  0.93827000000E+00  0.93827000000E+00 0. -1.
     999902    2    1    2    0    0 -0.18365712072E-01  0.71894898897E-02 -0.12055822030E-01  0.10208143994E+01  0.10205526479E+01 0.  0.
     999903    2    3    3    0    0 -0.54843740925E-01 -0.57841129780E-01  0.10130134284E+00  0.13041590723E+00  0.19822073166E-01 0.  0.
         14    1    1    2    0    0  0.18365712072E-01 -0.71894898897E-02  0.12055822030E-01  0.23115600568E-01  0.00000000000E+00 0. -1.
     999901    1    3    3    0    0  0.36478028853E-01  0.65030619670E-01 -0.11335716487E+00  0.89039849220E+00  0.88000000000E+00 0. -1.
        -11    1    4    4    0    0 -0.49147620277E-01 -0.40934347135E-01  0.74185017461E-01  0.97952985105E-01  0.51100000000E-03 0.  1.
         11    1    4    4    0    0 -0.56961206480E-02 -0.16906782645E-01  0.27116325382E-01  0.32462922128E-01  0.51100000000E-03 0. -1.
</event>
<event>
 8    1  0.1132492E+005  0.1043930E+01  0.7957747E-01            NaN
         13   -1    0    0    0    0  0.00000000000E+00  0.00000000000E+00  0.74505805969E-08  0.10566000000E+00  0.10566000000E+00 0. -1.
     999900   -1    0    0    0    0 -0.00000000000E+00 -0.00000000000E+00 -0.74505805969E-08  0.93827000000E+00  0.93827000000E+00 0.  1.
     999902    2    1    2    0    0  0.95060681250E-02  0.13376307400E-01  0.17430321144E-01  0.10199903462E+01  0.10197093700E+01 0.  0.
     999903    2    3    3    0    0  0.71380927951E-01 -0.43073972480E-01  0.10049750133E+00  0.13211913433E+00  0.20127441520E-01 0.  0.
         14    1    1    2    0    0 -0.95060681250E-02 -0.13376307400E-01 -0.17430321144E-01  0.23939653842E-01  0.00000000000E+00 0.  1.
     999901    1    3    3    0    0 -0.61874859826E-01  0.56450279880E-01 -0.83067180181E-01  0.88787121183E+00  0.88000000000E+00 0.  1.
        -11    1    4    4    0    0  0.22647828351E-01 -0.17595934422E-01  0.21422901374E-01  0.35801436584E-01  0.51100000000E-03 0. -1.
         11    1    4    4    0    0  0.48733099600E-01 -0.25478038058E-01  0.79074599951E-01  0.96317697742E-01  0.51100000000E-03 0.  1.
</event>
<event>
 8    1  0.1132492E+005  0.1043930E+01  0.7957747E-01            NaN
         13   -1    0    0    0    0  0.00000000000E+00  0.00000000000E+00  0.74505805969E-08  0.10566000000E+00  0.10566000000E+00 0. -1.
     999900   -1    0    0    0    0 -0.00000000000E+00 -0.00000000000E+00 -0.74505805969E-08  0.93827000000E+00  0.93827000000E+00 0.  1.
     999902    2    1    2    0    0  0.23487482146E-01  0.26585337791E-02  0.33555135321E-02  0.10200555557E+01  0.10197761262E+01 0.  0.
     999903    2    3    3    0    0 -0.66417804148E-01  0.26132578069E-01  0.10581760189E+00  0.12925116033E+00  0.20353408388E-01 0.  0.
         14    1    1    2    0    0 -0.23487482146E-01 -0.26585337791E-02 -0.33555135321E-02  0.23874444297E-01  0.00000000000E+00 0.  1.
     999901    1    3    3    0    0  0.89905286295E-01 -0.23474044290E-01 -0.10246208836E+00  0.89080439537E+00  0.88000000000E+00 0.  1.
        -11    1    4    4    0    0 -0.25754422563E-01  0.52067094780E-02  0.54538197714E-01  0.60539873109E-01  0.51100000000E-03 0. -1.
         11    1    4    4    0    0 -0.40663381585E-01  0.20925868591E-01  0.51279404178E-01  0.68711287225E-01  0.51100000000E-03 0.  1.
</event>
<event>
 8    1  0.1132492E+005  0.1043930E+01  0.7957747E-01            NaN
         13   -1    0    0    0    0  0.00000000000E+00  0.00000000000E+00  0.74505805969E-08  0.10566000000E+00  0.10566000000E+00 0. -1.
     999900   -1    0    0    0    0 -0.00000000000E+00 -0.00000000000E+00 -0.74505805969E-08  0.93827000000E+00  0.93827000000E+00 0. -1.
     999902    2    1    2    0    0  0.22197177448E-01  0.15848417439E-02  0.64938800320E-02  0.10207481776E+01  0.10204849069E+01 0.  0.
     999903    2    3    3    0    0 -0.77079018889E-01  0.93752200149E-02  0.10224068967E+00  0.12997104238E+00  0.20254464426E-01 0.  0.
         14    1    1    2    0    0 -0.22197177448E-01 -0.15848417439E-02 -0.64938800320E-02  0.23181822359E-01  0.00000000000E+00 0.  1.
     999901    1    3    3    0    0  0.99276196337E-01 -0.77903782711E-02 -0.95746809639E-01  0.89077713526E+00  0.88000000000E+00 0. -1.
        -11    1    4    4    0    0 -0.42596743839E-01 -0.42949353825E-02  0.48850279451E-01  0.64957986260E-01  0.51100000000E-03 0. -1.
         11    1    4    4    0    0 -0.34482275050E-01  0.13670155397E-01  0.53390410220E-01  0.65013056117E-01  0.51100000000E-03 0.  1.
</event>
<event>
 8    1  0.1132492E+005  0.1043930E+01  0.7957747E-01            NaN
         13   -1    0    0    0    0  0.00000000000E+00  0.00000000000E+00  0.74505805969E-08  0.10566000000E+00  0.10566000000E+00 0. -1.
     999900   -1    0    0    0    0 -0.00000000000E+00 -0.00000000000E+00 -0.74505805969E-08  0.93827000000E+00  0.93827000000E+00 0. -1.
     999902    2    1    2    0    0 -0.14096619481E-01 -0.13321923233E-01 -0.13748825782E-01  0.10201556750E+01  0.10198786117E+01 0.  0.
     999903    2    3    3    0    0  0.62481138971E-01 -0.11203921733E+00  0.12950788884E-01  0.13093009806E+00  0.22765954816E-01 0.  0.
         14    1    1    2    0    0  0.14096619481E-01  0.13321923233E-01  0.13748825782E-01  0.23774325013E-01  0.00000000000E+00 0. -1.
     999901    1    3    3    0    0 -0.76577758452E-01  0.98717294092E-01 -0.26699614666E-01  0.88922557693E+00  0.88000000000E+00 0.  1.
        -11    1    4    4    0    0  0.44152334600E-01 -0.89129060992E-01  0.18204947719E-01  0.10111923361E+00  0.51100000000E-03 0.  1.
         11    1    4    4    0    0  0.18328804371E-01 -0.22910156333E-01 -0.52541588356E-02  0.29810864445E-01  0.51100000000E-03 0. -1.
</event>
<event>
 8    1  0.1132492E+005  0.1043930E+01  0.7957747E-01            NaN
         13   -1    0    0    0    0  0.00000000000E+00  0.00000000000E+00  0.74505805969E-08  0.10566000000E+00  0.10566000000E+00 0. -1.
     999900   -1    0    0    0    0 -0.00000000000E+00 -0.00000000000E+00 -0.74505805969E-08  0.93827000000E+00  0.93827000000E+00 0. -1.
     999902    2    1    2    0    0 -0.15710071360E-01 -0.15817930298E-03 -0.19203537053E-01  0.10191185672E+01  0.10188164932E+01 0.  0.
     999903    2    3    3    0    0 -0.78945732144E-01  0.38454059457E-01 -0.97371746587E-01  0.13255220038E+00  0.19434131815E-01 0.  0.
         14    1    1    2    0    0  0.15710071360E-01  0.15817930298E-03  0.19203537053E-01  0.24811432812E-01  0.00000000000E+00 0. -1.
     999901    1    3    3    0    0  0.63235660784E-01 -0.38612238760E-01  0.78168209534E-01  0.88656636681E+00  0.88000000000E+00 0.  1.
        -11    1    4    4    0    0 -0.54590612509E-01  0.16382058100E-01 -0.64206745778E-01  0.85856124570E-01  0.51100000000E-03 0. -1.
         11    1    4    4    0    0 -0.24355119635E-01  0.22072001356E-01 -0.33165000809E-01  0.46696075809E-01  0.51100000000E-03 0.  1.
</event>
<event>
 8    1  0.1132492E+005  0.1043930E+01  0.7957747E-01            NaN
         13   -1    0    0    0    0  0.00000000000E+00  0.00000000000E+00  0.74505805969E-08  0.10566000000E+00  0.10566000000E+00 0. -1.
     999900   -1    0    0    0    0 -0.00000000000E+00 -0.00000000000E+00 -0.74505805969E-08  0.93827000000E+00  0.93827000000E+00 0. -1.
     999902    2    1    2    0    0  0.10264746319E-03  0.16813137989E-01  0.15815787510E-01  0.10208468616E+01  0.10205858531E+01 0.  0.
     999903    2    3    3    0    0 -0.99860913736E-01  0.84425154690E-01  0.93736720136E-02  0.13258699012E+00  0.19789779797E-01 0.  0.
         14    1    1    2    0    0 -0.10264746319E-03 -0.16813137989E-01 -0.15815787510E-01  0.23083138437E-01  0.00000000000E+00 0.  1.
     999901    1    3    3    0    0  0.99963561200E-01 -0.67612016701E-01  0.64421154959E-02  0.88825987145E+00  0.88000000000E+00 0.  1.
        -11    1    4    4    0    0 -0.60418196177E-01  0.38200649132E-01  0.55839701447E-02  0.71701393758E-01  0.51100000000E-03 0.  1.
         11    1    4    4    0    0 -0.39442717560E-01  0.46224505559E-01  0.37897018689E-02  0.60885596358E-01  0.51100000000E-03 0. -1.
</event>
<event>
 7    1  0.1132492E+005  0.1043930E+01  0.7957747E-01            NaN
         13   -1    0    0    0    0  0.00000000000E+00  0.00000000000E+00  0.74505805969E-08  0.10566000000E+00  0.10566000000E+00 0.  1.
     999900   -1    0    0    0    0 -0.00000000000E+00 -0.00000000000E+00 -0.74505805969E-08  0.93827000000E+00  0.93827000000E+00 0.  1.
     999903    2    1    2    0    0  0.11160397468E+00 -0.20961237113E-01 -0.29668921111E-01  0.11913004499E+00  0.20418180958E-01 0.  0.
         14    1    1    2    0    0 -0.39703455214E-01  0.89131376689E-02 -0.56345329917E-02  0.41079877569E-01  0.00000000000E+00 0.  1.
     999901    1    1    2    0    0 -0.71900519467E-01  0.12048099445E-01  0.35303454103E-01  0.88372007744E+00  0.88000000000E+00 0. -1.
        -11    1    3    3    0    0  0.26986153429E-01  0.12865580304E-03 -0.14410750376E-01  0.30597383494E-01  0.51100000000E-03 0. -1.
         11    1    3    3    0    0  0.84617821251E-01 -0.21089892916E-01 -0.15258170734E-01  0.88532661497E-01  0.51100000000E-03 0.  1.
</event>
<event>
 8    1  0.1132492E+005  0.1043930E+01  0.7957747E-01            NaN
         13   -1    0    0    0    0  0.00000000000E+00  0.00000000000E+00  0.74505805969E-08  0.10566000000E+00  0.10566000000E+00 0.  1.
     999900   -1    0    0    0    0 -0.00000000000E+00 -0.00000000000E+00 -0.74505805969E-08  0.93827000000E+00  0.93827000000E+00 0.  1.
     999902    2    1    2    0    0  0.23992591136E-02 -0.12962174667E-01  0.19402809501E-01  0.10204727318E+01  0.10202030939E+01 0.  0.
     999903    2    3    3    0    0  0.30210882848E-01  0.43470093146E-01  0.11993067915E+00  0.13251781183E+00  0.19371530896E-01 0.  0.
         14    1    1    2    0    0 -0.23992591136E-02  0.12962174667E-01 -0.19402809501E-01  0.23457268232E-01  0.00000000000E+00 0.  1.
     999901    1    3    3    0    0 -0.27811623734E-01 -0.56432267813E-01 -0.10052786965E+00  0.88795491994E+00  0.88000000000E+00 0.  1.
        -11    1    4    4    0    0  0.26938725842E-02  0.19453897126E-01  0.47351433039E-01  0.51265294252E-01  0.51100000000E-03 0. -1.
         11    1    4    4    0    0  0.27517010264E-01  0.24016196020E-01  0.72579246115E-01  0.81252517578E-01  0.51100000000E-03 0.  1.
</event>
<event>
 8    1  0.1132492E+005  0.1043930E+01  0.7957747E-01            NaN
         13   -1    0    0    0    0  0.00000000000E+00  0.00000000000E+00  0.74505805969E-08  0.10566000000E+00  0.10566000000E+00 0. -1.
     999900   -1    0    0    0    0 -0.00000000000E+00 -0.00000000000E+00 -0.74505805969E-08  0.93827000000E+00  0.93827000000E+00 0. -1.
     999902    2    1    2    0    0  0.27277208625E-02 -0.17991427686E-01 -0.15143804982E-01  0.10202558208E+01  0.10199811141E+01 0.  0.
     999903    2    3    3    0    0  0.62159531861E-01  0.15047051242E-01  0.11046081491E+00  0.12874014411E+00  0.16799164398E-01 0.  0.
         14    1    1    2    0    0 -0.27277208625E-02  0.17991427686E-01  0.15143804982E-01  0.23674179196E-01  0.00000000000E+00 0. -1.
     999901    1    3    3    0    0 -0.59431810998E-01 -0.33038478928E-01 -0.12560461989E+00  0.89151567669E+00  0.88000000000E+00 0. -1.
        -11    1    4    4    0    0  0.53244970062E-01  0.12999713579E-01  0.80334632909E-01  0.97251908751E-01  0.51100000000E-03 0. -1.
         11    1    4    4    0    0  0.89145617994E-02  0.20473376633E-02  0.30126181996E-01  0.31488235362E-01  0.51100000000E-03 0.  1.
</event>
<event>
 7    1  0.1424638E+005  0.1043930E+01  0.7957747E-01            NaN
         13   -1    0    0    0    0  0.00000000000E+00  0.00000000000E+00  0.74505805969E-08  0.10566000000E+00  0.10566000000E+00 0.  1.
     999900   -1    0    0    0    0 -0.00000000000E+00 -0.00000000000E+00 -0.74505805969E-08  0.93827000000E+00  0.93827000000E+00 0.  1.
     999903    2    1    2    0    0  0.64278414150E-01 -0.12257745169E-01  0.88454632057E-01  0.11201456883E+00  0.21001782226E-01 0.  0.
         14    1    1    2    0    0  0.25730877101E-01  0.65962049903E-02 -0.37348285242E-01  0.45831019705E-01  0.00000000000E+00 0. -1.
     999901    1    1    2    0    0 -0.90009291251E-01  0.56615401783E-02 -0.51106346815E-01  0.88608441146E+00  0.88000000000E+00 0.  1.
        -11    1    3    3    0    0  0.46246649349E-01  0.85758000982E-03  0.63232012769E-01  0.78345622592E-01  0.51100000000E-03 0. -1.
         11    1    3    3    0    0  0.18031764801E-01 -0.13115325178E-01  0.25222619288E-01  0.33668946243E-01  0.51100000000E-03 0.  1.
</event>
<event>
 8    1  0.1132492E+005  0.1043930E+01  0.7957747E-01            NaN
         13   -1    0    0    0    0  0.00000000000E+00  0.00000000000E+00  0.74505805969E-08  0.10566000000E+00  0.10566000000E+00 0.  1.
     999900   -1    0    0    0    0 -0.00000000000E+00 -0.00000000000E+00 -0.74505805969E-08  0.93827000000E+00  0.93827000000E+00 0. -1.
     999902    2    1    2    0    0  0.61297288272E-02 -0.67140510330E-02  0.20963234125E-01  0.10210802901E+01  0.10208245930E+01 0.  0.
     999903    2    3    3    0    0  0.68328495098E-01 -0.51127061301E-01 -0.95879917029E-01  0.13007326210E+00  0.21055530953E-01 0.  0.
         14    1    1    2    0    0 -0.61297288272E-02  0.67140510330E-02 -0.20963234125E-01  0.22849709883E-01  0.00000000000E+00 0. -1.
     999901    1    3    3    0    0 -0.62198766270E-01  0.44413010268E-01  0.11684315115E+00  0.89100702802E+00  0.88000000000E+00 0.  1.
        -11    1    4    4    0    0  0.28301131883E-01 -0.10435076567E-01 -0.40878371538E-01  0.50804992563E-01  0.51100000000E-03 0. -1.
         11    1    4    4    0    0  0.40027363215E-01 -0.40691984735E-01 -0.55001545492E-01  0.79268269535E-01  0.51100000000E-03 0.  1.
</event>
<event>
 8    1  0.1132492E+005  0.1043930E+01  0.7957747E-01            NaN
         13   -1    0    0    0    0  0.00000000000E+00  0.00000000000E+00  0.74505805969E-08  0.10566000000E+00  0.10566000000E+00 0.  1.
     999900   -1    0    0    0    0 -0.00000000000E+00 -0.00000000000E+00 -0.74505805969E-08  0.93827000000E+00  0.93827000000E+00 0.  1.
     999902    2    1    2    0    0 -0.15121851913E-01 -0.18084693357E-01 -0.62894492085E-03  0.10203477586E+01  0.10200752062E+01 0.  0.
     999903    2    3    3    0    0 -0.98798689860E-01 -0.81382852750E-01 -0.32645106284E-01  0.13353689667E+00  0.19546098558E-01 0.  0.
         14    1    1    2    0    0  0.15121851913E-01  0.18084693357E-01  0.62894492085E-03  0.23582241429E-01  0.00000000000E+00 0. -1.
     999901    1    3    3    0    0  0.83676837947E-01  0.63298159393E-01  0.32016161363E-01  0.88681086190E+00  0.88000000000E+00 0.  1.
        -11    1    4    4    0    0 -0.35893142944E-01 -0.22110627879E-01 -0.18135502077E-01  0.45895044745E-01  0.51100000000E-03 0. -1.
         11    1    4    4    0    0 -0.62905546917E-01 -0.59272224871E-01 -0.14509604207E-01  0.87641851928E-01  0.51100000000E-03 0.  1.
</event>
<event>
 8    1  0.1132492E+005  0.1043930E+01  0.7957747E-01            NaN
         13   -1    0    0    0    0  0.00000000000E+00  0.00000000000E+00  0.74505805969E-08  0.10566000000E+00  0.10566000000E+00 0. -1.
     999900   -1    0    0    0    0 -0.00000000000E+00 -0.00000000000E+00 -0.74505805969E-08  0.93827000000E+00  0.93827000000E+00 0.  1.
     999902    2    1    2    0    0  0.19562616693E-01  0.56886341538E-02 -0.11978396124E-01  0.10202965808E+01  0.10200228303E+01 0.  0.
     999903    2    3    3    0    0  0.12219364001E+00  0.46763023705E-01  0.12713059588E-01  0.13303681024E+00  0.20472052916E-01 0.  0.
         14    1    1    2    0    0 -0.19562616693E-01 -0.56886341538E-02  0.11978396124E-01  0.23633419222E-01  0.00000000000E+00 0. -1.
     999901    1    3    3    0    0 -0.10263102332E+00 -0.41074389551E-01 -0.24691455712E-01  0.88725977053E+00  0.88000000000E+00 0.  1.
        -11    1    4    4    0    0  0.30575927649E-02  0.10376395125E-03 -0.27657133539E-02  0.41557107491E-02  0.51100000000E-03 0. -1.
         11    1    4    4    0    0  0.11913604725E+00  0.46659259753E-01  0.15478772941E-01  0.12888109949E+00  0.51100000000E-03 0.  1.
</event>
<event>
 8    1  0.1132492E+005  0.1043930E+01  0.7957747E-01            NaN
         13   -1    0    0    0    0  0.00000000000E+00  0.00000000000E+00  0.74505805969E-08  0.10566000000E+00  0.10566000000E+00 0. -1.
     999900   -1    0    0    0    0 -0.00000000000E+00 -0.00000000000E+00 -0.74505805969E-08  0.93827000000E+00  0.93827000000E+00 0.  1.
     999902    2    1    2    0    0 -0.10192041986E-02 -0.14741508413E-01 -0.16308589924E-01  0.10219227068E+01  0.10216857138E+01 0.  0.
     999903    2    3    3    0    0 -0.77529358527E-01  0.10243362125E+00  0.18067403856E-01  0.13020216558E+00  0.11078115526E-01 0.  0.
         14    1    1    2    0    0  0.10192041986E-02  0.14741508413E-01  0.16308589924E-01  0.22007293173E-01  0.00000000000E+00 0. -1.
     999901    1    3    3    0    0  0.76510154328E-01 -0.11717512967E+00 -0.34375993780E-01  0.89172054124E+00  0.88000000000E+00 0. -1.
        -11    1    4    4    0    0 -0.27095509105E-01  0.44316000541E-01  0.89840963465E-02  0.52716692098E-01  0.51100000000E-03 0.  1.
         11    1    4    4    0    0 -0.50433849423E-01  0.58117620714E-01  0.90833075096E-02  0.77485473486E-01  0.51100000000E-03 0. -1.
</event>
<event>
 8    1  0.1132492E+005  0.1043930E+01  0.7957747E-01            NaN
         13   -1    0    0    0    0  0.00000000000E+00  0.00000000000E+00  0.74505805969E-08  0.10566000000E+00  0.10566000000E+00 0. -1.
     999900   -1    0    0    0    0 -0.00000000000E+00 -0.00000000000E+00 -0.74505805969E-08  0.93827000000E+00  0.93827000000E+00 0.  1.
     999902    2    1    2    0    0  0.57230572915E-02 -0.28264147113E-01 -0.60101002386E-03  0.10150859953E+01  0.10146761065E+01 0.  0.
     999903    2    3    3    0    0 -0.29703920216E-02  0.81906118480E-01  0.91073514734E-01  0.12344857905E+00  0.15090762427E-01 0.  0.
         14    1    1    2    0    0 -0.57230572915E-02  0.28264147113E-01  0.60101002386E-03  0.28844004747E-01  0.00000000000E+00 0. -1.
     999901    1    3    3    0    0  0.86934493131E-02 -0.11017026559E+00 -0.91674524757E-01  0.89163741620E+00  0.88000000000E+00 0.  1.
        -11    1    4    4    0    0  0.58776040900E-02  0.44843073284E-01  0.49557559687E-01  0.67094413288E-01  0.51100000000E-03 0.  1.
         11    1    4    4    0    0 -0.88479961116E-02  0.37063045196E-01  0.41515955047E-01  0.56354165763E-01  0.51100000000E-03 0. -1.
</event>
<event>
 8    1  0.1132492E+005  0.1043930E+01  0.7957747E-01            NaN
         13   -1    0    0    0    0  0.00000000000E+00  0.00000000000E+00  0.74505805969E-08  0.10566000000E+00  0.10566000000E+00 0.  1.
     999900   -1    0    0    0    0 -0.00000000000E+00 -0.00000000000E+00 -0.74505805969E-08  0.93827000000E+00  0.93827000000E+00 0. -1.
     999902    2    1    2    0    0 -0.38102691440E-02 -0.17624380894E-01 -0.15351188120E-01  0.10202488698E+01  0.10199739998E+01 0.  0.
     999903    2    3    3    0    0 -0.63626860871E-02  0.11909619937E+00  0.41367019620E-01  0.12788348104E+00  0.20458883891E-01 0.  0.
         14    1    1    2    0    0  0.38102691440E-02  0.17624380894E-01  0.15351188120E-01  0.23681130242E-01  0.00000000000E+00 0.  1.
     999901    1    3    3    0    0  0.25524169431E-02 -0.13672058027E+00 -0.56718207741E-01  0.89236538872E+00  0.88000000000E+00 0. -1.
        -11    1    4    4    0    0  0.15469371392E-02  0.75638448518E-01  0.34603953747E-01  0.83194126263E-01  0.51100000000E-03 0.  1.
         11    1    4    4    0    0 -0.79096232263E-02  0.43457750855E-01  0.67630658732E-02  0.44689354772E-01  0.51100000000E-03 0. -1.
</event>
<event>
 8    1  0.1132492E+005  0.1043930E+01  0.7957747E-01            NaN
         13   -1    0    0    0    0  0.00000000000E+00  0.00000000000E+00  0.74505805969E-08  0.10566000000E+00  0.10566000000E+00 0.  1.
     999900   -1    0    0    0    0 -0.00000000000E+00 -0.00000000000E+00 -0.74505805969E-08  0.93827000000E+00  0.93827000000E+00 0. -1.
     999902    2    1    2    0    0  0.78736183695E-02 -0.14705168927E-01  0.16587761376E-01  0.10204057638E+01  0.10201345662E+01 0.  0.
     999903    2    3    3    0    0 -0.51608561155E-01  0.94099088840E-01  0.71758643119E-01  0.13000118031E+00  0.15261779502E-01 0.  0.
         14    1    1    2    0    0 -0.78736183695E-02  0.14705168927E-01 -0.16587761376E-01  0.23524236159E-01  0.00000000000E+00 0. -1.
     999901    1    3    3    0    0  0.59482179525E-01 -0.10880425777E+00 -0.55170881743E-01  0.89040458354E+00  0.88000000000E+00 0. -1.
        -11    1    4    4    0    0 -0.36880022289E-01  0.64295714568E-01  0.57560155692E-01  0.93848322308E-01  0.51100000000E-03 0.  1.
         11    1    4    4    0    0 -0.14728538866E-01  0.29803374273E-01  0.14198487426E-01  0.36152857997E-01  0.51100000000E-03 0. -1.
</event>
<event>
 8    1  0.1132492E+005  0.1043930E+01  0.7957747E-01            NaN
         13   -1    0    0    0    0  0.00000000000E+00  0.00000000000E+00  0.74505805969E-08  0.10566000000E+00  0.10566000000E+00 0. -1.
     999900   -1    0    0    0    0 -0.00000000000E+00 -0.00000000000E+00 -0.74505805969E-08  0.93827000000E+00  0.93827000000E+00 0. -1.
     999902    2    1    2    0    0  0.19567466446E-01  0.88692255560E-02  0.10246853097E-01  0.10201277542E+01  0.10198500321E+01 0.  0.
     999903    2    3    3    0    0  0.33639927630E-04  0.11689199143E+00 -0.55657128664E-01  0.13086186422E+00  0.19062338405E-01 0.  0.
         14    1    1    2    0    0 -0.19567466446E-01 -0.88692255560E-02 -0.10246853097E-01  0.23802245765E-01  0.00000000000E+00 0.  1.
     999901    1    3    3    0    0  0.19533826519E-01 -0.10802276587E+00  0.65903981761E-01  0.88926589001E+00  0.88000000000E+00 0.  1.
        -11    1    4    4    0    0  0.63985008850E-02  0.32243089464E-01 -0.21924345965E-01  0.39515765193E-01  0.51100000000E-03 0.  1.
         11    1    4    4    0    0 -0.63648609574E-02  0.84648901963E-01 -0.33732782700E-01  0.91346099031E-01  0.51100000000E-03 0. -1.
</event>
<event>
 8    1  0.1132492E+005  0.1043930E+01  0.7957747E-01            NaN
         13   -1    0    0    0    0  0.00000000000E+00  0.00000000000E+00  0.74505805969E-08  0.10566000000E+00  0.10566000000E+00 0. -1.
     999900   -1    0    0    0    0 -0.00000000000E+00 -0.00000000000E+00 -0.74505805969E-08  0.93827000000E+00  0.93827000000E+00 0. -1.
     999902    2    1    2    0    0 -0.22604004392E-01 -0.44289879872E-02  0.37140161521E-02  0.10205986720E+01  0.10203319550E+01 0.  0.
     999903    2    3    3    0    0 -0.12025776183E+00  0.54129506258E-01  0.62510074545E-02  0.13325894570E+00  0.18081448649E-01 0.  0.
         14    1    1    2    0    0  0.22604004392E-01  0.44289879872E-02 -0.37140161521E-02  0.23331327976E-01  0.00000000000E+00 0.  1.
     999901    1    3    3    0    0  0.97653757443E-01 -0.58558494245E-01 -0.25369913024E-02  0.88733972633E+00  0.88000000000E+00 0. -1.
        -11    1    4    4    0    0 -0.61550441888E-01  0.20963064271E-01  0.96837543149E-02  0.65741487501E-01  0.51100000000E-03 0. -1.
         11    1    4    4    0    0 -0.58707319946E-01  0.33166441987E-01 -0.34327468603E-02  0.67517458197E-01  0.51100000000E-03 0.  1.
</event>
<event>
 8    1  0.1132492E+005  0.1043930E+01  0.7957747E-01            NaN
         13   -1    0    0    0    0  0.00000000000E+00  0.00000000000E+00  0.74505805969E-08  0.10566000000E+00  0.10566000000E+00 0.  1.
     999900   -1    0    0    0    0 -0.00000000000E+00 -0.00000000000E+00 -0.74505805969E-08  0.93827000000E+00  0.93827000000E+00 0. -1.
     999902    2    1    2    0    0  0.70719925743E-02  0.16265388662E-01  0.15571488403E-01  0.10203281526E+01  0.10200551416E+01 0.  0.
     999903    2    3    3    0    0  0.67171777364E-02 -0.12423004291E+00  0.99175216344E-02  0.12916539561E+00  0.33273385015E-01 0.  0.
         14    1    1    2    0    0 -0.70719925743E-02 -0.16265388662E-01 -0.15571488403E-01  0.23601847351E-01  0.00000000000E+00 0. -1.
     999901    1    3    3    0    0  0.35481483798E-03  0.14049543157E+00  0.56539667685E-02  0.89116275704E+00  0.88000000000E+00 0. -1.
        -11    1    4    4    0    0  0.16204767484E-01 -0.45817524280E-01 -0.47356685334E-02  0.48831626000E-01  0.51100000000E-03 0.  1.
         11    1    4    4    0    0 -0.94875897481E-02 -0.78412518630E-01  0.14653190168E-01  0.80333769613E-01  0.51100000000E-03 0. -1.
</event>
<event>
 8    1  0.1132492E+005  0.1043930E+01  0.7957747E-01            NaN
         13   -1    0    0    0    0  0.00000000000E+00  0.00000000000E+00  0.74505805969E-08  0.10566000000E+00  0.10566000000E+00 0. -1.
     999900   -1    0    0    0    0 -0.00000000000E+00 -0.00000000000E+00 -0.74505805969E-08  0.93827000000E+00  0.93827000000E+00 0.  1.
     999902    2    1    2    0    0 -0.22442866715E-01  0.65164201631E-02 -0.84283320095E-02  0.10190868364E+01  0.10187839797E+01 0.  0.
     999903    2    3    3    0    0 -0.94172407233E-01  0.89531582577E-01  0.11150850727E-01  0.13205809470E+00  0.20752164731E-01 0.  0.
         14    1    1    2    0    0  0.22442866715E-01 -0.65164201631E-02  0.84283320095E-02  0.24843163618E-01  0.00000000000E+00 0.  1.
     999901    1    3    3    0    0  0.71729540518E-01 -0.83015162414E-01 -0.19579182737E-01  0.88702874168E+00  0.88000000000E+00 0.  1.
        -11    1    4    4    0    0 -0.23601643861E-01  0.20561177103E-01  0.11579574661E-01  0.33378844604E-01  0.51100000000E-03 0. -1.
         11    1    4    4    0    0 -0.70570763372E-01  0.68970405474E-01 -0.42872393382E-03  0.98679250095E-01  0.51100000000E-03 0.  1.
</event>
<event>
 8    1  0.1132492E+005  0.1043930E+01  0.7957747E-01            NaN
         13   -1    0    0    0    0  0.00000000000E+00  0.00000000000E+00  0.74505805969E-08  0.10566000000E+00  0.10566000000E+00 0.  1.
     999900   -1    0    0    0    0 -0.00000000000E+00 -0.00000000000E+00 -0.74505805969E-08  0.93827000000E+00  0.93827000000E+00 0. -1.
     999902    2    1    2    0    0 -0.12869275563E-01 -0.30290580716E-02 -0.19705354714E-01  0.10202003887E+01  0.10199243789E+01 0.  0.
     999903    2    3    3    0    0 -0.35930495116E-01  0.83401701666E-01 -0.94680953295E-01  0.13249354723E+00  0.18526003895E-01 0.  0.
         14    1    1    2    0    0  0.12869275563E-01  0.30290580716E-02  0.19705354714E-01  0.23729611264E-01  0.00000000000E+00 0.  1.
     999901    1    3    3    0    0  0.23061219553E-01 -0.86430759738E-01  0.74975598581E-01  0.88770684151E+00  0.88000000000E+00 0.  1.
        -11    1    4    4    0    0 -0.12630403501E-01  0.11553116491E-01 -0.16350378016E-01  0.23676941853E-01  0.51100000000E-03 0. -1.
         11    1    4    4    0    0 -0.23300091615E-01  0.71848585175E-01 -0.78330575280E-01  0.10881660538E+00  0.51100000000E-03 0.  1.
</event>
<event>
 8    1  0.1132492E+005  0.1043930E+01  0.7957747E-01            NaN
         13   -1    0    0    0    0  0.00000000000E+00  0.00000000000E+00  0.74505805969E-08  0.10566000000E+00  0.10566000000E+00 0.  1.
     999900   -1    0    0    0    0 -0.00000000000E+00 -0.00000000000E+00 -0.74505805969E-08  0.93827000000E+00  0.93827000000E+00 0.  1.
     999902    2    1    2    0    0  0.18697490614E-01  0.11240634242E-01 -0.72923700730E-02  0.10209272464E+01  0.10206680732E+01 0.  0.
     999903    2    3    3    0    0 -0.39403666023E-01  0.10660523829E+00 -0.64280110339E-01  0.13204156494E+00  0.19639668035E-01 0.  0.
         14    1    1    2    0    0 -0.18697490614E-01 -0.11240634242E-01  0.72923700730E-02  0.23002753633E-01  0.00000000000E+00 0.  1.
     999901    1    3    3    0    0  0.58101156637E-01 -0.95364604043E-01  0.56987740266E-01  0.88888568143E+00  0.88000000000E+00 0.  1.
        -11    1    4    4    0    0 -0.29707241378E-01  0.57494372998E-01 -0.42646884036E-01  0.77505747888E-01  0.51100000000E-03 0.  1.
         11    1    4    4    0    0 -0.96964246444E-02  0.49110865287E-01 -0.21633226303E-01  0.54535817051E-01  0.51100000000E-03 0. -1.
</event>
<event>
 8    1  0.1132492E+005  0.1043930E+01  0.7957747E-01            NaN
         13   -1    0    0    0    0  0.00000000000E+00  0.00000000000E+00  0.74505805969E-08  0.10566000000E+00  0.10566000000E+00 0. -1.
     999900   -1    0    0    0    0 -0.00000000000E+00 -0.00000000000E+00 -0.74505805969E-08  0.93827000000E+00  0.93827000000E+00 0.  1.
     999902    2    1    2    0    0  0.22961526264E-01  0.18716019623E-02 -0.68804192654E-02  0.10198868149E+01  0.10196033741E+01 0.  0.
     999903    2    3    3    0    0  0.11788750630E+00 -0.50752479526E-01  0.25895298099E-01  0.13261319118E+00  0.21033632390E-01 0.  0.
         14    1    1    2    0    0 -0.22961526264E-01 -0.18716019623E-02  0.68804192654E-02  0.24043185138E-01  0.00000000000E+00 0. -1.
     999901    1    3    3    0    0 -0.94925980034E-01  0.52624081488E-01 -0.32775717365E-01  0.88727362368E+00  0.88000000000E+00 0. -1.
        -11    1    4    4    0    0  0.95708450643E-02  0.13816187535E-02  0.37217131406E-02  0.10374112749E-01  0.51100000000E-03 0. -1.
         11    1    4    4    0    0  0.10831666123E+00 -0.52134098280E-01  0.22173584959E-01  0.12223907843E+00  0.51100000000E-03 0.  1.
</event>
<event>
 8    1  0.1132492E+005  0.1043930E+01  0.7957747E-01            NaN
         13   -1    0    0    0    0  0.00000000000E+00  0.00000000000E+00  0.74505805969E-08  0.10566000000E+00  0.10566000000E+00 0. -1.
     999900   -1    0    0    0    0 -0.00000000000E+00 -0.00000000000E+00 -0.74505805969E-08  0.93827000000E+00  0.93827000000E+00 0. -1.
     999902    2    1    2    0    0 -0.99068574562E-02  0.77277670686E-02  0.19784724806E-01  0.10204928597E+01  0.10202236898E+01 0.  0.
     999903    2    3    3    0    0 -0.63184773262E-01 -0.10262598553E+00  0.49020740825E-01  0.13152085136E+00  0.19242994404E-01 0.  0.
         14    1    1    2    0    0  0.99068574562E-02 -0.77277670686E-02 -0.19784724806E-01  0.23437140273E-01  0.00000000000E+00 0.  1.
     999901    1    3    3    0    0  0.53277915806E-01  0.11035375260E+00 -0.29236016018E-01  0.88897200837E+00  0.88000000000E+00 0. -1.
        -11    1    4    4    0    0 -0.27074461189E-01 -0.40776614779E-01  0.30023447388E-01  0.57423229408E-01  0.51100000000E-03 0. -1.
         11    1    4    4    0    0 -0.36110312073E-01 -0.61849370750E-01  0.18997293436E-01  0.74097621953E-01  0.51100000000E-03 0.  1.
</event>
<event>
 8    1  0.1132492E+005  0.1043930E+01  0.7957747E-01            NaN
         13   -1    0    0    0    0  0.00000000000E+00  0.00000000000E+00  0.74505805969E-08  0.10566000000E+00  0.10566000000E+00 0. -1.
     999900   -1    0    0    0    0 -0.00000000000E+00 -0.00000000000E+00 -0.74505805969E-08  0.93827000000E+00  0.93827000000E+00 0. -1.
     999902    2    1    2    0    0  0.12325264326E-02  0.18198110156E-01 -0.15505773794E-01  0.10199900886E+01  0.10197091064E+01 0.  0.
     999903    2    3    3    0    0  0.80077783353E-01 -0.51541839438E-01 -0.87367847011E-01  0.13080822161E+00  0.20214785402E-01 0.  0.
         14    1    1    2    0    0 -0.12325264326E-02 -0.18198110156E-01  0.15505773794E-01  0.23939911353E-01  0.00000000000E+00 0. -1.
     999901    1    3    3    0    0 -0.78845256921E-01  0.69739949594E-01  0.71862073217E-01  0.88918186704E+00  0.88000000000E+00 0.  1.
        -11    1    4    4    0    0  0.31027771755E-01 -0.11469198229E-01 -0.21667574847E-01  0.39547566915E-01  0.51100000000E-03 0.  1.
         11    1    4    4    0    0  0.49050011598E-01 -0.40072641209E-01 -0.65700272163E-01  0.91260654691E-01  0.51100000000E-03 0. -1.
</event>
<event>
 8    1  0.1132492E+005  0.1043930E+01  0.7957747E-01            NaN
         13   -1    0    0    0    0  0.00000000000E+00  0.00000000000E+00  0.74505805969E-08  0.10566000000E+00  0.10566000000E+00 0.  1.
     999900   -1    0    0    0    0 -0.00000000000E+00 -0.00000000000E+00 -0.74505805969E-08  0.93827000000E+00  0.93827000000E+00 0.  1.
     999902    2    1    2    0    0  0.83516872189E-02  0.18974289849E-01 -0.10038711260E-01  0.10208963273E+01  0.10206364490E+01 0.  0.
     999903    2    3    3    0    0  0.52993612697E-01  0.34913008787E-01  0.11297626123E+00  0.13107632992E+00  0.19751645336E-01 0.  0.
         14    1    1    2    0    0 -0.83516872189E-02 -0.18974289849E-01  0.10038711260E-01  0.23033672708E-01  0.00000000000E+00 0.  1.
     999901    1    3    3    0    0 -0.44641925478E-01 -0.15938718938E-01 -0.12301497249E+00  0.88981999738E+00  0.88000000000E+00 0.  1.
        -11    1    4    4    0    0  0.34667481988E-01  0.32919441815E-01  0.76676280905E-01  0.90360595014E-01  0.51100000000E-03 0. -1.
         11    1    4    4    0    0  0.18326130709E-01  0.19935669722E-02  0.36299980325E-01  0.40715734903E-01  0.51100000000E-03 0.  1.
</event>
<event>
 8    1  0.1132492E+005  0.1043930E+01  0.7957747E-01            NaN
         13   -1    0    0    0    0  0.00000000000E+00  0.00000000000E+00  0.74505805969E-08  0.10566000000E+00  0.10566000000E+00 0.  1.
     999900   -1    0    0    0    0 -0.00000000000E+00 -0.00000000000E+00 -0.74505805969E-08  0.93827000000E+00  0.93827000000E+00 0. -1.
     999902    2    1    2    0    0  0.13023008611E-01  0.13524772213E-01  0.15342741423E-01  0.10196829810E+01  0.10193946556E+01 0.  0.
     999903    2    3    3    0    0 -0.94253409663E-02  0.12848055467E+00 -0.10164885606E-02  0.13177173276E+00  0.27688740019E-01 0.  0.
         14    1    1    2    0    0 -0.13023008611E-01 -0.13524772213E-01 -0.15342741423E-01  0.24247019014E-01  0.00000000000E+00 0. -1.
     999901    1    3    3    0    0  0.22448349577E-01 -0.11495578246E+00  0.16359229983E-01  0.88791124823E+00  0.88000000000E+00 0. -1.
        -11    1    4    4    0    0 -0.18409139059E-01  0.97927523236E-01  0.28664191166E-02  0.99685373489E-01  0.51100000000E-03 0.  1.
         11    1    4    4    0    0  0.89837980931E-02  0.30553031439E-01 -0.38829076773E-02  0.32086359272E-01  0.51100000000E-03 0. -1.
</event>
<event>
 8    1  0.1132492E+005  0.1043930E+01  0.7957747E-01            NaN
         13   -1    0    0    0    0  0.00000000000E+00  0.00000000000E+00  0.74505805969E-08  0.10566000000E+00  0.10566000000E+00 0.  1.
     999900   -1    0    0    0    0 -0.00000000000E+00 -0.00000000000E+00 -0.74505805969E-08  0.93827000000E+00  0.93827000000E+00 0. -1.
     999902    2    1    2    0    0 -0.22961576866E-01 -0.16400272077E-03 -0.63748008002E-02  0.10200993686E+01  0.10198209758E+01 0.  0.
     999903    2    3    3    0    0 -0.14969859841E-01  0.97440569366E-01  0.82882380110E-01  0.13017950455E+00  0.18932860597E-01 0.  0.
         14    1    1    2    0    0  0.22961576866E-01  0.16400272077E-03  0.63748008002E-02  0.23830631429E-01  0.00000000000E+00 0. -1.
     999901    1    3    3    0    0 -0.79917170248E-02 -0.97604572087E-01 -0.89257180910E-01  0.88991986402E+00  0.88000000000E+00 0. -1.
        -11    1    4    4    0    0 -0.17680988879E-01  0.60019009196E-01  0.56547221853E-01  0.84337110769E-01  0.51100000000E-03 0. -1.
         11    1    4    4    0    0  0.27111290375E-02  0.37421560170E-01  0.26335158257E-01  0.45842393782E-01  0.51100000000E-03 0.  1.
</event>
<event>
 8    1  0.1132492E+005  0.1043930E+01  0.7957747E-01            NaN
         13   -1    0    0    0    0  0.00000000000E+00  0.00000000000E+00  0.74505805969E-08  0.10566000000E+00  0.10566000000E+00 0.  1.
     999900   -1    0    0    0    0 -0.00000000000E+00 -0.00000000000E+00 -0.74505805969E-08  0.93827000000E+00  0.93827000000E+00 0.  1.
     999902    2    1    2    0    0 -0.14657394858E-01 -0.92819869877E-02  0.16077897311E-01  0.10202763895E+01  0.10200021656E+01 0.  0.
     999903    2    3    3    0    0 -0.30850034159E-01 -0.12664535356E+00 -0.61746719077E-02  0.13205820787E+00  0.20260145768E-01 0.  0.
         14    1    1    2    0    0  0.14657394858E-01  0.92819869877E-02 -0.16077897311E-01  0.23653610473E-01  0.00000000000E+00 0. -1.
     999901    1    3    3    0    0  0.16192639301E-01  0.11736336658E+00  0.22252569219E-01  0.88821818165E+00  0.88000000000E+00 0. -1.
        -11    1    4    4    0    0 -0.18692412789E-01 -0.60083759582E-01  0.63434896693E-02  0.63245280010E-01  0.51100000000E-03 0. -1.
         11    1    4    4    0    0 -0.12157621370E-01 -0.66561593983E-01 -0.12518161577E-01  0.68812927864E-01  0.51100000000E-03 0.  1.
</event>
<event>
 8    1  0.1132492E+005  0.1043930E+01  0.7957747E-01            NaN
         13   -1    0    0    0    0  0.00000000000E+00  0.00000000000E+00  0.74505805969E-08  0.10566000000E+00  0.10566000000E+00 0.  1.
     999900   -1    0    0    0    0 -0.00000000000E+00 -0.00000000000E+00 -0.74505805969E-08  0.93827000000E+00  0.93827000000E+00 0. -1.
     999902    2    1    2    0    0  0.36286291162E-02  0.21210507846E-01 -0.62477155852E-02  0.10215227123E+01  0.10212769287E+01 0.  0.
     999903    2    3    3    0    0  0.23704166351E-01  0.95538601961E-01  0.87398762932E-01  0.13321119277E+00  0.20424645687E-01 0.  0.
         14    1    1    2    0    0 -0.36286291162E-02 -0.21210507846E-01  0.62477155852E-02  0.22407287707E-01  0.00000000000E+00 0.  1.
     999901    1    3    3    0    0 -0.20075537235E-01 -0.74328094115E-01 -0.93646478517E-01  0.88831151952E+00  0.88000000000E+00 0. -1.
        -11    1    4    4    0    0  0.14518150070E-02  0.47498823629E-01  0.43689029942E-01  0.64554151464E-01  0.51100000000E-03 0.  1.
         11    1    4    4    0    0  0.22252351344E-01  0.48039778332E-01  0.43709732990E-01  0.68657041311E-01  0.51100000000E-03 0. -1.
</event>
<event>
 8    1  0.1132492E+005  0.1043930E+01  0.7957747E-01            NaN
         13   -1    0    0    0    0  0.00000000000E+00  0.00000000000E+00  0.74505805969E-08  0.10566000000E+00  0.10566000000E+00 0. -1.
     999900   -1    0    0    0    0 -0.00000000000E+00 -0.00000000000E+00 -0.74505805969E-08  0.93827000000E+00  0.93827000000E+00 0.  1.
     999902    2    1    2    0    0 -0.43604812615E-02  0.15493913761E-01 -0.17818435982E-01  0.10199180900E+01  0.10196353949E+01 0.  0.
     999903    2    3    3    0    0  0.96149940068E-01  0.76203970301E-01  0.38909026079E-01  0.13030802897E+00  0.20357161831E-01 0.  0.
         14    1    1    2    0    0  0.43604812615E-02 -0.15493913761E-01  0.17818435982E-01  0.24011909989E-01  0.00000000000E+00 0. -1.
     999901    1    3    3    0    0 -0.10051042133E+00 -0.60710056540E-01 -0.56727462061E-01  0.88961006105E+00  0.88000000000E+00 0.  1.
        -11    1    4    4    0    0  0.63648741346E-01  0.47108973552E-01  0.34778542319E-01  0.86488298578E-01  0.51100000000E-03 0. -1.
         11    1    4    4    0    0  0.32501198722E-01  0.29094996749E-01  0.41304837600E-02  0.43819730388E-01  0.51100000000E-03 0.  1.
</event>
<event>
 8    1  0.1132492E+005  0.1043930E+01  0.7957747E-01            NaN
         13   -1    0    0    0    0  0.00000000000E+00  0.00000000000E+00  0.74505805969E-08  0.10566000000E+00  0.10566000000E+00 0.  1.
     999900   -1    0    0    0    0 -0.00000000000E+00 -0.00000000000E+00 -0.74505805969E-08  0.93827000000E+00  0.93827000000E+00 0.  1.
     999902    2    1    2    0    0 -0.59156590863E-02 -0.17683542639E-01  0.14056716406E-01  0.10205784695E+01  0.10203112850E+01 0.  0.
     999903    2    3    3    0    0  0.11097734173E+00  0.28275748593E-01  0.59288892904E-01  0.13050983172E+00  0.20053803058E-01 0.  0.
         14    1    1    2    0    0  0.59156590863E-02  0.17683542639E-01 -0.14056716406E-01  0.23351530545E-01  0.00000000000E+00 0. -1.
     999901    1    3    3    0    0 -0.11689300082E+00 -0.45959291232E-01 -0.45232176499E-01  0.89006863774E+00  0.88000000000E+00 0.  1.
        -11    1    4    4    0    0  0.61016519255E-01  0.14291078769E-01  0.43462639864E-01  0.76266065451E-01  0.51100000000E-03 0.  1.
         11    1    4    4    0    0  0.49960822477E-01  0.13984669824E-01  0.15826253040E-01  0.54243766268E-01  0.51100000000E-03 0. -1.
</event>
<event>
 8    1  0.1132492E+005  0.1043930E+01  0.7957747E-01            NaN
         13   -1    0    0    0    0  0.00000000000E+00  0.00000000000E+00  0.74505805969E-08  0.10566000000E+00  0.10566000000E+00 0.  1.
     999900   -1    0    0    0    0 -0.00000000000E+00 -0.00000000000E+00 -0.74505805969E-08  0.93827000000E+00  0.93827000000E+00 0.  1.
     999902    2    1    2    0    0 -0.60667934730E-02 -0.23336079883E-01  0.64319030907E-02  0.10189750810E+01  0.10186694594E+01 0.  0.
     999903    2    3    3    0    0  0.92286009034E-01  0.54968044660E-01  0.66015945972E-01  0.12804575275E+00  0.22347623537E-01 0.  0.
         14    1    1    2    0    0  0.60667934730E-02  0.23336079883E-01 -0.64319030907E-02  0.24954919049E-01  0.00000000000E+00 0.  1.
     999901    1    3    3    0    0 -0.98352802507E-01 -0.78304124544E-01 -0.59584042881E-01  0.89092932820E+00  0.88000000000E+00 0.  1.
        -11    1    4    4    0    0  0.79743742035E-01  0.41128753301E-01  0.46623900176E-01  0.10111719898E+00  0.51100000000E-03 0.  1.
         11    1    4    4    0    0  0.12542266999E-01  0.13839291359E-01  0.19392045796E-01  0.26928553766E-01  0.51100000000E-03 0. -1.
</event>
<event>
 7    1  0.1132492E+005  0.1043930E+01  0.7957747E-01            NaN
         13   -1    0    0    0    0  0.00000000000E+00  0.00000000000E+00  0.74505805969E-08  0.10566000000E+00  0.10566000000E+00 0.  1.
     999900   -1    0    0    0    0 -0.00000000000E+00 -0.00000000000E+00 -0.74505805969E-08  0.93827000000E+00  0.93827000000E+00 0.  1.
     999902    2    1    2    0    0 -0.14436907863E-01  0.19776442175E-01 -0.28649005740E-02  0.10192776243E+01  0.10189794579E+01 0.  0.
         14    1    1    2    0    0  0.14436907863E-01 -0.19776442175E-01  0.28649005740E-02  0.24652375728E-01  0.00000000000E+00 0. -1.
     999901    1    3    3    0    0  0.98847810741E-01  0.20760027567E-02  0.61667076835E-01  0.88768126478E+00  0.88000000000E+00 0. -1.
        -11    1    3    3    0    0 -0.17100297015E-01  0.19805564442E-02 -0.93281525079E-02  0.19586176555E-01  0.51100000000E-03 0.  1.
         11    1    3    3    0    0 -0.96184421588E-01  0.15719882974E-01 -0.55203824901E-01  0.11201018294E+00  0.51100000000E-03 0. -1.
</event>
<event>
 8    1  0.1132492E+005  0.1043930E+01  0.7957747E-01            NaN
         13   -1    0    0    0    0  0.00000000000E+00  0.00000000000E+00  0.74505805969E-08  0.10566000000E+00  0.10566000000E+00 0. -1.
     999900   -1    0    0    0    0 -0.00000000000E+00 -0.00000000000E+00 -0.74505805969E-08  0.93827000000E+00  0.93827000000E+00 0. -1.
     999902    2    1    2    0    0  0.13090094085E-01  0.19172809324E-01  0.28464856478E-02  0.10205409072E+01  0.10202728525E+01 0.  0.
     999903    2    3    3    0    0 -0.10900230992E+00  0.54751369152E-01 -0.41211550994E-01  0.13030863437E+00  0.20068190330E-01 0.  0.
         14    1    1    2    0    0 -0.13090094085E-01 -0.19172809324E-01 -0.28464856478E-02  0.23389092780E-01  0.00000000000E+00 0.  1.
     999901    1    3    3    0    0  0.12209240401E+00 -0.35578559828E-01  0.44058036641E-01  0.89023227285E+00  0.88000000000E+00 0.  1.
        -11    1    4    4    0    0 -0.67771643924E-01  0.42823642186E-01 -0.21059773714E-01  0.82889295088E-01  0.51100000000E-03 0. -1.
         11    1    4    4    0    0 -0.41230665997E-01  0.11927726966E-01 -0.20151777280E-01  0.47419339279E-01  0.51100000000E-03 0.  1.
</event>
<event>
 8    1  0.1132492E+005  0.1043930E+01  0.7957747E-01            NaN
         13   -1    0    0    0    0  0.00000000000E+00  0.00000000000E+00  0.74505805969E-08  0.10566000000E+00  0.10566000000E+00 0. -1.
     999900   -1    0    0    0    0 -0.00000000000E+00 -0.00000000000E+00 -0.74505805969E-08  0.93827000000E+00  0.93827000000E+00 0. -1.
     999902    2    1    2    0    0 -0.12646260592E-01 -0.11031240195E-01 -0.12786137592E-01  0.10228325717E+01  0.10226149658E+01 0.  0.
     999903    2    3    3    0    0 -0.71168926433E-01 -0.11293067064E+00 -0.43645852481E-04  0.13493011789E+00  0.19692190039E-01 0.  0.
         14    1    1    2    0    0  0.12646260592E-01  0.11031240195E-01  0.12786137592E-01  0.21097428320E-01  0.00000000000E+00 0.  1.
     999901    1    3    3    0    0  0.58522665841E-01  0.10189943045E+00 -0.12742491740E-01  0.88790245379E+00  0.88000000000E+00 0.  1.
        -11    1    4    4    0    0 -0.39846992195E-01 -0.49872957442E-01  0.67426622115E-02  0.64193607826E-01  0.51100000000E-03 0.  1.
         11    1    4    4    0    0 -0.31321934238E-01 -0.63057713200E-01 -0.67863080640E-02  0.70736510068E-01  0.51100000000E-03 0. -1.
</event>
<event>
 8    1  0.1132492E+005  0.1043930E+01  0.7957747E-01            NaN
         13   -1    0    0    0    0  0.00000000000E+00  0.00000000000E+00  0.74505805969E-08  0.10566000000E+00  0.10566000000E+00 0.  1.
     999900   -1    0    0    0    0 -0.00000000000E+00 -0.00000000000E+00 -0.74505805969E-08  0.93827000000E+00  0.93827000000E+00 0. -1.
     999902    2    1    2    0    0 -0.10163273261E-01  0.26345814647E-01 -0.23274656346E-02  0.10155960774E+01  0.10152007591E+01 0.  0.
     999903    2    3    3    0    0  0.84503872559E-02  0.11508678862E+00 -0.55163292049E-01  0.12936075123E+00  0.19360713081E-01 0.  0.
         14    1    1    2    0    0  0.10163273261E-01 -0.26345814647E-01  0.23274656346E-02  0.28333922586E-01  0.00000000000E+00 0. -1.
     999901    1    3    3    0    0 -0.18613660517E-01 -0.88740973969E-01  0.52835826415E-01  0.88623532618E+00  0.88000000000E+00 0.  1.
        -11    1    4    4    0    0 -0.11100383855E-02  0.75792998813E-01 -0.28831379101E-01  0.81100680615E-01  0.51100000000E-03 0. -1.
         11    1    4    4    0    0  0.95604256414E-02  0.39293789803E-01 -0.26331912949E-01  0.48260070618E-01  0.51100000000E-03 0.  1.
</event>
<event>
 8    1  0.1132492E+005  0.1043930E+01  0.7957747E-01            NaN
         13   -1    0    0    0    0  0.00000000000E+00  0.00000000000E+00  0.74505805969E-08  0.10566000000E+00  0.10566000000E+00 0.  1.
     999900   -1    0    0    0    0 -0.00000000000E+00 -0.00000000000E+00 -0.74505805969E-08  0.93827000000E+00  0.93827000000E+00 0. -1.
     999902    2    1    2    0    0  0.19196663726E-01  0.58954644636E-02 -0.12935815324E-01  0.10200426871E+01  0.10197629527E+01 0.  0.
     999903    2    3    3    0    0 -0.47659210669E-02  0.71755872298E-01  0.10565366338E+00  0.12932653520E+00  0.19774653179E-01 0.  0.
         14    1    1    2    0    0 -0.19196663726E-01 -0.58954644636E-02  0.12935815324E-01  0.23887312899E-01  0.00000000000E+00 0.  1.
     999901    1    3    3    0    0  0.23962584793E-01 -0.65860407835E-01 -0.11858947871E+00  0.89071615190E+00  0.88000000000E+00 0. -1.
        -11    1    4    4    0    0  0.47609130810E-02  0.55508087238E-01  0.77415369625E-01  0.95379319652E-01  0.51100000000E-03 0.  1.
         11    1    4    4    0    0 -0.95268341479E-02  0.16247785061E-01  0.28238293760E-01  0.33947215552E-01  0.51100000000E-03 0. -1.
</event>
<event>
 8    1  0.1132492E+005  0.1043930E+01  0.7957747E-01            NaN
         13   -1    0    0    0    0  0.00000000000E+00  0.00000000000E+00  0.74505805969E-08  0.10566000000E+00  0.10566000000E+00 0.  1.
     999900   -1    0    0    0    0 -0.00000000000E+00 -0.00000000000E+00 -0.74505805969E-08  0.93827000000E+00  0.93827000000E+00 0. -1.
     999902    2    1    2    0    0  0.20462703132E-01 -0.66874465092E-02 -0.86469456873E-02  0.10207305640E+01  0.10204668885E+01 0.  0.
     999903    2    3    3    0    0 -0.81154000579E-01 -0.71842927680E-01 -0.70732863233E-01  0.13032287517E+00  0.15281877613E-01 0.  0.
         14    1    1    2    0    0 -0.20462703132E-01  0.66874465092E-02  0.86469456873E-02  0.23199435985E-01  0.00000000000E+00 0. -1.
     999901    1    3    3    0    0  0.10161670371E+00  0.65155481171E-01  0.62085917546E-01  0.89040768885E+00  0.88000000000E+00 0.  1.
        -11    1    4    4    0    0 -0.44311559311E-01 -0.29305518838E-01 -0.32328626098E-01  0.62191067762E-01  0.51100000000E-03 0. -1.
         11    1    4    4    0    0 -0.36842441268E-01 -0.42537408842E-01 -0.38404237135E-01  0.68131807407E-01  0.51100000000E-03 0.  1.
</event>
<event>
 8    1  0.1132492E+005  0.1043930E+01  0.7957747E-01            NaN
         13   -1    0    0    0    0  0.00000000000E+00  0.00000000000E+00  0.74505805969E-08  0.10566000000E+00  0.10566000000E+00 0.  1.
     999900   -1    0    0    0    0 -0.00000000000E+00 -0.00000000000E+00 -0.74505805969E-08  0.93827000000E+00  0.93827000000E+00 0.  1.
     999902    2    1    2    0    0  0.27319836134E-01  0.34682345570E-02  0.12802764264E-01  0.10135603956E+01  0.10131053068E+01 0.  0.
     999903    2    3    3    0    0  0.38539832580E-01 -0.10804418550E+00  0.47689804032E-01  0.12576649291E+00  0.19596648067E-01 0.  0.
         14    1    1    2    0    0 -0.27319836134E-01 -0.34682345570E-02 -0.12802764264E-01  0.30369604379E-01  0.00000000000E+00 0. -1.
     999901    1    3    3    0    0 -0.11219996446E-01  0.11151242005E+00 -0.34887039767E-01  0.88779390271E+00  0.88000000000E+00 0.  1.
        -11    1    4    4    0    0  0.16323450333E-01 -0.61706845996E-01  0.17592998061E-01  0.66211513918E-01  0.51100000000E-03 0.  1.
         11    1    4    4    0    0  0.22216382247E-01 -0.46337339501E-01  0.30096805970E-01  0.59554978992E-01  0.51100000000E-03 0. -1.
</event>
<event>
 8    1  0.1132492E+005  0.1043930E+01  0.7957747E-01            NaN
         13   -1    0    0    0    0  0.00000000000E+00  0.00000000000E+00  0.74505805969E-08  0.10566000000E+00  0.10566000000E+00 0. -1.
     999900   -1    0    0    0    0 -0.00000000000E+00 -0.00000000000E+00 -0.74505805969E-08  0.93827000000E+00  0.93827000000E+00 0. -1.
     999902    2    1    2    0    0 -0.17301175905E-01 -0.37129682294E-02 -0.15652879117E-01  0.10203052366E+01  0.10200316889E+01 0.  0.
     999903    2    3    3    0    0 -0.97586539369E-01 -0.46515266331E-01  0.71706776179E-01  0.13131171262E+00  0.20349482903E-01 0.  0.
         14    1    1    2    0    0  0.17301175905E-01  0.37129682294E-02  0.15652879117E-01  0.23624763393E-01  0.00000000000E+00 0. -1.
     999901    1    3    3    0    0  0.80285363464E-01  0.42802298102E-01 -0.87359655296E-01  0.88899352398E+00  0.88000000000E+00 0. -1.
        -11    1    4    4    0    0 -0.59613410636E-01 -0.38836894759E-01  0.49197918375E-01  0.86502944550E-01  0.51100000000E-03 0. -1.
         11    1    4    4    0    0 -0.37973128733E-01 -0.76783715715E-02  0.22508857804E-01  0.44808768075E-01  0.51100000000E-03 0.  1.
</event>
<event>
 8    1  0.1132492E+005  0.1043930E+01  0.7957747E-01            NaN
         13   -1    0    0    0    0  0.00000000000E+00  0.00000000000E+00  0.74505805969E-08  0.10566000000E+00  0.10566000000E+00 0. -1.
     999900   -1    0    0    0    0 -0.00000000000E+00 -0.00000000000E+00 -0.74505805969E-08  0.93827000000E+00  0.93827000000E+00 0. -1.
     999902    2    1    2    0    0 -0.84138895071E-02 -0.42933665413E-02 -0.22055831264E-01  0.10199365379E+01  0.10196542821E+01 0.  0.
     999903    2    3    3    0    0  0.89349466954E-01 -0.39105706712E-01  0.81672118095E-01  0.12778797379E+00  0.12118078554E-01 0.  0.
         14    1    1    2    0    0  0.84138895071E-02  0.42933665413E-02  0.22055831264E-01  0.23993462144E-01  0.00000000000E+00 0. -1.
     999901    1    3    3    0    0 -0.97763356461E-01  0.34812340171E-01 -0.10372794936E+00  0.89214856407E+00  0.88000000000E+00 0. -1.
        -11    1    4    4    0    0  0.40447637448E-01 -0.19835214755E-01  0.30332808807E-01  0.54311946482E-01  0.51100000000E-03 0.  1.
         11    1    4    4    0    0  0.48901829506E-01 -0.19270491957E-01  0.51339309287E-01  0.73476027304E-01  0.51100000000E-03 0. -1.
</event>
<event>
 8    1  0.1132492E+005  0.1043930E+01  0.7957747E-01            NaN
         13   -1    0    0    0    0  0.00000000000E+00  0.00000000000E+00  0.74505805969E-08  0.10566000000E+00  0.10566000000E+00 0. -1.
     999900   -1    0    0    0    0 -0.00000000000E+00 -0.00000000000E+00 -0.74505805969E-08  0.93827000000E+00  0.93827000000E+00 0. -1.
     999902    2    1    2    0    0  0.75884755676E-02 -0.85612013060E-02 -0.21108468951E-01  0.10199206978E+01  0.10196380648E+01 0.  0.
     999903    2    3    3    0    0 -0.40466430017E-01  0.57459438209E-01  0.10437569683E+00  0.12727615791E+00  0.19126298238E-01 0.  0.
         14    1    1    2    0    0 -0.75884755676E-02  0.85612013060E-02  0.21108468951E-01  0.24009302171E-01  0.00000000000E+00 0. -1.
     999901    1    3    3    0    0  0.48054905585E-01 -0.66020639515E-01 -0.12548416578E+00  0.89264453992E+00  0.88000000000E+00 0. -1.
        -11    1    4    4    0    0 -0.16867139369E-01  0.34461221997E-01  0.43141286398E-01  0.57736538909E-01  0.51100000000E-03 0. -1.
         11    1    4    4    0    0 -0.23599290648E-01  0.22998216212E-01  0.61234410435E-01  0.69539618997E-01  0.51100000000E-03 0.  1.
</event>
<event>
 7    1  0.1132492E+005  0.1043930E+01  0.7957747E-01            NaN
         13   -1    0    0    0    0  0.00000000000E+00  0.00000000000E+00  0.74505805969E-08  0.10566000000E+00  0.10566000000E+00 0.  1.
     999900   -1    0    0    0    0 -0.00000000000E+00 -0.00000000000E+00 -0.74505805969E-08  0.93827000000E+00  0.93827000000E+00 0. -1.
     999902    2    1    2    0    0 -0.84469647061E-02  0.19334012034E-01  0.54731096595E-02  0.10221329781E+01  0.10219005405E+01 0.  0.
         14    1    1    2    0    0  0.84469647061E-02 -0.19334012034E-01 -0.54731096595E-02  0.21797021893E-01  0.00000000000E+00 0. -1.
     999901    1    3    3    0    0 -0.12402474856E+00  0.55988025978E-01  0.32292255339E-01  0.89104409939E+00  0.88000000000E+00 0.  1.
        -11    1    3    3    0    0  0.86244109294E-01 -0.37325341528E-01 -0.35544517436E-01  0.10047338627E+00  0.51100000000E-03 0. -1.
         11    1    3    3    0    0  0.29333674563E-01  0.67132758455E-03  0.87253717570E-02  0.30615492441E-01  0.51100000000E-03 0.  1.
</event>
<event>
 8    1  0.1132492E+005  0.1043930E+01  0.7957747E-01            NaN
         13   -1    0    0    0    0  0.00000000000E+00  0.00000000000E+00  0.74505805969E-08  0.10566000000E+00  0.10566000000E+00 0.  1.
     999900   -1    0    0    0    0 -0.00000000000E+00 -0.00000000000E+00 -0.74505805969E-08  0.93827000000E+00  0.93827000000E+00 0. -1.
     999902    2    1    2    0    0  0.17623259024E-01  0.47724139874E-02 -0.91410794026E-02  0.10235115151E+01  0.10233078261E+01 0.  0.
     999903    2    3    3    0    0 -0.53486435852E-01 -0.94330047138E-01 -0.73821999928E-01  0.13274695135E+00  0.20325078273E-01 0.  0.
         14    1    1    2    0    0 -0.17623259024E-01 -0.47724139874E-02  0.91410794026E-02  0.20418484923E-01  0.00000000000E+00 0. -1.
     999901    1    3    3    0    0  0.71109694877E-01  0.99102461126E-01  0.64680920526E-01  0.89076456372E+00  0.88000000000E+00 0.  1.
        -11    1    4    4    0    0 -0.23062091414E-01 -0.22086221618E-01 -0.21217760216E-01  0.38342088041E-01  0.51100000000E-03 0. -1.
         11    1    4    4    0    0 -0.30424344438E-01 -0.72243825520E-01 -0.52604239712E-01  0.94404863312E-01  0.51100000000E-03 0.  1.
</event>
<event>
 8    1  0.1132492E+005  0.1043930E+01  0.7957747E-01            NaN
         13   -1    0    0    0    0  0.00000000000E+00  0.00000000000E+00  0.74505805969E-08  0.10566000000E+00  0.10566000000E+00 0. -1.
     999900   -1    0    0    0    0 -0.00000000000E+00 -0.00000000000E+00 -0.74505805969E-08  0.93827000000E+00  0.93827000000E+00 0. -1.
     999902    2    1    2    0    0  0.84315796261E-02  0.11722713511E-01  0.18087673910E-01  0.10207852923E+01  0.10205228736E+01 0.  0.
     999903    2    3    3    0    0  0.18834320588E-01  0.21295108550E-01  0.12906606489E+00  0.13370240382E+00  0.20250195073E-01 0.  0.
         14    1    1    2    0    0 -0.84315796261E-02 -0.11722713511E-01 -0.18087673910E-01  0.23144707700E-01  0.00000000000E+00 0.  1.
     999901    1    3    3    0    0 -0.10402740962E-01 -0.95723950390E-02 -0.11097839098E+00  0.88708288848E+00  0.88000000000E+00 0. -1.
        -11    1    4    4    0    0  0.14063818705E-01  0.25028218624E-01  0.10218541156E+00  0.10614293279E+00  0.51100000000E-03 0. -1.
         11    1    4    4    0    0  0.47705018831E-02 -0.37331100746E-02  0.26880653336E-01  0.27559471036E-01  0.51100000000E-03 0.  1.
</event>
<event>
 8    1  0.1132492E+005  0.1043930E+01  0.7957747E-01            NaN
         13   -1    0    0    0    0  0.00000000000E+00  0.00000000000E+00  0.74505805969E-08  0.10566000000E+00  0.10566000000E+00 0.  1.
     999900   -1    0    0    0    0 -0.00000000000E+00 -0.00000000000E+00 -0.74505805969E-08  0.93827000000E+00  0.93827000000E+00 0.  1.
     999902    2    1    2    0    0  0.15941405025E-01 -0.15294554443E-01 -0.83038950361E-02  0.10203290156E+01  0.10200560248E+01 0.  0.
     999903    2    3    3    0    0 -0.99358623381E-01 -0.42994695089E-01  0.67697777863E-01  0.12912889860E+00  0.19251064365E-01 0.  0.
         14    1    1    2    0    0 -0.15941405025E-01  0.15294554443E-01  0.83038950361E-02  0.23600984355E-01  0.00000000000E+00 0. -1.
     999901    1    3    3    0    0  0.11530002841E+00  0.27700140646E-01 -0.76001672899E-01  0.89120011705E+00  0.88000000000E+00 0.  1.
        -11    1    4    4    0    0 -0.33588276049E-01 -0.60050874600E-02  0.26108671754E-01  0.42966931763E-01  0.51100000000E-03 0. -1.
         11    1    4    4    0    0 -0.65770347332E-01 -0.36989607629E-01  0.41589106109E-01  0.86161966834E-01  0.51100000000E-03 0.  1.
</event>
<event>
 8    1  0.1132492E+005  0.1043930E+01  0.7957747E-01            NaN
         13   -1    0    0    0    0  0.00000000000E+00  0.00000000000E+00  0.74505805969E-08  0.10566000000E+00  0.10566000000E+00 0.  1.
     999900   -1    0    0    0    0 -0.00000000000E+00 -0.00000000000E+00 -0.74505805969E-08  0.93827000000E+00  0.93827000000E+00 0. -1.
     999902    2    1    2    0    0 -0.15813403261E-01  0.15461875024E-01  0.69886174997E-02  0.10207357318E+01  0.10204721751E+01 0.  0.
     999903    2    3    3    0    0 -0.81638615597E-02  0.20839407585E-02 -0.12840460183E+00  0.13024777095E+00  0.20143202880E-01 0.  0.
         14    1    1    2    0    0  0.15813403261E-01 -0.15461875024E-01 -0.69886174997E-02  0.23194268183E-01  0.00000000000E+00 0. -1.
     999901    1    3    3    0    0 -0.76495417018E-02  0.13377934266E-01  0.13539321933E+00  0.89048796087E+00  0.88000000000E+00 0.  1.
        -11    1    4    4    0    0 -0.99899999356E-03  0.10618421598E-01 -0.61952148820E-01  0.62865560863E-01  0.51100000000E-03 0.  1.
         11    1    4    4    0    0 -0.71648615661E-02 -0.85344808394E-02 -0.66452453005E-01  0.67382210085E-01  0.51100000000E-03 0. -1.
</event>
<event>
 8    1  0.1132492E+005  0.1043930E+01  0.7957747E-01            NaN
         13   -1    0    0    0    0  0.00000000000E+00  0.00000000000E+00  0.74505805969E-08  0.10566000000E+00  0.10566000000E+00 0. -1.
     999900   -1    0    0    0    0 -0.00000000000E+00 -0.00000000000E+00 -0.74505805969E-08  0.93827000000E+00  0.93827000000E+00 0.  1.
     999902    2    1    2    0    0 -0.48122366176E-03 -0.16824756042E-01  0.16511514223E-01  0.10203517453E+01  0.10200792862E+01 0.  0.
     999903    2    3    3    0    0  0.70492683741E-01 -0.10466372109E+00 -0.31942060779E-01  0.13181321028E+00  0.20753654700E-01 0.  0.
         14    1    1    2    0    0  0.48122366176E-03  0.16824756042E-01 -0.16511514223E-01  0.23578254685E-01  0.00000000000E+00 0. -1.
     999901    1    3    3    0    0 -0.70973907403E-01  0.87838965051E-01  0.48453575001E-01  0.88853853504E+00  0.88000000000E+00 0. -1.
        -11    1    4    4    0    0  0.27483641480E-01 -0.59295648878E-01 -0.15475223803E-01  0.67164486134E-01  0.51100000000E-03 0. -1.
         11    1    4    4    0    0  0.43009042260E-01 -0.45368072214E-01 -0.16466836975E-01  0.64648724145E-01  0.51100000000E-03 0.  1.
</event>
<event>
 8    1  0.1132492E+005  0.1043930E+01  0.7957747E-01            NaN
         13   -1    0    0    0    0  0.00000000000E+00  0.00000000000E+00  0.74505805969E-08  0.10566000000E+00  0.10566000000E+00 0.  1.
     999900   -1    0    0    0    0 -0.00000000000E+00 -0.00000000000E+00 -0.74505805969E-08  0.93827000000E+00  0.93827000000E+00 0. -1.
     999902    2    1    2    0    0 -0.19612102229E-01  0.69224605308E-02 -0.11029067523E-01  0.10203886461E+01  0.10201170490E+01 0.  0.
     999903    2    3    3    0    0  0.58642844794E-01  0.10384510041E+00 -0.50300569093E-01  0.13074822114E+00  0.18497620318E-01 0.  0.
         14    1    1    2    0    0  0.19612102229E-01 -0.69224605308E-02  0.11029067523E-01  0.23541353914E-01  0.00000000000E+00 0.  1.
     999901    1    3    3    0    0 -0.78254947023E-01 -0.96922639876E-01  0.39271501570E-01  0.88964042494E+00  0.88000000000E+00 0.  1.
        -11    1    4    4    0    0  0.40333672372E-01  0.55102294904E-01 -0.33280340342E-01  0.75966507127E-01  0.51100000000E-03 0.  1.
         11    1    4    4    0    0  0.18309172422E-01  0.48742805503E-01 -0.17020228751E-01  0.54781714018E-01  0.51100000000E-03 0. -1.
</event>
<event>
 8    1  0.1132492E+005  0.1043930E+01  0.7957747E-01            NaN
         13   -1    0    0    0    0  0.00000000000E+00  0.00000000000E+00  0.74505805969E-08  0.10566000000E+00  0.10566000000E+00 0. -1.
     999900   -1    0    0    0    0 -0.00000000000E+00 -0.00000000000E+00 -0.74505805969E-08  0.93827000000E+00  0.93827000000E+00 0. -1.
     999902    2    1    2    0    0 -0.76437570152E-02  0.21819369272E-01  0.54805221623E-02  0.10201697807E+01  0.10198930500E+01 0.  0.
     999903    2    3    3    0    0  0.30855228122E-01  0.10741744984E+00 -0.67644159757E-01  0.13216278618E+00  0.20017893764E-01 0.  0.
         14    1    1    2    0    0  0.76437570152E-02 -0.21819369272E-01 -0.54805221623E-02  0.23760219273E-01  0.00000000000E+00 0. -1.
     999901    1    3    3    0    0 -0.38498985137E-01 -0.85598080564E-01  0.73124681919E-01  0.88800699454E+00  0.88000000000E+00 0. -1.
        -11    1    4    4    0    0  0.14872938270E-01  0.43715767356E-01 -0.39264914965E-01  0.60615734563E-01  0.51100000000E-03 0. -1.
         11    1    4    4    0    0  0.15982289852E-01  0.63701682480E-01 -0.28379244792E-01  0.71547051621E-01  0.51100000000E-03 0.  1.
</event>
<event>
 8    1  0.1132492E+005  0.1043930E+01  0.7957747E-01            NaN
         13   -1    0    0    0    0  0.00000000000E+00  0.00000000000E+00  0.74505805969E-08  0.10566000000E+00  0.10566000000E+00 0.  1.
     999900   -1    0    0    0    0 -0.00000000000E+00 -0.00000000000E+00 -0.74505805969E-08  0.93827000000E+00  0.93827000000E+00 0. -1.
     999902    2    1    2    0    0  0.19517364318E-01  0.67099499988E-02 -0.94631949148E-02  0.10212253089E+01  0.10209728834E+01 0.  0.
     999903    2    3    3    0    0 -0.21636566228E-01  0.88820454582E-01 -0.93693133042E-01  0.13244498542E+00  0.20150851956E-01 0.  0.
         14    1    1    2    0    0 -0.19517364318E-01 -0.67099499988E-02  0.94631949148E-02  0.22704691077E-01  0.00000000000E+00 0. -1.
     999901    1    3    3    0    0  0.41153930546E-01 -0.82110504583E-01  0.84229938127E-01  0.88878032350E+00  0.88000000000E+00 0.  1.
        -11    1    4    4    0    0 -0.65306428607E-02  0.65249315104E-01 -0.67282681081E-01  0.93953939311E-01  0.51100000000E-03 0. -1.
         11    1    4    4    0    0 -0.15105923367E-01  0.23571139478E-01 -0.26410451961E-01  0.38491046113E-01  0.51100000000E-03 0.  1.
</event>
<event>
 8    1  0.1132492E+005  0.1043930E+01  0.7957747E-01            NaN
         13   -1    0    0    0    0  0.00000000000E+00  0.00000000000E+00  0.74505805969E-08  0.10566000000E+00  0.10566000000E+00 0. -1.
     999900   -1    0    0    0    0 -0.00000000000E+00 -0.00000000000E+00 -0.74505805969E-08  0.93827000000E+00  0.93827000000E+00 0. -1.
     999902    2    1    2    0    0 -0.15849410021E-01  0.11348270966E-01  0.12500938145E-01  0.10207727008E+01  0.10205099932E+01 0.  0.
     999903    2    3    3    0    0 -0.34278343813E-01  0.12620847048E+00 -0.70669108556E-02  0.13290143099E+00  0.22566928318E-01 0.  0.
         14    1    1    2    0    0  0.15849410021E-01 -0.11348270966E-01 -0.12500938145E-01  0.23157299204E-01  0.00000000000E+00 0.  1.
     999901    1    3    3    0    0  0.18428933792E-01 -0.11486019952E+00  0.19567849001E-01  0.88787126981E+00  0.88000000000E+00 0.  1.
        -11    1    4    4    0    0 -0.43700628741E-02  0.38018183539E-02  0.29027446773E-02  0.64991014749E-02  0.51100000000E-03 0.  1.
         11    1    4    4    0    0 -0.29908280939E-01  0.12240665213E+00 -0.99696555329E-02  0.12640232951E+00  0.51100000000E-03 0. -1.
</event>
<event>
 8    1  0.1132492E+005  0.1043930E+01  0.7957747E-01            NaN
         13   -1    0    0    0    0  0.00000000000E+00  0.00000000000E+00  0.74505805969E-08  0.10566000000E+00  0.10566000000E+00 0.  1.
     999900   -1    0    0    0    0 -0.00000000000E+00 -0.00000000000E+00 -0.74505805969E-08  0.93827000000E+00  0.93827000000E+00 0. -1.
     999902    2    1    2    0    0 -0.86774864800E-02 -0.79383123243E-03 -0.21728105327E-01  0.10205197565E+01  0.10202512112E+01 0.  0.
     999903    2    3    3    0    0  0.10486946730E+00 -0.19524520750E-01 -0.74145952218E-01  0.13148017351E+00  0.20263309597E-01 0.  0.
         14    1    1    2    0    0  0.86774864800E-02  0.79383123243E-03  0.21728105327E-01  0.23410243500E-01  0.00000000000E+00 0.  1.
     999901    1    3    3    0    0 -0.11354695378E+00  0.18730689517E-01  0.52417846891E-01  0.88903958299E+00  0.88000000000E+00 0. -1.
        -11    1    4    4    0    0  0.50553931772E-01  0.52950357500E-03 -0.31510176875E-01  0.59574598272E-01  0.51100000000E-03 0. -1.
         11    1    4    4    0    0  0.54315535524E-01 -0.20054024325E-01 -0.42635775342E-01  0.71905575242E-01  0.51100000000E-03 0.  1.
</event>
<event>
 8    1  0.1132492E+005  0.1043930E+01  0.7957747E-01            NaN
         13   -1    0    0    0    0  0.00000000000E+00  0.00000000000E+00  0.74505805969E-08  0.10566000000E+00  0.10566000000E+00 0. -1.
     999900   -1    0    0    0    0 -0.00000000000E+00 -0.00000000000E+00 -0.74505805969E-08  0.93827000000E+00  0.93827000000E+00 0. -1.
     999902    2    1    2    0    0 -0.17684341727E-01 -0.57345644128E-02  0.13071669548E-01  0.10212035899E+01  0.10209506757E+01 0.  0.
     999903    2    3    3    0    0  0.35736635856E-01 -0.11857851799E+00 -0.38070421118E-01  0.13092100996E+00  0.18787810213E-01 0.  0.
         14    1    1    2    0    0  0.17684341727E-01  0.57345644128E-02 -0.13071669548E-01  0.22726410101E-01  0.00000000000E+00 0.  1.
     999901    1    3    3    0    0 -0.53420977583E-01  0.11284395358E+00  0.51142090666E-01  0.89028257994E+00  0.88000000000E+00 0.  1.
        -11    1    4    4    0    0  0.27872277504E-01 -0.64636812829E-01 -0.26340621850E-01  0.75158970898E-01  0.51100000000E-03 0.  1.
         11    1    4    4    0    0  0.78643583518E-02 -0.53941705165E-01 -0.11729799268E-01  0.55762039061E-01  0.51100000000E-03 0. -1.
</event>
<event>
 8    1  0.1132492E+005  0.1043930E+01  0.7957747E-01            NaN
         13   -1    0    0    0    0  0.00000000000E+00  0.00000000000E+00  0.74505805969E-08  0.10566000000E+00  0.10566000000E+00 0.  1.
     999900   -1    0    0    0    0 -0.00000000000E+00 -0.00000000000E+00 -0.74505805969E-08  0.93827000000E+00  0.93827000000E+00 0. -1.
     999902    2    1    2    0    0  0.20269599822E-01 -0.86697862348E-02 -0.14477635321E-01  0.10175553191E+01  0.10172134503E+01 0.  0.
     999903    2    3    3    0    0 -0.36987434513E-01  0.19682520020E-01 -0.12026620536E+00  0.12891959909E+00  0.20020763509E-01 0.  0.
         14    1    1    2    0    0 -0.20269599822E-01  0.86697862348E-02  0.14477635321E-01  0.26374680942E-01  0.00000000000E+00 0.  1.
     999901    1    3    3    0    0  0.57257034335E-01 -0.28352306254E-01  0.10578857004E+00  0.88863571997E+00  0.88000000000E+00 0. -1.
        -11    1    4    4    0    0 -0.11568725524E-01  0.13012805711E-01 -0.70714349220E-01  0.72828214514E-01  0.51100000000E-03 0.  1.
         11    1    4    4    0    0 -0.25418708989E-01  0.66697143082E-02 -0.49551856141E-01  0.56091384576E-01  0.51100000000E-03 0. -1.
</event>
<event>
 8    1  0.1132492E+005  0.1043930E+01  0.7957747E-01            NaN
         13   -1    0    0    0    0  0.00000000000E+00  0.00000000000E+00  0.74505805969E-08  0.10566000000E+00  0.10566000000E+00 0. -1.
     999900   -1    0    0    0    0 -0.00000000000E+00 -0.00000000000E+00 -0.74505805969E-08  0.93827000000E+00  0.93827000000E+00 0.  1.
     999902    2    1    2    0    0 -0.23793048690E-01  0.63949468200E-02 -0.83149649418E-03  0.10192785113E+01  0.10189803666E+01 0.  0.
     999903    2    3    3    0    0 -0.12124030121E+00 -0.39882789084E-01  0.28280784998E-01  0.13221305663E+00  0.19764666427E-01 0.  0.
         14    1    1    2    0    0  0.23793048690E-01 -0.63949468200E-02  0.83149649418E-03  0.24651488743E-01  0.00000000000E+00 0.  1.
     999901    1    3    3    0    0  0.97447252524E-01  0.46277735904E-01 -0.29112281492E-01  0.88706545463E+00  0.88000000000E+00 0. -1.
        -11    1    4    4    0    0 -0.72675560385E-01 -0.29061928698E-01  0.25715882883E-01  0.82388716038E-01  0.51100000000E-03 0.  1.
         11    1    4    4    0    0 -0.48564740829E-01 -0.10820860386E-01  0.25649021150E-02  0.49824340589E-01  0.51100000000E-03 0. -1.
</event>
<event>
 8    1  0.1132492E+005  0.1043930E+01  0.7957747E-01            NaN
         13   -1    0    0    0    0  0.00000000000E+00  0.00000000000E+00  0.74505805969E-08  0.10566000000E+00  0.10566000000E+00 0.  1.
     999900   -1    0    0    0    0 -0.00000000000E+00 -0.00000000000E+00 -0.74505805969E-08  0.93827000000E+00  0.93827000000E+00 0.  1.
     999902    2    1    2    0    0  0.46615734675E-02  0.44370300384E-02 -0.22031914850E-01  0.10209773798E+01  0.10207193479E+01 0.  0.
     999903    2    3    3    0    0 -0.23898612072E-01  0.10897984932E+00  0.64225716784E-01  0.13014335244E+00  0.19094456550E-01 0.  0.
         14    1    1    2    0    0 -0.46615734675E-02 -0.44370300384E-02  0.22031914850E-01  0.22952620215E-01  0.00000000000E+00 0. -1.
     999901    1    3    3    0    0  0.28560185539E-01 -0.10454281928E+00 -0.86257631635E-01  0.89083402735E+00  0.88000000000E+00 0. -1.
        -11    1    4    4    0    0 -0.10995372632E-01  0.82846355024E-01  0.52669275135E-01  0.98786286621E-01  0.51100000000E-03 0.  1.
         11    1    4    4    0    0 -0.12903239440E-01  0.26133494296E-01  0.11556441649E-01  0.31357065819E-01  0.51100000000E-03 0. -1.
</event>
<event>
 8    1  0.1132492E+005  0.1043930E+01  0.7957747E-01            NaN
         13   -1    0    0    0    0  0.00000000000E+00  0.00000000000E+00  0.74505805969E-08  0.10566000000E+00  0.10566000000E+00 0. -1.
     999900   -1    0    0    0    0 -0.00000000000E+00 -0.00000000000E+00 -0.74505805969E-08  0.93827000000E+00  0.93827000000E+00 0.  1.
     999902    2    1    2    0    0 -0.68329250899E-02  0.17621051306E-01  0.14786240899E-01  0.10199336829E+01  0.10196513592E+01 0.  0.
     999903    2    3    3    0    0  0.40563036379E-01  0.11877091184E+00  0.35638205462E-01  0.13262737960E+00  0.23833814449E-01 0.  0.
         14    1    1    2    0    0  0.68329250899E-02 -0.17621051306E-01 -0.14786240899E-01  0.23996317100E-01  0.00000000000E+00 0.  1.
     999901    1    3    3    0    0 -0.47395961469E-01 -0.10114986053E+00 -0.20851964563E-01  0.88730630330E+00  0.88000000000E+00 0.  1.
        -11    1    4    4    0    0  0.13024457276E-01  0.66878880071E-01  0.26796327130E-01  0.73216974504E-01  0.51100000000E-03 0.  1.
         11    1    4    4    0    0  0.27538579103E-01  0.51892031770E-01  0.88418783318E-02  0.59410405096E-01  0.51100000000E-03 0. -1.
</event>
<event>
 8    1  0.1132492E+005  0.1043930E+01  0.7957747E-01            NaN
         13   -1    0    0    0    0  0.00000000000E+00  0.00000000000E+00  0.74505805969E-08  0.10566000000E+00  0.10566000000E+00 0.  1.
     999900   -1    0    0    0    0 -0.00000000000E+00 -0.00000000000E+00 -0.74505805969E-08  0.93827000000E+00  0.93827000000E+00 0.  1.
     999902    2    1    2    0    0 -0.11293562111E-01 -0.11989365988E-01  0.17652058938E-01  0.10197869963E+01  0.10195011688E+01 0.  0.
     999903    2    3    3    0    0  0.21072411459E-01 -0.12577960325E+00  0.27115807110E-01  0.13182002798E+00  0.19408700665E-01 0.  0.
         14    1    1    2    0    0  0.11293562111E-01  0.11989365988E-01 -0.17652058938E-01  0.24143003680E-01  0.00000000000E+00 0. -1.
     999901    1    3    3    0    0 -0.32365973570E-01  0.11379023726E+00 -0.94637481723E-02  0.88796696834E+00  0.88000000000E+00 0. -1.
        -11    1    4    4    0    0  0.15900338570E-01 -0.51645116816E-01  0.49379058115E-02  0.54264932438E-01  0.51100000000E-03 0.  1.
         11    1    4    4    0    0  0.51720728883E-02 -0.74134486435E-01  0.22177901298E-01  0.77555095538E-01  0.51100000000E-03 0. -1.
</event>
