<event>
 8    1  0.2927513E+004  0.1043930E+01  0.7957747E-01            NaN
         13   -1    0    0    0    0  0.00000000000E+00  0.00000000000E+00  0.74505805969E-08  0.10566000000E+00  0.10566000000E+00 0. -1.
     999900   -1    0    0    0    0 -0.00000000000E+00 -0.00000000000E+00 -0.74505805969E-08  0.93827000000E+00  0.93827000000E+00 0.  1.
     999902    2    1    2    0    0 -0.49839588144E-02 -0.17368612501E-02  0.11659581433E-01  0.10311314699E+01  0.10310520384E+01 0.  0.
     999903    2    3    3    0    0 -0.79995746022E-01 -0.10435643763E+00  0.27752739661E-01  0.14185280978E+00  0.45413870439E-01 0.  0.
         14    1    1    2    0    0  0.49839588144E-02  0.17368612501E-02 -0.11659581433E-01  0.12798530059E-01  0.00000000000E+00 0.  1.
     999901    1    3    3    0    0  0.75011787208E-01  0.10261957638E+00 -0.16093158228E-01  0.88927866016E+00  0.88000000000E+00 0.  1.
        -11    1    4    4    0    0 -0.19074957935E-01 -0.23832747059E-01 -0.12714166974E-01  0.33072118400E-01  0.51100000000E-03 0. -1.
         11    1    4    4    0    0 -0.60920788087E-01 -0.80523690567E-01  0.40466906635E-01  0.10878069138E+00  0.51100000000E-03 0.  1.
</event>
<event>
 8    1  0.2927513E+004  0.1043930E+01  0.7957747E-01            NaN
         13   -1    0    0    0    0  0.00000000000E+00  0.00000000000E+00  0.74505805969E-08  0.10566000000E+00  0.10566000000E+00 0. -1.
     999900   -1    0    0    0    0 -0.00000000000E+00 -0.00000000000E+00 -0.74505805969E-08  0.93827000000E+00  0.93827000000E+00 0. -1.
     999902    2    1    2    0    0 -0.26499558207E-02  0.79481186485E-02 -0.84416040951E-02  0.10320364919E+01  0.10319679574E+01 0.  0.
     999903    2    3    3    0    0 -0.12279404007E+00  0.12406551509E-01 -0.55722547290E-01  0.14260410760E+00  0.44706044681E-01 0.  0.
         14    1    1    2    0    0  0.26499558207E-02 -0.79481186485E-02  0.84416040951E-02  0.11893508128E-01  0.00000000000E+00 0. -1.
     999901    1    3    3    0    0  0.12014408425E+00 -0.44584328601E-02  0.47280943195E-01  0.88943238427E+00  0.88000000000E+00 0.  1.
        -11    1    4    4    0    0 -0.95609141019E-01  0.27976519972E-01 -0.38104835175E-01  0.10665848818E+00  0.51100000000E-03 0. -1.
         11    1    4    4    0    0 -0.27184899049E-01 -0.15569968463E-01 -0.17617712115E-01  0.35945619419E-01  0.51100000000E-03 0.  1.
</event>
<event>
 8    1  0.2927513E+004  0.1043930E+01  0.7957747E-01            NaN
         13   -1    0    0    0    0  0.00000000000E+00  0.00000000000E+00  0.74505805969E-08  0.10566000000E+00  0.10566000000E+00 0.  1.
     999900   -1    0    0    0    0 -0.00000000000E+00 -0.00000000000E+00 -0.74505805969E-08  0.93827000000E+00  0.93827000000E+00 0.  1.
     999902    2    1    2    0    0  0.13159449235E-01 -0.25594693527E-02  0.36225556720E-02  0.10300431394E+01  0.10299495250E+01 0.  0.
     999903    2    3    3    0    0 -0.12409353589E+00  0.17207166738E-01 -0.37203969090E-01  0.13824949346E+00  0.45094288873E-01 0.  0.
         14    1    1    2    0    0 -0.13159449235E-01  0.25594693527E-02 -0.36225556720E-02  0.13886860593E-01  0.00000000000E+00 0. -1.
     999901    1    3    3    0    0  0.13725298512E+00 -0.19766636091E-01  0.40826524762E-01  0.89179364595E+00  0.88000000000E+00 0. -1.
        -11    1    4    4    0    0 -0.86396275433E-01  0.23016824606E-01 -0.71681725682E-02  0.89698018052E-01  0.51100000000E-03 0.  1.
         11    1    4    4    0    0 -0.37697260457E-01 -0.58096578673E-02 -0.30035796522E-01  0.48551475407E-01  0.51100000000E-03 0. -1.
</event>
<event>
 7    1  0.2927513E+004  0.1043930E+01  0.7957747E-01            NaN
         13   -1    0    0    0    0  0.00000000000E+00  0.00000000000E+00  0.74505805969E-08  0.10566000000E+00  0.10566000000E+00 0.  1.
     999900   -1    0    0    0    0 -0.00000000000E+00 -0.00000000000E+00 -0.74505805969E-08  0.93827000000E+00  0.93827000000E+00 0.  1.
     999903    2    1    2    0    0  0.10707054836E+00  0.16383051449E-01  0.50557835543E-01  0.12720536765E+00  0.43504070173E-01 0.  0.
         14    1    1    2    0    0 -0.99421483931E-02 -0.28094357292E-01  0.83040597552E-03  0.29813231968E-01  0.00000000000E+00 0.  1.
     999901    1    1    2    0    0 -0.97128399972E-01  0.11711305842E-01 -0.51388241518E-01  0.88691140038E+00  0.88000000000E+00 0.  1.
        -11    1    3    3    0    0  0.47985821081E-01  0.17317784937E-01  0.25729975316E-02  0.51082542392E-01  0.51100000000E-03 0. -1.
         11    1    3    3    0    0  0.59084727284E-01 -0.93473348760E-03  0.47984838011E-01  0.76122825255E-01  0.51100000000E-03 0.  1.
</event>
<event>
 8    1  0.2927513E+004  0.1043930E+01  0.7957747E-01            NaN
         13   -1    0    0    0    0  0.00000000000E+00  0.00000000000E+00  0.74505805969E-08  0.10566000000E+00  0.10566000000E+00 0. -1.
     999900   -1    0    0    0    0 -0.00000000000E+00 -0.00000000000E+00 -0.74505805969E-08  0.93827000000E+00  0.93827000000E+00 0. -1.
     999902    2    1    2    0    0 -0.12893767454E-01 -0.31463829732E-02  0.76560918051E-03  0.10306358237E+01  0.10305500794E+01 0.  0.
     999903    2    3    3    0    0  0.46621161230E-01 -0.53031837432E-01 -0.11240798062E+00  0.13999625201E+00  0.44468955616E-01 0.  0.
         14    1    1    2    0    0  0.12893767454E-01  0.31463829732E-02 -0.76560918051E-03  0.13294176258E-01  0.00000000000E+00 0. -1.
     999901    1    3    3    0    0 -0.59514928684E-01  0.49885454458E-01  0.11317358980E+00  0.89063957173E+00  0.88000000000E+00 0.  1.
        -11    1    4    4    0    0 -0.71187849933E-03 -0.19264782999E-01 -0.55012668853E-01  0.58294883912E-01  0.51100000000E-03 0.  1.
         11    1    4    4    0    0  0.47333039729E-01 -0.33767054433E-01 -0.57395311771E-01  0.81701368100E-01  0.51100000000E-03 0. -1.
</event>
<event>
 8    1  0.2927513E+004  0.1043930E+01  0.7957747E-01            NaN
         13   -1    0    0    0    0  0.00000000000E+00  0.00000000000E+00  0.74505805969E-08  0.10566000000E+00  0.10566000000E+00 0.  1.
     999900   -1    0    0    0    0 -0.00000000000E+00 -0.00000000000E+00 -0.74505805969E-08  0.93827000000E+00  0.93827000000E+00 0. -1.
     999902    2    1    2    0    0  0.96508658246E-02 -0.94751493689E-02  0.26007381867E-02  0.10301575091E+01  0.10300654407E+01 0.  0.
     999903    2    3    3    0    0  0.27989765021E-02  0.16185688697E-01  0.13179270778E+00  0.14032831649E+00  0.45309025553E-01 0.  0.
         14    1    1    2    0    0 -0.96508658246E-02  0.94751493689E-02 -0.26007381867E-02  0.13772490909E-01  0.00000000000E+00 0.  1.
     999901    1    3    3    0    0  0.68518893225E-02 -0.25660838066E-01 -0.12919196959E+00  0.88982919260E+00  0.88000000000E+00 0. -1.
        -11    1    4    4    0    0 -0.71235683944E-02  0.29825068285E-01  0.73482069885E-01  0.79625094288E-01  0.51100000000E-03 0.  1.
         11    1    4    4    0    0  0.99225448965E-02 -0.13639379588E-01  0.58310637896E-01  0.60703222202E-01  0.51100000000E-03 0. -1.
</event>
<event>
 7    1  0.2927513E+004  0.1043930E+01  0.7957747E-01            NaN
         13   -1    0    0    0    0  0.00000000000E+00  0.00000000000E+00  0.74505805969E-08  0.10566000000E+00  0.10566000000E+00 0. -1.
     999900   -1    0    0    0    0 -0.00000000000E+00 -0.00000000000E+00 -0.74505805969E-08  0.93827000000E+00  0.93827000000E+00 0. -1.
     999903    2    1    2    0    0 -0.81242989733E-01 -0.28190697952E-01  0.65725147151E-01  0.11736205384E+00  0.45375300356E-01 0.  0.
         14    1    1    2    0    0 -0.19345275138E-01 -0.29661557398E-01 -0.11749404443E-01  0.37310804899E-01  0.00000000000E+00 0.  1.
     999901    1    1    2    0    0  0.10058826487E+00  0.57852255350E-01 -0.53975742707E-01  0.88925714126E+00  0.88000000000E+00 0. -1.
        -11    1    3    3    0    0 -0.39452259530E-01  0.97476029918E-02  0.30691680618E-01  0.50928743615E-01  0.51100000000E-03 0.  1.
         11    1    3    3    0    0 -0.41790730204E-01 -0.37938300944E-01  0.35033466533E-01  0.66433310227E-01  0.51100000000E-03 0. -1.
</event>
<event>
 8    1  0.2927513E+004  0.1043930E+01  0.7957747E-01            NaN
         13   -1    0    0    0    0  0.00000000000E+00  0.00000000000E+00  0.74505805969E-08  0.10566000000E+00  0.10566000000E+00 0.  1.
     999900   -1    0    0    0    0 -0.00000000000E+00 -0.00000000000E+00 -0.74505805969E-08  0.93827000000E+00  0.93827000000E+00 0.  1.
     999902    2    1    2    0    0  0.98506779158E-03  0.14556761935E-01 -0.37030144163E-02  0.10288773593E+01  0.10287672421E+01 0.  0.
     999903    2    3    3    0    0 -0.10073255596E+00  0.82891248888E-01  0.23219723776E-01  0.13997865251E+00  0.45131592174E-01 0.  0.
         14    1    1    2    0    0 -0.98506779158E-03 -0.14556761935E-01  0.37030144163E-02  0.15052640710E-01  0.00000000000E+00 0. -1.
     999901    1    3    3    0    0  0.10171762375E+00 -0.68334486953E-01 -0.26922738192E-01  0.88889870678E+00  0.88000000000E+00 0.  1.
        -11    1    4    4    0    0 -0.79097241467E-01  0.39402831257E-01  0.65095769555E-02  0.88609211891E-01  0.51100000000E-03 0. -1.
         11    1    4    4    0    0 -0.21635314496E-01  0.43488417631E-01  0.16710146820E-01  0.51369440615E-01  0.51100000000E-03 0.  1.
</event>
<event>
 8    1  0.2927513E+004  0.1043930E+01  0.7957747E-01            NaN
         13   -1    0    0    0    0  0.00000000000E+00  0.00000000000E+00  0.74505805969E-08  0.10566000000E+00  0.10566000000E+00 0. -1.
     999900   -1    0    0    0    0 -0.00000000000E+00 -0.00000000000E+00 -0.74505805969E-08  0.93827000000E+00  0.93827000000E+00 0. -1.
     999902    2    1    2    0    0 -0.13337137508E-01 -0.68932939715E-02  0.17001634605E-02  0.10288208209E+01  0.10287098688E+01 0.  0.
     999903    2    3    3    0    0 -0.79541061088E-02  0.11954503055E+00 -0.51025012677E-01  0.13820554413E+00  0.46291882404E-01 0.  0.
         14    1    1    2    0    0  0.13337137508E-01  0.68932939715E-02 -0.17001634605E-02  0.15109179147E-01  0.00000000000E+00 0. -1.
     999901    1    3    3    0    0 -0.53830313994E-02 -0.12643832452E+00  0.52725176138E-01  0.89061527672E+00  0.88000000000E+00 0.  1.
        -11    1    4    4    0    0 -0.26924988357E-01  0.82285784267E-01 -0.32646509783E-01  0.92530865188E-01  0.51100000000E-03 0. -1.
         11    1    4    4    0    0  0.18970882248E-01  0.37259246283E-01 -0.18378502895E-01  0.45674678942E-01  0.51100000000E-03 0.  1.
</event>
<event>
 7    1  0.2927513E+004  0.1043930E+01  0.7957747E-01            NaN
         13   -1    0    0    0    0  0.00000000000E+00  0.00000000000E+00  0.74505805969E-08  0.10566000000E+00  0.10566000000E+00 0. -1.
     999900   -1    0    0    0    0 -0.00000000000E+00 -0.00000000000E+00 -0.74505805969E-08  0.93827000000E+00  0.93827000000E+00 0.  1.
     999903    2    1    2    0    0  0.82586875151E-01  0.61649070208E-01  0.50481249410E-01  0.12328534922E+00  0.45052424855E-01 0.  0.
         14    1    1    2    0    0 -0.56326609356E-03  0.16140880538E-01  0.25480220706E-01  0.30167647248E-01  0.00000000000E+00 0. -1.
     999901    1    1    2    0    0 -0.82023609057E-01 -0.77789950745E-01 -0.75961470116E-01  0.89047700353E+00  0.88000000000E+00 0.  1.
        -11    1    3    3    0    0  0.65603158042E-02  0.26317718183E-01  0.21384163889E-01  0.34542779565E-01  0.51100000000E-03 0.  1.
         11    1    3    3    0    0  0.76026559347E-01  0.35331352024E-01  0.29097085521E-01  0.88742569654E-01  0.51100000000E-03 0. -1.
</event>
<event>
 8    1  0.2927513E+004  0.1043930E+01  0.7957747E-01            NaN
         13   -1    0    0    0    0  0.00000000000E+00  0.00000000000E+00  0.74505805969E-08  0.10566000000E+00  0.10566000000E+00 0.  1.
     999900   -1    0    0    0    0 -0.00000000000E+00 -0.00000000000E+00 -0.74505805969E-08  0.93827000000E+00  0.93827000000E+00 0. -1.
     999902    2    1    2    0    0 -0.21310186141E-02  0.13032466213E-01 -0.40121277273E-02  0.10301284209E+01  0.10300359605E+01 0.  0.
     999903    2    3    3    0    0 -0.62001515152E-01  0.11805797090E+00  0.15532037694E-01  0.14164836635E+00  0.45179011942E-01 0.  0.
         14    1    1    2    0    0  0.21310186141E-02 -0.13032466213E-01  0.40121277273E-02  0.13801579070E-01  0.00000000000E+00 0.  1.
     999901    1    3    3    0    0  0.59870496538E-01 -0.10502550469E+00 -0.19544165422E-01  0.88848005458E+00  0.88000000000E+00 0.  1.
        -11    1    4    4    0    0 -0.50289004459E-01  0.10012708486E+00 -0.47484274818E-02  0.11214823127E+00  0.51100000000E-03 0. -1.
         11    1    4    4    0    0 -0.11712510693E-01  0.17930886035E-01  0.20280465176E-01  0.29500135076E-01  0.51100000000E-03 0.  1.
</event>
<event>
 8    1  0.2927513E+004  0.1043930E+01  0.7957747E-01            NaN
         13   -1    0    0    0    0  0.00000000000E+00  0.00000000000E+00  0.74505805969E-08  0.10566000000E+00  0.10566000000E+00 0.  1.
     999900   -1    0    0    0    0 -0.00000000000E+00 -0.00000000000E+00 -0.74505805969E-08  0.93827000000E+00  0.93827000000E+00 0.  1.
     999902    2    1    2    0    0  0.15771947313E-02  0.62872247368E-02  0.75737616712E-02  0.10339611182E+01  0.10339130599E+01 0.  0.
     999903    2    3    3    0    0  0.45613447396E-01 -0.10367014656E+00 -0.75635049952E-01  0.14213517030E+00  0.40665218341E-01 0.  0.
         14    1    1    2    0    0 -0.15771947313E-02 -0.62872247368E-02 -0.75737616712E-02  0.99688817810E-02  0.00000000000E+00 0. -1.
     999901    1    3    3    0    0 -0.44036252665E-01  0.10995737130E+00  0.83208811623E-01  0.89182594792E+00  0.88000000000E+00 0.  1.
        -11    1    4    4    0    0  0.20676767252E-01 -0.87431855303E-01 -0.49797569605E-01  0.10272252472E+00  0.51100000000E-03 0.  1.
         11    1    4    4    0    0  0.24936680144E-01 -0.16238291261E-01 -0.25837480347E-01  0.39412645577E-01  0.51100000000E-03 0. -1.
</event>
<event>
 8    1  0.2927513E+004  0.1043930E+01  0.7957747E-01            NaN
         13   -1    0    0    0    0  0.00000000000E+00  0.00000000000E+00  0.74505805969E-08  0.10566000000E+00  0.10566000000E+00 0.  1.
     999900   -1    0    0    0    0 -0.00000000000E+00 -0.00000000000E+00 -0.74505805969E-08  0.93827000000E+00  0.93827000000E+00 0. -1.
     999902    2    1    2    0    0 -0.11680934706E-01  0.24662432798E-02  0.76620029990E-02  0.10297443424E+01  0.10296466276E+01 0.  0.
     999903    2    3    3    0    0 -0.56016244655E-01 -0.12015853123E+00  0.85949291940E-02  0.14013581873E+00  0.44590162497E-01 0.  0.
         14    1    1    2    0    0  0.11680934706E-01 -0.24662432798E-02 -0.76620029990E-02  0.14185657598E-01  0.00000000000E+00 0. -1.
     999901    1    3    3    0    0  0.44335309949E-01  0.12262477451E+00 -0.93292619495E-03  0.88960852367E+00  0.88000000000E+00 0.  1.
        -11    1    4    4    0    0 -0.25024937025E-01 -0.51837797823E-01  0.25931770882E-01  0.63135747547E-01  0.51100000000E-03 0. -1.
         11    1    4    4    0    0 -0.30991307629E-01 -0.68320733408E-01 -0.17336841688E-01  0.77000071186E-01  0.51100000000E-03 0.  1.
</event>
<event>
 8    1  0.2927513E+004  0.1043930E+01  0.7957747E-01            NaN
         13   -1    0    0    0    0  0.00000000000E+00  0.00000000000E+00  0.74505805969E-08  0.10566000000E+00  0.10566000000E+00 0. -1.
     999900   -1    0    0    0    0 -0.00000000000E+00 -0.00000000000E+00 -0.74505805969E-08  0.93827000000E+00  0.93827000000E+00 0.  1.
     999902    2    1    2    0    0  0.74551420565E-02  0.64788449673E-02  0.98887083036E-02  0.10299535510E+01  0.10298587166E+01 0.  0.
     999903    2    3    3    0    0 -0.71809188156E-01  0.89727758305E-01 -0.64737741253E-01  0.13934571215E+00  0.44929080098E-01 0.  0.
         14    1    1    2    0    0 -0.74551420565E-02 -0.64788449673E-02 -0.98887083036E-02  0.13976449016E-01  0.00000000000E+00 0.  1.
     999901    1    3    3    0    0  0.79264330212E-01 -0.83248913338E-01  0.74626449556E-01  0.89060783883E+00  0.88000000000E+00 0. -1.
        -11    1    4    4    0    0 -0.36577098729E-01  0.23807008773E-01 -0.55382010977E-02  0.43995347602E-01  0.51100000000E-03 0.  1.
         11    1    4    4    0    0 -0.35232089426E-01  0.65920749532E-01 -0.59199540155E-01  0.95350364550E-01  0.51100000000E-03 0. -1.
</event>
<event>
 8    1  0.2927513E+004  0.1043930E+01  0.7957747E-01            NaN
         13   -1    0    0    0    0  0.00000000000E+00  0.00000000000E+00  0.74505805969E-08  0.10566000000E+00  0.10566000000E+00 0. -1.
     999900   -1    0    0    0    0 -0.00000000000E+00 -0.00000000000E+00 -0.74505805969E-08  0.93827000000E+00  0.93827000000E+00 0. -1.
     999902    2    1    2    0    0  0.35036091880E-02 -0.10127456332E-01  0.83660562959E-02  0.10303347234E+01  0.10302450245E+01 0.  0.
     999903    2    3    3    0    0  0.98519404846E-01  0.87645878669E-01 -0.74207228449E-02  0.13969627322E+00  0.45520417898E-01 0.  0.
         14    1    1    2    0    0 -0.35036091880E-02  0.10127456332E-01 -0.83660562959E-02  0.13595276645E-01  0.00000000000E+00 0.  1.
     999901    1    3    3    0    0 -0.95015795658E-01 -0.97773335001E-01  0.15786779141E-01  0.89063845013E+00  0.88000000000E+00 0. -1.
        -11    1    4    4    0    0  0.10368907028E-01  0.29334472545E-01  0.97688060141E-02  0.32614662414E-01  0.51100000000E-03 0. -1.
         11    1    4    4    0    0  0.88150497818E-01  0.58311406124E-01 -0.17189528859E-01  0.10708161081E+00  0.51100000000E-03 0.  1.
</event>
<event>
 7    1  0.2927513E+004  0.1043930E+01  0.7957747E-01            NaN
         13   -1    0    0    0    0  0.00000000000E+00  0.00000000000E+00  0.74505805969E-08  0.10566000000E+00  0.10566000000E+00 0.  1.
     999900   -1    0    0    0    0 -0.00000000000E+00 -0.00000000000E+00 -0.74505805969E-08  0.93827000000E+00  0.93827000000E+00 0. -1.
     999902    2    1    2    0    0 -0.68311273020E-02  0.11309365776E-01 -0.42381778192E-02  0.10300545466E+01  0.10299610871E+01 0.  0.
         14    1    1    2    0    0  0.68311273020E-02 -0.11309365776E-01  0.42381778192E-02  0.13875453351E-01  0.00000000000E+00 0. -1.
     999901    1    3    3    0    0  0.10093457642E+00  0.46456171424E-01 -0.84416280817E-01  0.89099499047E+00  0.88000000000E+00 0. -1.
        -11    1    3    3    0    0 -0.96351316595E-01 -0.33755293640E-01  0.71404320490E-01  0.12458665323E+00  0.51100000000E-03 0. -1.
         11    1    3    3    0    0 -0.11414387125E-01 -0.13915120078E-02  0.87737825084E-02  0.14472902943E-01  0.51100000000E-03 0.  1.
</event>
<event>
 8    1  0.2927513E+004  0.1043930E+01  0.7957747E-01            NaN
         13   -1    0    0    0    0  0.00000000000E+00  0.00000000000E+00  0.74505805969E-08  0.10566000000E+00  0.10566000000E+00 0.  1.
     999900   -1    0    0    0    0 -0.00000000000E+00 -0.00000000000E+00 -0.74505805969E-08  0.93827000000E+00  0.93827000000E+00 0.  1.
     999902    2    1    2    0    0 -0.14781758429E-01  0.31926970764E-03  0.76047343423E-02  0.10273036865E+01  0.10271691341E+01 0.  0.
     999903    2    3    3    0    0 -0.30800172038E-03  0.21528357120E-01  0.12935393075E+00  0.13855052515E+00  0.44724082940E-01 0.  0.
         14    1    1    2    0    0  0.14781758429E-01 -0.31926970764E-03 -0.76047343423E-02  0.16626313476E-01  0.00000000000E+00 0. -1.
     999901    1    3    3    0    0 -0.14473756708E-01 -0.21209087412E-01 -0.12174919641E+00  0.88875316137E+00  0.88000000000E+00 0.  1.
        -11    1    4    4    0    0 -0.17599564356E-01  0.26066394594E-01  0.74980993743E-01  0.81311820397E-01  0.51100000000E-03 0.  1.
         11    1    4    4    0    0  0.17291562636E-01 -0.45380374738E-02  0.54372937005E-01  0.57238704755E-01  0.51100000000E-03 0. -1.
</event>
<event>
 7    1  0.2927513E+004  0.1043930E+01  0.7957747E-01            NaN
         13   -1    0    0    0    0  0.00000000000E+00  0.00000000000E+00  0.74505805969E-08  0.10566000000E+00  0.10566000000E+00 0.  1.
     999900   -1    0    0    0    0 -0.00000000000E+00 -0.00000000000E+00 -0.74505805969E-08  0.93827000000E+00  0.93827000000E+00 0.  1.
     999903    2    1    2    0    0  0.10367739428E-01 -0.99927757846E-01 -0.51233494711E-01  0.12071660034E+00  0.43064832617E-01 0.  0.
         14    1    1    2    0    0  0.16165248119E-01 -0.23227644338E-01  0.18163178242E-01  0.33626473976E-01  0.00000000000E+00 0.  1.
     999901    1    1    2    0    0 -0.26532987547E-01  0.12315540218E+00  0.33070316469E-01  0.88958692568E+00  0.88000000000E+00 0. -1.
        -11    1    3    3    0    0  0.25667143270E-01 -0.59494530710E-01 -0.21602985542E-01  0.68303378638E-01  0.51100000000E-03 0.  1.
         11    1    3    3    0    0 -0.15299403842E-01 -0.40433227137E-01 -0.29630509169E-01  0.52413221702E-01  0.51100000000E-03 0. -1.
</event>
<event>
 8    1  0.2927513E+004  0.1043930E+01  0.7957747E-01            NaN
         13   -1    0    0    0    0  0.00000000000E+00  0.00000000000E+00  0.74505805969E-08  0.10566000000E+00  0.10566000000E+00 0. -1.
     999900   -1    0    0    0    0 -0.00000000000E+00 -0.00000000000E+00 -0.74505805969E-08  0.93827000000E+00  0.93827000000E+00 0.  1.
     999902    2    1    2    0    0  0.48276406621E-02  0.80454966957E-02  0.68921365317E-02  0.10322879350E+01  0.10322222838E+01 0.  0.
     999903    2    3    3    0    0  0.15736368809E-02  0.52347804984E-01  0.12538451712E+00  0.14323578393E+00  0.45303903216E-01 0.  0.
         14    1    1    2    0    0 -0.48276406621E-02 -0.80454966957E-02 -0.68921365317E-02  0.11642064998E-01  0.00000000000E+00 0.  1.
     999901    1    3    3    0    0  0.32540037811E-02 -0.44302308289E-01 -0.11849238059E+00  0.88905215107E+00  0.88000000000E+00 0.  1.
        -11    1    4    4    0    0  0.12184956970E-01 -0.31447698700E-02  0.19356299532E-01  0.23093077025E-01  0.51100000000E-03 0. -1.
         11    1    4    4    0    0 -0.10611320090E-01  0.55492574854E-01  0.10602821759E+00  0.12014270691E+00  0.51100000000E-03 0.  1.
</event>
<event>
 8    1  0.2927513E+004  0.1043930E+01  0.7957747E-01            NaN
         13   -1    0    0    0    0  0.00000000000E+00  0.00000000000E+00  0.74505805969E-08  0.10566000000E+00  0.10566000000E+00 0. -1.
     999900   -1    0    0    0    0 -0.00000000000E+00 -0.00000000000E+00 -0.74505805969E-08  0.93827000000E+00  0.93827000000E+00 0.  1.
     999902    2    1    2    0    0  0.10526302160E-01 -0.95601284465E-02  0.15034639474E-03  0.10297095325E+01  0.10296113342E+01 0.  0.
     999903    2    3    3    0    0 -0.44716138891E-01 -0.14887545629E-01  0.11859603051E+00  0.14004134220E+00  0.57666168428E-01 0.  0.
         14    1    1    2    0    0 -0.10526302160E-01  0.95601284465E-02 -0.15034639474E-03  0.14220467542E-01  0.00000000000E+00 0. -1.
     999901    1    3    3    0    0  0.55242441051E-01  0.53274171821E-02 -0.11844568411E+00  0.88966819026E+00  0.88000000000E+00 0.  1.
        -11    1    4    4    0    0 -0.22782755575E-01 -0.35135849006E-01  0.49943777105E-01  0.65178400023E-01  0.51100000000E-03 0.  1.
         11    1    4    4    0    0 -0.21933383315E-01  0.20248303377E-01  0.68652253404E-01  0.74862942180E-01  0.51100000000E-03 0. -1.
</event>
<event>
 8    1  0.2927513E+004  0.1043930E+01  0.7957747E-01            NaN
         13   -1    0    0    0    0  0.00000000000E+00  0.00000000000E+00  0.74505805969E-08  0.10566000000E+00  0.10566000000E+00 0.  1.
     999900   -1    0    0    0    0 -0.00000000000E+00 -0.00000000000E+00 -0.74505805969E-08  0.93827000000E+00  0.93827000000E+00 0.  1.
     999902    2    1    2    0    0 -0.11607209351E-01 -0.69609722086E-02  0.26642212235E-02  0.10301357796E+01  0.10300434184E+01 0.  0.
     999903    2    3    3    0    0 -0.76257375380E-01  0.93383163220E-01 -0.54069309817E-01  0.14026652903E+00  0.47070228695E-01 0.  0.
         14    1    1    2    0    0  0.11607209351E-01  0.69609722086E-02 -0.26642212235E-02  0.13794220447E-01  0.00000000000E+00 0.  1.
     999901    1    3    3    0    0  0.64650166029E-01 -0.10034413543E+00  0.56733531040E-01  0.88986925052E+00  0.88000000000E+00 0.  1.
        -11    1    4    4    0    0 -0.23875587893E-01  0.50821601255E-01 -0.41289940023E-02  0.56304427568E-01  0.51100000000E-03 0. -1.
         11    1    4    4    0    0 -0.52381787487E-01  0.42561561965E-01 -0.49940315815E-01  0.83962101462E-01  0.51100000000E-03 0.  1.
</event>
<event>
 8    1  0.2927513E+004  0.1043930E+01  0.7957747E-01            NaN
         13   -1    0    0    0    0  0.00000000000E+00  0.00000000000E+00  0.74505805969E-08  0.10566000000E+00  0.10566000000E+00 0. -1.
     999900   -1    0    0    0    0 -0.00000000000E+00 -0.00000000000E+00 -0.74505805969E-08  0.93827000000E+00  0.93827000000E+00 0. -1.
     999902    2    1    2    0    0 -0.58094865095E-02  0.50758435892E-02  0.10933295279E-01  0.10305489960E+01  0.10304621206E+01 0.  0.
     999903    2    3    3    0    0 -0.34013945532E-01 -0.94121537005E-02 -0.12583137105E+00  0.13942051622E+00  0.48569633263E-01 0.  0.
         14    1    1    2    0    0  0.58094865095E-02 -0.50758435892E-02 -0.10933295279E-01  0.13381003972E-01  0.00000000000E+00 0.  1.
     999901    1    3    3    0    0  0.28204459022E-01  0.14487997290E-01  0.13676466632E+00  0.89112847981E+00  0.88000000000E+00 0.  1.
        -11    1    4    4    0    0 -0.36637153383E-01  0.10153274992E-01 -0.63258294208E-01  0.73805439557E-01  0.51100000000E-03 0.  1.
         11    1    4    4    0    0  0.26232078505E-02 -0.19565428693E-01 -0.62573076837E-01  0.65615076661E-01  0.51100000000E-03 0. -1.
</event>
<event>
 7    1  0.2927513E+004  0.1043930E+01  0.7957747E-01            NaN
         13   -1    0    0    0    0  0.00000000000E+00  0.00000000000E+00  0.74505805969E-08  0.10566000000E+00  0.10566000000E+00 0. -1.
     999900   -1    0    0    0    0 -0.00000000000E+00 -0.00000000000E+00 -0.74505805969E-08  0.93827000000E+00  0.93827000000E+00 0.  1.
     999903    2    1    2    0    0  0.82664250781E-01 -0.80238913710E-01 -0.27407757411E-01  0.12683794722E+00  0.45442469762E-01 0.  0.
         14    1    1    2    0    0 -0.33352838159E-02  0.30067131424E-01 -0.83352559001E-02  0.31378862330E-01  0.00000000000E+00 0. -1.
     999901    1    1    2    0    0 -0.79328966965E-01  0.50171782287E-01  0.35743013311E-01  0.88571319045E+00  0.88000000000E+00 0. -1.
        -11    1    3    3    0    0  0.28166035154E-01 -0.29363604022E-01 -0.32544334846E-01  0.52105101756E-01  0.51100000000E-03 0.  1.
         11    1    3    3    0    0  0.54498215626E-01 -0.50875309688E-01  0.51365774344E-02  0.74732845463E-01  0.51100000000E-03 0. -1.
</event>
<event>
 8    1  0.2927513E+004  0.1043930E+01  0.7957747E-01            NaN
         13   -1    0    0    0    0  0.00000000000E+00  0.00000000000E+00  0.74505805969E-08  0.10566000000E+00  0.10566000000E+00 0.  1.
     999900   -1    0    0    0    0 -0.00000000000E+00 -0.00000000000E+00 -0.74505805969E-08  0.93827000000E+00  0.93827000000E+00 0. -1.
     999902    2    1    2    0    0 -0.12299513051E-02 -0.12518549819E-01  0.53533290505E-02  0.10302594111E+01  0.10301687090E+01 0.  0.
     999903    2    3    3    0    0  0.34182379538E-01 -0.12393526376E+00  0.40132406815E-01  0.14184661199E+00  0.44513667362E-01 0.  0.
         14    1    1    2    0    0  0.12299513051E-02  0.12518549819E-01 -0.53533290505E-02  0.13670588930E-01  0.00000000000E+00 0. -1.
     999901    1    3    3    0    0 -0.35412330843E-01  0.11141671394E+00 -0.34779077764E-01  0.88841279908E+00  0.88000000000E+00 0.  1.
        -11    1    4    4    0    0  0.12405985083E-01 -0.10731575312E+00  0.37355032081E-01  0.11430765012E+00  0.51100000000E-03 0.  1.
         11    1    4    4    0    0  0.21776394455E-01 -0.16619510641E-01  0.27773747342E-02  0.27538961869E-01  0.51100000000E-03 0. -1.
</event>
<event>
 8    1  0.2927513E+004  0.1043930E+01  0.7957747E-01            NaN
         13   -1    0    0    0    0  0.00000000000E+00  0.00000000000E+00  0.74505805969E-08  0.10566000000E+00  0.10566000000E+00 0.  1.
     999900   -1    0    0    0    0 -0.00000000000E+00 -0.00000000000E+00 -0.74505805969E-08  0.93827000000E+00  0.93827000000E+00 0. -1.
     999902    2    1    2    0    0  0.43155112361E-02  0.86619556544E-02  0.98151918330E-02  0.10301462740E+01  0.10300540542E+01 0.  0.
     999903    2    3    3    0    0 -0.74091288736E-01  0.70008751462E-01  0.87308919341E-01  0.14114889857E+00  0.43696908621E-01 0.  0.
         14    1    1    2    0    0 -0.43155112361E-02 -0.86619556544E-02 -0.98151918330E-02  0.13783726046E-01  0.00000000000E+00 0. -1.
     999901    1    3    3    0    0  0.78406799972E-01 -0.61346795808E-01 -0.77493727508E-01  0.88899737538E+00  0.88000000000E+00 0. -1.
        -11    1    4    4    0    0 -0.35441163634E-01  0.40140749115E-01  0.72446176552E-01  0.90089208217E-01  0.51100000000E-03 0. -1.
         11    1    4    4    0    0 -0.38650125102E-01  0.29868002347E-01  0.14862742789E-01  0.51059690352E-01  0.51100000000E-03 0.  1.
</event>
<event>
 8    1  0.2927513E+004  0.1043930E+01  0.7957747E-01            NaN
         13   -1    0    0    0    0  0.00000000000E+00  0.00000000000E+00  0.74505805969E-08  0.10566000000E+00  0.10566000000E+00 0. -1.
     999900   -1    0    0    0    0 -0.00000000000E+00 -0.00000000000E+00 -0.74505805969E-08  0.93827000000E+00  0.93827000000E+00 0.  1.
     999902    2    1    2    0    0 -0.92402286249E-02 -0.34337535047E-02  0.10432426780E-01  0.10295770206E+01  0.10294769708E+01 0.  0.
     999903    2    3    3    0    0  0.47519234677E-01 -0.10583811559E+00  0.64379582406E-01  0.14018476429E+00  0.45246581428E-01 0.  0.
         14    1    1    2    0    0  0.92402286249E-02  0.34337535047E-02 -0.10432426780E-01  0.14352979367E-01  0.00000000000E+00 0.  1.
     999901    1    3    3    0    0 -0.56759463302E-01  0.10240436209E+00 -0.53947155626E-01  0.88939225635E+00  0.88000000000E+00 0.  1.
        -11    1    4    4    0    0  0.52543818062E-01 -0.95615175912E-01  0.45672652740E-01  0.11827665455E+00  0.51100000000E-03 0. -1.
         11    1    4    4    0    0 -0.50245833848E-02 -0.10222939680E-01  0.18706929666E-01  0.21908109741E-01  0.51100000000E-03 0.  1.
</event>
<event>
 8    1  0.2927513E+004  0.1043930E+01  0.7957747E-01            NaN
         13   -1    0    0    0    0  0.00000000000E+00  0.00000000000E+00  0.74505805969E-08  0.10566000000E+00  0.10566000000E+00 0.  1.
     999900   -1    0    0    0    0 -0.00000000000E+00 -0.00000000000E+00 -0.74505805969E-08  0.93827000000E+00  0.93827000000E+00 0.  1.
     999902    2    1    2    0    0 -0.18301773174E-02  0.47658339894E-02  0.11477685898E-01  0.10313681532E+01  0.10312916500E+01 0.  0.
     999903    2    3    3    0    0  0.22207307649E-01  0.92321779716E-01 -0.92900070553E-01  0.14056033978E+00  0.45938115859E-01 0.  0.
         14    1    1    2    0    0  0.18301773174E-02 -0.47658339894E-02 -0.11477685898E-01  0.12561846847E-01  0.00000000000E+00 0. -1.
     999901    1    3    3    0    0 -0.24037484966E-01 -0.87555945727E-01  0.10437775645E+00  0.89080781337E+00  0.88000000000E+00 0. -1.
        -11    1    4    4    0    0 -0.60604010128E-02  0.19153270458E-01 -0.15526760240E-02  0.20155598565E-01  0.51100000000E-03 0. -1.
         11    1    4    4    0    0  0.28267708661E-01  0.73168509259E-01 -0.91347394529E-01  0.12040474122E+00  0.51100000000E-03 0.  1.
</event>
<event>
 8    1  0.2927513E+004  0.1043930E+01  0.7957747E-01            NaN
         13   -1    0    0    0    0  0.00000000000E+00  0.00000000000E+00  0.74505805969E-08  0.10566000000E+00  0.10566000000E+00 0.  1.
     999900   -1    0    0    0    0 -0.00000000000E+00 -0.00000000000E+00 -0.74505805969E-08  0.93827000000E+00  0.93827000000E+00 0.  1.
     999902    2    1    2    0    0 -0.10273082195E-01  0.98342558668E-02  0.53060092186E-02  0.10287509836E+01  0.10286389958E+01 0.  0.
     999903    2    3    3    0    0  0.11930801059E+00  0.24092489906E-01  0.46292402085E-01  0.13820371292E+00  0.46286394486E-01 0.  0.
         14    1    1    2    0    0  0.10273082195E-01 -0.98342558668E-02 -0.53060092186E-02  0.15179016439E-01  0.00000000000E+00 0. -1.
     999901    1    3    3    0    0 -0.12958109278E+00 -0.14258234039E-01 -0.40986392866E-01  0.89054727064E+00  0.88000000000E+00 0.  1.
        -11    1    4    4    0    0  0.59354107972E-01  0.10733202194E-01  0.47482762556E-01  0.76765784197E-01  0.51100000000E-03 0.  1.
         11    1    4    4    0    0  0.59953902614E-01  0.13359287712E-01 -0.11903604709E-02  0.61437928724E-01  0.51100000000E-03 0. -1.
</event>
<event>
 8    1  0.2927513E+004  0.1043930E+01  0.7957747E-01            NaN
         13   -1    0    0    0    0  0.00000000000E+00  0.00000000000E+00  0.74505805969E-08  0.10566000000E+00  0.10566000000E+00 0.  1.
     999900   -1    0    0    0    0 -0.00000000000E+00 -0.00000000000E+00 -0.74505805969E-08  0.93827000000E+00  0.93827000000E+00 0. -1.
     999902    2    1    2    0    0 -0.14708938641E-02 -0.15246843958E-01 -0.25961037044E-02  0.10283939280E+01  0.10282765686E+01 0.  0.
     999903    2    3    3    0    0 -0.52404170359E-01 -0.43902085733E-01  0.11225030382E+00  0.13900929867E+00  0.45275426073E-01 0.  0.
         14    1    1    2    0    0  0.14708938641E-02  0.15246843958E-01  0.25961037044E-02  0.15536072022E-01  0.00000000000E+00 0. -1.
     999901    1    3    3    0    0  0.50933276495E-01  0.28655241775E-01 -0.11484640752E+00  0.88938462931E+00  0.88000000000E+00 0. -1.
        -11    1    4    4    0    0 -0.13173313350E-02 -0.21992099521E-01  0.13956138073E-01  0.26084913534E-01  0.51100000000E-03 0. -1.
         11    1    4    4    0    0 -0.51086839024E-01 -0.21909986212E-01  0.98294165743E-01  0.11292438513E+00  0.51100000000E-03 0.  1.
</event>
<event>
 8    1  0.2927513E+004  0.1043930E+01  0.7957747E-01            NaN
         13   -1    0    0    0    0  0.00000000000E+00  0.00000000000E+00  0.74505805969E-08  0.10566000000E+00  0.10566000000E+00 0.  1.
     999900   -1    0    0    0    0 -0.00000000000E+00 -0.00000000000E+00 -0.74505805969E-08  0.93827000000E+00  0.93827000000E+00 0. -1.
     999902    2    1    2    0    0  0.13021499383E-01  0.38884741959E-02 -0.35029106279E-02  0.10298961103E+01  0.10298004894E+01 0.  0.
     999903    2    3    3    0    0  0.10070620616E+00 -0.40939598318E-02 -0.88559399823E-01  0.14142161239E+00  0.44707993539E-01 0.  0.
         14    1    1    2    0    0 -0.13021499383E-01 -0.38884741959E-02  0.35029106279E-02  0.14033889719E-01  0.00000000000E+00 0.  1.
     999901    1    3    3    0    0 -0.87684706778E-01  0.79824340277E-02  0.85056489195E-01  0.88847449790E+00  0.88000000000E+00 0.  1.
        -11    1    4    4    0    0  0.30516808154E-01  0.18037383342E-01 -0.38930867574E-01  0.52654499796E-01  0.51100000000E-03 0.  1.
         11    1    4    4    0    0  0.70189398007E-01 -0.22131343174E-01 -0.49628532249E-01  0.88767112590E-01  0.51100000000E-03 0. -1.
</event>
<event>
 7    1  0.2927513E+004  0.1043930E+01  0.7957747E-01            NaN
         13   -1    0    0    0    0  0.00000000000E+00  0.00000000000E+00  0.74505805969E-08  0.10566000000E+00  0.10566000000E+00 0. -1.
     999900   -1    0    0    0    0 -0.00000000000E+00 -0.00000000000E+00 -0.74505805969E-08  0.93827000000E+00  0.93827000000E+00 0.  1.
     999902    2    1    2    0    0  0.12326164938E-01  0.97323198207E-02 -0.18191091129E-02  0.10281198277E+01  0.10279982580E+01 0.  0.
         14    1    1    2    0    0 -0.12326164938E-01 -0.97323198207E-02  0.18191091129E-02  0.15810172331E-01  0.00000000000E+00 0. -1.
     999901    1    3    3    0    0  0.39127227929E-01  0.45593173333E-01  0.10353271872E+00  0.88810399237E+00  0.88000000000E+00 0. -1.
        -11    1    3    3    0    0  0.24237833847E-02 -0.49921793906E-01 -0.30792691983E-01  0.58706994756E-01  0.51100000000E-03 0.  1.
         11    1    3    3    0    0 -0.29224846376E-01  0.14060940394E-01 -0.74559135851E-01  0.81308840542E-01  0.51100000000E-03 0. -1.
</event>
<event>
 8    1  0.2927513E+004  0.1043930E+01  0.7957747E-01            NaN
         13   -1    0    0    0    0  0.00000000000E+00  0.00000000000E+00  0.74505805969E-08  0.10566000000E+00  0.10566000000E+00 0. -1.
     999900   -1    0    0    0    0 -0.00000000000E+00 -0.00000000000E+00 -0.74505805969E-08  0.93827000000E+00  0.93827000000E+00 0. -1.
     999902    2    1    2    0    0  0.73259145944E-02 -0.40214127987E-02  0.98034839001E-02  0.10310478774E+01  0.10309673983E+01 0.  0.
     999903    2    3    3    0    0 -0.68794087792E-01 -0.11258658225E+00  0.20890362535E-01  0.14104587200E+00  0.45267711926E-01 0.  0.
         14    1    1    2    0    0 -0.73259145944E-02  0.40214127987E-02 -0.98034839001E-02  0.12882122578E-01  0.00000000000E+00 0.  1.
     999901    1    3    3    0    0  0.76120002387E-01  0.10856516945E+00 -0.11086878635E-01  0.89000200542E+00  0.88000000000E+00 0. -1.
        -11    1    4    4    0    0 -0.39737699606E-01 -0.46261171096E-01 -0.10914885143E-01  0.61956247141E-01  0.51100000000E-03 0.  1.
         11    1    4    4    0    0 -0.29056388187E-01 -0.66325411153E-01  0.31805247678E-01  0.79089624857E-01  0.51100000000E-03 0. -1.
</event>
<event>
 8    1  0.2927513E+004  0.1043930E+01  0.7957747E-01            NaN
         13   -1    0    0    0    0  0.00000000000E+00  0.00000000000E+00  0.74505805969E-08  0.10566000000E+00  0.10566000000E+00 0. -1.
     999900   -1    0    0    0    0 -0.00000000000E+00 -0.00000000000E+00 -0.74505805969E-08  0.93827000000E+00  0.93827000000E+00 0. -1.
     999902    2    1    2    0    0 -0.13351418029E-01 -0.12222855342E-01 -0.12336815451E-01  0.10220243941E+01  0.10217896097E+01 0.  0.
     999903    2    3    3    0    0  0.83930916592E-01 -0.12714313056E-01 -0.92072145583E-01  0.13308017926E+00  0.45022234538E-01 0.  0.
         14    1    1    2    0    0  0.13351418029E-01  0.12222855342E-01  0.12336815451E-01  0.21905605939E-01  0.00000000000E+00 0. -1.
     999901    1    3    3    0    0 -0.97282334621E-01  0.49145771384E-03  0.79735330132E-01  0.88894421480E+00  0.88000000000E+00 0.  1.
        -11    1    4    4    0    0  0.61386364042E-01 -0.19815382262E-02 -0.34786534453E-01  0.70587366322E-01  0.51100000000E-03 0. -1.
         11    1    4    4    0    0  0.22544552550E-01 -0.10732774829E-01 -0.57285611130E-01  0.62492812936E-01  0.51100000000E-03 0.  1.
</event>
<event>
 8    1  0.2927513E+004  0.1043930E+01  0.7957747E-01            NaN
         13   -1    0    0    0    0  0.00000000000E+00  0.00000000000E+00  0.74505805969E-08  0.10566000000E+00  0.10566000000E+00 0.  1.
     999900   -1    0    0    0    0 -0.00000000000E+00 -0.00000000000E+00 -0.74505805969E-08  0.93827000000E+00  0.93827000000E+00 0.  1.
     999902    2    1    2    0    0  0.69022938968E-02  0.10609097711E-02 -0.44089497995E-02  0.10356713059E+01  0.10356383769E+01 0.  0.
     999903    2    3    3    0    0  0.12839943232E+00  0.51101534474E-01  0.11036334904E-02  0.14589829697E+00  0.46768728961E-01 0.  0.
         14    1    1    2    0    0 -0.69022938968E-02 -0.10609097711E-02  0.44089497995E-02  0.82586941410E-02  0.00000000000E+00 0. -1.
     999901    1    3    3    0    0 -0.12149713842E+00 -0.50040624703E-01 -0.55125832899E-02  0.88977300888E+00  0.88000000000E+00 0.  1.
        -11    1    4    4    0    0  0.92894947969E-01  0.54659731340E-01 -0.10692526167E-01  0.10831319783E+00  0.51100000000E-03 0. -1.
         11    1    4    4    0    0  0.35504484347E-01 -0.35581968665E-02  0.11796159658E-01  0.37585099140E-01  0.51100000000E-03 0.  1.
</event>
<event>
 8    1  0.2927513E+004  0.1043930E+01  0.7957747E-01            NaN
         13   -1    0    0    0    0  0.00000000000E+00  0.00000000000E+00  0.74505805969E-08  0.10566000000E+00  0.10566000000E+00 0.  1.
     999900   -1    0    0    0    0 -0.00000000000E+00 -0.00000000000E+00 -0.74505805969E-08  0.93827000000E+00  0.93827000000E+00 0.  1.
     999902    2    1    2    0    0  0.55179747117E-02 -0.13327024529E-01 -0.23965373923E-02  0.10293080638E+01  0.10292042019E+01 0.  0.
     999903    2    3    3    0    0 -0.85092272536E-01 -0.89026875462E-01  0.47542318859E-01  0.14001926158E+00  0.46675926668E-01 0.  0.
         14    1    1    2    0    0 -0.55179747117E-02  0.13327024529E-01  0.23965373923E-02  0.14621936233E-01  0.00000000000E+00 0. -1.
     999901    1    3    3    0    0  0.90610247247E-01  0.75699850933E-01 -0.49938856252E-01  0.88928880219E+00  0.88000000000E+00 0. -1.
        -11    1    4    4    0    0 -0.13855334372E-01 -0.43933608690E-01  0.74756138438E-02  0.46672027880E-01  0.51100000000E-03 0.  1.
         11    1    4    4    0    0 -0.71236938164E-01 -0.45093266772E-01  0.40066705016E-01  0.93347233697E-01  0.51100000000E-03 0. -1.
</event>
<event>
 8    1  0.2927513E+004  0.1043930E+01  0.7957747E-01            NaN
         13   -1    0    0    0    0  0.00000000000E+00  0.00000000000E+00  0.74505805969E-08  0.10566000000E+00  0.10566000000E+00 0.  1.
     999900   -1    0    0    0    0 -0.00000000000E+00 -0.00000000000E+00 -0.74505805969E-08  0.93827000000E+00  0.93827000000E+00 0.  1.
     999902    2    1    2    0    0  0.91895905327E-02 -0.56102048110E-02  0.43285849044E-02  0.10323257069E+01  0.10322604833E+01 0.  0.
     999903    2    3    3    0    0 -0.10210206860E+00  0.81532031193E-01 -0.25339784114E-01  0.14055229684E+00  0.45172325213E-01 0.  0.
         14    1    1    2    0    0 -0.91895905327E-02  0.56102048110E-02 -0.43285849044E-02  0.11604293148E-01  0.00000000000E+00 0.  1.
     999901    1    3    3    0    0  0.11129165913E+00 -0.87142236004E-01  0.29668369019E-01  0.89177341001E+00  0.88000000000E+00 0.  1.
        -11    1    4    4    0    0 -0.79182010789E-01  0.78222749149E-01 -0.79519593363E-02  0.11158890669E+00  0.51100000000E-03 0.  1.
         11    1    4    4    0    0 -0.22920057809E-01  0.33092820436E-02 -0.17387824778E-01  0.28963390153E-01  0.51100000000E-03 0. -1.
</event>
<event>
 8    1  0.2927513E+004  0.1043930E+01  0.7957747E-01            NaN
         13   -1    0    0    0    0  0.00000000000E+00  0.00000000000E+00  0.74505805969E-08  0.10566000000E+00  0.10566000000E+00 0. -1.
     999900   -1    0    0    0    0 -0.00000000000E+00 -0.00000000000E+00 -0.74505805969E-08  0.93827000000E+00  0.93827000000E+00 0. -1.
     999902    2    1    2    0    0  0.42567982353E-02 -0.39309250208E-02 -0.13226757826E-01  0.10294897914E+01  0.10293885131E+01 0.  0.
     999903    2    3    3    0    0 -0.34153739982E-02  0.11276708538E+00  0.64059882549E-01  0.13839467151E+00  0.48180247247E-01 0.  0.
         14    1    1    2    0    0 -0.42567982353E-02  0.39309250208E-02  0.13226757826E-01  0.14440208632E-01  0.00000000000E+00 0. -1.
     999901    1    3    3    0    0  0.76721722334E-02 -0.11669801040E+00 -0.77286640376E-01  0.89109511986E+00  0.88000000000E+00 0.  1.
        -11    1    4    4    0    0  0.18620220768E-01  0.22424790766E-01  0.99383785384E-02  0.30799616090E-01  0.51100000000E-03 0. -1.
         11    1    4    4    0    0 -0.22035594766E-01  0.90342294614E-01  0.54121504011E-01  0.10759505542E+00  0.51100000000E-03 0.  1.
</event>
<event>
 8    1  0.2927513E+004  0.1043930E+01  0.7957747E-01            NaN
         13   -1    0    0    0    0  0.00000000000E+00  0.00000000000E+00  0.74505805969E-08  0.10566000000E+00  0.10566000000E+00 0. -1.
     999900   -1    0    0    0    0 -0.00000000000E+00 -0.00000000000E+00 -0.74505805969E-08  0.93827000000E+00  0.93827000000E+00 0.  1.
     999902    2    1    2    0    0 -0.15783055785E-01 -0.76447845427E-03  0.11879139884E-02  0.10280838517E+01  0.10279617238E+01 0.  0.
     999903    2    3    3    0    0 -0.13273279154E+00 -0.78863621650E-02  0.57804936740E-02  0.14030625919E+00  0.44409949383E-01 0.  0.
         14    1    1    2    0    0  0.15783055785E-01  0.76447845427E-03 -0.11879139884E-02  0.15846148329E-01  0.00000000000E+00 0. -1.
     999901    1    3    3    0    0  0.11694973575E+00  0.71218837107E-02 -0.45925796855E-02  0.88777759248E+00  0.88000000000E+00 0. -1.
        -11    1    4    4    0    0 -0.97953459252E-01  0.12436597142E-01  0.12274552993E-01  0.99501130145E-01  0.51100000000E-03 0.  1.
         11    1    4    4    0    0 -0.34779332284E-01 -0.20322959307E-01 -0.64940593188E-02  0.40805129047E-01  0.51100000000E-03 0. -1.
</event>
<event>
 8    1  0.2927513E+004  0.1043930E+01  0.7957747E-01            NaN
         13   -1    0    0    0    0  0.00000000000E+00  0.00000000000E+00  0.74505805969E-08  0.10566000000E+00  0.10566000000E+00 0. -1.
     999900   -1    0    0    0    0 -0.00000000000E+00 -0.00000000000E+00 -0.74505805969E-08  0.93827000000E+00  0.93827000000E+00 0. -1.
     999902    2    1    2    0    0 -0.11609901448E-01 -0.50841870875E-02  0.63917790192E-02  0.10297351555E+01  0.10296373133E+01 0.  0.
     999903    2    3    3    0    0  0.12059720023E+00  0.21591260982E-01 -0.46767739051E-01  0.13787404998E+00  0.42569531212E-01 0.  0.
         14    1    1    2    0    0  0.11609901448E-01  0.50841870875E-02 -0.63917790192E-02  0.14194844452E-01  0.00000000000E+00 0. -1.
     999901    1    3    3    0    0 -0.13220710168E+00 -0.26675448069E-01  0.53159518070E-01  0.89186110557E+00  0.88000000000E+00 0.  1.
        -11    1    4    4    0    0  0.92475138544E-02  0.15144573581E-01 -0.27435320904E-02  0.17962814668E-01  0.51100000000E-03 0.  1.
         11    1    4    4    0    0  0.11134968638E+00  0.64466874001E-02 -0.44024206960E-01  0.11991123531E+00  0.51100000000E-03 0. -1.
</event>
<event>
 8    1  0.2927513E+004  0.1043930E+01  0.7957747E-01            NaN
         13   -1    0    0    0    0  0.00000000000E+00  0.00000000000E+00  0.74505805969E-08  0.10566000000E+00  0.10566000000E+00 0.  1.
     999900   -1    0    0    0    0 -0.00000000000E+00 -0.00000000000E+00 -0.74505805969E-08  0.93827000000E+00  0.93827000000E+00 0. -1.
     999902    2    1    2    0    0 -0.43950167632E-02  0.81030122867E-02  0.10184678758E-01  0.10301930913E+01  0.10301015011E+01 0.  0.
     999903    2    3    3    0    0 -0.11261446941E-01 -0.78280688012E-01  0.10729032166E+00  0.14062083594E+00  0.44814284272E-01 0.  0.
         14    1    1    2    0    0  0.43950167632E-02 -0.81030122867E-02 -0.10184678758E-01  0.13736908745E-01  0.00000000000E+00 0. -1.
     999901    1    3    3    0    0  0.68664301782E-02  0.86383700299E-01 -0.97105642906E-01  0.88957225531E+00  0.88000000000E+00 0. -1.
        -11    1    4    4    0    0  0.59827400600E-02 -0.44259908823E-01  0.28227903200E-01  0.52837565687E-01  0.51100000000E-03 0. -1.
         11    1    4    4    0    0 -0.17244187001E-01 -0.34020779189E-01  0.79062418464E-01  0.87783270253E-01  0.51100000000E-03 0.  1.
</event>
<event>
 8    1  0.2927513E+004  0.1043930E+01  0.7957747E-01            NaN
         13   -1    0    0    0    0  0.00000000000E+00  0.00000000000E+00  0.74505805969E-08  0.10566000000E+00  0.10566000000E+00 0. -1.
     999900   -1    0    0    0    0 -0.00000000000E+00 -0.00000000000E+00 -0.74505805969E-08  0.93827000000E+00  0.93827000000E+00 0.  1.
     999902    2    1    2    0    0  0.94737698526E-02  0.57476280182E-02  0.75799042221E-02  0.10305045581E+01  0.10304171008E+01 0.  0.
     999903    2    3    3    0    0  0.42847434075E-01  0.12148043015E+00 -0.39195994395E-01  0.14106885626E+00  0.42079671051E-01 0.  0.
         14    1    1    2    0    0 -0.94737698526E-02 -0.57476280182E-02 -0.75799042221E-02  0.13425441932E-01  0.00000000000E+00 0.  1.
     999901    1    3    3    0    0 -0.33373664223E-01 -0.11573280213E+00  0.46775898617E-01  0.88943570180E+00  0.88000000000E+00 0. -1.
        -11    1    4    4    0    0  0.39988295345E-01  0.91908343184E-01 -0.12289533437E-01  0.10098267705E+00  0.51100000000E-03 0. -1.
         11    1    4    4    0    0  0.28591387299E-02  0.29572086962E-01 -0.26906460957E-01  0.40086179212E-01  0.51100000000E-03 0.  1.
</event>
<event>
 8    1  0.2927513E+004  0.1043930E+01  0.7957747E-01            NaN
         13   -1    0    0    0    0  0.00000000000E+00  0.00000000000E+00  0.74505805969E-08  0.10566000000E+00  0.10566000000E+00 0. -1.
     999900   -1    0    0    0    0 -0.00000000000E+00 -0.00000000000E+00 -0.74505805969E-08  0.93827000000E+00  0.93827000000E+00 0. -1.
     999902    2    1    2    0    0  0.45159483296E-02 -0.13691483982E-01 -0.26334167877E-02  0.10292744411E+01  0.10291700975E+01 0.  0.
     999903    2    3    3    0    0 -0.13038406895E+00  0.26442562378E-02 -0.16016371544E-01  0.13874427622E+00  0.44569636512E-01 0.  0.
         14    1    1    2    0    0 -0.45159483296E-02  0.13691483982E-01  0.26334167877E-02  0.14655558908E-01  0.00000000000E+00 0. -1.
     999901    1    3    3    0    0  0.13490001728E+00 -0.16335740220E-01  0.13382954757E-01  0.89053016487E+00  0.88000000000E+00 0. -1.
        -11    1    4    4    0    0 -0.48376617232E-01 -0.18691382918E-01  0.28048877128E-02  0.51940286929E-01  0.51100000000E-03 0. -1.
         11    1    4    4    0    0 -0.82007451719E-01  0.21335639156E-01 -0.18821259257E-01  0.86803989290E-01  0.51100000000E-03 0.  1.
</event>
<event>
 8    1  0.2927513E+004  0.1043930E+01  0.7957747E-01            NaN
         13   -1    0    0    0    0  0.00000000000E+00  0.00000000000E+00  0.74505805969E-08  0.10566000000E+00  0.10566000000E+00 0. -1.
     999900   -1    0    0    0    0 -0.00000000000E+00 -0.00000000000E+00 -0.74505805969E-08  0.93827000000E+00  0.93827000000E+00 0.  1.
     999902    2    1    2    0    0 -0.20097252107E-03  0.10987885647E-01 -0.81943496049E-02  0.10302215578E+01  0.10301303494E+01 0.  0.
     999903    2    3    3    0    0 -0.93161220671E-01 -0.85624906667E-01  0.33048257234E-01  0.13911180479E+00  0.47426461450E-01 0.  0.
         14    1    1    2    0    0  0.20097252107E-03 -0.10987885647E-01  0.81943496049E-02  0.13708442158E-01  0.00000000000E+00 0.  1.
     999901    1    3    3    0    0  0.92960248150E-01  0.96612792314E-01 -0.41242606839E-01  0.89110975306E+00  0.88000000000E+00 0.  1.
        -11    1    4    4    0    0 -0.40993792419E-01 -0.69043073474E-01  0.22138330162E-01  0.83293479907E-01  0.51100000000E-03 0.  1.
         11    1    4    4    0    0 -0.52167428252E-01 -0.16581833193E-01  0.10909927072E-01  0.55818324878E-01  0.51100000000E-03 0. -1.
</event>
<event>
 8    1  0.2927513E+004  0.1043930E+01  0.7957747E-01            NaN
         13   -1    0    0    0    0  0.00000000000E+00  0.00000000000E+00  0.74505805969E-08  0.10566000000E+00  0.10566000000E+00 0.  1.
     999900   -1    0    0    0    0 -0.00000000000E+00 -0.00000000000E+00 -0.74505805969E-08  0.93827000000E+00  0.93827000000E+00 0. -1.
     999902    2    1    2    0    0  0.17764328151E-02  0.50696141294E-02 -0.14133186125E-01  0.10288103555E+01  0.10286992485E+01 0.  0.
     999903    2    3    3    0    0  0.11200818890E+00 -0.51022008238E-01 -0.47444595291E-01  0.13953707905E+00  0.45503044982E-01 0.  0.
         14    1    1    2    0    0 -0.17764328151E-02 -0.50696141294E-02  0.14133186125E-01  0.15119644540E-01  0.00000000000E+00 0.  1.
     999901    1    3    3    0    0 -0.11023175609E+00  0.56091622367E-01  0.33311409166E-01  0.88927327641E+00  0.88000000000E+00 0.  1.
        -11    1    4    4    0    0  0.83718870413E-01 -0.20850571071E-01 -0.46834759390E-01  0.98170012658E-01  0.51100000000E-03 0. -1.
         11    1    4    4    0    0  0.28289318490E-01 -0.30171437167E-01 -0.60983590043E-03  0.41367066395E-01  0.51100000000E-03 0.  1.
</event>
<event>
 8    1  0.2927513E+004  0.1043930E+01  0.7957747E-01            NaN
         13   -1    0    0    0    0  0.00000000000E+00  0.00000000000E+00  0.74505805969E-08  0.10566000000E+00  0.10566000000E+00 0.  1.
     999900   -1    0    0    0    0 -0.00000000000E+00 -0.00000000000E+00 -0.74505805969E-08  0.93827000000E+00  0.93827000000E+00 0.  1.
     999902    2    1    2    0    0 -0.70868177975E-02  0.56613091075E-02 -0.90726173907E-02  0.10311009005E+01  0.10310210867E+01 0.  0.
     999903    2    3    3    0    0  0.87396955672E-01  0.72311925312E-01  0.70195670805E-01  0.14000441326E+00  0.42503660179E-01 0.  0.
         14    1    1    2    0    0  0.70868177975E-02 -0.56613091075E-02  0.90726173907E-02  0.12829099486E-01  0.00000000000E+00 0.  1.
     999901    1    3    3    0    0 -0.94483773469E-01 -0.66650616204E-01 -0.79268288196E-01  0.89109648726E+00  0.88000000000E+00 0.  1.
        -11    1    4    4    0    0  0.42443794155E-01  0.60650747306E-01  0.50167911421E-01  0.89426334312E-01  0.51100000000E-03 0. -1.
         11    1    4    4    0    0  0.44953161516E-01  0.11661178005E-01  0.20027759384E-01  0.50578078944E-01  0.51100000000E-03 0.  1.
</event>
<event>
 8    1  0.2927513E+004  0.1043930E+01  0.7957747E-01            NaN
         13   -1    0    0    0    0  0.00000000000E+00  0.00000000000E+00  0.74505805969E-08  0.10566000000E+00  0.10566000000E+00 0.  1.
     999900   -1    0    0    0    0 -0.00000000000E+00 -0.00000000000E+00 -0.74505805969E-08  0.93827000000E+00  0.93827000000E+00 0. -1.
     999902    2    1    2    0    0 -0.40591365489E-02 -0.60174878869E-02  0.13255363874E-01  0.10288173754E+01  0.10287063724E+01 0.  0.
     999903    2    3    3    0    0  0.12249085482E+00  0.33613255484E-01 -0.28714293130E-01  0.13789260406E+00  0.45343126993E-01 0.  0.
         14    1    1    2    0    0  0.40591365489E-02  0.60174878869E-02 -0.13255363874E-01  0.15112624571E-01  0.00000000000E+00 0. -1.
     999901    1    3    3    0    0 -0.12654999137E+00 -0.39630743371E-01  0.41969657004E-01  0.89092477137E+00  0.88000000000E+00 0.  1.
        -11    1    4    4    0    0  0.26170728896E-01  0.15989777424E-01  0.10487604594E-01  0.32416523629E-01  0.51100000000E-03 0.  1.
         11    1    4    4    0    0  0.96320125921E-01  0.17623478061E-01 -0.39201897725E-01  0.10547608043E+00  0.51100000000E-03 0. -1.
</event>
<event>
 8    1  0.2927513E+004  0.1043930E+01  0.7957747E-01            NaN
         13   -1    0    0    0    0  0.00000000000E+00  0.00000000000E+00  0.74505805969E-08  0.10566000000E+00  0.10566000000E+00 0.  1.
     999900   -1    0    0    0    0 -0.00000000000E+00 -0.00000000000E+00 -0.74505805969E-08  0.93827000000E+00  0.93827000000E+00 0. -1.
     999902    2    1    2    0    0  0.11601669208E-01  0.76071555934E-02 -0.79129118946E-03  0.10300341846E+01  0.10299404486E+01 0.  0.
     999903    2    3    3    0    0 -0.30352669704E-01  0.60609713483E-01 -0.11427099746E+00  0.14017628500E+00  0.44684539703E-01 0.  0.
         14    1    1    2    0    0 -0.11601669208E-01 -0.76071555934E-02  0.79129118946E-03  0.13895815427E-01  0.00000000000E+00 0. -1.
     999901    1    3    3    0    0  0.41954338912E-01 -0.53002557890E-01  0.11347970627E+00  0.88985789957E+00  0.88000000000E+00 0.  1.
        -11    1    4    4    0    0  0.59818654326E-02  0.26666263660E-01 -0.20967696861E-01  0.34449640989E-01  0.51100000000E-03 0. -1.
         11    1    4    4    0    0 -0.36334535137E-01  0.33943449824E-01 -0.93303300603E-01  0.10572664401E+00  0.51100000000E-03 0.  1.
</event>
<event>
 8    1  0.2927513E+004  0.1043930E+01  0.7957747E-01            NaN
         13   -1    0    0    0    0  0.00000000000E+00  0.00000000000E+00  0.74505805969E-08  0.10566000000E+00  0.10566000000E+00 0.  1.
     999900   -1    0    0    0    0 -0.00000000000E+00 -0.00000000000E+00 -0.74505805969E-08  0.93827000000E+00  0.93827000000E+00 0.  1.
     999902    2    1    2    0    0  0.54760372348E-02 -0.64761914340E-02  0.21600435412E-01  0.10207242497E+01  0.10204604289E+01 0.  0.
     999903    2    3    3    0    0 -0.16493689242E-01  0.61179079713E-01  0.10837852415E+00  0.13359948882E+00  0.45694609493E-01 0.  0.
         14    1    1    2    0    0 -0.54760372348E-02  0.64761914340E-02 -0.21600435412E-01  0.23205750349E-01  0.00000000000E+00 0. -1.
     999901    1    3    3    0    0  0.21969726476E-01 -0.67655271147E-01 -0.86778088737E-01  0.88712476083E+00  0.88000000000E+00 0.  1.
        -11    1    4    4    0    0 -0.18624254258E-01  0.97279627254E-02  0.57441726835E-01  0.61166242391E-01  0.51100000000E-03 0. -1.
         11    1    4    4    0    0  0.21305650160E-02  0.51451116987E-01  0.50936797315E-01  0.72433246429E-01  0.51100000000E-03 0.  1.
</event>
<event>
 8    1  0.2927513E+004  0.1043930E+01  0.7957747E-01            NaN
         13   -1    0    0    0    0  0.00000000000E+00  0.00000000000E+00  0.74505805969E-08  0.10566000000E+00  0.10566000000E+00 0. -1.
     999900   -1    0    0    0    0 -0.00000000000E+00 -0.00000000000E+00 -0.74505805969E-08  0.93827000000E+00  0.93827000000E+00 0.  1.
     999902    2    1    2    0    0 -0.56146926459E-03  0.95686404038E-02 -0.84682286405E-02  0.10311399639E+01  0.10310606384E+01 0.  0.
     999903    2    3    3    0    0 -0.59846382940E-01 -0.86584968029E-01  0.79870630136E-01  0.13953244298E+00  0.44849067397E-01 0.  0.
         14    1    1    2    0    0  0.56146926459E-03 -0.95686404038E-02  0.84682286405E-02  0.12790036091E-01  0.00000000000E+00 0. -1.
     999901    1    3    3    0    0  0.59284913676E-01  0.96153608433E-01 -0.88338858777E-01  0.89160752093E+00  0.88000000000E+00 0.  1.
        -11    1    4    4    0    0 -0.11898116029E-01 -0.53194348271E-01  0.27447492166E-01  0.61031383732E-01  0.51100000000E-03 0.  1.
         11    1    4    4    0    0 -0.47948266911E-01 -0.33390619758E-01  0.52423137971E-01  0.78501059250E-01  0.51100000000E-03 0. -1.
</event>
<event>
 8    1  0.2927513E+004  0.1043930E+01  0.7957747E-01            NaN
         13   -1    0    0    0    0  0.00000000000E+00  0.00000000000E+00  0.74505805969E-08  0.10566000000E+00  0.10566000000E+00 0.  1.
     999900   -1    0    0    0    0 -0.00000000000E+00 -0.00000000000E+00 -0.74505805969E-08  0.93827000000E+00  0.93827000000E+00 0.  1.
     999902    2    1    2    0    0 -0.95874838333E-02 -0.13549388897E-02 -0.10307194606E-01  0.10297880777E+01  0.10296909687E+01 0.  0.
     999903    2    3    3    0    0  0.48198639763E-01  0.12215552359E-01 -0.12407567427E+00  0.14048123455E+00  0.43218927802E-01 0.  0.
         14    1    1    2    0    0  0.95874838333E-02  0.13549388897E-02  0.10307194606E-01  0.14141922299E-01  0.00000000000E+00 0.  1.
     999901    1    3    3    0    0 -0.57786123596E-01 -0.13570491248E-01  0.11376847966E+00  0.88930684315E+00  0.88000000000E+00 0. -1.
        -11    1    4    4    0    0  0.52538627613E-02  0.16583605804E-01 -0.65150228771E-01  0.67434653445E-01  0.51100000000E-03 0. -1.
         11    1    4    4    0    0  0.42944777002E-01 -0.43680534457E-02 -0.58925445499E-01  0.73046581104E-01  0.51100000000E-03 0.  1.
</event>
<event>
 8    1  0.2927513E+004  0.1043930E+01  0.7957747E-01            NaN
         13   -1    0    0    0    0  0.00000000000E+00  0.00000000000E+00  0.74505805969E-08  0.10566000000E+00  0.10566000000E+00 0.  1.
     999900   -1    0    0    0    0 -0.00000000000E+00 -0.00000000000E+00 -0.74505805969E-08  0.93827000000E+00  0.93827000000E+00 0. -1.
     999902    2    1    2    0    0 -0.13010034867E-01  0.40435283194E-02 -0.24195272254E-03  0.10303039342E+01  0.10302138259E+01 0.  0.
     999903    2    3    3    0    0 -0.18054526062E-01  0.11538608041E+00  0.64884069538E-01  0.14088614171E+00  0.44710725589E-01 0.  0.
         14    1    1    2    0    0  0.13010034867E-01 -0.40435283194E-02  0.24195272254E-03  0.13626065817E-01  0.00000000000E+00 0. -1.
     999901    1    3    3    0    0  0.50444911946E-02 -0.11134255209E+00 -0.65126022261E-01  0.88941779248E+00  0.88000000000E+00 0. -1.
        -11    1    4    4    0    0 -0.28812849350E-01  0.45730260897E-01  0.34555942855E-01  0.64154589524E-01  0.51100000000E-03 0.  1.
         11    1    4    4    0    0  0.10758323288E-01  0.69655819509E-01  0.30328126683E-01  0.76731552184E-01  0.51100000000E-03 0. -1.
</event>
<event>
 8    1  0.2927513E+004  0.1043930E+01  0.7957747E-01            NaN
         13   -1    0    0    0    0  0.00000000000E+00  0.00000000000E+00  0.74505805969E-08  0.10566000000E+00  0.10566000000E+00 0.  1.
     999900   -1    0    0    0    0 -0.00000000000E+00 -0.00000000000E+00 -0.74505805969E-08  0.93827000000E+00  0.93827000000E+00 0. -1.
     999902    2    1    2    0    0 -0.21986034391E-02 -0.81868649226E-02 -0.11540682701E-01  0.10296105736E+01  0.10295109943E+01 0.  0.
     999903    2    3    3    0    0 -0.10217652538E+00 -0.73989237113E-01  0.40848811937E-01  0.13996446634E+00  0.44799295256E-01 0.  0.
         14    1    1    2    0    0  0.21986034391E-02  0.81868649226E-02  0.11540682701E-01  0.14319426370E-01  0.00000000000E+00 0.  1.
     999901    1    3    3    0    0  0.99977921939E-01  0.65802372190E-01 -0.52389494639E-01  0.88964610729E+00  0.88000000000E+00 0. -1.
        -11    1    4    4    0    0 -0.77183006185E-01 -0.76153596471E-01  0.37061649295E-01  0.11458801713E+00  0.51100000000E-03 0. -1.
         11    1    4    4    0    0 -0.24993519193E-01  0.21643593582E-02  0.37871626420E-02  0.25376449219E-01  0.51100000000E-03 0.  1.
</event>
<event>
 8    1  0.2927513E+004  0.1043930E+01  0.7957747E-01            NaN
         13   -1    0    0    0    0  0.00000000000E+00  0.00000000000E+00  0.74505805969E-08  0.10566000000E+00  0.10566000000E+00 0.  1.
     999900   -1    0    0    0    0 -0.00000000000E+00 -0.00000000000E+00 -0.74505805969E-08  0.93827000000E+00  0.93827000000E+00 0.  1.
     999902    2    1    2    0    0  0.83159656662E-02  0.83443647421E-02  0.68306384276E-02  0.10303123156E+01  0.10302223189E+01 0.  0.
     999903    2    3    3    0    0  0.14357494159E-02  0.38227573691E-01  0.12821242480E+00  0.14145131315E+00  0.45898141069E-01 0.  0.
         14    1    1    2    0    0 -0.83159656662E-02 -0.83443647421E-02 -0.68306384276E-02  0.13617684430E-01  0.00000000000E+00 0. -1.
     999901    1    3    3    0    0  0.68802162504E-02 -0.29883208949E-01 -0.12138178637E+00  0.88886100242E+00  0.88000000000E+00 0.  1.
        -11    1    4    4    0    0  0.18063695760E-01  0.39092143388E-01  0.90601585918E-01  0.10031650548E+00  0.51100000000E-03 0.  1.
         11    1    4    4    0    0 -0.16627946344E-01 -0.86456969642E-03  0.37610838881E-01  0.41134807678E-01  0.51100000000E-03 0. -1.
</event>
<event>
 8    1  0.2927513E+004  0.1043930E+01  0.7957747E-01            NaN
         13   -1    0    0    0    0  0.00000000000E+00  0.00000000000E+00  0.74505805969E-08  0.10566000000E+00  0.10566000000E+00 0.  1.
     999900   -1    0    0    0    0 -0.00000000000E+00 -0.00000000000E+00 -0.74505805969E-08  0.93827000000E+00  0.93827000000E+00 0. -1.
     999902    2    1    2    0    0 -0.74912474502E-02  0.50561211427E-02 -0.94197206552E-02  0.10308757177E+01  0.10307930593E+01 0.  0.
     999903    2    3    3    0    0 -0.11802203182E+00 -0.42377899429E-02 -0.64675711199E-01  0.14219317844E+00  0.45703320638E-01 0.  0.
         14    1    1    2    0    0  0.74912474502E-02 -0.50561211427E-02  0.94197206552E-02  0.13054282309E-01  0.00000000000E+00 0.  1.
     999901    1    3    3    0    0  0.11053078437E+00  0.92939110856E-02  0.55255990544E-01  0.88868253925E+00  0.88000000000E+00 0.  1.
        -11    1    4    4    0    0 -0.37022855282E-01 -0.19466763881E-02 -0.45915472063E-01  0.59016718461E-01  0.51100000000E-03 0. -1.
         11    1    4    4    0    0 -0.80999176539E-01 -0.22911135548E-02 -0.18760239136E-01  0.83176459980E-01  0.51100000000E-03 0.  1.
</event>
<event>
 8    1  0.2927513E+004  0.1043930E+01  0.7957747E-01            NaN
         13   -1    0    0    0    0  0.00000000000E+00  0.00000000000E+00  0.74505805969E-08  0.10566000000E+00  0.10566000000E+00 0. -1.
     999900   -1    0    0    0    0 -0.00000000000E+00 -0.00000000000E+00 -0.74505805969E-08  0.93827000000E+00  0.93827000000E+00 0.  1.
     999902    2    1    2    0    0  0.83859731193E-02 -0.10323217920E-02  0.12682053286E-01  0.10286910791E+01  0.10285781991E+01 0.  0.
     999903    2    3    3    0    0 -0.12075284221E+00  0.43987016727E-01 -0.19615280135E-01  0.13754199385E+00  0.44910291873E-01 0.  0.
         14    1    1    2    0    0 -0.83859731193E-02  0.10323217920E-02 -0.12682053286E-01  0.15238920860E-01  0.00000000000E+00 0.  1.
     999901    1    3    3    0    0  0.12913881533E+00 -0.45019338519E-01  0.32297333421E-01  0.89114908529E+00  0.88000000000E+00 0.  1.
        -11    1    4    4    0    0 -0.82695312668E-01  0.31817872602E-01 -0.34237867530E-01  0.94991496715E-01  0.51100000000E-03 0. -1.
         11    1    4    4    0    0 -0.38057529540E-01  0.12169144125E-01  0.14622587395E-01  0.42550497136E-01  0.51100000000E-03 0.  1.
</event>
<event>
 8    1  0.2927513E+004  0.1043930E+01  0.7957747E-01            NaN
         13   -1    0    0    0    0  0.00000000000E+00  0.00000000000E+00  0.74505805969E-08  0.10566000000E+00  0.10566000000E+00 0. -1.
     999900   -1    0    0    0    0 -0.00000000000E+00 -0.00000000000E+00 -0.74505805969E-08  0.93827000000E+00  0.93827000000E+00 0.  1.
     999902    2    1    2    0    0  0.13788018651E-01 -0.22522634367E-03  0.93118235245E-03  0.10301087379E+01  0.10300160118E+01 0.  0.
     999903    2    3    3    0    0 -0.73625769796E-01  0.44084803264E-01 -0.99080716764E-01  0.13903807343E+00  0.46372120621E-01 0.  0.
         14    1    1    2    0    0 -0.13788018651E-01  0.22522634367E-03 -0.93118235245E-03  0.13821262091E-01  0.00000000000E+00 0.  1.
     999901    1    3    3    0    0  0.87413788447E-01 -0.44310029608E-01  0.10001189912E+00  0.89107066448E+00  0.88000000000E+00 0. -1.
        -11    1    4    4    0    0 -0.21118340091E-01  0.37513143228E-02 -0.56192314792E-01  0.60148931911E-01  0.51100000000E-03 0.  1.
         11    1    4    4    0    0 -0.52507429706E-01  0.40333488941E-01 -0.42888401972E-01  0.78889141516E-01  0.51100000000E-03 0. -1.
</event>
<event>
 8    1  0.2927513E+004  0.1043930E+01  0.7957747E-01            NaN
         13   -1    0    0    0    0  0.00000000000E+00  0.00000000000E+00  0.74505805969E-08  0.10566000000E+00  0.10566000000E+00 0. -1.
     999900   -1    0    0    0    0 -0.00000000000E+00 -0.00000000000E+00 -0.74505805969E-08  0.93827000000E+00  0.93827000000E+00 0.  1.
     999902    2    1    2    0    0  0.38991040418E-02  0.10632428999E-01  0.81946798278E-02  0.10299512899E+01  0.10298564246E+01 0.  0.
     999903    2    3    3    0    0  0.37965947538E-02  0.12869437901E+00  0.37278120590E-01  0.14159073186E+00  0.45624771264E-01 0.  0.
         14    1    1    2    0    0 -0.38991040418E-02 -0.10632428999E-01 -0.81946798278E-02  0.13978710106E-01  0.00000000000E+00 0.  1.
     999901    1    3    3    0    0  0.10250928799E-03 -0.11806195001E+00 -0.29083440762E-01  0.88836055804E+00  0.88000000000E+00 0.  1.
        -11    1    4    4    0    0 -0.97827441477E-02  0.55407299706E-01  0.36466088468E-01  0.67050038575E-01  0.51100000000E-03 0.  1.
         11    1    4    4    0    0  0.13579338901E-01  0.73287079303E-01  0.81203212182E-03  0.74540693282E-01  0.51100000000E-03 0. -1.
</event>
<event>
 8    1  0.2927513E+004  0.1043930E+01  0.7957747E-01            NaN
         13   -1    0    0    0    0  0.00000000000E+00  0.00000000000E+00  0.74505805969E-08  0.10566000000E+00  0.10566000000E+00 0.  1.
     999900   -1    0    0    0    0 -0.00000000000E+00 -0.00000000000E+00 -0.74505805969E-08  0.93827000000E+00  0.93827000000E+00 0.  1.
     999902    2    1    2    0    0 -0.54215531501E-02  0.13042151864E-01  0.29235222831E-03  0.10298028476E+01  0.10297059428E+01 0.  0.
     999903    2    3    3    0    0  0.46027845383E-01  0.48413096442E-01  0.11470140556E+00  0.14020317599E+00  0.45145627283E-01 0.  0.
         14    1    1    2    0    0  0.54215531501E-02 -0.13042151864E-01 -0.29235222831E-03  0.14127152354E-01  0.00000000000E+00 0. -1.
     999901    1    3    3    0    0 -0.51449398533E-01 -0.35370944578E-01 -0.11440905333E+00  0.88959967166E+00  0.88000000000E+00 0. -1.
        -11    1    4    4    0    0  0.29047131591E-01  0.71195638313E-02  0.73874777550E-01  0.79700488843E-01  0.51100000000E-03 0. -1.
         11    1    4    4    0    0  0.16980713792E-01  0.41293532611E-01  0.40826628007E-01  0.60502687145E-01  0.51100000000E-03 0.  1.
</event>
<event>
 8    1  0.2927513E+004  0.1043930E+01  0.7957747E-01            NaN
         13   -1    0    0    0    0  0.00000000000E+00  0.00000000000E+00  0.74505805969E-08  0.10566000000E+00  0.10566000000E+00 0. -1.
     999900   -1    0    0    0    0 -0.00000000000E+00 -0.00000000000E+00 -0.74505805969E-08  0.93827000000E+00  0.93827000000E+00 0. -1.
     999902    2    1    2    0    0  0.96979514595E-02  0.84112880176E-02 -0.45006431888E-02  0.10303264777E+01  0.10302366694E+01 0.  0.
     999903    2    3    3    0    0 -0.44769581347E-01 -0.79956664047E-01 -0.95654111800E-01  0.13954897358E+00  0.43895596410E-01 0.  0.
         14    1    1    2    0    0 -0.96979514595E-02 -0.84112880176E-02  0.45006431888E-02  0.13603522255E-01  0.00000000000E+00 0. -1.
     999901    1    3    3    0    0  0.54467532806E-01  0.88367952065E-01  0.91153468611E-01  0.89077750416E+00  0.88000000000E+00 0.  1.
        -11    1    4    4    0    0 -0.17913307948E-01 -0.23873272977E-01 -0.62070838938E-01  0.68875757214E-01  0.51100000000E-03 0.  1.
         11    1    4    4    0    0 -0.26856273399E-01 -0.56083391070E-01 -0.33583272862E-01  0.70673216369E-01  0.51100000000E-03 0. -1.
</event>
<event>
 8    1  0.2927513E+004  0.1043930E+01  0.7957747E-01            NaN
         13   -1    0    0    0    0  0.00000000000E+00  0.00000000000E+00  0.74505805969E-08  0.10566000000E+00  0.10566000000E+00 0. -1.
     999900   -1    0    0    0    0 -0.00000000000E+00 -0.00000000000E+00 -0.74505805969E-08  0.93827000000E+00  0.93827000000E+00 0. -1.
     999902    2    1    2    0    0  0.77275208814E-02  0.97304217890E-02  0.69974424383E-02  0.10296695692E+01  0.10295708143E+01 0.  0.
     999903    2    3    3    0    0 -0.12880426984E+00 -0.16266281757E-01  0.19582595273E-01  0.13867285505E+00  0.44626795070E-01 0.  0.
         14    1    1    2    0    0 -0.77275208814E-02 -0.97304217890E-02 -0.69974424383E-02  0.14260430843E-01  0.00000000000E+00 0. -1.
     999901    1    3    3    0    0  0.13653179073E+00  0.25996703546E-01 -0.12585152834E-01  0.89099671410E+00  0.88000000000E+00 0. -1.
        -11    1    4    4    0    0 -0.96216506511E-01  0.79792209550E-02  0.16357326468E-01  0.97923987574E-01  0.51100000000E-03 0. -1.
         11    1    4    4    0    0 -0.32587763334E-01 -0.24245502712E-01  0.32252688050E-02  0.40748867478E-01  0.51100000000E-03 0.  1.
</event>
<event>
 8    1  0.2927513E+004  0.1043930E+01  0.7957747E-01            NaN
         13   -1    0    0    0    0  0.00000000000E+00  0.00000000000E+00  0.74505805969E-08  0.10566000000E+00  0.10566000000E+00 0.  1.
     999900   -1    0    0    0    0 -0.00000000000E+00 -0.00000000000E+00 -0.74505805969E-08  0.93827000000E+00  0.93827000000E+00 0.  1.
     999902    2    1    2    0    0 -0.23937906366E-02 -0.93927449142E-02 -0.79822955787E-02  0.10313732913E+01  0.10312968511E+01 0.  0.
     999903    2    3    3    0    0 -0.16228533215E-01  0.17124049212E-01  0.13001594624E+00  0.14011684380E+00  0.46604562941E-01 0.  0.
         14    1    1    2    0    0  0.23937906366E-02  0.93927449142E-02  0.79822955787E-02  0.12556708699E-01  0.00000000000E+00 0.  1.
     999901    1    3    3    0    0  0.13834742578E-01 -0.26516794126E-01 -0.13799824182E+00  0.89125644750E+00  0.88000000000E+00 0.  1.
        -11    1    4    4    0    0 -0.21665771165E-01  0.30766605357E-02  0.21928726568E-01  0.30983893398E-01  0.51100000000E-03 0.  1.
         11    1    4    4    0    0  0.54372379499E-02  0.14047388676E-01  0.10808721967E+00  0.10913295040E+00  0.51100000000E-03 0. -1.
</event>
<event>
 8    1  0.2927513E+004  0.1043930E+01  0.7957747E-01            NaN
         13   -1    0    0    0    0  0.00000000000E+00  0.00000000000E+00  0.74505805969E-08  0.10566000000E+00  0.10566000000E+00 0. -1.
     999900   -1    0    0    0    0 -0.00000000000E+00 -0.00000000000E+00 -0.74505805969E-08  0.93827000000E+00  0.93827000000E+00 0.  1.
     999902    2    1    2    0    0  0.74554123773E-02 -0.12618481816E-01 -0.13518101127E-02  0.10292114183E+01  0.10291061689E+01 0.  0.
     999903    2    3    3    0    0 -0.30124523136E-01  0.53857284925E-01 -0.11578006383E+00  0.13852342333E+00  0.44447965029E-01 0.  0.
         14    1    1    2    0    0 -0.74554123773E-02  0.12618481816E-01  0.13518101127E-02  0.14718581713E-01  0.00000000000E+00 0. -1.
     999901    1    3    3    0    0  0.37579935514E-01 -0.66475766741E-01  0.11442825372E+00  0.89068799496E+00  0.88000000000E+00 0. -1.
        -11    1    4    4    0    0 -0.14993120346E-01  0.35676385412E-01 -0.10613924927E+00  0.11297521627E+00  0.51100000000E-03 0.  1.
         11    1    4    4    0    0 -0.15131402790E-01  0.18180899513E-01 -0.96408145616E-02  0.25548207059E-01  0.51100000000E-03 0. -1.
</event>
<event>
 8    1  0.2927513E+004  0.1043930E+01  0.7957747E-01            NaN
         13   -1    0    0    0    0  0.00000000000E+00  0.00000000000E+00  0.74505805969E-08  0.10566000000E+00  0.10566000000E+00 0.  1.
     999900   -1    0    0    0    0 -0.00000000000E+00 -0.00000000000E+00 -0.74505805969E-08  0.93827000000E+00  0.93827000000E+00 0. -1.
     999902    2    1    2    0    0  0.27565312207E-02  0.36538499194E-02  0.14314085103E-01  0.10289019557E+01  0.10287922007E+01 0.  0.
     999903    2    3    3    0    0 -0.16508128132E-01 -0.21517260131E-01  0.12997028988E+00  0.14076848059E+00  0.46775828147E-01 0.  0.
         14    1    1    2    0    0 -0.27565312207E-02 -0.36538499194E-02 -0.14314085103E-01  0.15028044315E-01  0.00000000000E+00 0. -1.
     999901    1    3    3    0    0  0.19264659353E-01  0.25171110050E-01 -0.11565620478E+00  0.88813347509E+00  0.88000000000E+00 0. -1.
        -11    1    4    4    0    0  0.36045184815E-02 -0.27516138093E-01  0.10251543650E+00  0.10620643225E+00  0.51100000000E-03 0. -1.
         11    1    4    4    0    0 -0.20112646614E-01  0.59988779621E-02  0.27454853377E-01  0.34562048341E-01  0.51100000000E-03 0.  1.
</event>
<event>
 8    1  0.2927513E+004  0.1043930E+01  0.7957747E-01            NaN
         13   -1    0    0    0    0  0.00000000000E+00  0.00000000000E+00  0.74505805969E-08  0.10566000000E+00  0.10566000000E+00 0.  1.
     999900   -1    0    0    0    0 -0.00000000000E+00 -0.00000000000E+00 -0.74505805969E-08  0.93827000000E+00  0.93827000000E+00 0.  1.
     999902    2    1    2    0    0  0.43827656986E-02 -0.40262592129E-02 -0.13310753773E-01  0.10293493428E+01  0.10292460707E+01 0.  0.
     999903    2    3    3    0    0  0.30593498334E-01 -0.12760152352E+00 -0.20565664555E-01  0.14029901679E+00  0.45196865017E-01 0.  0.
         14    1    1    2    0    0 -0.43827656986E-02  0.40262592129E-02  0.13310753773E-01  0.14580657201E-01  0.00000000000E+00 0.  1.
     999901    1    3    3    0    0 -0.26210732636E-01  0.12357526431E+00  0.72549107816E-02  0.88905032601E+00  0.88000000000E+00 0.  1.
        -11    1    4    4    0    0  0.34948094176E-01 -0.57188045432E-01 -0.78176554897E-03  0.67027711472E-01  0.51100000000E-03 0.  1.
         11    1    4    4    0    0 -0.43545958414E-02 -0.70413478088E-01 -0.19783899006E-01  0.73271305313E-01  0.51100000000E-03 0. -1.
</event>
<event>
 7    1  0.2927513E+004  0.1043930E+01  0.7957747E-01            NaN
         13   -1    0    0    0    0  0.00000000000E+00  0.00000000000E+00  0.74505805969E-08  0.10566000000E+00  0.10566000000E+00 0. -1.
     999900   -1    0    0    0    0 -0.00000000000E+00 -0.00000000000E+00 -0.74505805969E-08  0.93827000000E+00  0.93827000000E+00 0. -1.
     999903    2    1    2    0    0 -0.99928020233E-01  0.43507831720E-01  0.10315402845E-02  0.11847186786E+00  0.46432518238E-01 0.  0.
         14    1    1    2    0    0  0.58115332403E-02 -0.36070282051E-01 -0.16925655707E-01  0.40265580673E-01  0.00000000000E+00 0.  1.
     999901    1    1    2    0    0  0.94116486993E-01 -0.74375496692E-02  0.15894115423E-01  0.88519255147E+00  0.88000000000E+00 0. -1.
        -11    1    3    3    0    0 -0.62584640563E-01  0.11229992566E-01 -0.17164998913E-01  0.65862343384E-01  0.51100000000E-03 0. -1.
         11    1    3    3    0    0 -0.37343379670E-01  0.32277839155E-01  0.18196539197E-01  0.52609524475E-01  0.51100000000E-03 0.  1.
</event>
<event>
 8    1  0.2927513E+004  0.1043930E+01  0.7957747E-01            NaN
         13   -1    0    0    0    0  0.00000000000E+00  0.00000000000E+00  0.74505805969E-08  0.10566000000E+00  0.10566000000E+00 0. -1.
     999900   -1    0    0    0    0 -0.00000000000E+00 -0.00000000000E+00 -0.74505805969E-08  0.93827000000E+00  0.93827000000E+00 0.  1.
     999902    2    1    2    0    0 -0.79306196190E-02 -0.82632502659E-02  0.10571595762E-01  0.10283436384E+01  0.10282255122E+01 0.  0.
     999903    2    3    3    0    0 -0.98222185135E-01  0.23955777424E-01  0.86425832581E-01  0.13989302195E+00  0.43349234447E-01 0.  0.
         14    1    1    2    0    0  0.79306196190E-02  0.82632502659E-02 -0.10571595762E-01  0.15586361649E-01  0.00000000000E+00 0.  1.
     999901    1    3    3    0    0  0.90291565516E-01 -0.32219027690E-01 -0.75854236819E-01  0.88845061641E+00  0.88000000000E+00 0.  1.
        -11    1    4    4    0    0 -0.57103346722E-01  0.25921620406E-01  0.28644949826E-01  0.68945753189E-01  0.51100000000E-03 0. -1.
         11    1    4    4    0    0 -0.41118838413E-01 -0.19658429821E-02  0.57780882755E-01  0.70947268756E-01  0.51100000000E-03 0.  1.
</event>
<event>
 8    1  0.2927513E+004  0.1043930E+01  0.7957747E-01            NaN
         13   -1    0    0    0    0  0.00000000000E+00  0.00000000000E+00  0.74505805969E-08  0.10566000000E+00  0.10566000000E+00 0.  1.
     999900   -1    0    0    0    0 -0.00000000000E+00 -0.00000000000E+00 -0.74505805969E-08  0.93827000000E+00  0.93827000000E+00 0. -1.
     999902    2    1    2    0    0 -0.63309726112E-02  0.12377233666E-01 -0.71976969129E-03  0.10300089657E+01  0.10299148869E+01 0.  0.
     999903    2    3    3    0    0 -0.10518104465E+00 -0.77511564912E-01  0.20378271873E-01  0.13967393876E+00  0.44971550505E-01 0.  0.
         14    1    1    2    0    0  0.63309726112E-02 -0.12377233666E-01  0.71976969129E-03  0.13921034294E-01  0.00000000000E+00 0.  1.
     999901    1    3    3    0    0  0.98850072039E-01  0.89888798578E-01 -0.21098041565E-01  0.89033502695E+00  0.88000000000E+00 0.  1.
        -11    1    4    4    0    0 -0.14547491180E-02 -0.40394050082E-02 -0.83071712537E-02  0.93650041673E-02  0.51100000000E-03 0.  1.
         11    1    4    4    0    0 -0.10372629553E+00 -0.73472159904E-01  0.28685443127E-01  0.13030893459E+00  0.51100000000E-03 0. -1.
</event>
<event>
 7    1  0.2927513E+004  0.1043930E+01  0.7957747E-01            NaN
         13   -1    0    0    0    0  0.00000000000E+00  0.00000000000E+00  0.74505805969E-08  0.10566000000E+00  0.10566000000E+00 0. -1.
     999900   -1    0    0    0    0 -0.00000000000E+00 -0.00000000000E+00 -0.74505805969E-08  0.93827000000E+00  0.93827000000E+00 0.  1.
     999903    2    1    2    0    0  0.98989005153E-01  0.36672385398E-01 -0.21066277122E-01  0.11622519213E+00  0.43827163520E-01 0.  0.
         14    1    1    2    0    0  0.33228376534E-02  0.91837037537E-02 -0.37412142679E-01  0.38665877522E-01  0.00000000000E+00 0.  1.
     999901    1    1    2    0    0 -0.10231184281E+00 -0.45856089151E-01  0.58478419801E-01  0.88903893035E+00  0.88000000000E+00 0.  1.
        -11    1    3    3    0    0  0.52501385455E-01  0.24135489859E-01 -0.33098508199E-01  0.66593465981E-01  0.51100000000E-03 0.  1.
         11    1    3    3    0    0  0.46487619698E-01  0.12536895538E-01  0.12032231077E-01  0.49631726150E-01  0.51100000000E-03 0. -1.
</event>
<event>
 8    1  0.2927513E+004  0.1043930E+01  0.7957747E-01            NaN
         13   -1    0    0    0    0  0.00000000000E+00  0.00000000000E+00  0.74505805969E-08  0.10566000000E+00  0.10566000000E+00 0.  1.
     999900   -1    0    0    0    0 -0.00000000000E+00 -0.00000000000E+00 -0.74505805969E-08  0.93827000000E+00  0.93827000000E+00 0.  1.
     999902    2    1    2    0    0  0.99595046897E-02 -0.77073961804E-02 -0.43963379431E-03  0.10313288506E+01  0.10312518650E+01 0.  0.
     999903    2    3    3    0    0 -0.53828454127E-01  0.12062909095E+00  0.62873751010E-02  0.13970986788E+00  0.45060359964E-01 0.  0.
         14    1    1    2    0    0 -0.99595046897E-02  0.77073961804E-02  0.43963379431E-03  0.12601149448E-01  0.00000000000E+00 0.  1.
     999901    1    3    3    0    0  0.63787958817E-01 -0.12833648713E+00 -0.67270088953E-02  0.89161898268E+00  0.88000000000E+00 0.  1.
        -11    1    4    4    0    0 -0.37528691652E-01  0.72670323894E-01  0.25284472713E-01  0.85609253900E-01  0.51100000000E-03 0.  1.
         11    1    4    4    0    0 -0.16299762475E-01  0.47958767053E-01 -0.18997097612E-01  0.54100613977E-01  0.51100000000E-03 0. -1.
</event>
<event>
 8    1  0.2927513E+004  0.1043930E+01  0.7957747E-01            NaN
         13   -1    0    0    0    0  0.00000000000E+00  0.00000000000E+00  0.74505805969E-08  0.10566000000E+00  0.10566000000E+00 0.  1.
     999900   -1    0    0    0    0 -0.00000000000E+00 -0.00000000000E+00 -0.74505805969E-08  0.93827000000E+00  0.93827000000E+00 0.  1.
     999902    2    1    2    0    0 -0.96179958980E-02  0.78355977628E-02  0.49375902677E-02  0.10305777629E+01  0.10304912630E+01 0.  0.
     999903    2    3    3    0    0  0.57123845012E-01 -0.11457822986E+00  0.17783180958E-01  0.13950838979E+00  0.52488521331E-01 0.  0.
         14    1    1    2    0    0  0.96179958980E-02 -0.78355977628E-02 -0.49375902677E-02  0.13352237080E-01  0.00000000000E+00 0. -1.
     999901    1    3    3    0    0 -0.66741840910E-01  0.12241382762E+00 -0.12845590690E-01  0.89106937312E+00  0.88000000000E+00 0.  1.
        -11    1    4    4    0    0  0.62621659218E-01 -0.75730940123E-01  0.19696466456E-01  0.10022404605E+00  0.51100000000E-03 0. -1.
         11    1    4    4    0    0 -0.54978142065E-02 -0.38847289737E-01 -0.19132854981E-02  0.39284343743E-01  0.51100000000E-03 0.  1.
</event>
<event>
 8    1  0.2927513E+004  0.1043930E+01  0.7957747E-01            NaN
         13   -1    0    0    0    0  0.00000000000E+00  0.00000000000E+00  0.74505805969E-08  0.10566000000E+00  0.10566000000E+00 0.  1.
     999900   -1    0    0    0    0 -0.00000000000E+00 -0.00000000000E+00 -0.74505805969E-08  0.93827000000E+00  0.93827000000E+00 0.  1.
     999902    2    1    2    0    0  0.12617509284E-01  0.13726659681E-01 -0.11500323344E-01  0.10220238328E+01  0.10217890362E+01 0.  0.
     999903    2    3    3    0    0  0.10687764466E+00  0.69466897296E-01 -0.51876550449E-02  0.13521393374E+00  0.44804189122E-01 0.  0.
         14    1    1    2    0    0 -0.12617509284E-01 -0.13726659681E-01  0.11500323344E-01  0.21906167249E-01  0.00000000000E+00 0.  1.
     999901    1    3    3    0    0 -0.94260135378E-01 -0.55740237615E-01 -0.63126682988E-02  0.88680989902E+00  0.88000000000E+00 0.  1.
        -11    1    4    4    0    0  0.70509772393E-01  0.66787749278E-01  0.53011803376E-02  0.97265590475E-01  0.51100000000E-03 0.  1.
         11    1    4    4    0    0  0.36367872269E-01  0.26791480174E-02 -0.10488835383E-01  0.37948343260E-01  0.51100000000E-03 0. -1.
</event>
<event>
 7    1  0.2927513E+004  0.1043930E+01  0.7957747E-01            NaN
         13   -1    0    0    0    0  0.00000000000E+00  0.00000000000E+00  0.74505805969E-08  0.10566000000E+00  0.10566000000E+00 0.  1.
     999900   -1    0    0    0    0 -0.00000000000E+00 -0.00000000000E+00 -0.74505805969E-08  0.93827000000E+00  0.93827000000E+00 0. -1.
     999903    2    1    2    0    0 -0.70929982750E-01  0.34726312341E-01 -0.35602157933E-01  0.96183712082E-01  0.41794899196E-01 0.  0.
         14    1    1    2    0    0  0.29355321727E-01 -0.57003106348E-01 -0.11862389610E-01  0.65205868864E-01  0.00000000000E+00 0. -1.
     999901    1    1    2    0    0  0.41574661023E-01  0.22276794007E-01  0.47464547543E-01  0.88254041905E+00  0.88000000000E+00 0.  1.
        -11    1    3    3    0    0 -0.18639367129E-01  0.31938394143E-01 -0.15021205149E-01  0.39917223758E-01  0.51100000000E-03 0. -1.
         11    1    3    3    0    0 -0.52290615621E-01  0.27879181981E-02 -0.20580952784E-01  0.56266488325E-01  0.51100000000E-03 0.  1.
</event>
<event>
 8    1  0.2927513E+004  0.1043930E+01  0.7957747E-01            NaN
         13   -1    0    0    0    0  0.00000000000E+00  0.00000000000E+00  0.74505805969E-08  0.10566000000E+00  0.10566000000E+00 0.  1.
     999900   -1    0    0    0    0 -0.00000000000E+00 -0.00000000000E+00 -0.74505805969E-08  0.93827000000E+00  0.93827000000E+00 0.  1.
     999902    2    1    2    0    0  0.84239805253E-02 -0.23847893225E-02  0.11617870091E-01  0.10293826438E+01  0.10292798462E+01 0.  0.
     999903    2    3    3    0    0  0.13232990564E+00  0.67610063841E-02  0.14930247040E-01  0.14064910907E+00  0.44747563853E-01 0.  0.
         14    1    1    2    0    0 -0.84239805253E-02  0.23847893225E-02 -0.11617870091E-01  0.14547356236E-01  0.00000000000E+00 0. -1.
     999901    1    3    3    0    0 -0.12390592511E+00 -0.91457957066E-02 -0.33123769485E-02  0.88873353470E+00  0.88000000000E+00 0.  1.
        -11    1    4    4    0    0  0.43704888199E-01  0.17683525920E-01 -0.94422069337E-02  0.48085764362E-01  0.51100000000E-03 0.  1.
         11    1    4    4    0    0  0.88625017438E-01 -0.10922519536E-01  0.24372453974E-01  0.92563344703E-01  0.51100000000E-03 0. -1.
</event>
<event>
 8    1  0.2927513E+004  0.1043930E+01  0.7957747E-01            NaN
         13   -1    0    0    0    0  0.00000000000E+00  0.00000000000E+00  0.74505805969E-08  0.10566000000E+00  0.10566000000E+00 0. -1.
     999900   -1    0    0    0    0 -0.00000000000E+00 -0.00000000000E+00 -0.74505805969E-08  0.93827000000E+00  0.93827000000E+00 0.  1.
     999902    2    1    2    0    0  0.48692542669E-02 -0.46963314947E-02  0.11853669696E-01  0.10302817528E+01  0.10301913490E+01 0.  0.
     999903    2    3    3    0    0 -0.11987366927E+00 -0.24966316833E-01  0.51329289927E-01  0.14037726698E+00  0.45585825863E-01 0.  0.
         14    1    1    2    0    0 -0.48692542669E-02  0.46963314947E-02 -0.11853669696E-01  0.13648247209E-01  0.00000000000E+00 0.  1.
     999901    1    3    3    0    0  0.12474292354E+00  0.20269985339E-01 -0.39475620231E-01  0.88990448581E+00  0.88000000000E+00 0. -1.
        -11    1    4    4    0    0 -0.12196854208E+00 -0.29630946254E-01  0.49263640712E-01  0.13483873943E+00  0.51100000000E-03 0.  1.
         11    1    4    4    0    0  0.20948728126E-02  0.46646294212E-02  0.20656492158E-02  0.55385275499E-02  0.51100000000E-03 0. -1.
</event>
<event>
 8    1  0.2927513E+004  0.1043930E+01  0.7957747E-01            NaN
         13   -1    0    0    0    0  0.00000000000E+00  0.00000000000E+00  0.74505805969E-08  0.10566000000E+00  0.10566000000E+00 0. -1.
     999900   -1    0    0    0    0 -0.00000000000E+00 -0.00000000000E+00 -0.74505805969E-08  0.93827000000E+00  0.93827000000E+00 0.  1.
     999902    2    1    2    0    0  0.86126975681E-03  0.14288363890E-01  0.14995336326E-01  0.10231993647E+01  0.10229893356E+01 0.  0.
     999903    2    3    3    0    0 -0.69567284023E-01 -0.43220970512E-02  0.10697197137E+00  0.13541209748E+00  0.45112591989E-01 0.  0.
         14    1    1    2    0    0 -0.86126975681E-03 -0.14288363890E-01 -0.14995336326E-01  0.20730635295E-01  0.00000000000E+00 0.  1.
     999901    1    3    3    0    0  0.70428553780E-01  0.18610460941E-01 -0.91976635049E-01  0.88778726722E+00  0.88000000000E+00 0.  1.
        -11    1    4    4    0    0 -0.19818436172E-01  0.98747602607E-02  0.65379601636E-01  0.69029231008E-01  0.51100000000E-03 0.  1.
         11    1    4    4    0    0 -0.49748847851E-01 -0.14196857312E-01  0.41592369739E-01  0.66382866476E-01  0.51100000000E-03 0. -1.
</event>
<event>
 8    1  0.2927513E+004  0.1043930E+01  0.7957747E-01            NaN
         13   -1    0    0    0    0  0.00000000000E+00  0.00000000000E+00  0.74505805969E-08  0.10566000000E+00  0.10566000000E+00 0. -1.
     999900   -1    0    0    0    0 -0.00000000000E+00 -0.00000000000E+00 -0.74505805969E-08  0.93827000000E+00  0.93827000000E+00 0. -1.
     999902    2    1    2    0    0  0.94749751838E-02 -0.45290424582E-02  0.89361171078E-02  0.10301408169E+01  0.10300485237E+01 0.  0.
     999903    2    3    3    0    0 -0.66141219443E-01 -0.11209697780E+00 -0.22984554882E-01  0.13979953468E+00  0.45554657194E-01 0.  0.
         14    1    1    2    0    0 -0.94749751838E-02  0.45290424582E-02 -0.89361171078E-02  0.13789183054E-01  0.00000000000E+00 0.  1.
     999901    1    3    3    0    0  0.75616194627E-01  0.10756793535E+00  0.31920671990E-01  0.89034128226E+00  0.88000000000E+00 0. -1.
        -11    1    4    4    0    0 -0.48754181697E-01 -0.40383618019E-01 -0.31501603591E-02  0.63387628671E-01  0.51100000000E-03 0.  1.
         11    1    4    4    0    0 -0.17387037747E-01 -0.71713359784E-01 -0.19834394523E-01  0.76411906011E-01  0.51100000000E-03 0. -1.
</event>
<event>
 8    1  0.2927513E+004  0.1043930E+01  0.7957747E-01            NaN
         13   -1    0    0    0    0  0.00000000000E+00  0.00000000000E+00  0.74505805969E-08  0.10566000000E+00  0.10566000000E+00 0. -1.
     999900   -1    0    0    0    0 -0.00000000000E+00 -0.00000000000E+00 -0.74505805969E-08  0.93827000000E+00  0.93827000000E+00 0. -1.
     999902    2    1    2    0    0 -0.82661144790E-02  0.99135100718E-02  0.64296260780E-02  0.10295096525E+01  0.10294086546E+01 0.  0.
     999903    2    3    3    0    0  0.10785391021E-01  0.37220154635E-01  0.12752566907E+00  0.14059297231E+00  0.44742854409E-01 0.  0.
         14    1    1    2    0    0  0.82661144790E-02 -0.99135100718E-02 -0.64296260780E-02  0.14420347500E-01  0.00000000000E+00 0.  1.
     999901    1    3    3    0    0 -0.19051505500E-01 -0.27306644564E-01 -0.12109604299E+00  0.88891668019E+00  0.88000000000E+00 0. -1.
        -11    1    4    4    0    0 -0.63108355172E-02  0.38509858496E-01  0.10669862730E+00  0.11361203297E+00  0.51100000000E-03 0.  1.
         11    1    4    4    0    0  0.17096226538E-01 -0.12897038606E-02  0.20827041766E-01  0.26980939339E-01  0.51100000000E-03 0. -1.
</event>
<event>
 8    1  0.2927513E+004  0.1043930E+01  0.7957747E-01            NaN
         13   -1    0    0    0    0  0.00000000000E+00  0.00000000000E+00  0.74505805969E-08  0.10566000000E+00  0.10566000000E+00 0.  1.
     999900   -1    0    0    0    0 -0.00000000000E+00 -0.00000000000E+00 -0.74505805969E-08  0.93827000000E+00  0.93827000000E+00 0.  1.
     999902    2    1    2    0    0  0.77778914263E-02 -0.96001509772E-02 -0.33398650734E-02  0.10311310472E+01  0.10310516104E+01 0.  0.
     999903    2    3    3    0    0 -0.42028222701E-01  0.18059023062E-01  0.12463743259E+00  0.14005087818E+00  0.44578683913E-01 0.  0.
         14    1    1    2    0    0 -0.77778914263E-02  0.96001509772E-02  0.33398650734E-02  0.12798952790E-01  0.00000000000E+00 0.  1.
     999901    1    3    3    0    0  0.49806114127E-01 -0.27659174039E-01 -0.12797729767E+00  0.89108016903E+00  0.88000000000E+00 0.  1.
        -11    1    4    4    0    0  0.71152327222E-02  0.88298984794E-02  0.10597858076E-01  0.15529628477E-01  0.51100000000E-03 0.  1.
         11    1    4    4    0    0 -0.49143455423E-01  0.92291245825E-02  0.11403957452E+00  0.12452124971E+00  0.51100000000E-03 0. -1.
</event>
<event>
 8    1  0.2927513E+004  0.1043930E+01  0.7957747E-01            NaN
         13   -1    0    0    0    0  0.00000000000E+00  0.00000000000E+00  0.74505805969E-08  0.10566000000E+00  0.10566000000E+00 0. -1.
     999900   -1    0    0    0    0 -0.00000000000E+00 -0.00000000000E+00 -0.74505805969E-08  0.93827000000E+00  0.93827000000E+00 0.  1.
     999902    2    1    2    0    0  0.89908204573E-02 -0.38147591551E-02  0.10189907994E-01  0.10298154166E+01  0.10297186853E+01 0.  0.
     999903    2    3    3    0    0  0.25853901117E-02  0.13072948043E+00 -0.14771147089E-01  0.13921660893E+00  0.45455430035E-01 0.  0.
         14    1    1    2    0    0 -0.89908204573E-02  0.38147591551E-02 -0.10189907994E-01  0.14114583410E-01  0.00000000000E+00 0.  1.
     999901    1    3    3    0    0  0.64054303456E-02 -0.13454423958E+00  0.24961055083E-01  0.89059880766E+00  0.88000000000E+00 0. -1.
        -11    1    4    4    0    0  0.10673864080E-01  0.27799241513E-01  0.12697735897E-01  0.32376269411E-01  0.51100000000E-03 0. -1.
         11    1    4    4    0    0 -0.80884739680E-02  0.10293023891E+00 -0.27468882986E-01  0.10684033951E+00  0.51100000000E-03 0.  1.
</event>
<event>
 8    1  0.2927513E+004  0.1043930E+01  0.7957747E-01            NaN
         13   -1    0    0    0    0  0.00000000000E+00  0.00000000000E+00  0.74505805969E-08  0.10566000000E+00  0.10566000000E+00 0. -1.
     999900   -1    0    0    0    0 -0.00000000000E+00 -0.00000000000E+00 -0.74505805969E-08  0.93827000000E+00  0.93827000000E+00 0. -1.
     999902    2    1    2    0    0  0.88261159209E-02  0.77435109678E-02  0.78075444736E-02  0.10298296442E+01  0.10297331091E+01 0.  0.
     999903    2    3    3    0    0  0.42328299920E-01 -0.80830653241E-01  0.96872853117E-01  0.14027896650E+00  0.44368449319E-01 0.  0.
         14    1    1    2    0    0 -0.88261159209E-02 -0.77435109678E-02 -0.78075444736E-02  0.14100355849E-01  0.00000000000E+00 0.  1.
     999901    1    3    3    0    0 -0.33502183999E-01  0.88574164209E-01 -0.89065308643E-01  0.88955067765E+00  0.88000000000E+00 0. -1.
        -11    1    4    4    0    0  0.47499562099E-01 -0.71266702516E-01  0.67798257664E-01  0.10923376836E+00  0.51100000000E-03 0.  1.
         11    1    4    4    0    0 -0.51712621791E-02 -0.95639507254E-02  0.29074595453E-01  0.31045198143E-01  0.51100000000E-03 0. -1.
</event>
<event>
 8    1  0.2927513E+004  0.1043930E+01  0.7957747E-01            NaN
         13   -1    0    0    0    0  0.00000000000E+00  0.00000000000E+00  0.74505805969E-08  0.10566000000E+00  0.10566000000E+00 0.  1.
     999900   -1    0    0    0    0 -0.00000000000E+00 -0.00000000000E+00 -0.74505805969E-08  0.93827000000E+00  0.93827000000E+00 0.  1.
     999902    2    1    2    0    0  0.86133278445E-02  0.46711335116E-03 -0.94622528303E-02  0.10311260225E+01  0.10310465229E+01 0.  0.
     999903    2    3    3    0    0  0.84814318201E-01 -0.34514605474E-01  0.96699996994E-01  0.14078859495E+00  0.45670696159E-01 0.  0.
         14    1    1    2    0    0 -0.86133278445E-02 -0.46711335116E-03  0.94622528303E-02  0.12803977510E-01  0.00000000000E+00 0.  1.
     999901    1    3    3    0    0 -0.76200990357E-01  0.34981718826E-01 -0.10616224982E+00  0.89033742754E+00  0.88000000000E+00 0.  1.
        -11    1    4    4    0    0  0.28931766310E-01 -0.17742335068E-01  0.84239619512E-02  0.34972300631E-01  0.51100000000E-03 0.  1.
         11    1    4    4    0    0  0.55882551891E-01 -0.16772270406E-01  0.88276035043E-01  0.10581629432E+00  0.51100000000E-03 0. -1.
</event>
<event>
 8    1  0.2927513E+004  0.1043930E+01  0.7957747E-01            NaN
         13   -1    0    0    0    0  0.00000000000E+00  0.00000000000E+00  0.74505805969E-08  0.10566000000E+00  0.10566000000E+00 0.  1.
     999900   -1    0    0    0    0 -0.00000000000E+00 -0.00000000000E+00 -0.74505805969E-08  0.93827000000E+00  0.93827000000E+00 0.  1.
     999902    2    1    2    0    0  0.11395020883E-02  0.53925831283E-02 -0.12894779583E-01  0.10299066709E+01  0.10298111949E+01 0.  0.
     999903    2    3    3    0    0 -0.12276710185E+00 -0.38897652154E-01  0.36542602155E-01  0.13875094595E+00  0.36492116834E-01 0.  0.
         14    1    1    2    0    0 -0.11395020883E-02 -0.53925831283E-02  0.12894779583E-01  0.14023329074E-01  0.00000000000E+00 0.  1.
     999901    1    3    3    0    0  0.12390660394E+00  0.44290235282E-01 -0.49437381739E-01  0.89115572497E+00  0.88000000000E+00 0. -1.
        -11    1    4    4    0    0 -0.72624815897E-01 -0.37525791362E-01  0.33957459119E-01  0.88520726681E-01  0.51100000000E-03 0. -1.
         11    1    4    4    0    0 -0.50142285952E-01 -0.13718607920E-02  0.25851430365E-02  0.50230219271E-01  0.51100000000E-03 0.  1.
</event>
<event>
 7    1  0.2927513E+004  0.1043930E+01  0.7957747E-01            NaN
         13   -1    0    0    0    0  0.00000000000E+00  0.00000000000E+00  0.74505805969E-08  0.10566000000E+00  0.10566000000E+00 0.  1.
     999900   -1    0    0    0    0 -0.00000000000E+00 -0.00000000000E+00 -0.74505805969E-08  0.93827000000E+00  0.93827000000E+00 0.  1.
     999903    2    1    2    0    0 -0.83412225016E-02 -0.64150835981E-01 -0.42450951892E-01  0.89778988291E-01  0.45533258967E-01 0.  0.
         14    1    1    2    0    0 -0.45973104532E-01 -0.64236549930E-02 -0.45867280533E-01  0.65257927544E-01  0.00000000000E+00 0. -1.
     999901    1    1    2    0    0  0.54314327034E-01  0.70574490974E-01  0.88318232426E-01  0.88889308416E+00  0.88000000000E+00 0. -1.
        -11    1    3    3    0    0  0.51903476547E-02 -0.12594221343E-01 -0.32916998203E-01  0.35627854436E-01  0.51100000000E-03 0.  1.
         11    1    3    3    0    0 -0.13531570156E-01 -0.51556614638E-01 -0.95339536895E-02  0.54151133855E-01  0.51100000000E-03 0. -1.
</event>
<event>
 8    1  0.2927513E+004  0.1043930E+01  0.7957747E-01            NaN
         13   -1    0    0    0    0  0.00000000000E+00  0.00000000000E+00  0.74505805969E-08  0.10566000000E+00  0.10566000000E+00 0.  1.
     999900   -1    0    0    0    0 -0.00000000000E+00 -0.00000000000E+00 -0.74505805969E-08  0.93827000000E+00  0.93827000000E+00 0. -1.
     999902    2    1    2    0    0  0.10616198107E-01  0.60103348932E-02  0.66957571291E-02  0.10300137882E+01  0.10299197750E+01 0.  0.
     999903    2    3    3    0    0  0.82387922760E-01 -0.10419024641E+00  0.70560454660E-02  0.14024107654E+00  0.44434159255E-01 0.  0.
         14    1    1    2    0    0 -0.10616198107E-01 -0.60103348932E-02 -0.66957571291E-02  0.13916211816E-01  0.00000000000E+00 0. -1.
     999901    1    3    3    0    0 -0.71771724653E-01  0.11020058130E+00 -0.36028833696E-03  0.88977271164E+00  0.88000000000E+00 0.  1.
        -11    1    4    4    0    0  0.27838141201E-01 -0.59282843426E-01 -0.13038503731E-01  0.66780845538E-01  0.51100000000E-03 0.  1.
         11    1    4    4    0    0  0.54549781559E-01 -0.44907402980E-01  0.20094549197E-01  0.73460231002E-01  0.51100000000E-03 0. -1.
</event>
<event>
 7    1  0.2927513E+004  0.1043930E+01  0.7957747E-01            NaN
         13   -1    0    0    0    0  0.00000000000E+00  0.00000000000E+00  0.74505805969E-08  0.10566000000E+00  0.10566000000E+00 0. -1.
     999900   -1    0    0    0    0 -0.00000000000E+00 -0.00000000000E+00 -0.74505805969E-08  0.93827000000E+00  0.93827000000E+00 0.  1.
     999903    2    1    2    0    0  0.26411009708E-01 -0.75150377182E-01 -0.18208738379E-01  0.91055515815E-01  0.40179947519E-01 0.  0.
         14    1    1    2    0    0  0.37551246893E-01 -0.39909744416E-01  0.31061231600E-01  0.62989554301E-01  0.00000000000E+00 0. -1.
     999901    1    1    2    0    0 -0.63962256601E-01  0.11506012160E+00 -0.12852493221E-01  0.88988492988E+00  0.88000000000E+00 0.  1.
        -11    1    3    3    0    0 -0.82522045344E-02 -0.18446475725E-01  0.47049091187E-02  0.20754966566E-01  0.51100000000E-03 0.  1.
         11    1    3    3    0    0  0.34663214242E-01 -0.56703901457E-01 -0.22913647498E-01  0.70300549249E-01  0.51100000000E-03 0. -1.
</event>
<event>
 8    1  0.2927513E+004  0.1043930E+01  0.7957747E-01            NaN
         13   -1    0    0    0    0  0.00000000000E+00  0.00000000000E+00  0.74505805969E-08  0.10566000000E+00  0.10566000000E+00 0.  1.
     999900   -1    0    0    0    0 -0.00000000000E+00 -0.00000000000E+00 -0.74505805969E-08  0.93827000000E+00  0.93827000000E+00 0. -1.
     999902    2    1    2    0    0  0.69906995947E-02  0.53798442229E-02  0.10938623083E-01  0.10298777376E+01  0.10297818644E+01 0.  0.
     999903    2    3    3    0    0  0.52936295178E-01  0.92061177368E-01 -0.78556282670E-01  0.13991482293E+00  0.46125442025E-01 0.  0.
         14    1    1    2    0    0 -0.69906995947E-02 -0.53798442229E-02 -0.10938623083E-01  0.14052262439E-01  0.00000000000E+00 0. -1.
     999901    1    3    3    0    0 -0.45945595583E-01 -0.86681333146E-01  0.89494905754E-01  0.88996291463E+00  0.88000000000E+00 0.  1.
        -11    1    4    4    0    0  0.55373544277E-01  0.83313716728E-01 -0.53900571211E-01  0.11363510681E+00  0.51100000000E-03 0. -1.
         11    1    4    4    0    0 -0.24372490994E-02  0.87474606402E-02 -0.24655711459E-01  0.26279716121E-01  0.51100000000E-03 0.  1.
</event>
<event>
 8    1  0.2927513E+004  0.1043930E+01  0.7957747E-01            NaN
         13   -1    0    0    0    0  0.00000000000E+00  0.00000000000E+00  0.74505805969E-08  0.10566000000E+00  0.10566000000E+00 0.  1.
     999900   -1    0    0    0    0 -0.00000000000E+00 -0.00000000000E+00 -0.74505805969E-08  0.93827000000E+00  0.93827000000E+00 0.  1.
     999902    2    1    2    0    0 -0.10394041932E-01  0.12469245090E-02 -0.93703935104E-02  0.10298802597E+01  0.10297844212E+01 0.  0.
     999903    2    3    3    0    0  0.12327352149E+00 -0.20266889231E-01 -0.41587533336E-01  0.13894378283E+00  0.44370530299E-01 0.  0.
         14    1    1    2    0    0  0.10394041932E-01 -0.12469245090E-02  0.93703935104E-02  0.14049740317E-01  0.00000000000E+00 0.  1.
     999901    1    3    3    0    0 -0.13366756342E+00  0.21513813740E-01  0.32217139826E-01  0.89093647685E+00  0.88000000000E+00 0. -1.
        -11    1    4    4    0    0  0.82871681706E-02  0.10472125027E-01 -0.64567842448E-02  0.14842295734E-01  0.51100000000E-03 0. -1.
         11    1    4    4    0    0  0.11498635332E+00 -0.30739014258E-01 -0.35130749091E-01  0.12410148709E+00  0.51100000000E-03 0.  1.
</event>
<event>
 8    1  0.2927513E+004  0.1043930E+01  0.7957747E-01            NaN
         13   -1    0    0    0    0  0.00000000000E+00  0.00000000000E+00  0.74505805969E-08  0.10566000000E+00  0.10566000000E+00 0. -1.
     999900   -1    0    0    0    0 -0.00000000000E+00 -0.00000000000E+00 -0.74505805969E-08  0.93827000000E+00  0.93827000000E+00 0.  1.
     999902    2    1    2    0    0 -0.99321059238E-02 -0.13816243793E-02  0.98925548042E-02  0.10298438985E+01  0.10297475599E+01 0.  0.
     999903    2    3    3    0    0 -0.95078269392E-02 -0.10896962784E+00  0.76246807666E-01  0.14081170262E+00  0.45272302239E-01 0.  0.
         14    1    1    2    0    0  0.99321059238E-02  0.13816243793E-02 -0.98925548042E-02  0.14086101468E-01  0.00000000000E+00 0.  1.
     999901    1    3    3    0    0 -0.42427898453E-03  0.10758800346E+00 -0.66354252862E-01  0.88903219592E+00  0.88000000000E+00 0.  1.
        -11    1    4    4    0    0  0.14793090045E-01 -0.41749011062E-01  0.43862726835E-01  0.62337912735E-01  0.51100000000E-03 0. -1.
         11    1    4    4    0    0 -0.24300916984E-01 -0.67220616777E-01  0.32384080832E-01  0.78473789882E-01  0.51100000000E-03 0.  1.
</event>
<event>
 8    1  0.2927513E+004  0.1043930E+01  0.7957747E-01            NaN
         13   -1    0    0    0    0  0.00000000000E+00  0.00000000000E+00  0.74505805969E-08  0.10566000000E+00  0.10566000000E+00 0.  1.
     999900   -1    0    0    0    0 -0.00000000000E+00 -0.00000000000E+00 -0.74505805969E-08  0.93827000000E+00  0.93827000000E+00 0. -1.
     999902    2    1    2    0    0  0.20109650856E-02 -0.94875211527E-02 -0.10320736847E-01  0.10297675621E+01  0.10296701692E+01 0.  0.
     999903    2    3    3    0    0  0.76890724150E-01 -0.66266710767E-01  0.84962533930E-01  0.13964972924E+00  0.44496677269E-01 0.  0.
         14    1    1    2    0    0 -0.20109650856E-02  0.94875211527E-02  0.10320736847E-01  0.14162437900E-01  0.00000000000E+00 0.  1.
     999901    1    3    3    0    0 -0.74879759065E-01  0.56779189614E-01 -0.95283270777E-01  0.89011783286E+00  0.88000000000E+00 0. -1.
        -11    1    4    4    0    0  0.31061122450E-01 -0.16395041334E-02  0.30042761404E-01  0.43247080080E-01  0.51100000000E-03 0.  1.
         11    1    4    4    0    0  0.45829601701E-01 -0.64627206633E-01  0.54919772526E-01  0.96402649157E-01  0.51100000000E-03 0. -1.
</event>
<event>
 8    1  0.2927513E+004  0.1043930E+01  0.7957747E-01            NaN
         13   -1    0    0    0    0  0.00000000000E+00  0.00000000000E+00  0.74505805969E-08  0.10566000000E+00  0.10566000000E+00 0. -1.
     999900   -1    0    0    0    0 -0.00000000000E+00 -0.00000000000E+00 -0.74505805969E-08  0.93827000000E+00  0.93827000000E+00 0. -1.
     999902    2    1    2    0    0 -0.33654392912E-03  0.16385212981E-01 -0.54959508770E-02  0.10266443429E+01  0.10264988129E+01 0.  0.
     999903    2    3    3    0    0  0.20265538393E-02  0.13362292260E+00 -0.27252145490E-02  0.13886174462E+00  0.37629309830E-01 0.  0.
         14    1    1    2    0    0  0.33654392912E-03 -0.16385212981E-01  0.54959508770E-02  0.17285657127E-01  0.00000000000E+00 0. -1.
     999901    1    3    3    0    0 -0.23630977684E-02 -0.11723770962E+00 -0.27707363280E-02  0.88778259826E+00  0.88000000000E+00 0.  1.
        -11    1    4    4    0    0 -0.22111697319E-02  0.11814761931E+00 -0.14355690312E-01  0.11903821313E+00  0.51100000000E-03 0.  1.
         11    1    4    4    0    0  0.42377235712E-02  0.15475303292E-01  0.11630475763E-01  0.19823531485E-01  0.51100000000E-03 0. -1.
</event>
<event>
 8    1  0.2927513E+004  0.1043930E+01  0.7957747E-01            NaN
         13   -1    0    0    0    0  0.00000000000E+00  0.00000000000E+00  0.74505805969E-08  0.10566000000E+00  0.10566000000E+00 0. -1.
     999900   -1    0    0    0    0 -0.00000000000E+00 -0.00000000000E+00 -0.74505805969E-08  0.93827000000E+00  0.93827000000E+00 0. -1.
     999902    2    1    2    0    0 -0.22452779781E-02 -0.51935766515E-02  0.12727771242E-01  0.10300012286E+01  0.10299070445E+01 0.  0.
     999903    2    3    3    0    0  0.28084989943E-01 -0.16268530035E-01  0.13029558879E+00  0.14159548152E+00  0.44932262325E-01 0.  0.
         14    1    1    2    0    0  0.22452779781E-02  0.51935766515E-02 -0.12727771242E-01  0.13928771390E-01  0.00000000000E+00 0.  1.
     999901    1    3    3    0    0 -0.30330267922E-01  0.11074953383E-01 -0.11756781755E+00  0.88840574709E+00  0.88000000000E+00 0. -1.
        -11    1    4    4    0    0  0.32967324408E-01  0.51699395098E-02  0.75253768442E-01  0.82322314951E-01  0.51100000000E-03 0.  1.
         11    1    4    4    0    0 -0.48823344650E-02 -0.21438469545E-01  0.55041820350E-01  0.59273166566E-01  0.51100000000E-03 0. -1.
</event>
<event>
 8    1  0.2927513E+004  0.1043930E+01  0.7957747E-01            NaN
         13   -1    0    0    0    0  0.00000000000E+00  0.00000000000E+00  0.74505805969E-08  0.10566000000E+00  0.10566000000E+00 0.  1.
     999900   -1    0    0    0    0 -0.00000000000E+00 -0.00000000000E+00 -0.74505805969E-08  0.93827000000E+00  0.93827000000E+00 0. -1.
     999902    2    1    2    0    0  0.41797213596E-02 -0.73990912391E-02 -0.10690491059E-01  0.10302733818E+01  0.10301828663E+01 0.  0.
     999903    2    3    3    0    0 -0.64277316778E-01 -0.11091189587E-01  0.11398523833E+00  0.13884529431E+00  0.45064323542E-01 0.  0.
         14    1    1    2    0    0 -0.41797213596E-02  0.73990912391E-02  0.10690491059E-01  0.13656618208E-01  0.00000000000E+00 0.  1.
     999901    1    3    3    0    0  0.68457038137E-01  0.36920983480E-02 -0.12467572938E+00  0.89142808749E+00  0.88000000000E+00 0. -1.
        -11    1    4    4    0    0 -0.78735219814E-02 -0.70212279031E-02  0.59105495574E-01  0.60041741461E-01  0.51100000000E-03 0. -1.
         11    1    4    4    0    0 -0.56403794796E-01 -0.40699616840E-02  0.54879742752E-01  0.78803552845E-01  0.51100000000E-03 0.  1.
</event>
<event>
 8    1  0.2927513E+004  0.1043930E+01  0.7957747E-01            NaN
         13   -1    0    0    0    0  0.00000000000E+00  0.00000000000E+00  0.74505805969E-08  0.10566000000E+00  0.10566000000E+00 0.  1.
     999900   -1    0    0    0    0 -0.00000000000E+00 -0.00000000000E+00 -0.74505805969E-08  0.93827000000E+00  0.93827000000E+00 0. -1.
     999902    2    1    2    0    0 -0.49665631925E-02 -0.11006553641E-01 -0.63149479423E-02  0.10303032051E+01  0.10302130871E+01 0.  0.
     999903    2    3    3    0    0  0.11850181150E+00  0.55776010319E-01 -0.14612709668E-01  0.13913924525E+00  0.44638051352E-01 0.  0.
         14    1    1    2    0    0  0.49665631925E-02  0.11006553641E-01  0.63149479423E-02  0.13626794946E-01  0.00000000000E+00 0.  1.
     999901    1    3    3    0    0 -0.12346837470E+00 -0.66782563960E-01  0.82977617262E-02  0.89116395980E+00  0.88000000000E+00 0. -1.
        -11    1    4    4    0    0  0.50502005762E-01  0.38106684304E-01  0.11269566823E-01  0.64263801879E-01  0.51100000000E-03 0.  1.
         11    1    4    4    0    0  0.67999805743E-01  0.17669326016E-01 -0.25882276492E-01  0.74875443373E-01  0.51100000000E-03 0. -1.
</event>
<event>
 8    1  0.2927513E+004  0.1043930E+01  0.7957747E-01            NaN
         13   -1    0    0    0    0  0.00000000000E+00  0.00000000000E+00  0.74505805969E-08  0.10566000000E+00  0.10566000000E+00 0.  1.
     999900   -1    0    0    0    0 -0.00000000000E+00 -0.00000000000E+00 -0.74505805969E-08  0.93827000000E+00  0.93827000000E+00 0.  1.
     999902    2    1    2    0    0  0.47568416996E-02  0.57290134782E-02 -0.10121849195E-01  0.10313641347E+01  0.10312875823E+01 0.  0.
     999903    2    3    3    0    0 -0.12825918835E+00 -0.71978982676E-05  0.34877729405E-01  0.14021255929E+00  0.44639515284E-01 0.  0.
         14    1    1    2    0    0 -0.47568416996E-02 -0.57290134782E-02  0.10121849195E-01  0.12565865251E-01  0.00000000000E+00 0.  1.
     999901    1    3    3    0    0  0.13301603005E+00  0.57362113765E-02 -0.44999578600E-01  0.89115157546E+00  0.88000000000E+00 0. -1.
        -11    1    4    4    0    0 -0.86666443892E-01 -0.11791296091E-01  0.49006781755E-02  0.87603566868E-01  0.51100000000E-03 0. -1.
         11    1    4    4    0    0 -0.41592744461E-01  0.11784098193E-01  0.29977051229E-01  0.52608992420E-01  0.51100000000E-03 0.  1.
</event>
<event>
 8    1  0.2927513E+004  0.1043930E+01  0.7957747E-01            NaN
         13   -1    0    0    0    0  0.00000000000E+00  0.00000000000E+00  0.74505805969E-08  0.10566000000E+00  0.10566000000E+00 0.  1.
     999900   -1    0    0    0    0 -0.00000000000E+00 -0.00000000000E+00 -0.74505805969E-08  0.93827000000E+00  0.93827000000E+00 0.  1.
     999902    2    1    2    0    0  0.70983562044E-02 -0.93673246963E-03 -0.11923260821E-01  0.10300221505E+01  0.10299282510E+01 0.  0.
     999903    2    3    3    0    0  0.90853287585E-01 -0.97131528764E-01 -0.35040886824E-02  0.14078696800E+00  0.46041698247E-01 0.  0.
         14    1    1    2    0    0 -0.70983562044E-02  0.93673246963E-03  0.11923260821E-01  0.13907849479E-01  0.00000000000E+00 0.  1.
     999901    1    3    3    0    0 -0.83754931381E-01  0.96194796294E-01 -0.84191721387E-02  0.88923518252E+00  0.88000000000E+00 0.  1.
        -11    1    4    4    0    0  0.22115334216E-01 -0.32167198923E-01 -0.21411824958E-01  0.44525768529E-01  0.51100000000E-03 0.  1.
         11    1    4    4    0    0  0.68737953369E-01 -0.64964329841E-01  0.17907736276E-01  0.96261199476E-01  0.51100000000E-03 0. -1.
</event>
<event>
 8    1  0.2927513E+004  0.1043930E+01  0.7957747E-01            NaN
         13   -1    0    0    0    0  0.00000000000E+00  0.00000000000E+00  0.74505805969E-08  0.10566000000E+00  0.10566000000E+00 0. -1.
     999900   -1    0    0    0    0 -0.00000000000E+00 -0.00000000000E+00 -0.74505805969E-08  0.93827000000E+00  0.93827000000E+00 0. -1.
     999902    2    1    2    0    0  0.22733205841E-02 -0.38245522615E-02 -0.13024873129E-01  0.10301661885E+01  0.10300742369E+01 0.  0.
     999903    2    3    3    0    0  0.11560134112E+00 -0.56840164839E-01  0.33883639721E-01  0.14007950510E+00  0.43355418371E-01 0.  0.
         14    1    1    2    0    0 -0.22733205841E-02  0.38245522615E-02  0.13024873129E-01  0.13763811482E-01  0.00000000000E+00 0. -1.
     999901    1    3    3    0    0 -0.11332802053E+00  0.53015612577E-01 -0.46908512851E-01  0.89008668342E+00  0.88000000000E+00 0. -1.
        -11    1    4    4    0    0  0.10462903637E+00 -0.33737229736E-01  0.31653721351E-01  0.11440128985E+00  0.51100000000E-03 0. -1.
         11    1    4    4    0    0  0.10972304747E-01 -0.23102935103E-01  0.22299183701E-02  0.25678215257E-01  0.51100000000E-03 0.  1.
</event>
<event>
 8    1  0.2927513E+004  0.1043930E+01  0.7957747E-01            NaN
         13   -1    0    0    0    0  0.00000000000E+00  0.00000000000E+00  0.74505805969E-08  0.10566000000E+00  0.10566000000E+00 0.  1.
     999900   -1    0    0    0    0 -0.00000000000E+00 -0.00000000000E+00 -0.74505805969E-08  0.93827000000E+00  0.93827000000E+00 0. -1.
     999902    2    1    2    0    0 -0.56797217647E-02  0.30251836220E-02 -0.12071457348E-01  0.10302504146E+01  0.10301595923E+01 0.  0.
     999903    2    3    3    0    0  0.32498458934E-01  0.12481352826E+00  0.31672660568E-01  0.13996758185E+00  0.44195020876E-01 0.  0.
         14    1    1    2    0    0  0.56797217647E-02 -0.30251836220E-02  0.12071457348E-01  0.13679585439E-01  0.00000000000E+00 0.  1.
     999901    1    3    3    0    0 -0.38178180698E-01 -0.12178834464E+00 -0.43744117916E-01  0.89028283271E+00  0.88000000000E+00 0.  1.
        -11    1    4    4    0    0  0.23129213834E-01  0.12177441525E+00  0.36177947538E-01  0.12912425702E+00  0.51100000000E-03 0.  1.
         11    1    4    4    0    0  0.93692450992E-02  0.30391130144E-02 -0.45052869699E-02  0.10843324828E-01  0.51100000000E-03 0. -1.
</event>
<event>
 8    1  0.2927513E+004  0.1043930E+01  0.7957747E-01            NaN
         13   -1    0    0    0    0  0.00000000000E+00  0.00000000000E+00  0.74505805969E-08  0.10566000000E+00  0.10566000000E+00 0. -1.
     999900   -1    0    0    0    0 -0.00000000000E+00 -0.00000000000E+00 -0.74505805969E-08  0.93827000000E+00  0.93827000000E+00 0.  1.
     999902    2    1    2    0    0  0.13340857161E-01  0.16754576673E-02  0.25685179590E-02  0.10302412122E+01  0.10301502669E+01 0.  0.
     999903    2    3    3    0    0 -0.80306588822E-01 -0.86995663984E-01 -0.56995821816E-01  0.13884886166E+00  0.44867459460E-01 0.  0.
         14    1    1    2    0    0 -0.13340857161E-01 -0.16754576673E-02 -0.25685179590E-02  0.13688787846E-01  0.00000000000E+00 0. -1.
     999901    1    3    3    0    0  0.93647445983E-01  0.88671121651E-01  0.59564339775E-01  0.89139235050E+00  0.88000000000E+00 0.  1.
        -11    1    4    4    0    0 -0.31231956942E-01 -0.49337625528E-01 -0.60435721826E-02  0.58706237427E-01  0.51100000000E-03 0.  1.
         11    1    4    4    0    0 -0.49074631881E-01 -0.37658038456E-01 -0.50952249633E-01  0.80142624229E-01  0.51100000000E-03 0. -1.
</event>
<event>
 8    1  0.2927513E+004  0.1043930E+01  0.7957747E-01            NaN
         13   -1    0    0    0    0  0.00000000000E+00  0.00000000000E+00  0.74505805969E-08  0.10566000000E+00  0.10566000000E+00 0. -1.
     999900   -1    0    0    0    0 -0.00000000000E+00 -0.00000000000E+00 -0.74505805969E-08  0.93827000000E+00  0.93827000000E+00 0.  1.
     999902    2    1    2    0    0 -0.10086866223E-02 -0.12395434256E-01 -0.75496510080E-02  0.10293814101E+01  0.10292785949E+01 0.  0.
     999903    2    3    3    0    0 -0.59838432861E-01  0.11422313779E+00 -0.22453030585E-01  0.13824993123E+00  0.44512264014E-01 0.  0.
         14    1    1    2    0    0  0.10086866223E-02  0.12395434256E-01  0.75496510080E-02  0.14548589947E-01  0.00000000000E+00 0.  1.
     999901    1    3    3    0    0  0.58829746238E-01 -0.12661857205E+00  0.14903379577E-01  0.89113147883E+00  0.88000000000E+00 0.  1.
        -11    1    4    4    0    0 -0.35815865936E-01  0.83527410818E-01  0.42763912508E-02  0.90984357193E-01  0.51100000000E-03 0.  1.
         11    1    4    4    0    0 -0.24022566925E-01  0.30695726974E-01 -0.26729421836E-01  0.47265574035E-01  0.51100000000E-03 0. -1.
</event>
<event>
 8    1  0.2927513E+004  0.1043930E+01  0.7957747E-01            NaN
         13   -1    0    0    0    0  0.00000000000E+00  0.00000000000E+00  0.74505805969E-08  0.10566000000E+00  0.10566000000E+00 0. -1.
     999900   -1    0    0    0    0 -0.00000000000E+00 -0.00000000000E+00 -0.74505805969E-08  0.93827000000E+00  0.93827000000E+00 0.  1.
     999902    2    1    2    0    0  0.10311648259E-01  0.58498692979E-02 -0.64490674985E-02  0.10304340179E+01  0.10303456332E+01 0.  0.
     999903    2    3    3    0    0 -0.10028551837E+00 -0.84318232897E-01 -0.92201643635E-02  0.13893544872E+00  0.45291256169E-01 0.  0.
         14    1    1    2    0    0 -0.10311648259E-01 -0.58498692979E-02  0.64490674985E-02  0.13495982077E-01  0.00000000000E+00 0. -1.
     999901    1    3    3    0    0  0.11059716663E+00  0.90168102195E-01  0.27710968650E-02  0.89149856921E+00  0.88000000000E+00 0.  1.
        -11    1    4    4    0    0 -0.60600731066E-01 -0.44146964391E-01 -0.27064658423E-01  0.79712984684E-01  0.51100000000E-03 0.  1.
         11    1    4    4    0    0 -0.39684787304E-01 -0.40171268506E-01  0.17844494060E-01  0.59222464032E-01  0.51100000000E-03 0. -1.
</event>
<event>
 8    1  0.2927513E+004  0.1043930E+01  0.7957747E-01            NaN
         13   -1    0    0    0    0  0.00000000000E+00  0.00000000000E+00  0.74505805969E-08  0.10566000000E+00  0.10566000000E+00 0. -1.
     999900   -1    0    0    0    0 -0.00000000000E+00 -0.00000000000E+00 -0.74505805969E-08  0.93827000000E+00  0.93827000000E+00 0.  1.
     999902    2    1    2    0    0 -0.88235061810E-02 -0.10290607243E-01 -0.99034392819E-03  0.10303383982E+01  0.10302487482E+01 0.  0.
     999903    2    3    3    0    0 -0.12031148155E-01  0.11553936706E+00  0.61786023665E-01  0.13916818789E+00  0.45345098212E-01 0.  0.
         14    1    1    2    0    0  0.88235061810E-02  0.10290607243E-01  0.99034392819E-03  0.13591601813E-01  0.00000000000E+00 0. -1.
     999901    1    3    3    0    0  0.32076419736E-02 -0.12582997431E+00 -0.62776367593E-01  0.89117021030E+00  0.88000000000E+00 0.  1.
        -11    1    4    4    0    0  0.14260034487E-01  0.55081975573E-01  0.16709988131E-01  0.59303098072E-01  0.51100000000E-03 0. -1.
         11    1    4    4    0    0 -0.26291182642E-01  0.60457391490E-01  0.45076035534E-01  0.79865089813E-01  0.51100000000E-03 0.  1.
</event>
<event>
 8    1  0.2927513E+004  0.1043930E+01  0.7957747E-01            NaN
         13   -1    0    0    0    0  0.00000000000E+00  0.00000000000E+00  0.74505805969E-08  0.10566000000E+00  0.10566000000E+00 0. -1.
     999900   -1    0    0    0    0 -0.00000000000E+00 -0.00000000000E+00 -0.74505805969E-08  0.93827000000E+00  0.93827000000E+00 0. -1.
     999902    2    1    2    0    0 -0.89727335850E-02 -0.21082673999E-01  0.11461283080E-02  0.10209887119E+01  0.10207309376E+01 0.  0.
     999903    2    3    3    0    0  0.77101155399E-01 -0.83464713186E-01  0.53894239837E-01  0.13302328662E+00  0.43355036425E-01 0.  0.
         14    1    1    2    0    0  0.89727335850E-02  0.21082673999E-01 -0.11461283080E-02  0.22941288129E-01  0.00000000000E+00 0. -1.
     999901    1    3    3    0    0 -0.86073888984E-01  0.62382039187E-01 -0.52748111529E-01  0.88796542525E+00  0.88000000000E+00 0.  1.
        -11    1    4    4    0    0 -0.13907045651E-02 -0.18011580172E-01  0.13969448366E-02  0.18126324927E-01  0.51100000000E-03 0.  1.
         11    1    4    4    0    0  0.78491859964E-01 -0.65453133014E-01  0.52497295001E-01  0.11489696169E+00  0.51100000000E-03 0. -1.
</event>
<event>
 8    1  0.2927513E+004  0.1043930E+01  0.7957747E-01            NaN
         13   -1    0    0    0    0  0.00000000000E+00  0.00000000000E+00  0.74505805969E-08  0.10566000000E+00  0.10566000000E+00 0.  1.
     999900   -1    0    0    0    0 -0.00000000000E+00 -0.00000000000E+00 -0.74505805969E-08  0.93827000000E+00  0.93827000000E+00 0.  1.
     999902    2    1    2    0    0 -0.14001565967E-02  0.12996245572E-01  0.37851907408E-02  0.10303215281E+01  0.10302316540E+01 0.  0.
     999903    2    3    3    0    0 -0.48971631576E-01 -0.23146357441E-01  0.12147582539E+00  0.14047861028E+00  0.45209393149E-01 0.  0.
         14    1    1    2    0    0  0.14001565967E-02 -0.12996245572E-01 -0.37851907408E-02  0.13608471861E-01  0.00000000000E+00 0. -1.
     999901    1    3    3    0    0  0.47571474980E-01  0.36142603013E-01 -0.11769063465E+00  0.88984291786E+00  0.88000000000E+00 0.  1.
        -11    1    4    4    0    0 -0.44184943670E-01 -0.11884142283E-01  0.49268038412E-01  0.67239443893E-01  0.51100000000E-03 0. -1.
         11    1    4    4    0    0 -0.47866879061E-02 -0.11262215158E-01  0.72207786978E-01  0.73239166384E-01  0.51100000000E-03 0.  1.
</event>
<event>
 8    1  0.2927513E+004  0.1043930E+01  0.7957747E-01            NaN
         13   -1    0    0    0    0  0.00000000000E+00  0.00000000000E+00  0.74505805969E-08  0.10566000000E+00  0.10566000000E+00 0.  1.
     999900   -1    0    0    0    0 -0.00000000000E+00 -0.00000000000E+00 -0.74505805969E-08  0.93827000000E+00  0.93827000000E+00 0. -1.
     999902    2    1    2    0    0  0.14346320767E-01 -0.11852238497E-01 -0.80703013108E-02  0.10236464540E+01  0.10234454751E+01 0.  0.
     999903    2    3    3    0    0  0.85763841561E-01 -0.53236846901E-01  0.78395889067E-01  0.13556450381E+00  0.45190938075E-01 0.  0.
         14    1    1    2    0    0 -0.14346320767E-01  0.11852238497E-01  0.80703013108E-02  0.20283546046E-01  0.00000000000E+00 0.  1.
     999901    1    3    3    0    0 -0.71417520794E-01  0.41384608404E-01 -0.86466190378E-01  0.88808195014E+00  0.88000000000E+00 0. -1.
        -11    1    4    4    0    0  0.83678131346E-01 -0.54099749570E-01  0.58527642081E-01  0.11556192529E+00  0.51100000000E-03 0. -1.
         11    1    4    4    0    0  0.20857102157E-02  0.86290266870E-03  0.19868246986E-01  0.20002578519E-01  0.51100000000E-03 0.  1.
</event>
<event>
 8    1  0.2927513E+004  0.1043930E+01  0.7957747E-01            NaN
         13   -1    0    0    0    0  0.00000000000E+00  0.00000000000E+00  0.74505805969E-08  0.10566000000E+00  0.10566000000E+00 0.  1.
     999900   -1    0    0    0    0 -0.00000000000E+00 -0.00000000000E+00 -0.74505805969E-08  0.93827000000E+00  0.93827000000E+00 0.  1.
     999902    2    1    2    0    0  0.10521807614E-01 -0.11222275379E-02  0.89863014613E-02  0.10300475851E+01  0.10299540311E+01 0.  0.
     999903    2    3    3    0    0 -0.12434476475E+00  0.41151528616E-01  0.62243470288E-02  0.13876553590E+00  0.45409939766E-01 0.  0.
         14    1    1    2    0    0 -0.10521807614E-01  0.11222275379E-02 -0.89863014613E-02  0.13882414922E-01  0.00000000000E+00 0. -1.
     999901    1    3    3    0    0  0.13486657236E+00 -0.42273756154E-01  0.27619544325E-02  0.89128204918E+00  0.88000000000E+00 0. -1.
        -11    1    4    4    0    0 -0.20077448173E-01  0.35223256062E-02  0.18120020483E-01  0.27278324108E-01  0.51100000000E-03 0.  1.
         11    1    4    4    0    0 -0.10426731657E+00  0.37629203010E-01 -0.11895673454E-01  0.11148721179E+00  0.51100000000E-03 0. -1.
</event>
<event>
 8    1  0.2927513E+004  0.1043930E+01  0.7957747E-01            NaN
         13   -1    0    0    0    0  0.00000000000E+00  0.00000000000E+00  0.74505805969E-08  0.10566000000E+00  0.10566000000E+00 0. -1.
     999900   -1    0    0    0    0 -0.00000000000E+00 -0.00000000000E+00 -0.74505805969E-08  0.93827000000E+00  0.93827000000E+00 0. -1.
     999902    2    1    2    0    0  0.11719824328E-01  0.40124777544E-02  0.59293702390E-02  0.10301964028E+01  0.10301048571E+01 0.  0.
     999903    2    3    3    0    0  0.91010177700E-01  0.25070934744E-02  0.99408213078E-01  0.14169906440E+00  0.43674867631E-01 0.  0.
         14    1    1    2    0    0 -0.11719824328E-01 -0.40124777544E-02 -0.59293702390E-02  0.13733597178E-01  0.00000000000E+00 0. -1.
     999901    1    3    3    0    0 -0.79290353371E-01  0.15053842801E-02 -0.93478842839E-01  0.88849733842E+00  0.88000000000E+00 0. -1.
        -11    1    4    4    0    0  0.91243614583E-01 -0.57643039221E-02  0.83779655382E-01  0.12400772629E+00  0.51100000000E-03 0.  1.
         11    1    4    4    0    0 -0.23343688354E-03  0.82713973965E-02  0.15628557696E-01  0.17691338115E-01  0.51100000000E-03 0. -1.
</event>
<event>
 8    1  0.2927513E+004  0.1043930E+01  0.7957747E-01            NaN
         13   -1    0    0    0    0  0.00000000000E+00  0.00000000000E+00  0.74505805969E-08  0.10566000000E+00  0.10566000000E+00 0.  1.
     999900   -1    0    0    0    0 -0.00000000000E+00 -0.00000000000E+00 -0.74505805969E-08  0.93827000000E+00  0.93827000000E+00 0.  1.
     999902    2    1    2    0    0 -0.19956182618E-02 -0.34176026463E-02  0.13253041368E-01  0.10300986730E+01  0.10300058109E+01 0.  0.
     999903    2    3    3    0    0  0.27612560320E-01 -0.47970475164E-02 -0.12789869992E+00  0.13835747674E+00  0.44712959811E-01 0.  0.
         14    1    1    2    0    0  0.19956182618E-02  0.34176026463E-02 -0.13253041368E-01  0.13831326965E-01  0.00000000000E+00 0. -1.
     999901    1    3    3    0    0 -0.29608178581E-01  0.13794448701E-02  0.14115174129E+00  0.89174119630E+00  0.88000000000E+00 0. -1.
        -11    1    4    4    0    0  0.16635305351E-01 -0.40727957511E-02 -0.12602718108E+00  0.12718660519E+00  0.51100000000E-03 0. -1.
         11    1    4    4    0    0  0.10977254968E-01 -0.72425176530E-03 -0.18715188446E-02  0.11170871544E-01  0.51100000000E-03 0.  1.
</event>
<event>
 8    1  0.2927513E+004  0.1043930E+01  0.7957747E-01            NaN
         13   -1    0    0    0    0  0.00000000000E+00  0.00000000000E+00  0.74505805969E-08  0.10566000000E+00  0.10566000000E+00 0. -1.
     999900   -1    0    0    0    0 -0.00000000000E+00 -0.00000000000E+00 -0.74505805969E-08  0.93827000000E+00  0.93827000000E+00 0. -1.
     999902    2    1    2    0    0  0.28649378793E-02 -0.12995863038E-01  0.56264398697E-02  0.10294815693E+01  0.10293801748E+01 0.  0.
     999903    2    3    3    0    0  0.44704512097E-01  0.44511881284E-01  0.11625218518E+00  0.13970870715E+00  0.44990569204E-01 0.  0.
         14    1    1    2    0    0 -0.28649378793E-02  0.12995863038E-01 -0.56264398697E-02  0.14448430737E-01  0.00000000000E+00 0.  1.
     999901    1    3    3    0    0 -0.41839574217E-01 -0.57507744322E-01 -0.11062574531E+00  0.88977286211E+00  0.88000000000E+00 0. -1.
        -11    1    4    4    0    0  0.25858036148E-01 -0.71605289130E-03  0.58526509069E-01  0.63990344193E-01  0.51100000000E-03 0. -1.
         11    1    4    4    0    0  0.18846475949E-01  0.45227934176E-01  0.57725676110E-01  0.75718362957E-01  0.51100000000E-03 0.  1.
</event>
<event>
 8    1  0.2927513E+004  0.1043930E+01  0.7957747E-01            NaN
         13   -1    0    0    0    0  0.00000000000E+00  0.00000000000E+00  0.74505805969E-08  0.10566000000E+00  0.10566000000E+00 0. -1.
     999900   -1    0    0    0    0 -0.00000000000E+00 -0.00000000000E+00 -0.74505805969E-08  0.93827000000E+00  0.93827000000E+00 0. -1.
     999902    2    1    2    0    0 -0.77751040024E-02  0.50753471985E-02  0.93704918467E-02  0.10307384304E+01  0.10306540129E+01 0.  0.
     999903    2    3    3    0    0 -0.25027400559E-01 -0.12920986169E+00  0.14735101163E-01  0.14036831740E+00  0.46525070510E-01 0.  0.
         14    1    1    2    0    0  0.77751040024E-02 -0.50753471985E-02 -0.93704918467E-02  0.13191569614E-01  0.00000000000E+00 0.  1.
     999901    1    3    3    0    0  0.17252296556E-01  0.13428520889E+00 -0.53646093160E-02  0.89037011298E+00  0.88000000000E+00 0. -1.
        -11    1    4    4    0    0  0.18927592713E-02 -0.72286506774E-01  0.25111401929E-01  0.76549103372E-01  0.51100000000E-03 0. -1.
         11    1    4    4    0    0 -0.26920159830E-01 -0.56923354920E-01 -0.10376300767E-01  0.63819214028E-01  0.51100000000E-03 0.  1.
</event>
<event>
 8    1  0.2927513E+004  0.1043930E+01  0.7957747E-01            NaN
         13   -1    0    0    0    0  0.00000000000E+00  0.00000000000E+00  0.74505805969E-08  0.10566000000E+00  0.10566000000E+00 0.  1.
     999900   -1    0    0    0    0 -0.00000000000E+00 -0.00000000000E+00 -0.74505805969E-08  0.93827000000E+00  0.93827000000E+00 0.  1.
     999902    2    1    2    0    0  0.36028696325E-03  0.85952050635E-02 -0.10191729666E-01  0.10305928822E+01  0.10305065794E+01 0.  0.
     999903    2    3    3    0    0  0.52336995828E-01  0.55929322599E-01  0.10803420317E+00  0.13990805125E+00  0.45117884383E-01 0.  0.
         14    1    1    2    0    0 -0.36028696325E-03 -0.85952050635E-02  0.10191729666E-01  0.13337117768E-01  0.00000000000E+00 0. -1.
     999901    1    3    3    0    0 -0.51976708864E-01 -0.47334117535E-01 -0.11822593284E+00  0.89068483098E+00  0.88000000000E+00 0.  1.
        -11    1    4    4    0    0  0.38884967158E-01  0.60729504737E-01  0.75672091864E-01  0.10453056981E+00  0.51100000000E-03 0. -1.
         11    1    4    4    0    0  0.13452028670E-01 -0.48001821388E-02  0.32362111305E-01  0.35377481440E-01  0.51100000000E-03 0.  1.
</event>
<event>
 8    1  0.2927513E+004  0.1043930E+01  0.7957747E-01            NaN
         13   -1    0    0    0    0  0.00000000000E+00  0.00000000000E+00  0.74505805969E-08  0.10566000000E+00  0.10566000000E+00 0. -1.
     999900   -1    0    0    0    0 -0.00000000000E+00 -0.00000000000E+00 -0.74505805969E-08  0.93827000000E+00  0.93827000000E+00 0. -1.
     999902    2    1    2    0    0  0.58154986086E-03 -0.13859200050E-01  0.32825748341E-02  0.10296754946E+01  0.10295768224E+01 0.  0.
     999903    2    3    3    0    0 -0.20760937123E-01 -0.39694194210E-01 -0.12431778285E+00  0.13984135279E+00  0.45760761049E-01 0.  0.
         14    1    1    2    0    0 -0.58154986086E-03  0.13859200050E-01 -0.32825748341E-02  0.14254505387E-01  0.00000000000E+00 0.  1.
     999901    1    3    3    0    0  0.21342486984E-01  0.25834994159E-01  0.12760035769E+00  0.88983414182E+00  0.88000000000E+00 0.  1.
        -11    1    4    4    0    0 -0.22030136843E-01 -0.24747060828E-01 -0.31171851035E-01  0.45493838780E-01  0.51100000000E-03 0.  1.
         11    1    4    4    0    0  0.12691997194E-02 -0.14947133381E-01 -0.93145931819E-01  0.94347514009E-01  0.51100000000E-03 0. -1.
</event>
<event>
 8    1  0.2927513E+004  0.1043930E+01  0.7957747E-01            NaN
         13   -1    0    0    0    0  0.00000000000E+00  0.00000000000E+00  0.74505805969E-08  0.10566000000E+00  0.10566000000E+00 0. -1.
     999900   -1    0    0    0    0 -0.00000000000E+00 -0.00000000000E+00 -0.74505805969E-08  0.93827000000E+00  0.93827000000E+00 0. -1.
     999902    2    1    2    0    0 -0.49226542870E-02  0.11955155270E-01  0.23956091142E-02  0.10307809618E+01  0.10306970913E+01 0.  0.
     999903    2    3    3    0    0 -0.10609801440E-02 -0.13411752153E+00 -0.18917185841E-05  0.13872833585E+00  0.35453009836E-01 0.  0.
         14    1    1    2    0    0  0.49226542870E-02 -0.11955155270E-01 -0.23956091142E-02  0.13149038207E-01  0.00000000000E+00 0. -1.
     999901    1    3    3    0    0 -0.38616741430E-02  0.14607267679E+00  0.23975008328E-02  0.89205262594E+00  0.88000000000E+00 0. -1.
        -11    1    4    4    0    0  0.49189325675E-02 -0.91178499140E-01  0.15628874021E-01  0.92640366078E-01  0.51100000000E-03 0. -1.
         11    1    4    4    0    0 -0.59799127115E-02 -0.42939022385E-01 -0.15630765740E-01  0.46087969776E-01  0.51100000000E-03 0.  1.
</event>
<event>
 8    1  0.2927513E+004  0.1043930E+01  0.7957747E-01            NaN
         13   -1    0    0    0    0  0.00000000000E+00  0.00000000000E+00  0.74505805969E-08  0.10566000000E+00  0.10566000000E+00 0. -1.
     999900   -1    0    0    0    0 -0.00000000000E+00 -0.00000000000E+00 -0.74505805969E-08  0.93827000000E+00  0.93827000000E+00 0.  1.
     999902    2    1    2    0    0  0.45250908914E-02 -0.12578299113E-01 -0.49722599696E-02  0.10296676921E+01  0.10295689112E+01 0.  0.
     999903    2    3    3    0    0 -0.13178986379E-01  0.10048821799E+00 -0.83827596670E-01  0.13876049396E+00  0.44224892132E-01 0.  0.
         14    1    1    2    0    0 -0.45250908914E-02  0.12578299113E-01  0.49722599696E-02  0.14262307856E-01  0.00000000000E+00 0.  1.
     999901    1    3    3    0    0  0.17704077270E-01 -0.11306651711E+00  0.78855336701E-01  0.89090719818E+00  0.88000000000E+00 0. -1.
        -11    1    4    4    0    0 -0.21191474281E-01  0.27704427085E-01 -0.14031272622E-01  0.37599888227E-01  0.51100000000E-03 0.  1.
         11    1    4    4    0    0  0.80124879019E-02  0.72783790909E-01 -0.69796324048E-01  0.10116060574E+00  0.51100000000E-03 0. -1.
</event>
<event>
 8    1  0.2927513E+004  0.1043930E+01  0.7957747E-01            NaN
         13   -1    0    0    0    0  0.00000000000E+00  0.00000000000E+00  0.74505805969E-08  0.10566000000E+00  0.10566000000E+00 0.  1.
     999900   -1    0    0    0    0 -0.00000000000E+00 -0.00000000000E+00 -0.74505805969E-08  0.93827000000E+00  0.93827000000E+00 0. -1.
     999902    2    1    2    0    0 -0.11337373742E-01 -0.44777044093E-02 -0.44616907853E-02  0.10309495314E+01  0.10308678110E+01 0.  0.
     999903    2    3    3    0    0  0.25355176720E-01  0.12862107012E+00 -0.21189172705E-01  0.14002785377E+00  0.44413445320E-01 0.  0.
         14    1    1    2    0    0  0.11337373742E-01  0.44777044093E-02  0.44616907853E-02  0.12980468589E-01  0.00000000000E+00 0. -1.
     999901    1    3    3    0    0 -0.36692550462E-01 -0.13309877453E+00  0.16727481919E-01  0.89092167764E+00  0.88000000000E+00 0. -1.
        -11    1    4    4    0    0  0.35307827469E-01  0.66002334702E-01 -0.14760075966E-01  0.76295948976E-01  0.51100000000E-03 0. -1.
         11    1    4    4    0    0 -0.99526507484E-02  0.62618735421E-01 -0.64290967383E-02  0.63731904793E-01  0.51100000000E-03 0.  1.
</event>
<event>
 8    1  0.2927513E+004  0.1043930E+01  0.7957747E-01            NaN
         13   -1    0    0    0    0  0.00000000000E+00  0.00000000000E+00  0.74505805969E-08  0.10566000000E+00  0.10566000000E+00 0. -1.
     999900   -1    0    0    0    0 -0.00000000000E+00 -0.00000000000E+00 -0.74505805969E-08  0.93827000000E+00  0.93827000000E+00 0. -1.
     999902    2    1    2    0    0  0.11385622137E-01  0.11336209564E-02 -0.77886252433E-02  0.10300887511E+01  0.10299957548E+01 0.  0.
     999903    2    3    3    0    0  0.39670790706E-01 -0.12653422930E+00 -0.48217858220E-02  0.14042143525E+00  0.45937425267E-01 0.  0.
         14    1    1    2    0    0 -0.11385622137E-01 -0.11336209564E-02  0.77886252433E-02  0.13841248900E-01  0.00000000000E+00 0. -1.
     999901    1    3    3    0    0 -0.28285168569E-01  0.12766785026E+00 -0.29668394213E-02  0.88966731585E+00  0.88000000000E+00 0. -1.
        -11    1    4    4    0    0  0.22894672246E-02 -0.61926956207E-01  0.13800834140E-01  0.63489477154E-01  0.51100000000E-03 0.  1.
         11    1    4    4    0    0  0.37381323482E-01 -0.64607273093E-01 -0.18622619962E-01  0.76931958100E-01  0.51100000000E-03 0. -1.
</event>
<event>
 8    1  0.2927513E+004  0.1043930E+01  0.7957747E-01            NaN
         13   -1    0    0    0    0  0.00000000000E+00  0.00000000000E+00  0.74505805969E-08  0.10566000000E+00  0.10566000000E+00 0.  1.
     999900   -1    0    0    0    0 -0.00000000000E+00 -0.00000000000E+00 -0.74505805969E-08  0.93827000000E+00  0.93827000000E+00 0.  1.
     999902    2    1    2    0    0  0.10247465195E-01  0.82716259813E-02 -0.65428188046E-02  0.10292249391E+01  0.10291198844E+01 0.  0.
     999903    2    3    3    0    0 -0.82947178096E-01 -0.98067077104E-01  0.20870644206E-01  0.13751609686E+00  0.44471419354E-01 0.  0.
         14    1    1    2    0    0 -0.10247465195E-01 -0.82716259813E-02  0.65428188046E-02  0.14705060939E-01  0.00000000000E+00 0.  1.
     999901    1    3    3    0    0  0.93194643291E-01  0.10633870309E+00 -0.27413463010E-01  0.89170884220E+00  0.88000000000E+00 0. -1.
        -11    1    4    4    0    0 -0.76553799087E-02 -0.37916161461E-01  0.13060074322E-01  0.40829729411E-01  0.51100000000E-03 0.  1.
         11    1    4    4    0    0 -0.75291798187E-01 -0.60150915643E-01  0.78105698842E-02  0.96686367446E-01  0.51100000000E-03 0. -1.
</event>
<event>
 8    1  0.2927513E+004  0.1043930E+01  0.7957747E-01            NaN
         13   -1    0    0    0    0  0.00000000000E+00  0.00000000000E+00  0.74505805969E-08  0.10566000000E+00  0.10566000000E+00 0.  1.
     999900   -1    0    0    0    0 -0.00000000000E+00 -0.00000000000E+00 -0.74505805969E-08  0.93827000000E+00  0.93827000000E+00 0. -1.
     999902    2    1    2    0    0  0.78356312368E-02 -0.37600832954E-02 -0.97533854389E-02  0.10308661617E+01  0.10307833815E+01 0.  0.
     999903    2    3    3    0    0  0.98014848024E-01  0.19852048052E-01  0.87786046399E-01  0.14058319285E+00  0.45345671505E-01 0.  0.
         14    1    1    2    0    0 -0.78356312368E-02  0.37600832954E-02  0.97533854389E-02  0.13063838287E-01  0.00000000000E+00 0.  1.
     999901    1    3    3    0    0 -0.90179216787E-01 -0.23612131348E-01 -0.97539431838E-01  0.89028296886E+00  0.88000000000E+00 0. -1.
        -11    1    4    4    0    0  0.69506380421E-01  0.13869543553E-01  0.85930355295E-01  0.11139025200E+00  0.51100000000E-03 0.  1.
         11    1    4    4    0    0  0.28508467602E-01  0.59825044997E-02  0.18556911033E-02  0.29192940852E-01  0.51100000000E-03 0. -1.
</event>
<event>
 8    1  0.2927513E+004  0.1043930E+01  0.7957747E-01            NaN
         13   -1    0    0    0    0  0.00000000000E+00  0.00000000000E+00  0.74505805969E-08  0.10566000000E+00  0.10566000000E+00 0.  1.
     999900   -1    0    0    0    0 -0.00000000000E+00 -0.00000000000E+00 -0.74505805969E-08  0.93827000000E+00  0.93827000000E+00 0.  1.
     999902    2    1    2    0    0 -0.11842719088E-01 -0.66217786662E-03  0.17480416397E-02  0.10319406662E+01  0.10318710164E+01 0.  0.
     999903    2    3    3    0    0 -0.13067112373E+00 -0.42141714726E-01 -0.11410391389E-02  0.14298111229E+00  0.39892728726E-01 0.  0.
         14    1    1    2    0    0  0.11842719088E-01  0.66217786662E-03 -0.17480416397E-02  0.11989333781E-01  0.00000000000E+00 0. -1.
     999901    1    3    3    0    0  0.11882840464E+00  0.41479536859E-01  0.28890807787E-02  0.88895955393E+00  0.88000000000E+00 0.  1.
        -11    1    4    4    0    0 -0.65283722616E-01 -0.41318966703E-01 -0.53783808837E-02  0.77449399933E-01  0.51100000000E-03 0.  1.
         11    1    4    4    0    0 -0.65387401115E-01 -0.82274802287E-03  0.42373417447E-02  0.65531712361E-01  0.51100000000E-03 0. -1.
</event>
<event>
 8    1  0.2927513E+004  0.1043930E+01  0.7957747E-01            NaN
         13   -1    0    0    0    0  0.00000000000E+00  0.00000000000E+00  0.74505805969E-08  0.10566000000E+00  0.10566000000E+00 0. -1.
     999900   -1    0    0    0    0 -0.00000000000E+00 -0.00000000000E+00 -0.74505805969E-08  0.93827000000E+00  0.93827000000E+00 0.  1.
     999902    2    1    2    0    0 -0.46141339186E-02  0.50775367499E-03 -0.14317337207E-01  0.10288789472E+01  0.10287688534E+01 0.  0.
     999903    2    3    3    0    0 -0.84006869884E-02 -0.40269547416E-01 -0.12557396095E+00  0.14092896967E+00  0.48989252230E-01 0.  0.
         14    1    1    2    0    0  0.46141339186E-02 -0.50775367499E-03  0.14317337207E-01  0.15051052797E-01  0.00000000000E+00 0. -1.
     999901    1    3    3    0    0  0.37865530698E-02  0.40777301091E-01  0.11125662374E+00  0.88794997753E+00  0.88000000000E+00 0. -1.
        -11    1    4    4    0    0 -0.26697146178E-01 -0.30974410365E-01 -0.63322816260E-01  0.75380315014E-01  0.51100000000E-03 0. -1.
         11    1    4    4    0    0  0.18296459189E-01 -0.92951370504E-02 -0.62251144688E-01  0.65548654660E-01  0.51100000000E-03 0.  1.
</event>
<event>
 8    1  0.2927513E+004  0.1043930E+01  0.7957747E-01            NaN
         13   -1    0    0    0    0  0.00000000000E+00  0.00000000000E+00  0.74505805969E-08  0.10566000000E+00  0.10566000000E+00 0.  1.
     999900   -1    0    0    0    0 -0.00000000000E+00 -0.00000000000E+00 -0.74505805969E-08  0.93827000000E+00  0.93827000000E+00 0.  1.
     999902    2    1    2    0    0  0.68939966300E-02  0.46933663645E-02 -0.10896343320E-01  0.10302082955E+01  0.10301169093E+01 0.  0.
     999903    2    3    3    0    0  0.76929752791E-01  0.30975496978E-02  0.10721826999E+00  0.13955762565E+00  0.45307745254E-01 0.  0.
         14    1    1    2    0    0 -0.68939966300E-02 -0.46933663645E-02  0.10896343320E-01  0.13721704527E-01  0.00000000000E+00 0.  1.
     999901    1    3    3    0    0 -0.70035756161E-01  0.15958166667E-02 -0.11811461331E+00  0.89065066982E+00  0.88000000000E+00 0.  1.
        -11    1    4    4    0    0 -0.15963464439E-03  0.11690021112E-01  0.15885673446E-01  0.19730631481E-01  0.51100000000E-03 0. -1.
         11    1    4    4    0    0  0.77089387436E-01 -0.85924714137E-02  0.91332596544E-01  0.11982699417E+00  0.51100000000E-03 0.  1.
</event>
<event>
 7    1  0.2927513E+004  0.1043930E+01  0.7957747E-01            NaN
         13   -1    0    0    0    0  0.00000000000E+00  0.00000000000E+00  0.74505805969E-08  0.10566000000E+00  0.10566000000E+00 0. -1.
     999900   -1    0    0    0    0 -0.00000000000E+00 -0.00000000000E+00 -0.74505805969E-08  0.93827000000E+00  0.93827000000E+00 0.  1.
     999903    2    1    2    0    0 -0.93984074158E-01 -0.82745593945E-02  0.65160370875E-02  0.10477399026E+00  0.45096072633E-01 0.  0.
         14    1    1    2    0    0 -0.54737038595E-03 -0.51839012780E-01  0.39520000573E-02  0.51992318325E-01  0.00000000000E+00 0. -1.
     999901    1    1    2    0    0  0.94531444543E-01  0.60113572174E-01 -0.10468037145E-01  0.88716369142E+00  0.88000000000E+00 0.  1.
        -11    1    3    3    0    0 -0.66549380200E-01 -0.60513092100E-02 -0.16565775212E-01  0.68848561188E-01  0.51100000000E-03 0.  1.
         11    1    3    3    0    0 -0.27434693957E-01 -0.22232501845E-02  0.23081812299E-01  0.35925429071E-01  0.51100000000E-03 0. -1.
</event>
<event>
 8    1  0.2927513E+004  0.1043930E+01  0.7957747E-01            NaN
         13   -1    0    0    0    0  0.00000000000E+00  0.00000000000E+00  0.74505805969E-08  0.10566000000E+00  0.10566000000E+00 0.  1.
     999900   -1    0    0    0    0 -0.00000000000E+00 -0.00000000000E+00 -0.74505805969E-08  0.93827000000E+00  0.93827000000E+00 0.  1.
     999902    2    1    2    0    0  0.57441613539E-02  0.10834669798E-01 -0.60573550280E-02  0.10302523902E+01  0.10301615944E+01 0.  0.
     999903    2    3    3    0    0  0.10337693541E+00 -0.45175019874E-01  0.69960296782E-01  0.13983230549E+00  0.43943797491E-01 0.  0.
         14    1    1    2    0    0 -0.57441613539E-02 -0.10834669798E-01  0.60573550280E-02  0.13677609778E-01  0.00000000000E+00 0.  1.
     999901    1    3    3    0    0 -0.97632774055E-01  0.56009689672E-01 -0.76017651810E-01  0.89042008473E+00  0.88000000000E+00 0.  1.
        -11    1    4    4    0    0  0.22449578692E-01 -0.21996583933E-01  0.39105836421E-01  0.50173308156E-01  0.51100000000E-03 0. -1.
         11    1    4    4    0    0  0.80927356717E-01 -0.23178435941E-01  0.30854460361E-01  0.89658997335E-01  0.51100000000E-03 0.  1.
</event>
<event>
 7    1  0.2927513E+004  0.1043930E+01  0.7957747E-01            NaN
         13   -1    0    0    0    0  0.00000000000E+00  0.00000000000E+00  0.74505805969E-08  0.10566000000E+00  0.10566000000E+00 0.  1.
     999900   -1    0    0    0    0 -0.00000000000E+00 -0.00000000000E+00 -0.74505805969E-08  0.93827000000E+00  0.93827000000E+00 0. -1.
     999903    2    1    2    0    0 -0.10801250983E+00  0.27006910817E-01  0.12028320191E-01  0.12045324995E+00  0.44364731785E-01 0.  0.
         14    1    1    2    0    0  0.90932577930E-02  0.29779456161E-01 -0.18255399364E-01  0.36093807675E-01  0.00000000000E+00 0.  1.
     999901    1    1    2    0    0  0.98919252035E-01 -0.56786366978E-01  0.62270791735E-02  0.88738294237E+00  0.88000000000E+00 0.  1.
        -11    1    3    3    0    0 -0.93993076719E-01  0.11012030059E-01  0.21683293131E-01  0.97089595730E-01  0.51100000000E-03 0.  1.
         11    1    3    3    0    0 -0.14019433110E-01  0.15994880758E-01 -0.96549729401E-02  0.23363654223E-01  0.51100000000E-03 0. -1.
</event>
<event>
 8    1  0.2927513E+004  0.1043930E+01  0.7957747E-01            NaN
         13   -1    0    0    0    0  0.00000000000E+00  0.00000000000E+00  0.74505805969E-08  0.10566000000E+00  0.10566000000E+00 0. -1.
     999900   -1    0    0    0    0 -0.00000000000E+00 -0.00000000000E+00 -0.74505805969E-08  0.93827000000E+00  0.93827000000E+00 0.  1.
     999902    2    1    2    0    0  0.41674643329E-02 -0.77470548666E-02  0.10459756361E-01  0.10302628452E+01  0.10301721890E+01 0.  0.
     999903    2    3    3    0    0  0.10570292215E-01 -0.13143062665E+00 -0.22021202166E-01  0.14099706105E+00  0.44827415495E-01 0.  0.
         14    1    1    2    0    0 -0.41674643329E-02  0.77470548666E-02 -0.10459756361E-01  0.13667154832E-01  0.00000000000E+00 0. -1.
     999901    1    3    3    0    0 -0.64028278819E-02  0.12368357179E+00  0.32480958528E-01  0.88926578412E+00  0.88000000000E+00 0. -1.
        -11    1    4    4    0    0  0.12732697560E-03 -0.34370928827E-01  0.13757596568E-01  0.37025795669E-01  0.51100000000E-03 0. -1.
         11    1    4    4    0    0  0.10442965239E-01 -0.97059697827E-01 -0.35778798734E-01  0.10397126538E+00  0.51100000000E-03 0.  1.
</event>
<event>
 8    1  0.2927513E+004  0.1043930E+01  0.7957747E-01            NaN
         13   -1    0    0    0    0  0.00000000000E+00  0.00000000000E+00  0.74505805969E-08  0.10566000000E+00  0.10566000000E+00 0.  1.
     999900   -1    0    0    0    0 -0.00000000000E+00 -0.00000000000E+00 -0.74505805969E-08  0.93827000000E+00  0.93827000000E+00 0. -1.
     999902    2    1    2    0    0 -0.13046122899E-01 -0.37420003279E-02  0.48311434429E-02  0.10295236182E+01  0.10294228172E+01 0.  0.
     999903    2    3    3    0    0  0.10834747706E+00  0.72012047570E-01  0.41923540784E-02  0.13796571772E+00  0.45738962100E-01 0.  0.
         14    1    1    2    0    0  0.13046122899E-01  0.37420003279E-02 -0.48311434429E-02  0.14406381784E-01  0.00000000000E+00 0. -1.
     999901    1    3    3    0    0 -0.12139359995E+00 -0.75754047898E-01  0.63878936450E-03  0.89155790049E+00  0.88000000000E+00 0. -1.
        -11    1    4    4    0    0  0.68314064851E-01  0.59355632445E-01  0.20718910473E-01  0.92840922721E-01  0.51100000000E-03 0.  1.
         11    1    4    4    0    0  0.40033412205E-01  0.12656415124E-01 -0.16526556394E-01  0.45124795000E-01  0.51100000000E-03 0. -1.
</event>
<event>
 8    1  0.2927513E+004  0.1043930E+01  0.7957747E-01            NaN
         13   -1    0    0    0    0  0.00000000000E+00  0.00000000000E+00  0.74505805969E-08  0.10566000000E+00  0.10566000000E+00 0.  1.
     999900   -1    0    0    0    0 -0.00000000000E+00 -0.00000000000E+00 -0.74505805969E-08  0.93827000000E+00  0.93827000000E+00 0.  1.
     999902    2    1    2    0    0  0.50737327039E-02 -0.87559379968E-02  0.98571206090E-02  0.10298030031E+01  0.10297061004E+01 0.  0.
     999903    2    3    3    0    0  0.32876582273E-01 -0.71622215281E-01 -0.10524573779E+00  0.13964917639E+00  0.47059704188E-01 0.  0.
         14    1    1    2    0    0 -0.50737327039E-02  0.87559379968E-02 -0.98571206090E-02  0.14126996866E-01  0.00000000000E+00 0. -1.
     999901    1    3    3    0    0 -0.27802849569E-01  0.62866277284E-01  0.11510285840E+00  0.89015382675E+00  0.88000000000E+00 0. -1.
        -11    1    4    4    0    0  0.45037630978E-01 -0.53583117402E-01 -0.78775327938E-01  0.10538193435E+00  0.51100000000E-03 0.  1.
         11    1    4    4    0    0 -0.12161048706E-01 -0.18039097878E-01 -0.26470409853E-01  0.34267242035E-01  0.51100000000E-03 0. -1.
</event>
<event>
 8    1  0.2927513E+004  0.1043930E+01  0.7957747E-01            NaN
         13   -1    0    0    0    0  0.00000000000E+00  0.00000000000E+00  0.74505805969E-08  0.10566000000E+00  0.10566000000E+00 0. -1.
     999900   -1    0    0    0    0 -0.00000000000E+00 -0.00000000000E+00 -0.74505805969E-08  0.93827000000E+00  0.93827000000E+00 0. -1.
     999902    2    1    2    0    0  0.80860292115E-02 -0.75398787191E-02  0.72341446135E-02  0.10307176388E+01  0.10306329533E+01 0.  0.
     999903    2    3    3    0    0  0.16318663771E-01 -0.12096691702E+00 -0.54845254493E-01  0.14123052757E+00  0.45152698450E-01 0.  0.
         14    1    1    2    0    0 -0.80860292115E-02  0.75398787191E-02 -0.72341446135E-02  0.13212361174E-01  0.00000000000E+00 0.  1.
     999901    1    3    3    0    0 -0.82326345594E-02  0.11342703830E+00  0.62079399107E-01  0.88948711125E+00  0.88000000000E+00 0. -1.
        -11    1    4    4    0    0 -0.10703983578E-02 -0.10259478741E+00 -0.32927838334E-01  0.10775592705E+00  0.51100000000E-03 0.  1.
         11    1    4    4    0    0  0.17389062129E-01 -0.18372129617E-01 -0.21917416159E-01  0.33474600527E-01  0.51100000000E-03 0. -1.
</event>
<event>
 8    1  0.2927513E+004  0.1043930E+01  0.7957747E-01            NaN
         13   -1    0    0    0    0  0.00000000000E+00  0.00000000000E+00  0.74505805969E-08  0.10566000000E+00  0.10566000000E+00 0. -1.
     999900   -1    0    0    0    0 -0.00000000000E+00 -0.00000000000E+00 -0.74505805969E-08  0.93827000000E+00  0.93827000000E+00 0.  1.
     999902    2    1    2    0    0 -0.84710698914E-02  0.16411004184E-01  0.55961653601E-02  0.10246324056E+01  0.10244506672E+01 0.  0.
     999903    2    3    3    0    0  0.10830304939E+00 -0.42035258938E-01  0.46094983167E-01  0.13407509982E+00  0.48527017405E-01 0.  0.
         14    1    1    2    0    0  0.84710698914E-02 -0.16411004184E-01 -0.55961653601E-02  0.19297594414E-01  0.00000000000E+00 0.  1.
     999901    1    3    3    0    0 -0.11677411928E+00  0.58446263123E-01 -0.40498817807E-01  0.89055730576E+00  0.88000000000E+00 0.  1.
        -11    1    4    4    0    0  0.84428166843E-01 -0.46553785503E-01  0.51311236342E-01  0.10921755535E+00  0.51100000000E-03 0.  1.
         11    1    4    4    0    0  0.23874882545E-01  0.45185265645E-02 -0.52162531754E-02  0.24857544470E-01  0.51100000000E-03 0. -1.
</event>
<event>
 8    1  0.2927513E+004  0.1043930E+01  0.7957747E-01            NaN
         13   -1    0    0    0    0  0.00000000000E+00  0.00000000000E+00  0.74505805969E-08  0.10566000000E+00  0.10566000000E+00 0. -1.
     999900   -1    0    0    0    0 -0.00000000000E+00 -0.00000000000E+00 -0.74505805969E-08  0.93827000000E+00  0.93827000000E+00 0. -1.
     999902    2    1    2    0    0 -0.33697271816E-02 -0.31703885574E-02  0.11600530274E-01  0.10314408556E+01  0.10313652408E+01 0.  0.
     999903    2    3    3    0    0  0.53422128510E-02  0.57323657074E-01  0.12158090927E+00  0.14249141317E+00  0.46982384246E-01 0.  0.
         14    1    1    2    0    0  0.33697271816E-02  0.31703885574E-02 -0.11600530274E-01  0.12489144387E-01  0.00000000000E+00 0. -1.
     999901    1    3    3    0    0 -0.87119400327E-02 -0.60494045631E-01 -0.10998037900E+00  0.88894944244E+00  0.88000000000E+00 0. -1.
        -11    1    4    4    0    0 -0.20116898968E-01  0.31708932981E-01  0.71252424743E-01  0.80543871323E-01  0.51100000000E-03 0.  1.
         11    1    4    4    0    0  0.25459111820E-01  0.25614724093E-01  0.50328484527E-01  0.61947541847E-01  0.51100000000E-03 0. -1.
</event>
<event>
 8    1  0.2927513E+004  0.1043930E+01  0.7957747E-01            NaN
         13   -1    0    0    0    0  0.00000000000E+00  0.00000000000E+00  0.74505805969E-08  0.10566000000E+00  0.10566000000E+00 0. -1.
     999900   -1    0    0    0    0 -0.00000000000E+00 -0.00000000000E+00 -0.74505805969E-08  0.93827000000E+00  0.93827000000E+00 0.  1.
     999902    2    1    2    0    0  0.12619235328E-01  0.32640812460E-02  0.32701382982E-02  0.10304915056E+01  0.10304038771E+01 0.  0.
     999903    2    3    3    0    0  0.11470743868E+00 -0.57066029469E-01 -0.40108482639E-01  0.14147889138E+00  0.44645919415E-01 0.  0.
         14    1    1    2    0    0 -0.12619235328E-01 -0.32640812460E-02 -0.32701382982E-02  0.13438494377E-01  0.00000000000E+00 0.  1.
     999901    1    3    3    0    0 -0.10208820335E+00  0.60330110715E-01  0.43378620937E-01  0.88901261424E+00  0.88000000000E+00 0. -1.
        -11    1    4    4    0    0  0.77501880310E-01 -0.58598554307E-01 -0.20160781569E-01  0.99232304483E-01  0.51100000000E-03 0. -1.
         11    1    4    4    0    0  0.37205558367E-01  0.15325248386E-02 -0.19947701070E-01  0.42246586901E-01  0.51100000000E-03 0.  1.
</event>
<event>
 8    1  0.2927513E+004  0.1043930E+01  0.7957747E-01            NaN
         13   -1    0    0    0    0  0.00000000000E+00  0.00000000000E+00  0.74505805969E-08  0.10566000000E+00  0.10566000000E+00 0.  1.
     999900   -1    0    0    0    0 -0.00000000000E+00 -0.00000000000E+00 -0.74505805969E-08  0.93827000000E+00  0.93827000000E+00 0.  1.
     999902    2    1    2    0    0 -0.82101262340E-02  0.33104501070E-02 -0.10956398302E-01  0.10298442655E+01  0.10297479319E+01 0.  0.
     999903    2    3    3    0    0  0.54365956387E-01 -0.17838505335E-01 -0.12026663359E+00  0.14062451090E+00  0.45136686011E-01 0.  0.
         14    1    1    2    0    0  0.82101262340E-02 -0.33104501070E-02  0.10956398302E-01  0.14085734501E-01  0.00000000000E+00 0.  1.
     999901    1    3    3    0    0 -0.62576082621E-01  0.21148955442E-01  0.10931023529E+00  0.88921975460E+00  0.88000000000E+00 0. -1.
        -11    1    4    4    0    0  0.38986044417E-01  0.10468180215E-01 -0.60620718195E-01  0.72832870682E-01  0.51100000000E-03 0. -1.
         11    1    4    4    0    0  0.15379911970E-01 -0.28306685549E-01 -0.59645915395E-01  0.67791640217E-01  0.51100000000E-03 0.  1.
</event>
<event>
 8    1  0.2927513E+004  0.1043930E+01  0.7957747E-01            NaN
         13   -1    0    0    0    0  0.00000000000E+00  0.00000000000E+00  0.74505805969E-08  0.10566000000E+00  0.10566000000E+00 0. -1.
     999900   -1    0    0    0    0 -0.00000000000E+00 -0.00000000000E+00 -0.74505805969E-08  0.93827000000E+00  0.93827000000E+00 0. -1.
     999902    2    1    2    0    0  0.10979192477E-01  0.16720956134E-01 -0.70251194598E-02  0.10227289306E+01  0.10225091589E+01 0.  0.
     999903    2    3    3    0    0 -0.92788008671E-01 -0.31391647952E-01  0.75505289829E-01  0.13149735395E+00  0.44670518131E-01 0.  0.
         14    1    1    2    0    0 -0.10979192477E-01 -0.16720956134E-01  0.70251194598E-02  0.21201069428E-01  0.00000000000E+00 0. -1.
     999901    1    3    3    0    0  0.10376720115E+00  0.48112604086E-01 -0.82530409289E-01  0.89123157662E+00  0.88000000000E+00 0. -1.
        -11    1    4    4    0    0 -0.39393164267E-01 -0.68156681046E-02  0.59363643624E-02  0.40419998337E-01  0.51100000000E-03 0.  1.
         11    1    4    4    0    0 -0.53394844404E-01 -0.24575979848E-01  0.69568925467E-01  0.91077355616E-01  0.51100000000E-03 0. -1.
</event>
<event>
 8    1  0.2927513E+004  0.1043930E+01  0.7957747E-01            NaN
         13   -1    0    0    0    0  0.00000000000E+00  0.00000000000E+00  0.74505805969E-08  0.10566000000E+00  0.10566000000E+00 0.  1.
     999900   -1    0    0    0    0 -0.00000000000E+00 -0.00000000000E+00 -0.74505805969E-08  0.93827000000E+00  0.93827000000E+00 0.  1.
     999902    2    1    2    0    0  0.12695429834E-01  0.69991594457E-03  0.88490678734E-02  0.10284390406E+01  0.10283223670E+01 0.  0.
     999903    2    3    3    0    0  0.60865187317E-01  0.92465647024E-01  0.73396869773E-01  0.14000913697E+00  0.44283078424E-01 0.  0.
         14    1    1    2    0    0 -0.12695429834E-01 -0.69991594457E-03 -0.88490678734E-02  0.15490959403E-01  0.00000000000E+00 0. -1.
     999901    1    3    3    0    0 -0.48169757483E-01 -0.91765731080E-01 -0.64547801900E-01  0.88842990363E+00  0.88000000000E+00 0.  1.
        -11    1    4    4    0    0  0.28743387028E-01  0.60657062329E-01  0.66115031782E-01  0.94217408459E-01  0.51100000000E-03 0. -1.
         11    1    4    4    0    0  0.32121800289E-01  0.31808584696E-01  0.72818379910E-02  0.45791728507E-01  0.51100000000E-03 0.  1.
</event>
<event>
 8    1  0.2927513E+004  0.1043930E+01  0.7957747E-01            NaN
         13   -1    0    0    0    0  0.00000000000E+00  0.00000000000E+00  0.74505805969E-08  0.10566000000E+00  0.10566000000E+00 0.  1.
     999900   -1    0    0    0    0 -0.00000000000E+00 -0.00000000000E+00 -0.74505805969E-08  0.93827000000E+00  0.93827000000E+00 0. -1.
     999902    2    1    2    0    0 -0.13807053207E-01 -0.89967666361E-03  0.52795520162E-03  0.10300835971E+01  0.10299905311E+01 0.  0.
     999903    2    3    3    0    0 -0.24647389968E-01  0.18856498187E-03 -0.13059068137E+00  0.14030227901E+00  0.44980818654E-01 0.  0.
         14    1    1    2    0    0  0.13807053207E-01  0.89967666361E-03 -0.52795520162E-03  0.13846402892E-01  0.00000000000E+00 0.  1.
     999901    1    3    3    0    0  0.10840336761E-01 -0.10882416455E-02  0.13111863657E+00  0.88978131809E+00  0.88000000000E+00 0.  1.
        -11    1    4    4    0    0 -0.34272522696E-01 -0.87358729942E-02 -0.11260839184E+00  0.11803318314E+00  0.51100000000E-03 0. -1.
         11    1    4    4    0    0  0.96251327271E-02  0.89244379761E-02 -0.17982289530E-01  0.22269095872E-01  0.51100000000E-03 0.  1.
</event>
<event>
 8    1  0.2927513E+004  0.1043930E+01  0.7957747E-01            NaN
         13   -1    0    0    0    0  0.00000000000E+00  0.00000000000E+00  0.74505805969E-08  0.10566000000E+00  0.10566000000E+00 0. -1.
     999900   -1    0    0    0    0 -0.00000000000E+00 -0.00000000000E+00 -0.74505805969E-08  0.93827000000E+00  0.93827000000E+00 0. -1.
     999902    2    1    2    0    0 -0.12794406476E-01 -0.79861870038E-02  0.13738000967E-01  0.10235288066E+01  0.10233254660E+01 0.  0.
     999903    2    3    3    0    0  0.92587941887E-01 -0.59155747649E-01 -0.66237973093E-01  0.13217033795E+00  0.31774198513E-01 0.  0.
         14    1    1    2    0    0  0.12794406476E-01  0.79861870038E-02 -0.13738000967E-01  0.20401193359E-01  0.00000000000E+00 0.  1.
     999901    1    3    3    0    0 -0.10538234836E+00  0.51169560645E-01  0.79975974060E-01  0.89135846869E+00  0.88000000000E+00 0.  1.
        -11    1    4    4    0    0  0.43539711507E-01 -0.11299123729E-01 -0.18434827968E-01  0.48615642322E-01  0.51100000000E-03 0.  1.
         11    1    4    4    0    0  0.49048230380E-01 -0.47856623920E-01 -0.47803145125E-01  0.83554695626E-01  0.51100000000E-03 0. -1.
</event>
<event>
 8    1  0.2927513E+004  0.1043930E+01  0.7957747E-01            NaN
         13   -1    0    0    0    0  0.00000000000E+00  0.00000000000E+00  0.74505805969E-08  0.10566000000E+00  0.10566000000E+00 0. -1.
     999900   -1    0    0    0    0 -0.00000000000E+00 -0.00000000000E+00 -0.74505805969E-08  0.93827000000E+00  0.93827000000E+00 0.  1.
     999902    2    1    2    0    0  0.57274005403E-02 -0.64442334593E-02  0.65346137357E-02  0.10331118468E+01  0.10330552045E+01 0.  0.
     999903    2    3    3    0    0  0.55465380597E-01 -0.10454180035E+00 -0.67203069306E-01  0.14320497236E+00  0.44564729551E-01 0.  0.
         14    1    1    2    0    0 -0.57274005403E-02  0.64442334593E-02 -0.65346137357E-02  0.10818153193E-01  0.00000000000E+00 0.  1.
     999901    1    3    3    0    0 -0.49737980057E-01  0.98097566887E-01  0.73737683041E-01  0.88990687445E+00  0.88000000000E+00 0. -1.
        -11    1    4    4    0    0  0.46863794311E-01 -0.42092417250E-01 -0.39434326530E-01  0.74319001857E-01  0.51100000000E-03 0.  1.
         11    1    4    4    0    0  0.86015862863E-02 -0.62449383096E-01 -0.27768742776E-01  0.68885970502E-01  0.51100000000E-03 0. -1.
</event>
<event>
 7    1  0.2927513E+004  0.1043930E+01  0.7957747E-01            NaN
         13   -1    0    0    0    0  0.00000000000E+00  0.00000000000E+00  0.74505805969E-08  0.10566000000E+00  0.10566000000E+00 0.  1.
     999900   -1    0    0    0    0 -0.00000000000E+00 -0.00000000000E+00 -0.74505805969E-08  0.93827000000E+00  0.93827000000E+00 0. -1.
     999903    2    1    2    0    0  0.91252777740E-01 -0.68892474462E-01  0.16757000624E-01  0.12397358506E+00  0.44893320675E-01 0.  0.
         14    1    1    2    0    0 -0.26528840238E-01  0.10146714802E-01 -0.21484361189E-01  0.35613381773E-01  0.00000000000E+00 0. -1.
     999901    1    1    2    0    0 -0.64723937502E-01  0.58745759660E-01  0.47273605657E-02  0.88434303316E+00  0.88000000000E+00 0. -1.
        -11    1    3    3    0    0  0.16891503206E-01 -0.13563242667E-01 -0.14595284108E-01  0.26125999912E-01  0.51100000000E-03 0.  1.
         11    1    3    3    0    0  0.74361274534E-01 -0.55329231795E-01  0.31352284732E-01  0.97847585153E-01  0.51100000000E-03 0. -1.
</event>
<event>
 8    1  0.2927513E+004  0.1043930E+01  0.7957747E-01            NaN
         13   -1    0    0    0    0  0.00000000000E+00  0.00000000000E+00  0.74505805969E-08  0.10566000000E+00  0.10566000000E+00 0.  1.
     999900   -1    0    0    0    0 -0.00000000000E+00 -0.00000000000E+00 -0.74505805969E-08  0.93827000000E+00  0.93827000000E+00 0. -1.
     999902    2    1    2    0    0  0.81073376132E-02  0.41137324985E-02 -0.95097135834E-02  0.10307737707E+01  0.10306898078E+01 0.  0.
     999903    2    3    3    0    0 -0.37771024246E-01  0.10323507753E+00  0.74088879185E-01  0.14008943272E+00  0.45296309293E-01 0.  0.
         14    1    1    2    0    0 -0.81073376132E-02 -0.41137324985E-02  0.95097135834E-02  0.13156229349E-01  0.00000000000E+00 0.  1.
     999901    1    3    3    0    0  0.45878361859E-01 -0.99121345029E-01 -0.83598592768E-01  0.89068433793E+00  0.88000000000E+00 0. -1.
        -11    1    4    4    0    0 -0.98331419796E-02  0.84826392026E-01  0.54794232828E-01  0.10146367102E+00  0.51100000000E-03 0. -1.
         11    1    4    4    0    0 -0.27937882266E-01  0.18408685502E-01  0.19294646356E-01  0.38625761694E-01  0.51100000000E-03 0.  1.
</event>
<event>
 8    1  0.2927513E+004  0.1043930E+01  0.7957747E-01            NaN
         13   -1    0    0    0    0  0.00000000000E+00  0.00000000000E+00  0.74505805969E-08  0.10566000000E+00  0.10566000000E+00 0.  1.
     999900   -1    0    0    0    0 -0.00000000000E+00 -0.00000000000E+00 -0.74505805969E-08  0.93827000000E+00  0.93827000000E+00 0.  1.
     999902    2    1    2    0    0 -0.11996692143E-01 -0.70732321158E-03 -0.10283584554E-01  0.10281131406E+01  0.10279914673E+01 0.  0.
     999903    2    3    3    0    0  0.50576998429E-01  0.90112794024E-01 -0.80608149801E-01  0.13844505370E+00  0.44620742531E-01 0.  0.
         14    1    1    2    0    0  0.11996692143E-01  0.70732321158E-03  0.10283584554E-01  0.15816859353E-01  0.00000000000E+00 0.  1.
     999901    1    3    3    0    0 -0.62573690572E-01 -0.90820117236E-01  0.70324565247E-01  0.88966808694E+00  0.88000000000E+00 0. -1.
        -11    1    4    4    0    0  0.52495676746E-01  0.66928725493E-01 -0.45891519597E-01  0.96651658367E-01  0.51100000000E-03 0. -1.
         11    1    4    4    0    0 -0.19186783170E-02  0.23184068531E-01 -0.34716630204E-01  0.41793395338E-01  0.51100000000E-03 0.  1.
</event>
<event>
 7    1  0.2927513E+004  0.1043930E+01  0.7957747E-01            NaN
         13   -1    0    0    0    0  0.00000000000E+00  0.00000000000E+00  0.74505805969E-08  0.10566000000E+00  0.10566000000E+00 0. -1.
     999900   -1    0    0    0    0 -0.00000000000E+00 -0.00000000000E+00 -0.74505805969E-08  0.93827000000E+00  0.93827000000E+00 0. -1.
     999903    2    1    2    0    0 -0.69445091837E-01 -0.54768405158E-01 -0.21226970095E-01  0.10221515770E+00  0.46638559364E-01 0.  0.
         14    1    1    2    0    0  0.14931587995E-01 -0.15328550789E-02 -0.53033520880E-01  0.55116751552E-01  0.00000000000E+00 0.  1.
     999901    1    1    2    0    0  0.54513503842E-01  0.56301260237E-01  0.74260490975E-01  0.88659809075E+00  0.88000000000E+00 0.  1.
        -11    1    3    3    0    0 -0.35549504950E-01 -0.37727642593E-01 -0.34213654762E-01  0.62112620384E-01  0.51100000000E-03 0.  1.
         11    1    3    3    0    0 -0.33895586887E-01 -0.17040762565E-01  0.12986684667E-01  0.40102537312E-01  0.51100000000E-03 0. -1.
</event>
<event>
 8    1  0.2927513E+004  0.1043930E+01  0.7957747E-01            NaN
         13   -1    0    0    0    0  0.00000000000E+00  0.00000000000E+00  0.74505805969E-08  0.10566000000E+00  0.10566000000E+00 0. -1.
     999900   -1    0    0    0    0 -0.00000000000E+00 -0.00000000000E+00 -0.74505805969E-08  0.93827000000E+00  0.93827000000E+00 0.  1.
     999902    2    1    2    0    0  0.10627470399E-01  0.76567700321E-02 -0.39445097639E-02  0.10302505113E+01  0.10301596903E+01 0.  0.
     999903    2    3    3    0    0  0.10237706806E+00  0.70834253056E-01  0.45104469867E-01  0.14187267194E+00  0.50940027185E-01 0.  0.
         14    1    1    2    0    0 -0.10627470399E-01 -0.76567700321E-02  0.39445097639E-02  0.13679488722E-01  0.00000000000E+00 0.  1.
     999901    1    3    3    0    0 -0.91749597661E-01 -0.63177483024E-01 -0.49048979631E-01  0.88837783934E+00  0.88000000000E+00 0.  1.
        -11    1    4    4    0    0  0.16505124546E-01  0.16484831822E-01 -0.10990468869E-01  0.25791865838E-01  0.51100000000E-03 0. -1.
         11    1    4    4    0    0  0.85871943514E-01  0.54349421235E-01  0.56094938736E-01  0.11608080610E+00  0.51100000000E-03 0.  1.
</event>
<event>
 7    1  0.2927513E+004  0.1043930E+01  0.7957747E-01            NaN
         13   -1    0    0    0    0  0.00000000000E+00  0.00000000000E+00  0.74505805969E-08  0.10566000000E+00  0.10566000000E+00 0. -1.
     999900   -1    0    0    0    0 -0.00000000000E+00 -0.00000000000E+00 -0.74505805969E-08  0.93827000000E+00  0.93827000000E+00 0.  1.
     999902    2    1    2    0    0 -0.91899587520E-02  0.73150307688E-02  0.90922214764E-02  0.10290762628E+01  0.10289690574E+01 0.  0.
         14    1    1    2    0    0  0.91899587520E-02 -0.73150307688E-02 -0.90922214764E-02  0.14853737186E-01  0.00000000000E+00 0.  1.
     999901    1    3    3    0    0  0.91478913091E-01  0.54898678597E-01  0.63895833274E-01  0.88874345790E+00  0.88000000000E+00 0. -1.
        -11    1    3    3    0    0 -0.18143013755E-01 -0.63460100199E-02 -0.43280287475E-01  0.47359108904E-01  0.51100000000E-03 0. -1.
         11    1    3    3    0    0 -0.82525858087E-01 -0.41237637808E-01 -0.11523324323E-01  0.92973696009E-01  0.51100000000E-03 0.  1.
</event>
<event>
 8    1  0.2927513E+004  0.1043930E+01  0.7957747E-01            NaN
         13   -1    0    0    0    0  0.00000000000E+00  0.00000000000E+00  0.74505805969E-08  0.10566000000E+00  0.10566000000E+00 0.  1.
     999900   -1    0    0    0    0 -0.00000000000E+00 -0.00000000000E+00 -0.74505805969E-08  0.93827000000E+00  0.93827000000E+00 0. -1.
     999902    2    1    2    0    0  0.12570845760E-02 -0.10011532273E-01  0.12383242159E-01  0.10279564053E+01  0.10278322896E+01 0.  0.
     999903    2    3    3    0    0 -0.43733927338E-01 -0.11189364636E+00  0.56418592323E-01  0.13984421176E+00  0.44051123764E-01 0.  0.
         14    1    1    2    0    0 -0.12570845760E-02  0.10011532273E-01 -0.12383242159E-01  0.15973594663E-01  0.00000000000E+00 0. -1.
     999901    1    3    3    0    0  0.44991011914E-01  0.10188211409E+00 -0.44035350163E-01  0.88811219358E+00  0.88000000000E+00 0. -1.
        -11    1    4    4    0    0 -0.40354029159E-01 -0.46847809017E-01  0.18813600083E-01  0.64632635318E-01  0.51100000000E-03 0.  1.
         11    1    4    4    0    0 -0.33798981787E-02 -0.65045837347E-01  0.37604992240E-01  0.75211576437E-01  0.51100000000E-03 0. -1.
</event>
<event>
 8    1  0.2927513E+004  0.1043930E+01  0.7957747E-01            NaN
         13   -1    0    0    0    0  0.00000000000E+00  0.00000000000E+00  0.74505805969E-08  0.10566000000E+00  0.10566000000E+00 0.  1.
     999900   -1    0    0    0    0 -0.00000000000E+00 -0.00000000000E+00 -0.74505805969E-08  0.93827000000E+00  0.93827000000E+00 0.  1.
     999902    2    1    2    0    0  0.41101265234E-02 -0.23821032747E-02 -0.12187937115E-01  0.10308489692E+01  0.10307659695E+01 0.  0.
     999903    2    3    3    0    0  0.43680495660E-01 -0.85003563469E-01  0.91966021062E-01  0.13998412714E+00  0.44768463414E-01 0.  0.
         14    1    1    2    0    0 -0.41101265234E-02  0.23821032747E-02  0.12187937115E-01  0.13081030814E-01  0.00000000000E+00 0.  1.
     999901    1    3    3    0    0 -0.39570369136E-01  0.82621460194E-01 -0.10415395818E+00  0.89086484205E+00  0.88000000000E+00 0.  1.
        -11    1    4    4    0    0  0.17556198449E-01 -0.50377046395E-01  0.22101079474E-01  0.57747603780E-01  0.51100000000E-03 0. -1.
         11    1    4    4    0    0  0.26124297210E-01 -0.34626517074E-01  0.69864941588E-01  0.82236523355E-01  0.51100000000E-03 0.  1.
</event>
<event>
 8    1  0.2927513E+004  0.1043930E+01  0.7957747E-01            NaN
         13   -1    0    0    0    0  0.00000000000E+00  0.00000000000E+00  0.74505805969E-08  0.10566000000E+00  0.10566000000E+00 0.  1.
     999900   -1    0    0    0    0 -0.00000000000E+00 -0.00000000000E+00 -0.74505805969E-08  0.93827000000E+00  0.93827000000E+00 0.  1.
     999902    2    1    2    0    0  0.10351517486E-01 -0.82604164989E-02 -0.43600349765E-02  0.10299873209E+01  0.10298929473E+01 0.  0.
     999903    2    3    3    0    0  0.98445933859E-01 -0.20596702381E-01 -0.88727847811E-01  0.14148817180E+00  0.45060467587E-01 0.  0.
         14    1    1    2    0    0 -0.10351517486E-01  0.82604164989E-02  0.43600349765E-02  0.13942679082E-01  0.00000000000E+00 0. -1.
     999901    1    3    3    0    0 -0.88094416373E-01  0.12336285882E-01  0.84367812834E-01  0.88849914912E+00  0.88000000000E+00 0. -1.
        -11    1    4    4    0    0  0.25565782025E-01  0.11155265016E-01 -0.38158154860E-01  0.47268964992E-01  0.51100000000E-03 0. -1.
         11    1    4    4    0    0  0.72880151833E-01 -0.31751967397E-01 -0.50569692951E-01  0.94219206805E-01  0.51100000000E-03 0.  1.
</event>
<event>
 8    1  0.2927513E+004  0.1043930E+01  0.7957747E-01            NaN
         13   -1    0    0    0    0  0.00000000000E+00  0.00000000000E+00  0.74505805969E-08  0.10566000000E+00  0.10566000000E+00 0.  1.
     999900   -1    0    0    0    0 -0.00000000000E+00 -0.00000000000E+00 -0.74505805969E-08  0.93827000000E+00  0.93827000000E+00 0.  1.
     999902    2    1    2    0    0 -0.11448874002E-02 -0.89757414414E-02  0.99527773187E-02  0.10304788856E+01  0.10303910914E+01 0.  0.
     999903    2    3    3    0    0  0.11672289164E+00  0.55861665875E-01  0.28483884650E-01  0.14006319357E+00  0.45404926612E-01 0.  0.
         14    1    1    2    0    0  0.11448874002E-02  0.89757414414E-02 -0.99527773187E-02  0.13451114375E-01  0.00000000000E+00 0. -1.
     999901    1    3    3    0    0 -0.11786777904E+00 -0.64837407317E-01 -0.18531107331E-01  0.89041569206E+00  0.88000000000E+00 0.  1.
        -11    1    4    4    0    0  0.87670909642E-01  0.19245029656E-01  0.25064956790E-01  0.93193737686E-01  0.51100000000E-03 0.  1.
         11    1    4    4    0    0  0.29051981996E-01  0.36616636219E-01  0.34189278597E-02  0.46869455881E-01  0.51100000000E-03 0. -1.
</event>
<event>
 8    1  0.2927513E+004  0.1043930E+01  0.7957747E-01            NaN
         13   -1    0    0    0    0  0.00000000000E+00  0.00000000000E+00  0.74505805969E-08  0.10566000000E+00  0.10566000000E+00 0. -1.
     999900   -1    0    0    0    0 -0.00000000000E+00 -0.00000000000E+00 -0.74505805969E-08  0.93827000000E+00  0.93827000000E+00 0.  1.
     999902    2    1    2    0    0 -0.49187375807E-02 -0.10925287237E-04 -0.13059734360E-01  0.10299746870E+01  0.10298801412E+01 0.  0.
     999903    2    3    3    0    0 -0.90088521750E-01  0.93441149749E-01  0.27908336282E-01  0.13999403258E+00  0.44410175721E-01 0.  0.
         14    1    1    2    0    0  0.49187375807E-02  0.10925287237E-04  0.13059734360E-01  0.13955312977E-01  0.00000000000E+00 0.  1.
     999901    1    3    3    0    0  0.85169784169E-01 -0.93452075036E-01 -0.40968070641E-01  0.88998065444E+00  0.88000000000E+00 0.  1.
        -11    1    4    4    0    0 -0.17665141396E-01  0.41300319281E-01  0.23368064578E-01  0.50636954454E-01  0.51100000000E-03 0.  1.
         11    1    4    4    0    0 -0.72423380354E-01  0.52140830467E-01  0.45402717035E-02  0.89357078129E-01  0.51100000000E-03 0. -1.
</event>
<event>
 8    1  0.2927513E+004  0.1043930E+01  0.7957747E-01            NaN
         13   -1    0    0    0    0  0.00000000000E+00  0.00000000000E+00  0.74505805969E-08  0.10566000000E+00  0.10566000000E+00 0. -1.
     999900   -1    0    0    0    0 -0.00000000000E+00 -0.00000000000E+00 -0.74505805969E-08  0.93827000000E+00  0.93827000000E+00 0. -1.
     999902    2    1    2    0    0 -0.39382025238E-02  0.74468810547E-02  0.12032303350E-01  0.10292418483E+01  0.10291370368E+01 0.  0.
     999903    2    3    3    0    0  0.44602272112E-01 -0.66427918490E-01 -0.10238330164E+00  0.13744333162E+00  0.44791717081E-01 0.  0.
         14    1    1    2    0    0  0.39382025238E-02 -0.74468810547E-02 -0.12032303350E-01  0.14688151703E-01  0.00000000000E+00 0.  1.
     999901    1    3    3    0    0 -0.48540474636E-01  0.73874799545E-01  0.11441560499E+00  0.89179851668E+00  0.88000000000E+00 0.  1.
        -11    1    4    4    0    0  0.25040833263E-01 -0.46418554842E-02 -0.18710697715E-01  0.31606035544E-01  0.51100000000E-03 0.  1.
         11    1    4    4    0    0  0.19561438849E-01 -0.61786063006E-01 -0.83672603925E-01  0.10583729607E+00  0.51100000000E-03 0. -1.
</event>
<event>
 8    1  0.2927513E+004  0.1043930E+01  0.7957747E-01            NaN
         13   -1    0    0    0    0  0.00000000000E+00  0.00000000000E+00  0.74505805969E-08  0.10566000000E+00  0.10566000000E+00 0.  1.
     999900   -1    0    0    0    0 -0.00000000000E+00 -0.00000000000E+00 -0.74505805969E-08  0.93827000000E+00  0.93827000000E+00 0. -1.
     999902    2    1    2    0    0 -0.32933951118E-02  0.12618762115E-01 -0.45085895816E-02  0.10301311961E+01  0.10300387732E+01 0.  0.
     999903    2    3    3    0    0 -0.11587117413E-01  0.38056652295E-03 -0.13132354883E+00  0.14091772728E+00  0.49774745237E-01 0.  0.
         14    1    1    2    0    0  0.32933951118E-02 -0.12618762115E-01  0.45085895816E-02  0.13798803886E-01  0.00000000000E+00 0. -1.
     999901    1    3    3    0    0  0.82937223010E-02  0.12238195592E-01  0.12681495925E+00  0.88921346883E+00  0.88000000000E+00 0.  1.
        -11    1    4    4    0    0 -0.28470341431E-01 -0.10766772401E-01 -0.69759320784E-01  0.76112467352E-01  0.51100000000E-03 0. -1.
         11    1    4    4    0    0  0.16883224019E-01  0.11147338924E-01 -0.61564228049E-01  0.64805259930E-01  0.51100000000E-03 0.  1.
</event>
<event>
 8    1  0.2927513E+004  0.1043930E+01  0.7957747E-01            NaN
         13   -1    0    0    0    0  0.00000000000E+00  0.00000000000E+00  0.74505805969E-08  0.10566000000E+00  0.10566000000E+00 0. -1.
     999900   -1    0    0    0    0 -0.00000000000E+00 -0.00000000000E+00 -0.74505805969E-08  0.93827000000E+00  0.93827000000E+00 0.  1.
     999902    2    1    2    0    0 -0.12956112616E-02  0.19433183483E-02 -0.13508895190E-01  0.10302206840E+01  0.10301294639E+01 0.  0.
     999903    2    3    3    0    0 -0.69467826398E-01  0.11278021915E+00 -0.10084256206E-01  0.14064550586E+00  0.46198586102E-01 0.  0.
         14    1    1    2    0    0  0.12956112616E-02 -0.19433183483E-02  0.13508895190E-01  0.13709315957E-01  0.00000000000E+00 0. -1.
     999901    1    3    3    0    0  0.68172215137E-01 -0.11083690080E+00 -0.34246389841E-02  0.88957517819E+00  0.88000000000E+00 0. -1.
        -11    1    4    4    0    0 -0.30693646202E-01  0.84257194853E-01  0.60413191775E-02  0.89878437126E-01  0.51100000000E-03 0.  1.
         11    1    4    4    0    0 -0.38774180196E-01  0.28523024298E-01 -0.16125575383E-01  0.50767068730E-01  0.51100000000E-03 0. -1.
</event>
<event>
 8    1  0.2927513E+004  0.1043930E+01  0.7957747E-01            NaN
         13   -1    0    0    0    0  0.00000000000E+00  0.00000000000E+00  0.74505805969E-08  0.10566000000E+00  0.10566000000E+00 0.  1.
     999900   -1    0    0    0    0 -0.00000000000E+00 -0.00000000000E+00 -0.74505805969E-08  0.93827000000E+00  0.93827000000E+00 0. -1.
     999902    2    1    2    0    0 -0.11995989911E-01  0.17840909584E-01 -0.81114003107E-02  0.10209518224E+01  0.10206932091E+01 0.  0.
     999903    2    3    3    0    0  0.99519198897E-01  0.74210133638E-01  0.20525954676E-02  0.13206688413E+00  0.45013707376E-01 0.  0.
         14    1    1    2    0    0  0.11995989911E-01 -0.17840909584E-01  0.81114003107E-02  0.22978177555E-01  0.00000000000E+00 0. -1.
     999901    1    3    3    0    0 -0.11151518881E+00 -0.56369224054E-01 -0.10163995778E-01  0.88888493832E+00  0.88000000000E+00 0. -1.
        -11    1    4    4    0    0  0.21764725867E-01  0.42115258733E-01 -0.48916780219E-02  0.47661178596E-01  0.51100000000E-03 0. -1.
         11    1    4    4    0    0  0.77754473030E-01  0.32094874905E-01  0.69442734895E-02  0.84405705534E-01  0.51100000000E-03 0.  1.
</event>
<event>
 7    1  0.2927513E+004  0.1043930E+01  0.7957747E-01            NaN
         13   -1    0    0    0    0  0.00000000000E+00  0.00000000000E+00  0.74505805969E-08  0.10566000000E+00  0.10566000000E+00 0.  1.
     999900   -1    0    0    0    0 -0.00000000000E+00 -0.00000000000E+00 -0.74505805969E-08  0.93827000000E+00  0.93827000000E+00 0. -1.
     999903    2    1    2    0    0 -0.57023212519E-01 -0.51492605128E-01 -0.18558631485E-01  0.91044669934E-01  0.45183779965E-01 0.  0.
         14    1    1    2    0    0  0.26837759831E-01  0.31804288398E-01 -0.55126937639E-01  0.69070669366E-01  0.00000000000E+00 0.  1.
     999901    1    1    2    0    0  0.30185452688E-01  0.19688316731E-01  0.73685569124E-01  0.88381466070E+00  0.88000000000E+00 0.  1.
        -11    1    3    3    0    0 -0.26866176280E-01 -0.29681702218E-01  0.13156122301E-01  0.42144270660E-01  0.51100000000E-03 0.  1.
         11    1    3    3    0    0 -0.30157036239E-01 -0.21810902910E-01 -0.31714753786E-01  0.48900399274E-01  0.51100000000E-03 0. -1.
</event>
<event>
 8    1  0.2927513E+004  0.1043930E+01  0.7957747E-01            NaN
         13   -1    0    0    0    0  0.00000000000E+00  0.00000000000E+00  0.74505805969E-08  0.10566000000E+00  0.10566000000E+00 0.  1.
     999900   -1    0    0    0    0 -0.00000000000E+00 -0.00000000000E+00 -0.74505805969E-08  0.93827000000E+00  0.93827000000E+00 0.  1.
     999902    2    1    2    0    0 -0.53801853405E-02 -0.78192301046E-02 -0.10441001973E-01  0.10298196748E+01  0.10297230023E+01 0.  0.
     999903    2    3    3    0    0  0.57871847770E-01  0.10727744262E+00 -0.49714112798E-01  0.13920727824E+00  0.45272208283E-01 0.  0.
         14    1    1    2    0    0  0.53801853405E-02  0.78192301046E-02  0.10441001973E-01  0.14110325153E-01  0.00000000000E+00 0.  1.
     999901    1    3    3    0    0 -0.63252033111E-01 -0.11509667272E+00  0.39273110826E-01  0.89061239661E+00  0.88000000000E+00 0. -1.
        -11    1    4    4    0    0  0.38094847020E-01  0.26208411887E-01 -0.12963470469E-01  0.48025107086E-01  0.51100000000E-03 0. -1.
         11    1    4    4    0    0  0.19777000751E-01  0.81069030733E-01 -0.36750642330E-01  0.91182171149E-01  0.51100000000E-03 0.  1.
</event>
<event>
 8    1  0.2927513E+004  0.1043930E+01  0.7957747E-01            NaN
         13   -1    0    0    0    0  0.00000000000E+00  0.00000000000E+00  0.74505805969E-08  0.10566000000E+00  0.10566000000E+00 0.  1.
     999900   -1    0    0    0    0 -0.00000000000E+00 -0.00000000000E+00 -0.74505805969E-08  0.93827000000E+00  0.93827000000E+00 0.  1.
     999902    2    1    2    0    0  0.48813114237E-02  0.10324445723E-01  0.10102395889E-01  0.10286827123E+01  0.10285697073E+01 0.  0.
     999903    2    3    3    0    0  0.93766120878E-01 -0.91128620331E-01  0.62204693592E-04  0.13834904481E+00  0.45209992937E-01 0.  0.
         14    1    1    2    0    0 -0.48813114237E-02 -0.10324445723E-01 -0.10102395889E-01  0.15247287740E-01  0.00000000000E+00 0. -1.
     999901    1    3    3    0    0 -0.88884809454E-01  0.10145306605E+00  0.10040191196E-01  0.89033366745E+00  0.88000000000E+00 0. -1.
        -11    1    4    4    0    0  0.35958243439E-01 -0.38588285945E-01 -0.22035384995E-01  0.57165290135E-01  0.51100000000E-03 0. -1.
         11    1    4    4    0    0  0.57807877439E-01 -0.52540334386E-01  0.22097589688E-01  0.81183754671E-01  0.51100000000E-03 0.  1.
</event>
<event>
 8    1  0.2927513E+004  0.1043930E+01  0.7957747E-01            NaN
         13   -1    0    0    0    0  0.00000000000E+00  0.00000000000E+00  0.74505805969E-08  0.10566000000E+00  0.10566000000E+00 0. -1.
     999900   -1    0    0    0    0 -0.00000000000E+00 -0.00000000000E+00 -0.74505805969E-08  0.93827000000E+00  0.93827000000E+00 0. -1.
     999902    2    1    2    0    0  0.73134364787E-02  0.45246337127E-02 -0.10835094437E-01  0.10300967815E+01  0.10300038938E+01 0.  0.
     999903    2    3    3    0    0 -0.45717367667E-01 -0.11546508793E+00 -0.45862779525E-01  0.13968297980E+00  0.44560925293E-01 0.  0.
         14    1    1    2    0    0 -0.73134364787E-02 -0.45246337127E-02  0.10835094437E-01  0.13833218528E-01  0.00000000000E+00 0. -1.
     999901    1    3    3    0    0  0.53030804146E-01  0.11998972164E+00  0.35027685088E-01  0.89041380167E+00  0.88000000000E+00 0.  1.
        -11    1    4    4    0    0  0.82922233411E-02 -0.27350652700E-01 -0.95219726143E-02  0.30128860823E-01  0.51100000000E-03 0. -1.
         11    1    4    4    0    0 -0.54009591008E-01 -0.88114435229E-01 -0.36340806911E-01  0.10955411898E+00  0.51100000000E-03 0.  1.
</event>
<event>
 8    1  0.2927513E+004  0.1043930E+01  0.7957747E-01            NaN
         13   -1    0    0    0    0  0.00000000000E+00  0.00000000000E+00  0.74505805969E-08  0.10566000000E+00  0.10566000000E+00 0.  1.
     999900   -1    0    0    0    0 -0.00000000000E+00 -0.00000000000E+00 -0.74505805969E-08  0.93827000000E+00  0.93827000000E+00 0.  1.
     999902    2    1    2    0    0  0.11355750646E-01 -0.54589737157E-02  0.67145682764E-02  0.10296527841E+01  0.10295537951E+01 0.  0.
     999903    2    3    3    0    0 -0.10733161935E+00  0.39165270585E-02 -0.73953941688E-01  0.13797907679E+00  0.45095725332E-01 0.  0.
         14    1    1    2    0    0 -0.11355750646E-01  0.54589737157E-02 -0.67145682764E-02  0.14277215902E-01  0.00000000000E+00 0. -1.
     999901    1    3    3    0    0  0.11868737000E+00 -0.93755007742E-02  0.80668509965E-01  0.89167370731E+00  0.88000000000E+00 0. -1.
        -11    1    4    4    0    0 -0.52715814400E-01 -0.19238098303E-01 -0.45180477098E-01  0.72045805887E-01  0.51100000000E-03 0.  1.
         11    1    4    4    0    0 -0.54615804950E-01  0.23154625361E-01 -0.28773464590E-01  0.65933270899E-01  0.51100000000E-03 0. -1.
</event>
<event>
 8    1  0.2927513E+004  0.1043930E+01  0.7957747E-01            NaN
         13   -1    0    0    0    0  0.00000000000E+00  0.00000000000E+00  0.74505805969E-08  0.10566000000E+00  0.10566000000E+00 0.  1.
     999900   -1    0    0    0    0 -0.00000000000E+00 -0.00000000000E+00 -0.74505805969E-08  0.93827000000E+00  0.93827000000E+00 0. -1.
     999902    2    1    2    0    0 -0.68176939514E-02 -0.12224810177E-01  0.33941114625E-02  0.10295269820E+01  0.10294262284E+01 0.  0.
     999903    2    3    3    0    0  0.95759654236E-02  0.21710953451E-01  0.13037834431E+00  0.13961384944E+00  0.43936882882E-01 0.  0.
         14    1    1    2    0    0  0.68176939514E-02  0.12224810177E-01 -0.33941114625E-02  0.14403017993E-01  0.00000000000E+00 0. -1.
     999901    1    3    3    0    0 -0.16393659375E-01 -0.33935763628E-01 -0.12698423285E+00  0.88991313257E+00  0.88000000000E+00 0. -1.
        -11    1    4    4    0    0  0.22653735780E-03 -0.12860256475E-01  0.22219476598E-01  0.25678858563E-01  0.51100000000E-03 0.  1.
         11    1    4    4    0    0  0.93494280657E-02  0.34571209926E-01  0.10815886771E+00  0.11393499088E+00  0.51100000000E-03 0. -1.
</event>
<event>
 8    1  0.2927513E+004  0.1043930E+01  0.7957747E-01            NaN
         13   -1    0    0    0    0  0.00000000000E+00  0.00000000000E+00  0.74505805969E-08  0.10566000000E+00  0.10566000000E+00 0.  1.
     999900   -1    0    0    0    0 -0.00000000000E+00 -0.00000000000E+00 -0.74505805969E-08  0.93827000000E+00  0.93827000000E+00 0. -1.
     999902    2    1    2    0    0  0.27568137028E-02 -0.13194918231E-01 -0.38384709440E-02  0.10299143035E+01  0.10298189321E+01 0.  0.
     999903    2    3    3    0    0 -0.22235192628E-01  0.12263844445E+00  0.38660377870E-01  0.13812876037E+00  0.45280655668E-01 0.  0.
         14    1    1    2    0    0 -0.27568137028E-02  0.13194918231E-01  0.38384709440E-02  0.14015696490E-01  0.00000000000E+00 0.  1.
     999901    1    3    3    0    0  0.24992006331E-01 -0.13583336268E+00 -0.42498848814E-01  0.89178554314E+00  0.88000000000E+00 0. -1.
        -11    1    4    4    0    0 -0.33057073883E-01  0.10740122084E+00  0.40249170071E-01  0.11936519251E+00  0.51100000000E-03 0.  1.
         11    1    4    4    0    0  0.10821881255E-01  0.15237223607E-01 -0.15887922011E-02  0.18763567859E-01  0.51100000000E-03 0. -1.
</event>
<event>
 8    1  0.2927513E+004  0.1043930E+01  0.7957747E-01            NaN
         13   -1    0    0    0    0  0.00000000000E+00  0.00000000000E+00  0.74505805969E-08  0.10566000000E+00  0.10566000000E+00 0.  1.
     999900   -1    0    0    0    0 -0.00000000000E+00 -0.00000000000E+00 -0.74505805969E-08  0.93827000000E+00  0.93827000000E+00 0. -1.
     999902    2    1    2    0    0  0.39755774844E-02 -0.13236376504E-01 -0.34484004864E-02  0.10296857610E+01  0.10295872319E+01 0.  0.
     999903    2    3    3    0    0 -0.53109753765E-01  0.10093317318E+00 -0.64423515499E-01  0.13838817557E+00  0.44640188116E-01 0.  0.
         14    1    1    2    0    0 -0.39755774844E-02  0.13236376504E-01  0.34484004864E-02  0.14244239018E-01  0.00000000000E+00 0.  1.
     999901    1    3    3    0    0  0.57085331250E-01 -0.11416954968E+00  0.60975115012E-01  0.89129758542E+00  0.88000000000E+00 0. -1.
        -11    1    4    4    0    0 -0.39691991842E-01  0.89392672677E-01 -0.34684341029E-01  0.10377749649E+00  0.51100000000E-03 0. -1.
         11    1    4    4    0    0 -0.13417761923E-01  0.11540500499E-01 -0.29739174470E-01  0.34610679073E-01  0.51100000000E-03 0.  1.
</event>
<event>
 8    1  0.2927513E+004  0.1043930E+01  0.7957747E-01            NaN
         13   -1    0    0    0    0  0.00000000000E+00  0.00000000000E+00  0.74505805969E-08  0.10566000000E+00  0.10566000000E+00 0.  1.
     999900   -1    0    0    0    0 -0.00000000000E+00 -0.00000000000E+00 -0.74505805969E-08  0.93827000000E+00  0.93827000000E+00 0. -1.
     999902    2    1    2    0    0  0.90140676190E-02 -0.24303971508E-01  0.79799347471E-02  0.10168077618E+01  0.10164459694E+01 0.  0.
     999903    2    3    3    0    0  0.12075919943E+00 -0.17731077418E-02  0.14678359672E-01  0.12942989235E+00  0.44166895216E-01 0.  0.
         14    1    1    2    0    0 -0.90140676190E-02  0.24303971508E-01 -0.79799347471E-02  0.27122238194E-01  0.00000000000E+00 0. -1.
     999901    1    3    3    0    0 -0.11174513181E+00 -0.22530863766E-01 -0.66984249252E-02  0.88737786946E+00  0.88000000000E+00 0. -1.
        -11    1    4    4    0    0  0.61472074936E-01 -0.14838467361E-01  0.24708169965E-01  0.67895146326E-01  0.51100000000E-03 0.  1.
         11    1    4    4    0    0  0.59287124493E-01  0.13065359619E-01 -0.10029810293E-01  0.61534746023E-01  0.51100000000E-03 0. -1.
</event>
<event>
 8    1  0.2927513E+004  0.1043930E+01  0.7957747E-01            NaN
         13   -1    0    0    0    0  0.00000000000E+00  0.00000000000E+00  0.74505805969E-08  0.10566000000E+00  0.10566000000E+00 0.  1.
     999900   -1    0    0    0    0 -0.00000000000E+00 -0.00000000000E+00 -0.74505805969E-08  0.93827000000E+00  0.93827000000E+00 0.  1.
     999902    2    1    2    0    0 -0.96401807275E-04  0.81443350793E-02  0.12056261392E-01  0.10293803290E+01  0.10292774985E+01 0.  0.
     999903    2    3    3    0    0 -0.96765252604E-01 -0.87418397073E-01  0.15993208773E-01  0.13893515830E+00  0.45185232385E-01 0.  0.
         14    1    1    2    0    0  0.96401807275E-04 -0.81443350793E-02 -0.12056261392E-01  0.14549670991E-01  0.00000000000E+00 0. -1.
     999901    1    3    3    0    0  0.96668850797E-01  0.95562732152E-01 -0.39369473814E-02  0.89044517071E+00  0.88000000000E+00 0. -1.
        -11    1    4    4    0    0 -0.17712591309E-01 -0.11777607773E-01 -0.14019961883E-01  0.25480745436E-01  0.51100000000E-03 0.  1.
         11    1    4    4    0    0 -0.79052661295E-01 -0.75640789300E-01  0.30013170657E-01  0.11345441286E+00  0.51100000000E-03 0. -1.
</event>
<event>
 8    1  0.2927513E+004  0.1043930E+01  0.7957747E-01            NaN
         13   -1    0    0    0    0  0.00000000000E+00  0.00000000000E+00  0.74505805969E-08  0.10566000000E+00  0.10566000000E+00 0. -1.
     999900   -1    0    0    0    0 -0.00000000000E+00 -0.00000000000E+00 -0.74505805969E-08  0.93827000000E+00  0.93827000000E+00 0.  1.
     999902    2    1    2    0    0 -0.10632662207E-02 -0.14121309703E-01 -0.19254022854E-02  0.10296384257E+01  0.10295392360E+01 0.  0.
     999903    2    3    3    0    0 -0.77471000820E-01  0.11488495709E-01 -0.10652297550E+00  0.13978750762E+00  0.45383493428E-01 0.  0.
         14    1    1    2    0    0  0.10632662207E-02  0.14121309703E-01  0.19254022854E-02  0.14291574327E-01  0.00000000000E+00 0.  1.
     999901    1    3    3    0    0  0.76407734600E-01 -0.25609805412E-01  0.10459757321E+00  0.88985091805E+00  0.88000000000E+00 0. -1.
        -11    1    4    4    0    0 -0.23926300277E-01 -0.17447992354E-01 -0.33058907337E-01  0.44385276359E-01  0.51100000000E-03 0.  1.
         11    1    4    4    0    0 -0.53544700544E-01  0.28936488064E-01 -0.73464068160E-01  0.95402231260E-01  0.51100000000E-03 0. -1.
</event>
<event>
 8    1  0.2927513E+004  0.1043930E+01  0.7957747E-01            NaN
         13   -1    0    0    0    0  0.00000000000E+00  0.00000000000E+00  0.74505805969E-08  0.10566000000E+00  0.10566000000E+00 0.  1.
     999900   -1    0    0    0    0 -0.00000000000E+00 -0.00000000000E+00 -0.74505805969E-08  0.93827000000E+00  0.93827000000E+00 0. -1.
     999902    2    1    2    0    0 -0.48482647465E-02  0.22906977562E-02 -0.11748978154E-01  0.10310152234E+01  0.10309343332E+01 0.  0.
     999903    2    3    3    0    0 -0.71807985758E-01 -0.62960757188E-01  0.91849054693E-01  0.14001920262E+00  0.45262395989E-01 0.  0.
         14    1    1    2    0    0  0.48482647465E-02 -0.22906977562E-02  0.11748978154E-01  0.12914776612E-01  0.00000000000E+00 0.  1.
     999901    1    3    3    0    0  0.66959721012E-01  0.65251454945E-01 -0.10359803285E+00  0.89099602077E+00  0.88000000000E+00 0. -1.
        -11    1    4    4    0    0 -0.10497386944E-01 -0.79096195223E-02  0.41311981190E-01  0.43355485518E-01  0.51100000000E-03 0.  1.
         11    1    4    4    0    0 -0.61310598814E-01 -0.55051137666E-01  0.50537073503E-01  0.96663717105E-01  0.51100000000E-03 0. -1.
</event>
<event>
 8    1  0.2927513E+004  0.1043930E+01  0.7957747E-01            NaN
         13   -1    0    0    0    0  0.00000000000E+00  0.00000000000E+00  0.74505805969E-08  0.10566000000E+00  0.10566000000E+00 0.  1.
     999900   -1    0    0    0    0 -0.00000000000E+00 -0.00000000000E+00 -0.74505805969E-08  0.93827000000E+00  0.93827000000E+00 0.  1.
     999902    2    1    2    0    0 -0.84361684605E-02 -0.34039723896E-02  0.96137874865E-02  0.10306944087E+01  0.10306094233E+01 0.  0.
     999903    2    3    3    0    0 -0.11186683179E+00 -0.59328539683E-01 -0.42105208330E-01  0.14136864509E+00  0.46670992820E-01 0.  0.
         14    1    1    2    0    0  0.84361684605E-02  0.34039723896E-02 -0.96137874865E-02  0.13235591266E-01  0.00000000000E+00 0. -1.
     999901    1    3    3    0    0  0.10343066333E+00  0.55924567294E-01  0.51718995817E-01  0.88932576364E+00  0.88000000000E+00 0. -1.
        -11    1    4    4    0    0 -0.79966386001E-01 -0.41910472363E-01 -0.51344171919E-01  0.10386335107E+00  0.51100000000E-03 0. -1.
         11    1    4    4    0    0 -0.31900445793E-01 -0.17418067320E-01  0.92389635884E-02  0.37505294028E-01  0.51100000000E-03 0.  1.
</event>
<event>
 8    1  0.2927513E+004  0.1043930E+01  0.7957747E-01            NaN
         13   -1    0    0    0    0  0.00000000000E+00  0.00000000000E+00  0.74505805969E-08  0.10566000000E+00  0.10566000000E+00 0. -1.
     999900   -1    0    0    0    0 -0.00000000000E+00 -0.00000000000E+00 -0.74505805969E-08  0.93827000000E+00  0.93827000000E+00 0. -1.
     999902    2    1    2    0    0 -0.11281138574E-01  0.73824945105E-02 -0.42055729090E-02  0.10298072469E+01  0.10297104028E+01 0.  0.
     999903    2    3    3    0    0  0.14691678912E-01 -0.23203377515E-01 -0.12949714571E+00  0.14002746454E+00  0.45650168892E-01 0.  0.
         14    1    1    2    0    0  0.11281138574E-01 -0.73824945105E-02  0.42055729090E-02  0.14122753139E-01  0.00000000000E+00 0. -1.
     999901    1    3    3    0    0 -0.25972817486E-01  0.30585872026E-01  0.12529157280E+00  0.88977978232E+00  0.88000000000E+00 0.  1.
        -11    1    4    4    0    0 -0.10428325331E-01 -0.16542812169E-01 -0.22031133798E-01  0.29462630248E-01  0.51100000000E-03 0. -1.
         11    1    4    4    0    0  0.25120004244E-01 -0.66605653466E-02 -0.10746601191E+00  0.11056483429E+00  0.51100000000E-03 0.  1.
</event>
<event>
 7    1  0.2927513E+004  0.1043930E+01  0.7957747E-01            NaN
         13   -1    0    0    0    0  0.00000000000E+00  0.00000000000E+00  0.74505805969E-08  0.10566000000E+00  0.10566000000E+00 0. -1.
     999900   -1    0    0    0    0 -0.00000000000E+00 -0.00000000000E+00 -0.74505805969E-08  0.93827000000E+00  0.93827000000E+00 0. -1.
     999903    2    1    2    0    0  0.16870185565E-01 -0.82353478154E-01  0.35522207041E-01  0.10158286869E+00  0.44615619376E-01 0.  0.
         14    1    1    2    0    0 -0.41251985888E-02 -0.51291998835E-01 -0.38672357721E-02  0.51602731714E-01  0.00000000000E+00 0. -1.
     999901    1    1    2    0    0 -0.12744986976E-01  0.13364547699E+00 -0.31654971269E-01  0.89074439960E+00  0.88000000000E+00 0. -1.
        -11    1    3    3    0    0  0.29426460343E-02 -0.58598637971E-01  0.27006619150E-02  0.58736821786E-01  0.51100000000E-03 0.  1.
         11    1    3    3    0    0  0.13927539530E-01 -0.23754840184E-01  0.32821545126E-01  0.42846046900E-01  0.51100000000E-03 0. -1.
</event>
<event>
 8    1  0.2927513E+004  0.1043930E+01  0.7957747E-01            NaN
         13   -1    0    0    0    0  0.00000000000E+00  0.00000000000E+00  0.74505805969E-08  0.10566000000E+00  0.10566000000E+00 0.  1.
     999900   -1    0    0    0    0 -0.00000000000E+00 -0.00000000000E+00 -0.74505805969E-08  0.93827000000E+00  0.93827000000E+00 0.  1.
     999902    2    1    2    0    0 -0.84366028551E-03  0.74538646003E-02 -0.12038517843E-01  0.10297455800E+01  0.10296478824E+01 0.  0.
     999903    2    3    3    0    0 -0.11256406707E+00 -0.66600930320E-01 -0.14396113590E-01  0.13959327827E+00  0.46612038528E-01 0.  0.
         14    1    1    2    0    0  0.84366028551E-03 -0.74538646003E-02  0.12038517843E-01  0.14184420045E-01  0.00000000000E+00 0.  1.
     999901    1    3    3    0    0  0.11172040679E+00  0.74054794920E-01  0.23575957468E-02  0.89015230169E+00  0.88000000000E+00 0.  1.
        -11    1    4    4    0    0 -0.55219990741E-01 -0.68801351068E-02 -0.11010497369E-01  0.56728086605E-01  0.51100000000E-03 0.  1.
         11    1    4    4    0    0 -0.57344076330E-01 -0.59720795213E-01 -0.33856162213E-02  0.82865191662E-01  0.51100000000E-03 0. -1.
</event>
<event>
 8    1  0.2927513E+004  0.1043930E+01  0.7957747E-01            NaN
         13   -1    0    0    0    0  0.00000000000E+00  0.00000000000E+00  0.74505805969E-08  0.10566000000E+00  0.10566000000E+00 0.  1.
     999900   -1    0    0    0    0 -0.00000000000E+00 -0.00000000000E+00 -0.74505805969E-08  0.93827000000E+00  0.93827000000E+00 0. -1.
     999902    2    1    2    0    0  0.10146692241E-01  0.77317874545E-02  0.60738331089E-02  0.10298010457E+01  0.10297041159E+01 0.  0.
     999903    2    3    3    0    0 -0.24472188329E-01  0.31427530289E-01 -0.12525424793E+00  0.13906706747E+00  0.45436163662E-01 0.  0.
         14    1    1    2    0    0 -0.10146692241E-01 -0.77317874545E-02 -0.60738331089E-02  0.14128954289E-01  0.00000000000E+00 0. -1.
     999901    1    3    3    0    0  0.34618880570E-01 -0.23695742834E-01  0.13132808104E+00  0.89073397824E+00  0.88000000000E+00 0.  1.
        -11    1    4    4    0    0 -0.13469639102E-01  0.10836213117E-01 -0.10959366269E+00  0.11094992886E+00  0.51100000000E-03 0.  1.
         11    1    4    4    0    0 -0.11002549227E-01  0.20591317172E-01 -0.15660585245E-01  0.28117138610E-01  0.51100000000E-03 0. -1.
</event>
<event>
 8    1  0.2927513E+004  0.1043930E+01  0.7957747E-01            NaN
         13   -1    0    0    0    0  0.00000000000E+00  0.00000000000E+00  0.74505805969E-08  0.10566000000E+00  0.10566000000E+00 0. -1.
     999900   -1    0    0    0    0 -0.00000000000E+00 -0.00000000000E+00 -0.74505805969E-08  0.93827000000E+00  0.93827000000E+00 0. -1.
     999902    2    1    2    0    0  0.11016187271E-01  0.38666919499E-02  0.35606169775E-02  0.10317240309E+01  0.10316518261E+01 0.  0.
     999903    2    3    3    0    0  0.18847034145E-01 -0.51291812182E-01 -0.12174206566E+00  0.14110371616E+00  0.45859213554E-01 0.  0.
         14    1    1    2    0    0 -0.11016187271E-01 -0.38666919499E-02 -0.35606169775E-02  0.12205969109E-01  0.00000000000E+00 0. -1.
     999901    1    3    3    0    0 -0.78308468733E-02  0.55158504132E-01  0.12530268264E+00  0.89062031473E+00  0.88000000000E+00 0.  1.
        -11    1    4    4    0    0 -0.27676483705E-02 -0.16533864777E-01 -0.83223024070E-01  0.84896180234E-01  0.51100000000E-03 0.  1.
         11    1    4    4    0    0  0.21614682515E-01 -0.34757947406E-01 -0.38519041595E-01  0.56207535923E-01  0.51100000000E-03 0. -1.
</event>
<event>
 8    1  0.2927513E+004  0.1043930E+01  0.7957747E-01            NaN
         13   -1    0    0    0    0  0.00000000000E+00  0.00000000000E+00  0.74505805969E-08  0.10566000000E+00  0.10566000000E+00 0.  1.
     999900   -1    0    0    0    0 -0.00000000000E+00 -0.00000000000E+00 -0.74505805969E-08  0.93827000000E+00  0.93827000000E+00 0. -1.
     999902    2    1    2    0    0  0.10341105898E-01 -0.82517138347E-02  0.27342131323E-02  0.10304205524E+01  0.10303319900E+01 0.  0.
     999903    2    3    3    0    0 -0.63074602034E-01  0.56202010534E-01  0.10105955117E+00  0.13957150749E+00  0.46153021688E-01 0.  0.
         14    1    1    2    0    0 -0.10341105898E-01  0.82517138347E-02 -0.27342131323E-02  0.13509447578E-01  0.00000000000E+00 0.  1.
     999901    1    3    3    0    0  0.73415707932E-01 -0.64453724368E-01 -0.98325338036E-01  0.89084904493E+00  0.88000000000E+00 0. -1.
        -11    1    4    4    0    0 -0.32481232586E-01  0.13135964718E-02  0.43864740838E-01  0.54599749229E-01  0.51100000000E-03 0.  1.
         11    1    4    4    0    0 -0.30593369448E-01  0.54888414062E-01  0.57194810330E-01  0.84971758262E-01  0.51100000000E-03 0. -1.
</event>
<event>
 8    1  0.2927513E+004  0.1043930E+01  0.7957747E-01            NaN
         13   -1    0    0    0    0  0.00000000000E+00  0.00000000000E+00  0.74505805969E-08  0.10566000000E+00  0.10566000000E+00 0.  1.
     999900   -1    0    0    0    0 -0.00000000000E+00 -0.00000000000E+00 -0.74505805969E-08  0.93827000000E+00  0.93827000000E+00 0. -1.
     999902    2    1    2    0    0 -0.59691771261E-02 -0.89638815680E-02  0.12209983755E-01  0.10276491538E+01  0.10275201786E+01 0.  0.
     999903    2    3    3    0    0 -0.93949946085E-01 -0.70471493778E-01  0.60895142017E-01  0.13978990447E+00  0.45168299337E-01 0.  0.
         14    1    1    2    0    0  0.59691771261E-02  0.89638815680E-02 -0.12209983755E-01  0.16280846158E-01  0.00000000000E+00 0.  1.
     999901    1    3    3    0    0  0.87980768958E-01  0.61507612210E-01 -0.48685158262E-01  0.88785924938E+00  0.88000000000E+00 0. -1.
        -11    1    4    4    0    0 -0.87965049863E-01 -0.43493741530E-01  0.45720626955E-01  0.10825983743E+00  0.51100000000E-03 0. -1.
         11    1    4    4    0    0 -0.59848962217E-02 -0.26977752248E-01  0.15174515061E-01  0.31530067039E-01  0.51100000000E-03 0.  1.
</event>
<event>
 8    1  0.2927513E+004  0.1043930E+01  0.7957747E-01            NaN
         13   -1    0    0    0    0  0.00000000000E+00  0.00000000000E+00  0.74505805969E-08  0.10566000000E+00  0.10566000000E+00 0. -1.
     999900   -1    0    0    0    0 -0.00000000000E+00 -0.00000000000E+00 -0.74505805969E-08  0.93827000000E+00  0.93827000000E+00 0. -1.
     999902    2    1    2    0    0 -0.10845419353E-01  0.11219110637E-01  0.17037269539E-02  0.10282330497E+01  0.10281132283E+01 0.  0.
     999903    2    3    3    0    0 -0.11567665330E+00  0.50111856887E-01 -0.41689045854E-01  0.14009726834E+00  0.44687601576E-01 0.  0.
         14    1    1    2    0    0  0.10845419353E-01 -0.11219110637E-01 -0.17037269539E-02  0.15696950340E-01  0.00000000000E+00 0. -1.
     999901    1    3    3    0    0  0.10483123394E+00 -0.38892746250E-01  0.43392772808E-01  0.88813578132E+00  0.88000000000E+00 0. -1.
        -11    1    4    4    0    0 -0.78162763178E-01  0.37336519754E-01 -0.49402027836E-01  0.99720884123E-01  0.51100000000E-03 0.  1.
         11    1    4    4    0    0 -0.37513890120E-01  0.12775337133E-01  0.77129819819E-02  0.40376384222E-01  0.51100000000E-03 0. -1.
</event>
<event>
 8    1  0.2927513E+004  0.1043930E+01  0.7957747E-01            NaN
         13   -1    0    0    0    0  0.00000000000E+00  0.00000000000E+00  0.74505805969E-08  0.10566000000E+00  0.10566000000E+00 0.  1.
     999900   -1    0    0    0    0 -0.00000000000E+00 -0.00000000000E+00 -0.74505805969E-08  0.93827000000E+00  0.93827000000E+00 0.  1.
     999902    2    1    2    0    0 -0.11282623930E-01 -0.36642034782E-02 -0.85829039417E-02  0.10292879295E+01  0.10291837793E+01 0.  0.
     999903    2    3    3    0    0  0.10222778332E+00  0.43498111107E-01  0.67222908196E-01  0.13751698486E+00  0.45270259383E-01 0.  0.
         14    1    1    2    0    0  0.11282623930E-01  0.36642034782E-02  0.85829039417E-02  0.14642070548E-01  0.00000000000E+00 0.  1.
     999901    1    3    3    0    0 -0.11351040725E+00 -0.47162314585E-01 -0.75805812137E-01  0.89177094460E+00  0.88000000000E+00 0.  1.
        -11    1    4    4    0    0  0.46295518954E-01  0.43667689127E-01  0.30242534510E-01  0.70462856624E-01  0.51100000000E-03 0. -1.
         11    1    4    4    0    0  0.55932264369E-01 -0.16957802044E-03  0.36980373685E-01  0.67054128232E-01  0.51100000000E-03 0.  1.
</event>
<event>
 8    1  0.2927513E+004  0.1043930E+01  0.7957747E-01            NaN
         13   -1    0    0    0    0  0.00000000000E+00  0.00000000000E+00  0.74505805969E-08  0.10566000000E+00  0.10566000000E+00 0.  1.
     999900   -1    0    0    0    0 -0.00000000000E+00 -0.00000000000E+00 -0.74505805969E-08  0.93827000000E+00  0.93827000000E+00 0. -1.
     999902    2    1    2    0    0 -0.65362643963E-02  0.11521148149E-01 -0.13345736354E-02  0.10306168226E+01  0.10305308313E+01 0.  0.
     999903    2    3    3    0    0 -0.12126860401E+00  0.58133359238E-01 -0.97269037044E-02  0.14190616144E+00  0.44240074878E-01 0.  0.
         14    1    1    2    0    0  0.65362643963E-02 -0.11521148149E-01  0.13345736354E-02  0.13313177446E-01  0.00000000000E+00 0.  1.
     999901    1    3    3    0    0  0.11473233961E+00 -0.46612211089E-01  0.83923300690E-02  0.88871066111E+00  0.88000000000E+00 0.  1.
        -11    1    4    4    0    0 -0.33087875263E-01  0.16966213820E-02  0.11511429038E-01  0.35077915175E-01  0.51100000000E-03 0.  1.
         11    1    4    4    0    0 -0.88180728742E-01  0.56436737856E-01 -0.21238332742E-01  0.10682824626E+00  0.51100000000E-03 0. -1.
</event>
<event>
 8    1  0.2927513E+004  0.1043930E+01  0.7957747E-01            NaN
         13   -1    0    0    0    0  0.00000000000E+00  0.00000000000E+00  0.74505805969E-08  0.10566000000E+00  0.10566000000E+00 0. -1.
     999900   -1    0    0    0    0 -0.00000000000E+00 -0.00000000000E+00 -0.74505805969E-08  0.93827000000E+00  0.93827000000E+00 0. -1.
     999902    2    1    2    0    0 -0.80789837285E-02 -0.62576540189E-03  0.13295269594E-01  0.10283599726E+01  0.10282420957E+01 0.  0.
     999903    2    3    3    0    0  0.78197747880E-01  0.94408446635E-01  0.46031369552E-01  0.13844602836E+00  0.44950786595E-01 0.  0.
         14    1    1    2    0    0  0.80789837285E-02  0.62576540189E-03 -0.13295269594E-01  0.15570027425E-01  0.00000000000E+00 0.  1.
     999901    1    3    3    0    0 -0.86276731608E-01 -0.95034212037E-01 -0.32736099958E-01  0.88991394422E+00  0.88000000000E+00 0. -1.
        -11    1    4    4    0    0  0.40136341310E-01  0.40341457532E-01  0.44607983663E-01  0.72308314993E-01  0.51100000000E-03 0.  1.
         11    1    4    4    0    0  0.38061406569E-01  0.54066989103E-01  0.14233858892E-02  0.66137713364E-01  0.51100000000E-03 0. -1.
</event>
<event>
 7    1  0.2927513E+004  0.1043930E+01  0.7957747E-01            NaN
         13   -1    0    0    0    0  0.00000000000E+00  0.00000000000E+00  0.74505805969E-08  0.10566000000E+00  0.10566000000E+00 0. -1.
     999900   -1    0    0    0    0 -0.00000000000E+00 -0.00000000000E+00 -0.74505805969E-08  0.93827000000E+00  0.93827000000E+00 0.  1.
     999903    2    1    2    0    0  0.29602494237E-01 -0.13706107250E-01  0.70061305353E-01  0.89641488762E-01  0.45418553023E-01 0.  0.
         14    1    1    2    0    0 -0.29190727224E-02 -0.83200788541E-02  0.62999292855E-01  0.63613328776E-01  0.00000000000E+00 0. -1.
     999901    1    1    2    0    0 -0.26683421515E-01  0.22026186104E-01 -0.13306059821E+00  0.89067518246E+00  0.88000000000E+00 0.  1.
        -11    1    3    3    0    0  0.15303894535E-01 -0.68555426604E-02 -0.10234595301E-02  0.16808219523E-01  0.51100000000E-03 0. -1.
         11    1    3    3    0    0  0.14298599702E-01 -0.68505645895E-02  0.71084764883E-01  0.72833269239E-01  0.51100000000E-03 0.  1.
</event>
<event>
 8    1  0.2927513E+004  0.1043930E+01  0.7957747E-01            NaN
         13   -1    0    0    0    0  0.00000000000E+00  0.00000000000E+00  0.74505805969E-08  0.10566000000E+00  0.10566000000E+00 0. -1.
     999900   -1    0    0    0    0 -0.00000000000E+00 -0.00000000000E+00 -0.74505805969E-08  0.93827000000E+00  0.93827000000E+00 0.  1.
     999902    2    1    2    0    0  0.69453792234E-02  0.84537557965E-02  0.15234014348E-01  0.10251742150E+01  0.10250026300E+01 0.  0.
     999903    2    3    3    0    0  0.15619698233E-01  0.15477374640E-01  0.12837486254E+00  0.13786061393E+00  0.45187602749E-01 0.  0.
         14    1    1    2    0    0 -0.69453792234E-02 -0.84537557965E-02 -0.15234014348E-01  0.18755785049E-01  0.00000000000E+00 0.  1.
     999901    1    3    3    0    0 -0.86743190100E-02 -0.70236188435E-02 -0.11314084819E+00  0.88731360102E+00  0.88000000000E+00 0.  1.
        -11    1    4    4    0    0 -0.13051496863E-01 -0.37755808883E-02  0.56564370369E-01  0.58175473335E-01  0.51100000000E-03 0.  1.
         11    1    4    4    0    0  0.28671195097E-01  0.19252955528E-01  0.71810492169E-01  0.79685140593E-01  0.51100000000E-03 0. -1.
</event>
<event>
 8    1  0.2927513E+004  0.1043930E+01  0.7957747E-01            NaN
         13   -1    0    0    0    0  0.00000000000E+00  0.00000000000E+00  0.74505805969E-08  0.10566000000E+00  0.10566000000E+00 0.  1.
     999900   -1    0    0    0    0 -0.00000000000E+00 -0.00000000000E+00 -0.74505805969E-08  0.93827000000E+00  0.93827000000E+00 0. -1.
     999902    2    1    2    0    0 -0.97854074897E-02  0.32907616607E-02  0.87504977420E-02  0.10303965406E+01  0.10303076610E+01 0.  0.
     999903    2    3    3    0    0 -0.80197767317E-02  0.84534093754E-01 -0.10145633695E+00  0.13980732955E+00  0.45192601855E-01 0.  0.
         14    1    1    2    0    0  0.97854074897E-02 -0.32907616607E-02 -0.87504977420E-02  0.13533459380E-01  0.00000000000E+00 0. -1.
     999901    1    3    3    0    0 -0.17656307580E-02 -0.81243332093E-01  0.11020683470E+00  0.89058921107E+00  0.88000000000E+00 0.  1.
        -11    1    4    4    0    0  0.16411398333E-01  0.28604569293E-01 -0.50403836592E-01  0.60235896639E-01  0.51100000000E-03 0.  1.
         11    1    4    4    0    0 -0.24431175065E-01  0.55929524461E-01 -0.51052500361E-01  0.79571432911E-01  0.51100000000E-03 0. -1.
</event>
<event>
 8    1  0.2927513E+004  0.1043930E+01  0.7957747E-01            NaN
         13   -1    0    0    0    0  0.00000000000E+00  0.00000000000E+00  0.74505805969E-08  0.10566000000E+00  0.10566000000E+00 0. -1.
     999900   -1    0    0    0    0 -0.00000000000E+00 -0.00000000000E+00 -0.74505805969E-08  0.93827000000E+00  0.93827000000E+00 0. -1.
     999902    2    1    2    0    0 -0.17446686551E-02 -0.55754941758E-02 -0.11548706625E-01  0.10309877193E+01  0.10309064821E+01 0.  0.
     999903    2    3    3    0    0  0.11109145981E+00 -0.74075147523E-01  0.27596682456E-02  0.14102765058E+00  0.45307201811E-01 0.  0.
         14    1    1    2    0    0  0.17446686551E-02  0.55754941758E-02  0.11548706625E-01  0.12942280662E-01  0.00000000000E+00 0. -1.
     999901    1    3    3    0    0 -0.11283612846E+00  0.68499653347E-01 -0.14308374871E-01  0.88996006876E+00  0.88000000000E+00 0. -1.
        -11    1    4    4    0    0  0.74176680040E-01 -0.61568310210E-01  0.19921492824E-01  0.98437613143E-01  0.51100000000E-03 0.  1.
         11    1    4    4    0    0  0.36914779768E-01 -0.12506837313E-01 -0.17161824579E-01  0.42590037436E-01  0.51100000000E-03 0. -1.
</event>
<event>
 8    1  0.2927513E+004  0.1043930E+01  0.7957747E-01            NaN
         13   -1    0    0    0    0  0.00000000000E+00  0.00000000000E+00  0.74505805969E-08  0.10566000000E+00  0.10566000000E+00 0.  1.
     999900   -1    0    0    0    0 -0.00000000000E+00 -0.00000000000E+00 -0.74505805969E-08  0.93827000000E+00  0.93827000000E+00 0.  1.
     999902    2    1    2    0    0  0.15364356587E-02 -0.11992111099E-01  0.64886297944E-02  0.10302087144E+01  0.10301173338E+01 0.  0.
     999903    2    3    3    0    0 -0.90296746518E-01 -0.83695072061E-01 -0.51416540995E-01  0.14064272087E+00  0.44478609770E-01 0.  0.
         14    1    1    2    0    0 -0.15364356587E-02  0.11992111099E-01 -0.64886297944E-02  0.13721285645E-01  0.00000000000E+00 0. -1.
     999901    1    3    3    0    0  0.91833182176E-01  0.71702960962E-01  0.57905170790E-01  0.88956599348E+00  0.88000000000E+00 0. -1.
        -11    1    4    4    0    0 -0.51813092610E-01 -0.24982058745E-01 -0.79439606429E-02  0.58069505393E-01  0.51100000000E-03 0. -1.
         11    1    4    4    0    0 -0.38483653908E-01 -0.58713013316E-01 -0.43472580352E-01  0.82573215477E-01  0.51100000000E-03 0.  1.
</event>
<event>
 8    1  0.2927513E+004  0.1043930E+01  0.7957747E-01            NaN
         13   -1    0    0    0    0  0.00000000000E+00  0.00000000000E+00  0.74505805969E-08  0.10566000000E+00  0.10566000000E+00 0.  1.
     999900   -1    0    0    0    0 -0.00000000000E+00 -0.00000000000E+00 -0.74505805969E-08  0.93827000000E+00  0.93827000000E+00 0. -1.
     999902    2    1    2    0    0  0.89603714301E-02 -0.10004673712E-01  0.53471256560E-02  0.10294740841E+01  0.10293725838E+01 0.  0.
     999903    2    3    3    0    0  0.10407893816E+00 -0.42005519157E-01 -0.70184353278E-01  0.14055530255E+00  0.47255270834E-01 0.  0.
         14    1    1    2    0    0 -0.89603714301E-02  0.10004673712E-01 -0.53471256560E-02  0.14455915918E-01  0.00000000000E+00 0.  1.
     999901    1    3    3    0    0 -0.95118566733E-01  0.32000845445E-01  0.75531478934E-01  0.88891878153E+00  0.88000000000E+00 0.  1.
        -11    1    4    4    0    0  0.73207080849E-01 -0.38702310247E-01 -0.71599240362E-01  0.10947080819E+00  0.51100000000E-03 0.  1.
         11    1    4    4    0    0  0.30871857314E-01 -0.33032089099E-02  0.14148870840E-02  0.31084494360E-01  0.51100000000E-03 0. -1.
</event>
<event>
 8    1  0.2927513E+004  0.1043930E+01  0.7957747E-01            NaN
         13   -1    0    0    0    0  0.00000000000E+00  0.00000000000E+00  0.74505805969E-08  0.10566000000E+00  0.10566000000E+00 0. -1.
     999900   -1    0    0    0    0 -0.00000000000E+00 -0.00000000000E+00 -0.74505805969E-08  0.93827000000E+00  0.93827000000E+00 0. -1.
     999902    2    1    2    0    0 -0.55918379277E-02 -0.96727501550E-02 -0.85873539575E-02  0.10298383927E+01  0.10297419783E+01 0.  0.
     999903    2    3    3    0    0  0.85986483735E-01  0.78991510042E-01 -0.60164219226E-01  0.13915993614E+00  0.45961076002E-01 0.  0.
         14    1    1    2    0    0  0.55918379277E-02  0.96727501550E-02  0.85873539575E-02  0.14091607253E-01  0.00000000000E+00 0. -1.
     999901    1    3    3    0    0 -0.91578321663E-01 -0.88664260197E-01  0.51576865269E-01  0.89067845661E+00  0.88000000000E+00 0. -1.
        -11    1    4    4    0    0  0.90005917587E-02  0.22161352152E-01  0.35659477204E-02  0.24189115018E-01  0.51100000000E-03 0.  1.
         11    1    4    4    0    0  0.76985891976E-01  0.56830157891E-01 -0.63730166947E-01  0.11497082112E+00  0.51100000000E-03 0. -1.
</event>
<event>
 8    1  0.2927513E+004  0.1043930E+01  0.7957747E-01            NaN
         13   -1    0    0    0    0  0.00000000000E+00  0.00000000000E+00  0.74505805969E-08  0.10566000000E+00  0.10566000000E+00 0.  1.
     999900   -1    0    0    0    0 -0.00000000000E+00 -0.00000000000E+00 -0.74505805969E-08  0.93827000000E+00  0.93827000000E+00 0.  1.
     999902    2    1    2    0    0 -0.58516470739E-02 -0.14068775184E-01 -0.12724374325E-02  0.10286397644E+01  0.10285261171E+01 0.  0.
     999903    2    3    3    0    0  0.10189380429E+00 -0.74320539276E-01 -0.37921479128E-01  0.13926778953E+00  0.45294466682E-01 0.  0.
         14    1    1    2    0    0  0.58516470739E-02  0.14068775184E-01  0.12724374325E-02  0.15290235632E-01  0.00000000000E+00 0. -1.
     999901    1    3    3    0    0 -0.10774545136E+00  0.60251764092E-01  0.36649041695E-01  0.88937197484E+00  0.88000000000E+00 0. -1.
        -11    1    4    4    0    0  0.52453974675E-01 -0.64566298086E-01 -0.28931287200E-01  0.88076709792E-01  0.51100000000E-03 0. -1.
         11    1    4    4    0    0  0.49439829611E-01 -0.97542411902E-02 -0.89901919278E-02  0.51191079741E-01  0.51100000000E-03 0.  1.
</event>
<event>
 8    1  0.2927513E+004  0.1043930E+01  0.7957747E-01            NaN
         13   -1    0    0    0    0  0.00000000000E+00  0.00000000000E+00  0.74505805969E-08  0.10566000000E+00  0.10566000000E+00 0. -1.
     999900   -1    0    0    0    0 -0.00000000000E+00 -0.00000000000E+00 -0.74505805969E-08  0.93827000000E+00  0.93827000000E+00 0.  1.
     999902    2    1    2    0    0 -0.12577616165E-01 -0.62432529823E-02 -0.34343594365E-02  0.10294742240E+01  0.10293727257E+01 0.  0.
     999903    2    3    3    0    0  0.47441273063E-02 -0.91199972444E-01  0.96014143281E-01  0.13963845728E+00  0.44048170478E-01 0.  0.
         14    1    1    2    0    0  0.12577616165E-01  0.62432529823E-02  0.34343594365E-02  0.14455776040E-01  0.00000000000E+00 0.  1.
     999901    1    3    3    0    0 -0.17321743471E-01  0.84956719462E-01 -0.99448502718E-01  0.88983576668E+00  0.88000000000E+00 0.  1.
        -11    1    4    4    0    0 -0.12561272194E-01 -0.79512973574E-01  0.75860833473E-01  0.11061295449E+00  0.51100000000E-03 0.  1.
         11    1    4    4    0    0  0.17305399501E-01 -0.11686998870E-01  0.20153309808E-01  0.29025502781E-01  0.51100000000E-03 0. -1.
</event>
<event>
 8    1  0.2927513E+004  0.1043930E+01  0.7957747E-01            NaN
         13   -1    0    0    0    0  0.00000000000E+00  0.00000000000E+00  0.74505805969E-08  0.10566000000E+00  0.10566000000E+00 0.  1.
     999900   -1    0    0    0    0 -0.00000000000E+00 -0.00000000000E+00 -0.74505805969E-08  0.93827000000E+00  0.93827000000E+00 0.  1.
     999902    2    1    2    0    0  0.50651426974E-02 -0.10483145057E-01  0.71855105629E-02  0.10302484956E+01  0.10301576477E+01 0.  0.
     999903    2    3    3    0    0  0.40452935880E-01 -0.63045182017E-01  0.11167176908E+00  0.14180466402E+00  0.45020481243E-01 0.  0.
         14    1    1    2    0    0 -0.50651426974E-02  0.10483145057E-01 -0.71855105629E-02  0.13681504409E-01  0.00000000000E+00 0. -1.
     999901    1    3    3    0    0 -0.35387793183E-01  0.52562036960E-01 -0.10448625852E+00  0.88844383157E+00  0.88000000000E+00 0.  1.
        -11    1    4    4    0    0  0.36477253310E-01 -0.48887603221E-01  0.51413443051E-01  0.79775879846E-01  0.51100000000E-03 0.  1.
         11    1    4    4    0    0  0.39756825696E-02 -0.14157578796E-01  0.60258326031E-01  0.62028784176E-01  0.51100000000E-03 0. -1.
</event>
<event>
 8    1  0.2927513E+004  0.1043930E+01  0.7957747E-01            NaN
         13   -1    0    0    0    0  0.00000000000E+00  0.00000000000E+00  0.74505805969E-08  0.10566000000E+00  0.10566000000E+00 0.  1.
     999900   -1    0    0    0    0 -0.00000000000E+00 -0.00000000000E+00 -0.74505805969E-08  0.93827000000E+00  0.93827000000E+00 0. -1.
     999902    2    1    2    0    0  0.12024338454E-02 -0.12401264227E-01 -0.55942549641E-02  0.10302722956E+01  0.10301817656E+01 0.  0.
     999903    2    3    3    0    0 -0.37405211689E-01 -0.12328397425E+00 -0.38617198034E-01  0.14186020626E+00  0.45110331061E-01 0.  0.
         14    1    1    2    0    0 -0.12024338454E-02  0.12401264227E-01  0.55942549641E-02  0.13657704425E-01  0.00000000000E+00 0.  1.
     999901    1    3    3    0    0  0.38607645535E-01  0.11088271002E+00  0.33022943069E-01  0.88841208932E+00  0.88000000000E+00 0. -1.
        -11    1    4    4    0    0 -0.30992682840E-03 -0.55249769785E-01  0.58739625745E-04  0.55253033285E-01  0.51100000000E-03 0. -1.
         11    1    4    4    0    0 -0.37095284861E-01 -0.68034204461E-01 -0.38675937659E-01  0.86607172973E-01  0.51100000000E-03 0.  1.
</event>
<event>
 8    1  0.2927513E+004  0.1043930E+01  0.7957747E-01            NaN
         13   -1    0    0    0    0  0.00000000000E+00  0.00000000000E+00  0.74505805969E-08  0.10566000000E+00  0.10566000000E+00 0. -1.
     999900   -1    0    0    0    0 -0.00000000000E+00 -0.00000000000E+00 -0.74505805969E-08  0.93827000000E+00  0.93827000000E+00 0.  1.
     999902    2    1    2    0    0  0.13824957566E-01 -0.46647055319E-03  0.21361499654E-03  0.10300955257E+01  0.10300026211E+01 0.  0.
     999903    2    3    3    0    0 -0.11567618422E+00 -0.57123655884E-01 -0.22544090997E-01  0.13852472342E+00  0.45130602744E-01 0.  0.
         14    1    1    2    0    0 -0.13824957566E-01  0.46647055319E-03 -0.21361499654E-03  0.13834474253E-01  0.00000000000E+00 0. -1.
     999901    1    3    3    0    0  0.12950114178E+00  0.56657185331E-01  0.22757705994E-01  0.89157080232E+00  0.88000000000E+00 0.  1.
        -11    1    4    4    0    0 -0.64338130321E-01 -0.52840714149E-01 -0.26543749105E-02  0.83299717359E-01  0.51100000000E-03 0. -1.
         11    1    4    4    0    0 -0.51338053898E-01 -0.42829417351E-02 -0.19889716087E-01  0.55225006065E-01  0.51100000000E-03 0.  1.
</event>
<event>
 8    1  0.2927513E+004  0.1043930E+01  0.7957747E-01            NaN
         13   -1    0    0    0    0  0.00000000000E+00  0.00000000000E+00  0.74505805969E-08  0.10566000000E+00  0.10566000000E+00 0. -1.
     999900   -1    0    0    0    0 -0.00000000000E+00 -0.00000000000E+00 -0.74505805969E-08  0.93827000000E+00  0.93827000000E+00 0. -1.
     999902    2    1    2    0    0 -0.17221856281E-01 -0.30589125433E-02 -0.45448695982E-02  0.10258577805E+01  0.10256985817E+01 0.  0.
     999903    2    3    3    0    0  0.28258561880E-01 -0.12540502515E+00  0.54860033573E-03  0.13621572707E+00  0.45049491517E-01 0.  0.
         14    1    1    2    0    0  0.17221856281E-01  0.30589125433E-02  0.45448695982E-02  0.18072219547E-01  0.00000000000E+00 0. -1.
     999901    1    3    3    0    0 -0.45480418161E-01  0.12234611261E+00 -0.50934699339E-02  0.88964205338E+00  0.88000000000E+00 0. -1.
        -11    1    4    4    0    0  0.27118966168E-01 -0.81225721602E-01 -0.19274043922E-01  0.87777024704E-01  0.51100000000E-03 0.  1.
         11    1    4    4    0    0  0.11395957126E-02 -0.44179303552E-01  0.19822644257E-01  0.48438702368E-01  0.51100000000E-03 0. -1.
</event>
<event>
 8    1  0.2927513E+004  0.1043930E+01  0.7957747E-01            NaN
         13   -1    0    0    0    0  0.00000000000E+00  0.00000000000E+00  0.74505805969E-08  0.10566000000E+00  0.10566000000E+00 0. -1.
     999900   -1    0    0    0    0 -0.00000000000E+00 -0.00000000000E+00 -0.74505805969E-08  0.93827000000E+00  0.93827000000E+00 0.  1.
     999902    2    1    2    0    0  0.18743845348E-02  0.33808366620E-02 -0.13260847812E-01  0.10301171995E+01  0.10300245877E+01 0.  0.
     999903    2    3    3    0    0 -0.93899992740E-01 -0.94641856381E-01  0.10852177093E-01  0.13918363423E+00  0.38471088806E-01 0.  0.
         14    1    1    2    0    0 -0.18743845348E-02 -0.33808366620E-02  0.13260847812E-01  0.13812800534E-01  0.00000000000E+00 0. -1.
     999901    1    3    3    0    0  0.95774377275E-01  0.98022693043E-01 -0.24113024905E-01  0.89093356524E+00  0.88000000000E+00 0. -1.
        -11    1    4    4    0    0 -0.62915683345E-01 -0.43631955996E-01  0.19149609711E-01  0.78924644237E-01  0.51100000000E-03 0.  1.
         11    1    4    4    0    0 -0.30984309395E-01 -0.51009900384E-01 -0.82974326176E-02  0.60258989993E-01  0.51100000000E-03 0. -1.
</event>
<event>
 8    1  0.2927513E+004  0.1043930E+01  0.7957747E-01            NaN
         13   -1    0    0    0    0  0.00000000000E+00  0.00000000000E+00  0.74505805969E-08  0.10566000000E+00  0.10566000000E+00 0. -1.
     999900   -1    0    0    0    0 -0.00000000000E+00 -0.00000000000E+00 -0.74505805969E-08  0.93827000000E+00  0.93827000000E+00 0. -1.
     999902    2    1    2    0    0 -0.17917849838E-02 -0.14632190894E-01 -0.50888090407E-02  0.10283348892E+01  0.10282166293E+01 0.  0.
     999903    2    3    3    0    0 -0.84205914270E-01  0.72977597079E-01  0.66428662139E-01  0.13727803784E+00  0.44901301155E-01 0.  0.
         14    1    1    2    0    0  0.17917849838E-02  0.14632190894E-01  0.50888090407E-02  0.15595110812E-01  0.00000000000E+00 0.  1.
     999901    1    3    3    0    0  0.82414129287E-01 -0.87609787973E-01 -0.71517471180E-01  0.89105685135E+00  0.88000000000E+00 0.  1.
        -11    1    4    4    0    0 -0.48804012457E-01  0.35500518542E-01  0.10583679629E-01  0.61273108654E-01  0.51100000000E-03 0. -1.
         11    1    4    4    0    0 -0.35401901814E-01  0.37477078536E-01  0.55844982510E-01  0.76004929183E-01  0.51100000000E-03 0.  1.
</event>
<event>
 8    1  0.2927513E+004  0.1043930E+01  0.7957747E-01            NaN
         13   -1    0    0    0    0  0.00000000000E+00  0.00000000000E+00  0.74505805969E-08  0.10566000000E+00  0.10566000000E+00 0.  1.
     999900   -1    0    0    0    0 -0.00000000000E+00 -0.00000000000E+00 -0.74505805969E-08  0.93827000000E+00  0.93827000000E+00 0. -1.
     999902    2    1    2    0    0 -0.11856562970E-01 -0.67636698759E-02  0.68986466414E-03  0.10302624754E+01  0.10301718143E+01 0.  0.
     999903    2    3    3    0    0 -0.10898384442E-01  0.13135496124E+00  0.91335705789E-02  0.13944881893E+00  0.44605497025E-01 0.  0.
         14    1    1    2    0    0  0.11856562970E-01  0.67636698759E-02 -0.68986466414E-03  0.13667524608E-01  0.00000000000E+00 0. -1.
     999901    1    3    3    0    0 -0.95817852874E-03 -0.13811863111E+00 -0.84437059147E-02  0.89081365646E+00  0.88000000000E+00 0. -1.
        -11    1    4    4    0    0 -0.10267053445E-01  0.52360726651E-01 -0.17380754615E-01  0.56119602938E-01  0.51100000000E-03 0. -1.
         11    1    4    4    0    0 -0.63133099606E-03  0.78994234586E-01  0.26514325194E-01  0.83329215994E-01  0.51100000000E-03 0.  1.
</event>
<event>
 8    1  0.2927513E+004  0.1043930E+01  0.7957747E-01            NaN
         13   -1    0    0    0    0  0.00000000000E+00  0.00000000000E+00  0.74505805969E-08  0.10566000000E+00  0.10566000000E+00 0.  1.
     999900   -1    0    0    0    0 -0.00000000000E+00 -0.00000000000E+00 -0.74505805969E-08  0.93827000000E+00  0.93827000000E+00 0. -1.
     999902    2    1    2    0    0 -0.67277998174E-02  0.79520393246E-02  0.69500007752E-02  0.10314079902E+01  0.10313319744E+01 0.  0.
     999903    2    3    3    0    0 -0.76258128824E-01 -0.67482961378E-01  0.89046462983E-01  0.14165255460E+00  0.42034763804E-01 0.  0.
         14    1    1    2    0    0  0.67277998174E-02 -0.79520393246E-02 -0.69500007752E-02  0.12522009846E-01  0.00000000000E+00 0. -1.
     999901    1    3    3    0    0  0.69530329007E-01  0.75435000703E-01 -0.82096462208E-01  0.88975543555E+00  0.88000000000E+00 0. -1.
        -11    1    4    4    0    0 -0.21033857697E-01 -0.80673350802E-02  0.19287970708E-02  0.22616066060E-01  0.51100000000E-03 0.  1.
         11    1    4    4    0    0 -0.55224271127E-01 -0.59415626298E-01  0.87117665912E-01  0.11903648854E+00  0.51100000000E-03 0. -1.
</event>
<event>
 8    1  0.2927513E+004  0.1043930E+01  0.7957747E-01            NaN
         13   -1    0    0    0    0  0.00000000000E+00  0.00000000000E+00  0.74505805969E-08  0.10566000000E+00  0.10566000000E+00 0. -1.
     999900   -1    0    0    0    0 -0.00000000000E+00 -0.00000000000E+00 -0.74505805969E-08  0.93827000000E+00  0.93827000000E+00 0. -1.
     999902    2    1    2    0    0 -0.99302471630E-02 -0.41648687239E-02  0.94293836075E-02  0.10296167469E+01  0.10295172540E+01 0.  0.
     999903    2    3    3    0    0  0.63396529527E-01 -0.11341393750E+00  0.23678202421E-01  0.13972057087E+00  0.45599774984E-01 0.  0.
         14    1    1    2    0    0  0.99302471630E-02  0.41648687239E-02 -0.94293836075E-02  0.14313253139E-01  0.00000000000E+00 0.  1.
     999901    1    3    3    0    0 -0.73326776690E-01  0.10924906878E+00 -0.14248818814E-01  0.88989617599E+00  0.88000000000E+00 0. -1.
        -11    1    4    4    0    0  0.19538186579E-01 -0.80321555871E-01  0.16688811357E-01  0.84333093254E-01  0.51100000000E-03 0.  1.
         11    1    4    4    0    0  0.43858342948E-01 -0.33092381629E-01  0.69893910647E-02  0.55387477614E-01  0.51100000000E-03 0. -1.
</event>
<event>
 8    1  0.2927513E+004  0.1043930E+01  0.7957747E-01            NaN
         13   -1    0    0    0    0  0.00000000000E+00  0.00000000000E+00  0.74505805969E-08  0.10566000000E+00  0.10566000000E+00 0. -1.
     999900   -1    0    0    0    0 -0.00000000000E+00 -0.00000000000E+00 -0.74505805969E-08  0.93827000000E+00  0.93827000000E+00 0.  1.
     999902    2    1    2    0    0 -0.37403392216E-02  0.12268333325E-01  0.52473317123E-02  0.10300722718E+01  0.10299790525E+01 0.  0.
     999903    2    3    3    0    0 -0.49784702262E-01  0.90765158421E-01  0.85098376895E-01  0.14178289086E+00  0.46301445204E-01 0.  0.
         14    1    1    2    0    0  0.37403392216E-02 -0.12268333325E-01 -0.52473317123E-02  0.13857728175E-01  0.00000000000E+00 0. -1.
     999901    1    3    3    0    0  0.46044363040E-01 -0.78496825096E-01 -0.79851045183E-01  0.88828938096E+00  0.88000000000E+00 0.  1.
        -11    1    4    4    0    0 -0.40767363675E-01  0.55983475910E-01  0.79464540563E-01  0.10540873704E+00  0.51100000000E-03 0.  1.
         11    1    4    4    0    0 -0.90173385873E-02  0.34781682511E-01  0.56338363324E-02  0.36374153823E-01  0.51100000000E-03 0. -1.
</event>
<event>
 8    1  0.2927513E+004  0.1043930E+01  0.7957747E-01            NaN
         13   -1    0    0    0    0  0.00000000000E+00  0.00000000000E+00  0.74505805969E-08  0.10566000000E+00  0.10566000000E+00 0.  1.
     999900   -1    0    0    0    0 -0.00000000000E+00 -0.00000000000E+00 -0.74505805969E-08  0.93827000000E+00  0.93827000000E+00 0. -1.
     999902    2    1    2    0    0  0.10423954191E-01 -0.51726475083E-02  0.92497000191E-02  0.10290648712E+01  0.10289575002E+01 0.  0.
     999903    2    3    3    0    0  0.11549261002E+00  0.63232073887E-01  0.74493369799E-02  0.14017687509E+00  0.47510267857E-01 0.  0.
         14    1    1    2    0    0 -0.10423954191E-01  0.51726475083E-02 -0.92497000191E-02  0.14865128780E-01  0.00000000000E+00 0. -1.
     999901    1    3    3    0    0 -0.10506865583E+00 -0.68404721395E-01  0.18003630393E-02  0.88888799612E+00  0.88000000000E+00 0. -1.
        -11    1    4    4    0    0  0.94948920961E-01  0.29340171628E-01 -0.21197603755E-02  0.99402705033E-01  0.51100000000E-03 0. -1.
         11    1    4    4    0    0  0.20543689062E-01  0.33891902260E-01  0.95690973553E-02  0.40774170062E-01  0.51100000000E-03 0.  1.
</event>
<event>
 8    1  0.2927513E+004  0.1043930E+01  0.7957747E-01            NaN
         13   -1    0    0    0    0  0.00000000000E+00  0.00000000000E+00  0.74505805969E-08  0.10566000000E+00  0.10566000000E+00 0.  1.
     999900   -1    0    0    0    0 -0.00000000000E+00 -0.00000000000E+00 -0.74505805969E-08  0.93827000000E+00  0.93827000000E+00 0. -1.
     999902    2    1    2    0    0 -0.10118111714E-02 -0.94067120549E-03  0.14124312629E-01  0.10297382830E+01  0.10296404842E+01 0.  0.
     999903    2    3    3    0    0 -0.10521345409E+00 -0.62893291405E-01 -0.48020953383E-01  0.13925631035E+00  0.45396816866E-01 0.  0.
         14    1    1    2    0    0  0.10118111714E-02  0.94067120549E-03 -0.14124312629E-01  0.14191716999E-01  0.00000000000E+00 0. -1.
     999901    1    3    3    0    0  0.10420164292E+00  0.61952620200E-01  0.62145266012E-01  0.89048197266E+00  0.88000000000E+00 0.  1.
        -11    1    4    4    0    0 -0.37519521384E-01 -0.33842085171E-01  0.13982391401E-02  0.50549158324E-01  0.51100000000E-03 0.  1.
         11    1    4    4    0    0 -0.67693932707E-01 -0.29051206234E-01 -0.49419192524E-01  0.88707152021E-01  0.51100000000E-03 0. -1.
</event>
<event>
 8    1  0.2927513E+004  0.1043930E+01  0.7957747E-01            NaN
         13   -1    0    0    0    0  0.00000000000E+00  0.00000000000E+00  0.74505805969E-08  0.10566000000E+00  0.10566000000E+00 0. -1.
     999900   -1    0    0    0    0 -0.00000000000E+00 -0.00000000000E+00 -0.74505805969E-08  0.93827000000E+00  0.93827000000E+00 0.  1.
     999902    2    1    2    0    0 -0.99001611685E-02  0.73695347670E-02 -0.56053326711E-02  0.10303748169E+01  0.10302856499E+01 0.  0.
     999903    2    3    3    0    0  0.25476341973E-01  0.13046343981E+00 -0.15192152861E-01  0.14105175214E+00  0.44665894670E-01 0.  0.
         14    1    1    2    0    0  0.99001611685E-02 -0.73695347670E-02  0.56053326711E-02  0.13555183075E-01  0.00000000000E+00 0.  1.
     999901    1    3    3    0    0 -0.35376503141E-01 -0.12309390504E+00  0.95868201901E-02  0.88932306478E+00  0.88000000000E+00 0.  1.
        -11    1    4    4    0    0  0.56088595591E-02  0.90214368514E-01  0.75990794833E-02  0.90708867934E-01  0.51100000000E-03 0.  1.
         11    1    4    4    0    0  0.19867482414E-01  0.40249071295E-01 -0.22791232345E-01  0.50342884208E-01  0.51100000000E-03 0. -1.
</event>
<event>
 8    1  0.2927513E+004  0.1043930E+01  0.7957747E-01            NaN
         13   -1    0    0    0    0  0.00000000000E+00  0.00000000000E+00  0.74505805969E-08  0.10566000000E+00  0.10566000000E+00 0. -1.
     999900   -1    0    0    0    0 -0.00000000000E+00 -0.00000000000E+00 -0.74505805969E-08  0.93827000000E+00  0.93827000000E+00 0. -1.
     999902    2    1    2    0    0  0.34090635308E-04 -0.10189173483E-01  0.11065553263E-01  0.10288878297E+01  0.10287778668E+01 0.  0.
     999903    2    3    3    0    0  0.36603554228E-01  0.59694952147E-01  0.11187438833E+00  0.13962772269E+00  0.45570985131E-01 0.  0.
         14    1    1    2    0    0 -0.34090635308E-04  0.10189173483E-01 -0.11065553263E-01  0.15042170304E-01  0.00000000000E+00 0.  1.
     999901    1    3    3    0    0 -0.36569463593E-01 -0.69884125631E-01 -0.10080883507E+00  0.88926010700E+00  0.88000000000E+00 0. -1.
        -11    1    4    4    0    0  0.47476596315E-01  0.47813587014E-01  0.88333378965E-01  0.11110001468E+00  0.51100000000E-03 0.  1.
         11    1    4    4    0    0 -0.10873042087E-01  0.11881365134E-01  0.23541009364E-01  0.28527708014E-01  0.51100000000E-03 0. -1.
</event>
<event>
 8    1  0.2927513E+004  0.1043930E+01  0.7957747E-01            NaN
         13   -1    0    0    0    0  0.00000000000E+00  0.00000000000E+00  0.74505805969E-08  0.10566000000E+00  0.10566000000E+00 0. -1.
     999900   -1    0    0    0    0 -0.00000000000E+00 -0.00000000000E+00 -0.74505805969E-08  0.93827000000E+00  0.93827000000E+00 0.  1.
     999902    2    1    2    0    0 -0.86132344926E-02  0.70071233125E-02  0.82451893945E-02  0.10300999337E+01  0.10300070887E+01 0.  0.
     999903    2    3    3    0    0 -0.35137741456E-01 -0.10754989607E+00 -0.67090016249E-01  0.13908800709E+00  0.45196929292E-01 0.  0.
         14    1    1    2    0    0  0.86132344926E-02 -0.70071233125E-02 -0.82451893945E-02  0.13830066294E-01  0.00000000000E+00 0. -1.
     999901    1    3    3    0    0  0.26524506964E-01  0.11455701938E+00  0.75335205644E-01  0.89101192661E+00  0.88000000000E+00 0. -1.
        -11    1    4    4    0    0 -0.38728458498E-01 -0.95266509628E-01 -0.42327099545E-01  0.11120901866E+00  0.51100000000E-03 0. -1.
         11    1    4    4    0    0  0.35907170413E-02 -0.12283386441E-01 -0.24762916704E-01  0.27878988433E-01  0.51100000000E-03 0.  1.
</event>
<event>
 8    1  0.2927513E+004  0.1043930E+01  0.7957747E-01            NaN
         13   -1    0    0    0    0  0.00000000000E+00  0.00000000000E+00  0.74505805969E-08  0.10566000000E+00  0.10566000000E+00 0. -1.
     999900   -1    0    0    0    0 -0.00000000000E+00 -0.00000000000E+00 -0.74505805969E-08  0.93827000000E+00  0.93827000000E+00 0. -1.
     999902    2    1    2    0    0  0.73361686628E-02  0.10519491733E-01  0.34949899772E-02  0.10306373693E+01  0.10305516449E+01 0.  0.
     999903    2    3    3    0    0 -0.10737313565E+00  0.68451316155E-01 -0.38110473308E-01  0.14033105380E+00  0.45009149546E-01 0.  0.
         14    1    1    2    0    0 -0.73361686628E-02 -0.10519491733E-01 -0.34949899772E-02  0.13292630737E-01  0.00000000000E+00 0. -1.
     999901    1    3    3    0    0  0.11470930431E+00 -0.57931824422E-01  0.41605463285E-01  0.89030631546E+00  0.88000000000E+00 0.  1.
        -11    1    4    4    0    0 -0.87218647556E-01  0.32402589474E-01 -0.32949613491E-01  0.98706425506E-01  0.51100000000E-03 0.  1.
         11    1    4    4    0    0 -0.20154488092E-01  0.36048726681E-01 -0.51608598171E-02  0.41624628294E-01  0.51100000000E-03 0. -1.
</event>
<event>
 8    1  0.2927513E+004  0.1043930E+01  0.7957747E-01            NaN
         13   -1    0    0    0    0  0.00000000000E+00  0.00000000000E+00  0.74505805969E-08  0.10566000000E+00  0.10566000000E+00 0.  1.
     999900   -1    0    0    0    0 -0.00000000000E+00 -0.00000000000E+00 -0.74505805969E-08  0.93827000000E+00  0.93827000000E+00 0. -1.
     999902    2    1    2    0    0 -0.93067538559E-02  0.99035098360E-02 -0.16264661376E-02  0.10302427590E+01  0.10301518344E+01 0.  0.
     999903    2    3    3    0    0 -0.72343663327E-01  0.86088756388E-01  0.73433193027E-01  0.14152919648E+00  0.44645268717E-01 0.  0.
         14    1    1    2    0    0  0.93067538559E-02 -0.99035098360E-02  0.16264661376E-02  0.13687241011E-01  0.00000000000E+00 0. -1.
     999901    1    3    3    0    0  0.63036909472E-01 -0.76185246552E-01 -0.75059659164E-01  0.88871356251E+00  0.88000000000E+00 0.  1.
        -11    1    4    4    0    0 -0.62542044149E-02  0.21561314183E-01  0.34780300519E-01  0.41399707334E-01  0.51100000000E-03 0.  1.
         11    1    4    4    0    0 -0.66089458912E-01  0.64527442206E-01  0.38652892507E-01  0.10012948915E+00  0.51100000000E-03 0. -1.
</event>
<event>
 8    1  0.2927513E+004  0.1043930E+01  0.7957747E-01            NaN
         13   -1    0    0    0    0  0.00000000000E+00  0.00000000000E+00  0.74505805969E-08  0.10566000000E+00  0.10566000000E+00 0.  1.
     999900   -1    0    0    0    0 -0.00000000000E+00 -0.00000000000E+00 -0.74505805969E-08  0.93827000000E+00  0.93827000000E+00 0.  1.
     999902    2    1    2    0    0 -0.10172080299E-01  0.76915314159E-02 -0.39000965939E-02  0.10305942726E+01  0.10305079878E+01 0.  0.
     999903    2    3    3    0    0 -0.79906102284E-01  0.57878282832E-01 -0.91636992772E-01  0.14206779192E+00  0.45288389791E-01 0.  0.
         14    1    1    2    0    0  0.10172080299E-01 -0.76915314159E-02  0.39000965939E-02  0.13335727448E-01  0.00000000000E+00 0.  1.
     999901    1    3    3    0    0  0.69734021984E-01 -0.50186751416E-01  0.87736896178E-01  0.88852648064E+00  0.88000000000E+00 0. -1.
        -11    1    4    4    0    0 -0.10710895397E-01  0.15205741819E-01 -0.44167651666E-01  0.47926823795E-01  0.51100000000E-03 0. -1.
         11    1    4    4    0    0 -0.69195206887E-01  0.42672541013E-01 -0.47469341106E-01  0.94140968121E-01  0.51100000000E-03 0.  1.
</event>
<event>
 8    1  0.2927513E+004  0.1043930E+01  0.7957747E-01            NaN
         13   -1    0    0    0    0  0.00000000000E+00  0.00000000000E+00  0.74505805969E-08  0.10566000000E+00  0.10566000000E+00 0.  1.
     999900   -1    0    0    0    0 -0.00000000000E+00 -0.00000000000E+00 -0.74505805969E-08  0.93827000000E+00  0.93827000000E+00 0. -1.
     999902    2    1    2    0    0  0.26998899552E-02  0.12611413734E-01 -0.57452566065E-02  0.10298110363E+01  0.10297142445E+01 0.  0.
     999903    2    3    3    0    0  0.57640322691E-01  0.61123350916E-01  0.10282647016E+00  0.14011463919E+00  0.44725365536E-01 0.  0.
         14    1    1    2    0    0 -0.26998899552E-02 -0.12611413734E-01  0.57452566065E-02  0.14118963687E-01  0.00000000000E+00 0. -1.
     999901    1    3    3    0    0 -0.54940432736E-01 -0.48511937182E-01 -0.10857172677E+00  0.88969639712E+00  0.88000000000E+00 0. -1.
        -11    1    4    4    0    0  0.44834790550E-01  0.20168064424E-01  0.72374794463E-01  0.87494464173E-01  0.51100000000E-03 0. -1.
         11    1    4    4    0    0  0.12805532141E-01  0.40955286492E-01  0.30451675699E-01  0.52620175018E-01  0.51100000000E-03 0.  1.
</event>
<event>
 8    1  0.2927513E+004  0.1043930E+01  0.7957747E-01            NaN
         13   -1    0    0    0    0  0.00000000000E+00  0.00000000000E+00  0.74505805969E-08  0.10566000000E+00  0.10566000000E+00 0. -1.
     999900   -1    0    0    0    0 -0.00000000000E+00 -0.00000000000E+00 -0.74505805969E-08  0.93827000000E+00  0.93827000000E+00 0.  1.
     999902    2    1    2    0    0 -0.94681155620E-02 -0.68091037347E-02  0.59428479524E-02  0.10308408233E+01  0.10307577195E+01 0.  0.
     999903    2    3    3    0    0 -0.64615063927E-02 -0.44047562531E-01  0.12674695901E+00  0.14180236753E+00  0.45400231181E-01 0.  0.
         14    1    1    2    0    0  0.94681155620E-02  0.68091037347E-02 -0.59428479524E-02  0.13089176741E-01  0.00000000000E+00 0.  1.
     999901    1    3    3    0    0 -0.30066091693E-02  0.37238458796E-01 -0.12080411105E+00  0.88903845573E+00  0.88000000000E+00 0.  1.
        -11    1    4    4    0    0 -0.50720530133E-02  0.87124562468E-02  0.13470929385E-01  0.16833290680E-01  0.51100000000E-03 0.  1.
         11    1    4    4    0    0 -0.13894533794E-02 -0.52760018777E-01  0.11327602962E+00  0.12496907685E+00  0.51100000000E-03 0. -1.
</event>
<event>
 8    1  0.2927513E+004  0.1043930E+01  0.7957747E-01            NaN
         13   -1    0    0    0    0  0.00000000000E+00  0.00000000000E+00  0.74505805969E-08  0.10566000000E+00  0.10566000000E+00 0. -1.
     999900   -1    0    0    0    0 -0.00000000000E+00 -0.00000000000E+00 -0.74505805969E-08  0.93827000000E+00  0.93827000000E+00 0.  1.
     999902    2    1    2    0    0  0.26121743164E-02  0.11782634609E-01  0.57633671984E-02  0.10305557585E+01  0.10304689715E+01 0.  0.
     999903    2    3    3    0    0 -0.11802461262E+00 -0.58047036320E-01  0.11730150273E-01  0.13956472615E+00  0.45182394277E-01 0.  0.
         14    1    1    2    0    0 -0.26121743164E-02 -0.11782634609E-01 -0.57633671984E-02  0.13374241453E-01  0.00000000000E+00 0.  1.
     999901    1    3    3    0    0  0.12063678693E+00  0.69829670929E-01 -0.59667830742E-02  0.89099103239E+00  0.88000000000E+00 0.  1.
        -11    1    4    4    0    0 -0.50993377460E-01 -0.30601462681E-01 -0.16665045568E-01  0.61763734730E-01  0.51100000000E-03 0.  1.
         11    1    4    4    0    0 -0.67031235155E-01 -0.27445573640E-01  0.28395195841E-01  0.77800991425E-01  0.51100000000E-03 0. -1.
</event>
<event>
 8    1  0.2927513E+004  0.1043930E+01  0.7957747E-01            NaN
         13   -1    0    0    0    0  0.00000000000E+00  0.00000000000E+00  0.74505805969E-08  0.10566000000E+00  0.10566000000E+00 0. -1.
     999900   -1    0    0    0    0 -0.00000000000E+00 -0.00000000000E+00 -0.74505805969E-08  0.93827000000E+00  0.93827000000E+00 0.  1.
     999902    2    1    2    0    0 -0.60022528726E-02 -0.11553333713E-01  0.53570719658E-02  0.10298514781E+01  0.10297552438E+01 0.  0.
     999903    2    3    3    0    0 -0.33723571050E-01  0.65476958898E-01  0.11002712569E+00  0.13987509771E+00  0.45106132413E-01 0.  0.
         14    1    1    2    0    0  0.60022528726E-02  0.11553333713E-01 -0.53570719658E-02  0.14078521921E-01  0.00000000000E+00 0. -1.
     999901    1    3    3    0    0  0.27721318178E-01 -0.77030292611E-01 -0.10467005373E+00  0.88997638037E+00  0.88000000000E+00 0. -1.
        -11    1    4    4    0    0 -0.31967222358E-01  0.55992499732E-01  0.57263926513E-01  0.86235037730E-01  0.51100000000E-03 0.  1.
         11    1    4    4    0    0 -0.17563486927E-02  0.94844591657E-02  0.52763199180E-01  0.53640059984E-01  0.51100000000E-03 0. -1.
</event>
<event>
 8    1  0.2927513E+004  0.1043930E+01  0.7957747E-01            NaN
         13   -1    0    0    0    0  0.00000000000E+00  0.00000000000E+00  0.74505805969E-08  0.10566000000E+00  0.10566000000E+00 0.  1.
     999900   -1    0    0    0    0 -0.00000000000E+00 -0.00000000000E+00 -0.74505805969E-08  0.93827000000E+00  0.93827000000E+00 0. -1.
     999902    2    1    2    0    0  0.10603695952E-01 -0.40640465856E-02 -0.80324341628E-02  0.10300204766E+01  0.10299265544E+01 0.  0.
     999903    2    3    3    0    0  0.29262023788E-01 -0.12352203810E+00 -0.41279101130E-01  0.14113145890E+00  0.45827552489E-01 0.  0.
         14    1    1    2    0    0 -0.10603695952E-01  0.40640465856E-02  0.80324341628E-02  0.13909523395E-01  0.00000000000E+00 0.  1.
     999901    1    3    3    0    0 -0.18658327836E-01  0.11945799152E+00  0.33246666967E-01  0.88888901771E+00  0.88000000000E+00 0.  1.
        -11    1    4    4    0    0  0.30798838085E-02 -0.85071243525E-01 -0.41282239400E-01  0.94610182169E-01  0.51100000000E-03 0. -1.
         11    1    4    4    0    0  0.26182139980E-01 -0.38450794578E-01  0.31382701654E-05  0.46521276729E-01  0.51100000000E-03 0.  1.
</event>
<event>
 8    1  0.2927513E+004  0.1043930E+01  0.7957747E-01            NaN
         13   -1    0    0    0    0  0.00000000000E+00  0.00000000000E+00  0.74505805969E-08  0.10566000000E+00  0.10566000000E+00 0.  1.
     999900   -1    0    0    0    0 -0.00000000000E+00 -0.00000000000E+00 -0.74505805969E-08  0.93827000000E+00  0.93827000000E+00 0. -1.
     999902    2    1    2    0    0 -0.44345770359E-02 -0.38437000905E-02  0.12186825114E-01  0.10304037954E+01  0.10303150117E+01 0.  0.
     999903    2    3    3    0    0  0.12566650147E+00 -0.40426721311E-01  0.21233851667E-01  0.14004069154E+00  0.41642879858E-01 0.  0.
         14    1    1    2    0    0  0.44345770359E-02  0.38437000905E-02 -0.12186825114E-01  0.13526204576E-01  0.00000000000E+00 0. -1.
     999901    1    3    3    0    0 -0.13010107850E+00  0.36583021220E-01 -0.90470265526E-02  0.89036310388E+00  0.88000000000E+00 0.  1.
        -11    1    4    4    0    0  0.26405950370E-01 -0.95130105340E-02  0.22644706541E-01  0.36066819096E-01  0.51100000000E-03 0.  1.
         11    1    4    4    0    0  0.99260551099E-01 -0.30913710777E-01 -0.14108548744E-02  0.10397387244E+00  0.51100000000E-03 0. -1.
</event>
<event>
 8    1  0.2927513E+004  0.1043930E+01  0.7957747E-01            NaN
         13   -1    0    0    0    0  0.00000000000E+00  0.00000000000E+00  0.74505805969E-08  0.10566000000E+00  0.10566000000E+00 0. -1.
     999900   -1    0    0    0    0 -0.00000000000E+00 -0.00000000000E+00 -0.74505805969E-08  0.93827000000E+00  0.93827000000E+00 0.  1.
     999902    2    1    2    0    0  0.99022938938E-02  0.14258031538E-02  0.97493824004E-02  0.10299607911E+01  0.10298660556E+01 0.  0.
     999903    2    3    3    0    0  0.12486869579E+00 -0.39899425835E-01  0.26848434822E-01  0.14135659032E+00  0.45570734075E-01 0.  0.
         14    1    1    2    0    0 -0.99022938938E-02 -0.14258031538E-02 -0.97493824004E-02  0.13969208860E-01  0.00000000000E+00 0.  1.
     999901    1    3    3    0    0 -0.11496640190E+00  0.41325228989E-01 -0.17099052421E-01  0.88860420082E+00  0.88000000000E+00 0.  1.
        -11    1    4    4    0    0  0.43678773375E-01 -0.35951970337E-01  0.19052308042E-01  0.59696155465E-01  0.51100000000E-03 0. -1.
         11    1    4    4    0    0  0.81189922419E-01 -0.39474554982E-02  0.77961267794E-02  0.81660434857E-01  0.51100000000E-03 0.  1.
</event>
<event>
 8    1  0.2927513E+004  0.1043930E+01  0.7957747E-01            NaN
         13   -1    0    0    0    0  0.00000000000E+00  0.00000000000E+00  0.74505805969E-08  0.10566000000E+00  0.10566000000E+00 0.  1.
     999900   -1    0    0    0    0 -0.00000000000E+00 -0.00000000000E+00 -0.74505805969E-08  0.93827000000E+00  0.93827000000E+00 0. -1.
     999902    2    1    2    0    0  0.29545305001E-02  0.69154314486E-04  0.13663365928E-01  0.10299506724E+01  0.10298557986E+01 0.  0.
     999903    2    3    3    0    0 -0.10407544490E+00 -0.27640449363E-02 -0.79672824711E-01  0.13856125850E+00  0.44856718389E-01 0.  0.
         14    1    1    2    0    0 -0.29545305001E-02 -0.69154314486E-04 -0.13663365928E-01  0.13979327640E-01  0.00000000000E+00 0. -1.
     999901    1    3    3    0    0  0.10702997540E+00  0.28331992508E-02  0.93336190638E-01  0.89138941386E+00  0.88000000000E+00 0. -1.
        -11    1    4    4    0    0 -0.35987300801E-01  0.51678980980E-02 -0.54539510675E-01  0.65548549452E-01  0.51100000000E-03 0.  1.
         11    1    4    4    0    0 -0.68088144102E-01 -0.79319430343E-02 -0.25133314036E-01  0.73012709051E-01  0.51100000000E-03 0. -1.
</event>
<event>
 8    1  0.2927513E+004  0.1043930E+01  0.7957747E-01            NaN
         13   -1    0    0    0    0  0.00000000000E+00  0.00000000000E+00  0.74505805969E-08  0.10566000000E+00  0.10566000000E+00 0.  1.
     999900   -1    0    0    0    0 -0.00000000000E+00 -0.00000000000E+00 -0.74505805969E-08  0.93827000000E+00  0.93827000000E+00 0.  1.
     999902    2    1    2    0    0 -0.37618907678E-02  0.13674005503E-01 -0.55008277684E-03  0.10297372963E+01  0.10296394837E+01 0.  0.
     999903    2    3    3    0    0  0.36805427847E-01 -0.10776648328E+00 -0.64031776123E-01  0.13820859506E+00  0.45092049825E-01 0.  0.
         14    1    1    2    0    0  0.37618907678E-02 -0.13674005503E-01  0.55008277684E-03  0.14192703749E-01  0.00000000000E+00 0.  1.
     999901    1    3    3    0    0 -0.40567318615E-01  0.12144048878E+00  0.63481693346E-01  0.89152870119E+00  0.88000000000E+00 0.  1.
        -11    1    4    4    0    0  0.37861350500E-01 -0.56116170014E-01 -0.51467222633E-01  0.85039064701E-01  0.51100000000E-03 0.  1.
         11    1    4    4    0    0 -0.10559226525E-02 -0.51650313268E-01 -0.12564553490E-01  0.53169530360E-01  0.51100000000E-03 0. -1.
</event>
<event>
 8    1  0.2927513E+004  0.1043930E+01  0.7957747E-01            NaN
         13   -1    0    0    0    0  0.00000000000E+00  0.00000000000E+00  0.74505805969E-08  0.10566000000E+00  0.10566000000E+00 0. -1.
     999900   -1    0    0    0    0 -0.00000000000E+00 -0.00000000000E+00 -0.74505805969E-08  0.93827000000E+00  0.93827000000E+00 0. -1.
     999902    2    1    2    0    0  0.49941609193E-02  0.38555913957E-02 -0.12900121712E-01  0.10295696251E+01  0.10294694714E+01 0.  0.
     999903    2    3    3    0    0  0.76476946734E-01  0.33475107890E-01  0.10110856996E+00  0.13884795910E+00  0.45678294603E-01 0.  0.
         14    1    1    2    0    0 -0.49941609193E-02 -0.38555913957E-02  0.12900121712E-01  0.14360374943E-01  0.00000000000E+00 0.  1.
     999901    1    3    3    0    0 -0.71482785814E-01 -0.29619516494E-01 -0.11400869167E+00  0.89072166596E+00  0.88000000000E+00 0. -1.
        -11    1    4    4    0    0  0.32055901810E-01  0.28626510455E-01  0.22719508998E-01  0.48615791177E-01  0.51100000000E-03 0.  1.
         11    1    4    4    0    0  0.44421044924E-01  0.48485974350E-02  0.78389060960E-01  0.90232167925E-01  0.51100000000E-03 0. -1.
</event>
<event>
 8    1  0.2927513E+004  0.1043930E+01  0.7957747E-01            NaN
         13   -1    0    0    0    0  0.00000000000E+00  0.00000000000E+00  0.74505805969E-08  0.10566000000E+00  0.10566000000E+00 0.  1.
     999900   -1    0    0    0    0 -0.00000000000E+00 -0.00000000000E+00 -0.74505805969E-08  0.93827000000E+00  0.93827000000E+00 0.  1.
     999902    2    1    2    0    0 -0.20231747945E-02 -0.11418805055E-01 -0.76167413037E-02  0.10300556678E+01  0.10299622234E+01 0.  0.
     999903    2    3    3    0    0  0.60635727648E-01  0.34870647135E-01  0.11197454484E+00  0.13855640975E+00  0.42034824732E-01 0.  0.
         14    1    1    2    0    0  0.20231747945E-02  0.11418805055E-01  0.76167413037E-02  0.13874332172E-01  0.00000000000E+00 0.  1.
     999901    1    3    3    0    0 -0.62658902443E-01 -0.46289452190E-01 -0.11959128614E+00  0.89149925808E+00  0.88000000000E+00 0. -1.
        -11    1    4    4    0    0  0.15183011696E-01  0.28879872074E-01  0.66006563135E-01  0.73632182862E-01  0.51100000000E-03 0. -1.
         11    1    4    4    0    0  0.45452715953E-01  0.59907750609E-02  0.45967981706E-01  0.64924226884E-01  0.51100000000E-03 0.  1.
</event>
<event>
 8    1  0.2927513E+004  0.1043930E+01  0.7957747E-01            NaN
         13   -1    0    0    0    0  0.00000000000E+00  0.00000000000E+00  0.74505805969E-08  0.10566000000E+00  0.10566000000E+00 0.  1.
     999900   -1    0    0    0    0 -0.00000000000E+00 -0.00000000000E+00 -0.74505805969E-08  0.93827000000E+00  0.93827000000E+00 0. -1.
     999902    2    1    2    0    0  0.61062517836E-02  0.10491306495E-01  0.67268192797E-02  0.10300518185E+01  0.10299583220E+01 0.  0.
     999903    2    3    3    0    0 -0.72820832866E-01 -0.90113841532E-01 -0.58736267273E-01  0.13840373987E+00  0.47773088478E-01 0.  0.
         14    1    1    2    0    0 -0.61062517836E-02 -0.10491306495E-01 -0.67268192797E-02  0.13878181453E-01  0.00000000000E+00 0. -1.
     999901    1    3    3    0    0  0.78927084650E-01  0.10060514803E+00  0.65463086553E-01  0.89164807867E+00  0.88000000000E+00 0.  1.
        -11    1    4    4    0    0 -0.20611723015E-01 -0.25472806656E-01  0.56874382514E-02  0.33261315059E-01  0.51100000000E-03 0. -1.
         11    1    4    4    0    0 -0.52209109851E-01 -0.64641034876E-01 -0.64423705525E-01  0.10514242481E+00  0.51100000000E-03 0.  1.
</event>
<event>
 7    1  0.2927513E+004  0.1043930E+01  0.7957747E-01            NaN
         13   -1    0    0    0    0  0.00000000000E+00  0.00000000000E+00  0.74505805969E-08  0.10566000000E+00  0.10566000000E+00 0. -1.
     999900   -1    0    0    0    0 -0.00000000000E+00 -0.00000000000E+00 -0.74505805969E-08  0.93827000000E+00  0.93827000000E+00 0.  1.
     999903    2    1    2    0    0  0.15236264328E-01  0.33950440039E-01 -0.10417156354E+00  0.11936044768E+00  0.44837770798E-01 0.  0.
         14    1    1    2    0    0 -0.28615959531E-01  0.19941793826E-01 -0.77933651334E-02  0.35739121715E-01  0.00000000000E+00 0.  1.
     999901    1    1    2    0    0  0.13379695203E-01 -0.53892233865E-01  0.11196492868E+00  0.88883043060E+00  0.88000000000E+00 0. -1.
        -11    1    3    3    0    0 -0.63124947187E-02  0.31250574062E-01 -0.83469750057E-01  0.89352707090E-01  0.51100000000E-03 0.  1.
         11    1    3    3    0    0  0.21548759047E-01  0.26998659774E-02 -0.20701813485E-01  0.30007740590E-01  0.51100000000E-03 0. -1.
</event>
<event>
 8    1  0.2927513E+004  0.1043930E+01  0.7957747E-01            NaN
         13   -1    0    0    0    0  0.00000000000E+00  0.00000000000E+00  0.74505805969E-08  0.10566000000E+00  0.10566000000E+00 0. -1.
     999900   -1    0    0    0    0 -0.00000000000E+00 -0.00000000000E+00 -0.74505805969E-08  0.93827000000E+00  0.93827000000E+00 0. -1.
     999902    2    1    2    0    0  0.96437946430E-02  0.20648471337E-02 -0.59825543147E-02  0.10323949523E+01  0.10323305092E+01 0.  0.
     999903    2    3    3    0    0  0.51634118810E-02  0.12108703150E+00  0.58913409127E-01  0.14200299354E+00  0.44780915350E-01 0.  0.
         14    1    1    2    0    0 -0.96437946430E-02 -0.20648471337E-02  0.59825543147E-02  0.11535047678E-01  0.00000000000E+00 0.  1.
     999901    1    3    3    0    0  0.44803827620E-02 -0.11902218436E+00 -0.64895963442E-01  0.89039195879E+00  0.88000000000E+00 0. -1.
        -11    1    4    4    0    0 -0.51350187391E-02  0.55059150695E-01  0.50055872151E-01  0.74590414602E-01  0.51100000000E-03 0.  1.
         11    1    4    4    0    0  0.10298430620E-01  0.66027880801E-01  0.88575369760E-02  0.67412578934E-01  0.51100000000E-03 0. -1.
</event>
<event>
 8    1  0.2927513E+004  0.1043930E+01  0.7957747E-01            NaN
         13   -1    0    0    0    0  0.00000000000E+00  0.00000000000E+00  0.74505805969E-08  0.10566000000E+00  0.10566000000E+00 0. -1.
     999900   -1    0    0    0    0 -0.00000000000E+00 -0.00000000000E+00 -0.74505805969E-08  0.93827000000E+00  0.93827000000E+00 0. -1.
     999902    2    1    2    0    0 -0.84969892090E-02 -0.77076090218E-03  0.10478675144E-01  0.10304172086E+01  0.10303286021E+01 0.  0.
     999903    2    3    3    0    0 -0.15497719596E-01  0.57617368425E-01  0.12044257759E+00  0.14162575743E+00  0.44626227878E-01 0.  0.
         14    1    1    2    0    0  0.84969892090E-02  0.77076090218E-03 -0.10478675144E-01  0.13512791375E-01  0.00000000000E+00 0.  1.
     999901    1    3    3    0    0  0.70007303871E-02 -0.58388129327E-01 -0.10996390245E+00  0.88879145119E+00  0.88000000000E+00 0. -1.
        -11    1    4    4    0    0  0.11460439080E-01  0.72799982936E-02  0.86882293572E-02  0.16127197197E-01  0.51100000000E-03 0.  1.
         11    1    4    4    0    0 -0.26958158676E-01  0.50337370131E-01  0.11175434823E+00  0.12549856023E+00  0.51100000000E-03 0. -1.
</event>
<event>
 8    1  0.2927513E+004  0.1043930E+01  0.7957747E-01            NaN
         13   -1    0    0    0    0  0.00000000000E+00  0.00000000000E+00  0.74505805969E-08  0.10566000000E+00  0.10566000000E+00 0.  1.
     999900   -1    0    0    0    0 -0.00000000000E+00 -0.00000000000E+00 -0.74505805969E-08  0.93827000000E+00  0.93827000000E+00 0. -1.
     999902    2    1    2    0    0  0.70329778293E-02  0.66572549400E-02 -0.87281853298E-02  0.10308930126E+01  0.10308105745E+01 0.  0.
     999903    2    3    3    0    0 -0.75016601435E-01  0.35543848626E-01  0.10277815429E+00  0.13960168398E+00  0.45104606246E-01 0.  0.
         14    1    1    2    0    0 -0.70329778293E-02 -0.66572549400E-02  0.87281853298E-02  0.13036987368E-01  0.00000000000E+00 0. -1.
     999901    1    3    3    0    0  0.82049579264E-01 -0.28886593686E-01 -0.11150633962E+00  0.89129132865E+00  0.88000000000E+00 0. -1.
        -11    1    4    4    0    0 -0.54933384780E-01  0.44693430350E-01  0.88346112007E-01  0.11322754129E+00  0.51100000000E-03 0.  1.
         11    1    4    4    0    0 -0.20083216654E-01 -0.91495817240E-02  0.14432042286E-01  0.26374142687E-01  0.51100000000E-03 0. -1.
</event>
<event>
 8    1  0.2927513E+004  0.1043930E+01  0.7957747E-01            NaN
         13   -1    0    0    0    0  0.00000000000E+00  0.00000000000E+00  0.74505805969E-08  0.10566000000E+00  0.10566000000E+00 0. -1.
     999900   -1    0    0    0    0 -0.00000000000E+00 -0.00000000000E+00 -0.74505805969E-08  0.93827000000E+00  0.93827000000E+00 0. -1.
     999902    2    1    2    0    0 -0.19675548754E-02  0.12383236958E-01  0.52784029114E-02  0.10303256857E+01  0.10302358668E+01 0.  0.
     999903    2    3    3    0    0  0.26455201620E-01 -0.10743509890E+00  0.71395573121E-01  0.13929495286E+00  0.45426620641E-01 0.  0.
         14    1    1    2    0    0  0.19675548754E-02 -0.12383236958E-01 -0.52784029114E-02  0.13604314280E-01  0.00000000000E+00 0.  1.
     999901    1    3    3    0    0 -0.28422756495E-01  0.11981833586E+00 -0.66117170210E-01  0.89103073286E+00  0.88000000000E+00 0.  1.
        -11    1    4    4    0    0 -0.23707784872E-02 -0.16124939899E-01  0.31682778590E-01  0.35632763822E-01  0.51100000000E-03 0.  1.
         11    1    4    4    0    0  0.28825980107E-01 -0.91310159005E-01  0.39712794532E-01  0.10366218904E+00  0.51100000000E-03 0. -1.
</event>
<event>
 8    1  0.2927513E+004  0.1043930E+01  0.7957747E-01            NaN
         13   -1    0    0    0    0  0.00000000000E+00  0.00000000000E+00  0.74505805969E-08  0.10566000000E+00  0.10566000000E+00 0.  1.
     999900   -1    0    0    0    0 -0.00000000000E+00 -0.00000000000E+00 -0.74505805969E-08  0.93827000000E+00  0.93827000000E+00 0. -1.
     999902    2    1    2    0    0  0.17305861700E-01  0.23514584762E-02  0.55710175216E-02  0.10255981031E+01  0.10254342547E+01 0.  0.
     999903    2    3    3    0    0  0.74896323260E-01 -0.29834670789E-01  0.10224075704E+00  0.13784946376E+00  0.45274004024E-01 0.  0.
         14    1    1    2    0    0 -0.17305861700E-01 -0.23514584762E-02 -0.55710175216E-02  0.18331896857E-01  0.00000000000E+00 0. -1.
     999901    1    3    3    0    0 -0.57590461559E-01  0.32186129265E-01 -0.96669739521E-01  0.88774863938E+00  0.88000000000E+00 0.  1.
        -11    1    4    4    0    0  0.49370979436E-01 -0.38774056727E-01  0.55247644468E-01  0.83627055585E-01  0.51100000000E-03 0.  1.
         11    1    4    4    0    0  0.25525343824E-01  0.89393859378E-02  0.46993112575E-01  0.54222408179E-01  0.51100000000E-03 0. -1.
</event>
<event>
 8    1  0.2927513E+004  0.1043930E+01  0.7957747E-01            NaN
         13   -1    0    0    0    0  0.00000000000E+00  0.00000000000E+00  0.74505805969E-08  0.10566000000E+00  0.10566000000E+00 0. -1.
     999900   -1    0    0    0    0 -0.00000000000E+00 -0.00000000000E+00 -0.74505805969E-08  0.93827000000E+00  0.93827000000E+00 0. -1.
     999902    2    1    2    0    0  0.10038803536E-01 -0.22350609729E-03  0.21772277348E-01  0.10199537703E+01  0.10196719246E+01 0.  0.
     999903    2    3    3    0    0  0.50490927157E-01  0.93315563914E-01 -0.61540980778E-01  0.13016332814E+00  0.43566862204E-01 0.  0.
         14    1    1    2    0    0 -0.10038803536E-01  0.22350609729E-03 -0.21772277348E-01  0.23976229736E-01  0.00000000000E+00 0.  1.
     999901    1    3    3    0    0 -0.40452123621E-01 -0.93539070011E-01  0.83313258127E-01  0.88979044213E+00  0.88000000000E+00 0.  1.
        -11    1    4    4    0    0  0.21161256339E-01  0.71650206510E-01 -0.25637945179E-01  0.78988076422E-01  0.51100000000E-03 0. -1.
         11    1    4    4    0    0  0.29329670818E-01  0.21665357404E-01 -0.35903035599E-01  0.51175251714E-01  0.51100000000E-03 0.  1.
</event>
<event>
 8    1  0.2927513E+004  0.1043930E+01  0.7957747E-01            NaN
         13   -1    0    0    0    0  0.00000000000E+00  0.00000000000E+00  0.74505805969E-08  0.10566000000E+00  0.10566000000E+00 0.  1.
     999900   -1    0    0    0    0 -0.00000000000E+00 -0.00000000000E+00 -0.74505805969E-08  0.93827000000E+00  0.93827000000E+00 0. -1.
     999902    2    1    2    0    0  0.10275584196E-01  0.52229147516E-02 -0.83989335087E-02  0.10296678630E+01  0.10295690843E+01 0.  0.
     999903    2    3    3    0    0 -0.10525129664E+00  0.53113868633E-02  0.80374855309E-01  0.13768846095E+00  0.37308827854E-01 0.  0.
         14    1    1    2    0    0 -0.10275584196E-01 -0.52229147516E-02  0.83989335087E-02  0.14262137047E-01  0.00000000000E+00 0.  1.
     999901    1    3    3    0    0  0.11552688084E+00 -0.88472111707E-04 -0.88773788818E-01  0.89197940201E+00  0.88000000000E+00 0. -1.
        -11    1    4    4    0    0 -0.14715857435E-01  0.89568622664E-02  0.28426087884E-01  0.33242825318E-01  0.51100000000E-03 0.  1.
         11    1    4    4    0    0 -0.90535439210E-01 -0.36454754030E-02  0.51948767425E-01  0.10444563563E+00  0.51100000000E-03 0. -1.
</event>
<event>
 8    1  0.2927513E+004  0.1043930E+01  0.7957747E-01            NaN
         13   -1    0    0    0    0  0.00000000000E+00  0.00000000000E+00  0.74505805969E-08  0.10566000000E+00  0.10566000000E+00 0. -1.
     999900   -1    0    0    0    0 -0.00000000000E+00 -0.00000000000E+00 -0.74505805969E-08  0.93827000000E+00  0.93827000000E+00 0.  1.
     999902    2    1    2    0    0 -0.12745230681E-01 -0.15509898840E-02 -0.49628269141E-02  0.10301649673E+01  0.10300729992E+01 0.  0.
     999903    2    3    3    0    0 -0.82663361721E-01  0.90624480125E-01 -0.53717273916E-01  0.14125447774E+00  0.44958360680E-01 0.  0.
         14    1    1    2    0    0  0.12745230681E-01  0.15509898840E-02  0.49628269141E-02  0.13765032718E-01  0.00000000000E+00 0. -1.
     999901    1    3    3    0    0  0.69918131040E-01 -0.92175470009E-01  0.48754447002E-01  0.88891048954E+00  0.88000000000E+00 0. -1.
        -11    1    4    4    0    0 -0.47135467870E-01  0.80592940843E-01 -0.33738276282E-01  0.99274905452E-01  0.51100000000E-03 0.  1.
         11    1    4    4    0    0 -0.35527893851E-01  0.10031539282E-01 -0.19978997634E-01  0.41979572286E-01  0.51100000000E-03 0. -1.
</event>
<event>
 8    1  0.2927513E+004  0.1043930E+01  0.7957747E-01            NaN
         13   -1    0    0    0    0  0.00000000000E+00  0.00000000000E+00  0.74505805969E-08  0.10566000000E+00  0.10566000000E+00 0.  1.
     999900   -1    0    0    0    0 -0.00000000000E+00 -0.00000000000E+00 -0.74505805969E-08  0.93827000000E+00  0.93827000000E+00 0.  1.
     999902    2    1    2    0    0 -0.14033382119E-02 -0.13598556882E-01  0.44507007022E-02  0.10295529751E+01  0.10294525874E+01 0.  0.
     999903    2    3    3    0    0 -0.81596599658E-01 -0.37239987698E-01 -0.97257688561E-01  0.13975835114E+00  0.45039060489E-01 0.  0.
         14    1    1    2    0    0  0.14033382119E-02  0.13598556882E-01 -0.44507007022E-02  0.14377024872E-01  0.00000000000E+00 0.  1.
     999901    1    3    3    0    0  0.80193261446E-01  0.23641430815E-01  0.10170838926E+00  0.88979462399E+00  0.88000000000E+00 0. -1.
        -11    1    4    4    0    0 -0.45949816936E-01 -0.44289348597E-01 -0.66196843296E-01  0.91952244448E-01  0.51100000000E-03 0.  1.
         11    1    4    4    0    0 -0.35646782721E-01  0.70493608995E-02 -0.31060845265E-01  0.47806106692E-01  0.51100000000E-03 0. -1.
</event>
<event>
 8    1  0.2927513E+004  0.1043930E+01  0.7957747E-01            NaN
         13   -1    0    0    0    0  0.00000000000E+00  0.00000000000E+00  0.74505805969E-08  0.10566000000E+00  0.10566000000E+00 0. -1.
     999900   -1    0    0    0    0 -0.00000000000E+00 -0.00000000000E+00 -0.74505805969E-08  0.93827000000E+00  0.93827000000E+00 0.  1.
     999902    2    1    2    0    0  0.13000405882E-01  0.43480215510E-03 -0.43503060187E-02  0.10302141417E+01  0.10301228339E+01 0.  0.
     999903    2    3    3    0    0  0.11277829073E+00 -0.54961051436E-01 -0.47700430670E-01  0.14178656436E+00  0.45699438870E-01 0.  0.
         14    1    1    2    0    0 -0.13000405882E-01 -0.43480215510E-03  0.43503060187E-02  0.13715858284E-01  0.00000000000E+00 0.  1.
     999901    1    3    3    0    0 -0.99777884843E-01  0.55395853591E-01  0.43350124651E-01  0.88842757736E+00  0.88000000000E+00 0.  1.
        -11    1    4    4    0    0  0.10193208521E+00 -0.38640598132E-01 -0.25089556619E-01  0.11186148931E+00  0.51100000000E-03 0. -1.
         11    1    4    4    0    0  0.10846205515E-01 -0.16320453304E-01 -0.22610874051E-01  0.29925075045E-01  0.51100000000E-03 0.  1.
</event>
<event>
 8    1  0.2927513E+004  0.1043930E+01  0.7957747E-01            NaN
         13   -1    0    0    0    0  0.00000000000E+00  0.00000000000E+00  0.74505805969E-08  0.10566000000E+00  0.10566000000E+00 0. -1.
     999900   -1    0    0    0    0 -0.00000000000E+00 -0.00000000000E+00 -0.74505805969E-08  0.93827000000E+00  0.93827000000E+00 0. -1.
     999902    2    1    2    0    0 -0.97639412584E-02  0.93089713580E-02  0.21836988199E-02  0.10302639824E+01  0.10301733414E+01 0.  0.
     999903    2    3    3    0    0 -0.86097138227E-01  0.17378289440E-01 -0.10027646507E+00  0.14100026671E+00  0.45945441680E-01 0.  0.
         14    1    1    2    0    0  0.97639412584E-02 -0.93089713580E-02 -0.21836988199E-02  0.13666017605E-01  0.00000000000E+00 0.  1.
     999901    1    3    3    0    0  0.76333196968E-01 -0.80693180822E-02  0.10246016388E+00  0.88926371569E+00  0.88000000000E+00 0.  1.
        -11    1    4    4    0    0 -0.49355142249E-01 -0.13186254025E-01 -0.56702096479E-01  0.76322973132E-01  0.51100000000E-03 0. -1.
         11    1    4    4    0    0 -0.36741995978E-01  0.30564543465E-01 -0.43574368586E-01  0.64677293576E-01  0.51100000000E-03 0.  1.
</event>
<event>
 8    1  0.2927513E+004  0.1043930E+01  0.7957747E-01            NaN
         13   -1    0    0    0    0  0.00000000000E+00  0.00000000000E+00  0.74505805969E-08  0.10566000000E+00  0.10566000000E+00 0.  1.
     999900   -1    0    0    0    0 -0.00000000000E+00 -0.00000000000E+00 -0.74505805969E-08  0.93827000000E+00  0.93827000000E+00 0. -1.
     999902    2    1    2    0    0 -0.42632763253E-02 -0.26589993603E-03  0.13330404124E-01  0.10299319322E+01  0.10298368022E+01 0.  0.
     999903    2    3    3    0    0 -0.28383624807E-01 -0.10965227570E+00 -0.67741312998E-01  0.13913465239E+00  0.44048998694E-01 0.  0.
         14    1    1    2    0    0  0.42632763253E-02  0.26589993603E-03 -0.13330404124E-01  0.13998067793E-01  0.00000000000E+00 0. -1.
     999901    1    3    3    0    0  0.24120348481E-01  0.10938637576E+00  0.81071717122E-01  0.89079727982E+00  0.88000000000E+00 0. -1.
        -11    1    4    4    0    0 -0.32157947017E-01 -0.80998991759E-01 -0.67491008870E-01  0.11022825237E+00  0.51100000000E-03 0. -1.
         11    1    4    4    0    0  0.37743222105E-02 -0.28653283940E-01 -0.25030412772E-03  0.28906400015E-01  0.51100000000E-03 0.  1.
</event>
<event>
 8    1  0.2927513E+004  0.1043930E+01  0.7957747E-01            NaN
         13   -1    0    0    0    0  0.00000000000E+00  0.00000000000E+00  0.74505805969E-08  0.10566000000E+00  0.10566000000E+00 0. -1.
     999900   -1    0    0    0    0 -0.00000000000E+00 -0.00000000000E+00 -0.74505805969E-08  0.93827000000E+00  0.93827000000E+00 0.  1.
     999902    2    1    2    0    0  0.47958390178E-02 -0.74572898950E-02  0.91556938021E-02  0.10311848843E+01  0.10311061185E+01 0.  0.
     999903    2    3    3    0    0  0.10588505786E+00  0.32821996549E-01 -0.73485052174E-01  0.14063957724E+00  0.45722082834E-01 0.  0.
         14    1    1    2    0    0 -0.47958390178E-02  0.74572898950E-02 -0.91556938021E-02  0.12745115671E-01  0.00000000000E+00 0.  1.
     999901    1    3    3    0    0 -0.10108921884E+00 -0.40279286444E-01  0.82640745976E-01  0.89054530709E+00  0.88000000000E+00 0.  1.
        -11    1    4    4    0    0  0.22559467862E-01  0.99480674311E-02  0.35026016689E-02  0.24908291296E-01  0.51100000000E-03 0. -1.
         11    1    4    4    0    0  0.83325589995E-01  0.22873929118E-01 -0.76987653843E-01  0.11573128594E+00  0.51100000000E-03 0.  1.
</event>
<event>
 8    1  0.2927513E+004  0.1043930E+01  0.7957747E-01            NaN
         13   -1    0    0    0    0  0.00000000000E+00  0.00000000000E+00  0.74505805969E-08  0.10566000000E+00  0.10566000000E+00 0. -1.
     999900   -1    0    0    0    0 -0.00000000000E+00 -0.00000000000E+00 -0.74505805969E-08  0.93827000000E+00  0.93827000000E+00 0. -1.
     999902    2    1    2    0    0 -0.64663842336E-02 -0.10290338646E-01  0.72445678893E-02  0.10297811853E+01  0.10296839809E+01 0.  0.
     999903    2    3    3    0    0  0.10843884520E+00 -0.73146142815E-01 -0.20550005332E-01  0.13965388978E+00  0.44402306860E-01 0.  0.
         14    1    1    2    0    0  0.64663842336E-02  0.10290338646E-01 -0.72445678893E-02  0.14148814735E-01  0.00000000000E+00 0.  1.
     999901    1    3    3    0    0 -0.11490522943E+00  0.62855804169E-01  0.27794573221E-01  0.89012729549E+00  0.88000000000E+00 0.  1.
        -11    1    4    4    0    0  0.85888743016E-01 -0.67267765628E-01 -0.79548254504E-03  0.10909959845E+00  0.51100000000E-03 0. -1.
         11    1    4    4    0    0  0.22550102183E-01 -0.58783771867E-02 -0.19754522787E-01  0.30554291325E-01  0.51100000000E-03 0.  1.
</event>
<event>
 8    1  0.2927513E+004  0.1043930E+01  0.7957747E-01            NaN
         13   -1    0    0    0    0  0.00000000000E+00  0.00000000000E+00  0.74505805969E-08  0.10566000000E+00  0.10566000000E+00 0.  1.
     999900   -1    0    0    0    0 -0.00000000000E+00 -0.00000000000E+00 -0.74505805969E-08  0.93827000000E+00  0.93827000000E+00 0.  1.
     999902    2    1    2    0    0  0.65838688503E-03  0.10572282157E-01 -0.93673230921E-02  0.10297895133E+01  0.10296924241E+01 0.  0.
     999903    2    3    3    0    0  0.91209516886E-03 -0.53254685377E-01  0.11967640467E+00  0.13809100489E+00  0.43701148323E-01 0.  0.
         14    1    1    2    0    0 -0.65838688503E-03 -0.10572282157E-01  0.93673230921E-02  0.14140486739E-01  0.00000000000E+00 0.  1.
     999901    1    3    3    0    0 -0.25370828383E-03  0.63826967534E-01 -0.12904372776E+00  0.89169850837E+00  0.88000000000E+00 0.  1.
        -11    1    4    4    0    0  0.70101860984E-02 -0.25207962209E-01  0.99801998750E-01  0.10317598627E+00  0.51100000000E-03 0.  1.
         11    1    4    4    0    0 -0.60980909295E-02 -0.28046723168E-01  0.19874405922E-01  0.34915018619E-01  0.51100000000E-03 0. -1.
</event>
<event>
 8    1  0.2927513E+004  0.1043930E+01  0.7957747E-01            NaN
         13   -1    0    0    0    0  0.00000000000E+00  0.00000000000E+00  0.74505805969E-08  0.10566000000E+00  0.10566000000E+00 0. -1.
     999900   -1    0    0    0    0 -0.00000000000E+00 -0.00000000000E+00 -0.74505805969E-08  0.93827000000E+00  0.93827000000E+00 0.  1.
     999902    2    1    2    0    0 -0.16875598450E-01 -0.36221965011E-02  0.77119539616E-02  0.10250254935E+01  0.10248511512E+01 0.  0.
     999903    2    3    3    0    0 -0.90995029096E-01  0.91384136625E-01 -0.50014998436E-02  0.13672288449E+00  0.45132874901E-01 0.  0.
         14    1    1    2    0    0  0.16875598450E-01  0.36221965011E-02 -0.77119539616E-02  0.18904506458E-01  0.00000000000E+00 0.  1.
     999901    1    3    3    0    0  0.74119430646E-01 -0.95006333126E-01  0.12713453805E-01  0.88830260905E+00  0.88000000000E+00 0.  1.
        -11    1    4    4    0    0 -0.38705697024E-01  0.26085381336E-01 -0.21603963484E-01  0.51435109223E-01  0.51100000000E-03 0. -1.
         11    1    4    4    0    0 -0.52289332072E-01  0.65298755289E-01  0.16602463640E-01  0.85287775271E-01  0.51100000000E-03 0.  1.
</event>
<event>
 8    1  0.2927513E+004  0.1043930E+01  0.7957747E-01            NaN
         13   -1    0    0    0    0  0.00000000000E+00  0.00000000000E+00  0.74505805969E-08  0.10566000000E+00  0.10566000000E+00 0.  1.
     999900   -1    0    0    0    0 -0.00000000000E+00 -0.00000000000E+00 -0.74505805969E-08  0.93827000000E+00  0.93827000000E+00 0.  1.
     999902    2    1    2    0    0  0.78497988288E-04 -0.63583620332E-02 -0.26659569521E-02  0.10370349107E+01  0.10370119883E+01 0.  0.
     999903    2    3    3    0    0 -0.18321832818E-01  0.13574585114E+00 -0.18738042933E-01  0.14530036977E+00  0.44704111031E-01 0.  0.
         14    1    1    2    0    0 -0.78497988288E-04  0.63583620332E-02  0.26659569521E-02  0.68950892779E-02  0.00000000000E+00 0.  1.
     999901    1    3    3    0    0  0.18400330806E-01 -0.14210421317E+00  0.16072085980E-01  0.89173454095E+00  0.88000000000E+00 0.  1.
        -11    1    4    4    0    0  0.11481407757E-04  0.97011190506E-01  0.33816853302E-02  0.97071458895E-01  0.51100000000E-03 0.  1.
         11    1    4    4    0    0 -0.18333314226E-01  0.38734660635E-01 -0.22119728263E-01  0.48228910877E-01  0.51100000000E-03 0. -1.
</event>
<event>
 8    1  0.2927513E+004  0.1043930E+01  0.7957747E-01            NaN
         13   -1    0    0    0    0  0.00000000000E+00  0.00000000000E+00  0.74505805969E-08  0.10566000000E+00  0.10566000000E+00 0. -1.
     999900   -1    0    0    0    0 -0.00000000000E+00 -0.00000000000E+00 -0.74505805969E-08  0.93827000000E+00  0.93827000000E+00 0.  1.
     999902    2    1    2    0    0 -0.85417029396E-02  0.10162136724E-01 -0.27237767019E-02  0.10303782964E+01  0.10302891754E+01 0.  0.
     999903    2    3    3    0    0 -0.11626341382E+00 -0.62363446209E-01  0.14146120948E-01  0.14068817018E+00  0.46761818557E-01 0.  0.
         14    1    1    2    0    0  0.85417029396E-02 -0.10162136724E-01  0.27237767019E-02  0.13551703635E-01  0.00000000000E+00 0. -1.
     999901    1    3    3    0    0  0.10772171089E+00  0.72525582932E-01 -0.16869897650E-01  0.88969012618E+00  0.88000000000E+00 0. -1.
        -11    1    4    4    0    0 -0.49239647789E-01 -0.76690364471E-02  0.20627173357E-01  0.53936058774E-01  0.51100000000E-03 0. -1.
         11    1    4    4    0    0 -0.67023766036E-01 -0.54694409762E-01 -0.64810524088E-02  0.86752111411E-01  0.51100000000E-03 0.  1.
</event>
<event>
 8    1  0.2927513E+004  0.1043930E+01  0.7957747E-01            NaN
         13   -1    0    0    0    0  0.00000000000E+00  0.00000000000E+00  0.74505805969E-08  0.10566000000E+00  0.10566000000E+00 0.  1.
     999900   -1    0    0    0    0 -0.00000000000E+00 -0.00000000000E+00 -0.74505805969E-08  0.93827000000E+00  0.93827000000E+00 0. -1.
     999902    2    1    2    0    0  0.10314306626E-02  0.47145473800E-02 -0.12090608023E-01  0.10309117970E+01  0.10308295978E+01 0.  0.
     999903    2    3    3    0    0  0.13522426904E-01 -0.23648798347E-01  0.12916739256E+00  0.13910782356E+00  0.43870828371E-01 0.  0.
         14    1    1    2    0    0 -0.10314306626E-02 -0.47145473800E-02  0.12090608023E-01  0.13018202970E-01  0.00000000000E+00 0.  1.
     999901    1    3    3    0    0 -0.12490996241E-01  0.28363345727E-01 -0.14125800058E+00  0.89180397347E+00  0.88000000000E+00 0. -1.
        -11    1    4    4    0    0 -0.13162032931E-01 -0.17699477173E-01  0.38136119462E-01  0.44058317395E-01  0.51100000000E-03 0.  1.
         11    1    4    4    0    0  0.26684459835E-01 -0.59493211733E-02  0.91031273099E-01  0.95049506164E-01  0.51100000000E-03 0. -1.
</event>
<event>
 8    1  0.2927513E+004  0.1043930E+01  0.7957747E-01            NaN
         13   -1    0    0    0    0  0.00000000000E+00  0.00000000000E+00  0.74505805969E-08  0.10566000000E+00  0.10566000000E+00 0.  1.
     999900   -1    0    0    0    0 -0.00000000000E+00 -0.00000000000E+00 -0.74505805969E-08  0.93827000000E+00  0.93827000000E+00 0. -1.
     999902    2    1    2    0    0 -0.32333276192E-02 -0.12331169897E-01 -0.10741414187E-01  0.10272599629E+01  0.10271246960E+01 0.  0.
     999903    2    3    3    0    0 -0.78172556283E-01  0.53280744775E-01  0.87025121918E-01  0.13626102522E+00  0.45209609937E-01 0.  0.
         14    1    1    2    0    0  0.32333276192E-02  0.12331169897E-01  0.10741414187E-01  0.16670037110E-01  0.00000000000E+00 0.  1.
     999901    1    3    3    0    0  0.74939228664E-01 -0.65611914672E-01 -0.97766536105E-01  0.89099893767E+00  0.88000000000E+00 0.  1.
        -11    1    4    4    0    0 -0.70464483903E-01  0.35157391448E-01  0.47153778498E-01  0.91787938275E-01  0.51100000000E-03 0.  1.
         11    1    4    4    0    0 -0.77080723799E-02  0.18123353327E-01  0.39871343420E-01  0.44473086949E-01  0.51100000000E-03 0. -1.
</event>
<event>
 8    1  0.2927513E+004  0.1043930E+01  0.7957747E-01            NaN
         13   -1    0    0    0    0  0.00000000000E+00  0.00000000000E+00  0.74505805969E-08  0.10566000000E+00  0.10566000000E+00 0. -1.
     999900   -1    0    0    0    0 -0.00000000000E+00 -0.00000000000E+00 -0.74505805969E-08  0.93827000000E+00  0.93827000000E+00 0. -1.
     999902    2    1    2    0    0 -0.51136235852E-02  0.10027707505E-01  0.78978866073E-02  0.10301793390E+01  0.10300875642E+01 0.  0.
     999903    2    3    3    0    0  0.10880210686E+00 -0.71338068861E-01 -0.17651694376E-01  0.13874792592E+00  0.44859626683E-01 0.  0.
         14    1    1    2    0    0  0.51136235852E-02 -0.10027707505E-01 -0.78978866073E-02  0.13750660960E-01  0.00000000000E+00 0. -1.
     999901    1    3    3    0    0 -0.11391573045E+00  0.81365776366E-01  0.25549580984E-01  0.89143141312E+00  0.88000000000E+00 0.  1.
        -11    1    4    4    0    0  0.51670043804E-01 -0.58467279879E-01 -0.18433838878E-01  0.80176578749E-01  0.51100000000E-03 0.  1.
         11    1    4    4    0    0  0.57132063060E-01 -0.12870788982E-01  0.78214450182E-03  0.58571347172E-01  0.51100000000E-03 0. -1.
</event>
<event>
 8    1  0.2927513E+004  0.1043930E+01  0.7957747E-01            NaN
         13   -1    0    0    0    0  0.00000000000E+00  0.00000000000E+00  0.74505805969E-08  0.10566000000E+00  0.10566000000E+00 0. -1.
     999900   -1    0    0    0    0 -0.00000000000E+00 -0.00000000000E+00 -0.74505805969E-08  0.93827000000E+00  0.93827000000E+00 0. -1.
     999902    2    1    2    0    0  0.29220705030E-02  0.59733011777E-02  0.12405994363E-01  0.10298542223E+01  0.10297580257E+01 0.  0.
     999903    2    3    3    0    0  0.10666082472E+00 -0.51019736389E-01  0.60429335321E-01  0.14063199090E+00  0.46326097029E-01 0.  0.
         14    1    1    2    0    0 -0.29220705030E-02 -0.59733011777E-02 -0.12405994363E-01  0.14075777744E-01  0.00000000000E+00 0.  1.
     999901    1    3    3    0    0 -0.10373875422E+00  0.56993037566E-01 -0.48023340959E-01  0.88922223135E+00  0.88000000000E+00 0. -1.
        -11    1    4    4    0    0  0.48491536935E-01 -0.30106678376E-01  0.44794296284E-02  0.57255284891E-01  0.51100000000E-03 0. -1.
         11    1    4    4    0    0  0.58169287787E-01 -0.20913058013E-01  0.55949905693E-01  0.83376706010E-01  0.51100000000E-03 0.  1.
</event>
<event>
 8    1  0.2927513E+004  0.1043930E+01  0.7957747E-01            NaN
         13   -1    0    0    0    0  0.00000000000E+00  0.00000000000E+00  0.74505805969E-08  0.10566000000E+00  0.10566000000E+00 0. -1.
     999900   -1    0    0    0    0 -0.00000000000E+00 -0.00000000000E+00 -0.74505805969E-08  0.93827000000E+00  0.93827000000E+00 0.  1.
     999902    2    1    2    0    0  0.59367537138E-02 -0.49095301893E-02 -0.11927215644E-01  0.10297311619E+01  0.10296332642E+01 0.  0.
     999903    2    3    3    0    0  0.91640301595E-01 -0.53885648844E-01 -0.81674680460E-01  0.14146967606E+00  0.45180834306E-01 0.  0.
         14    1    1    2    0    0 -0.59367537138E-02  0.49095301893E-02  0.11927215644E-01  0.14198838134E-01  0.00000000000E+00 0. -1.
     999901    1    3    3    0    0 -0.85703547882E-01  0.48976118654E-01  0.69747464816E-01  0.88826148581E+00  0.88000000000E+00 0. -1.
        -11    1    4    4    0    0  0.26862154533E-01 -0.96750915080E-02 -0.48565730724E-01  0.56338921392E-01  0.51100000000E-03 0.  1.
         11    1    4    4    0    0  0.64778147062E-01 -0.44210557336E-01 -0.33108949735E-01  0.85130754668E-01  0.51100000000E-03 0. -1.
</event>
<event>
 8    1  0.2927513E+004  0.1043930E+01  0.7957747E-01            NaN
         13   -1    0    0    0    0  0.00000000000E+00  0.00000000000E+00  0.74505805969E-08  0.10566000000E+00  0.10566000000E+00 0.  1.
     999900   -1    0    0    0    0 -0.00000000000E+00 -0.00000000000E+00 -0.74505805969E-08  0.93827000000E+00  0.93827000000E+00 0. -1.
     999902    2    1    2    0    0 -0.67612893562E-02  0.11783440444E-01 -0.14646669067E-02  0.10302658223E+01  0.10301752059E+01 0.  0.
     999903    2    3    3    0    0  0.11648043627E+00 -0.31194961751E-01  0.49668298525E-01  0.13917085199E+00  0.48587740150E-01 0.  0.
         14    1    1    2    0    0  0.67612893562E-02 -0.11783440444E-01  0.14646669067E-02  0.13664177678E-01  0.00000000000E+00 0. -1.
     999901    1    3    3    0    0 -0.12324172563E+00  0.42978402195E-01 -0.51132965432E-01  0.89109497033E+00  0.88000000000E+00 0. -1.
        -11    1    4    4    0    0  0.63869538799E-01 -0.13719833947E-01  0.90122788884E-03  0.65334716366E-01  0.51100000000E-03 0.  1.
         11    1    4    4    0    0  0.52610897475E-01 -0.17475127804E-01  0.48767070636E-01  0.73836135627E-01  0.51100000000E-03 0. -1.
</event>
<event>
 8    1  0.2927513E+004  0.1043930E+01  0.7957747E-01            NaN
         13   -1    0    0    0    0  0.00000000000E+00  0.00000000000E+00  0.74505805969E-08  0.10566000000E+00  0.10566000000E+00 0. -1.
     999900   -1    0    0    0    0 -0.00000000000E+00 -0.00000000000E+00 -0.74505805969E-08  0.93827000000E+00  0.93827000000E+00 0.  1.
     999902    2    1    2    0    0  0.42908258815E-02  0.24173182061E-02 -0.13069611638E-01  0.10299632766E+01  0.10298685750E+01 0.  0.
     999903    2    3    3    0    0 -0.15648620367E-01  0.36374872162E-02  0.12958010674E+00  0.13825255418E+00  0.45438464338E-01 0.  0.
         14    1    1    2    0    0 -0.42908258815E-02 -0.24173182061E-02  0.13069611638E-01  0.13966723396E-01  0.00000000000E+00 0. -1.
     999901    1    3    3    0    0  0.19939446249E-01 -0.12201690100E-02 -0.14264971838E+00  0.89171072242E+00  0.88000000000E+00 0.  1.
        -11    1    4    4    0    0  0.93145615426E-02 -0.14559622188E-01  0.45340888204E-01  0.48526291009E-01  0.51100000000E-03 0. -1.
         11    1    4    4    0    0 -0.24963181910E-01  0.18197109404E-01  0.84239218540E-01  0.89726263172E-01  0.51100000000E-03 0.  1.
</event>
<event>
 8    1  0.2927513E+004  0.1043930E+01  0.7957747E-01            NaN
         13   -1    0    0    0    0  0.00000000000E+00  0.00000000000E+00  0.74505805969E-08  0.10566000000E+00  0.10566000000E+00 0.  1.
     999900   -1    0    0    0    0 -0.00000000000E+00 -0.00000000000E+00 -0.74505805969E-08  0.93827000000E+00  0.93827000000E+00 0. -1.
     999902    2    1    2    0    0  0.12492261179E-01  0.40316530651E-02 -0.43392902977E-02  0.10301046517E+01  0.10300118704E+01 0.  0.
     999903    2    3    3    0    0 -0.44269859999E-01 -0.10696817344E+00 -0.53945715363E-01  0.13993405158E+00  0.57178561991E-01 0.  0.
         14    1    1    2    0    0 -0.12492261179E-01 -0.40316530651E-02  0.43392902977E-02  0.13825348317E-01  0.00000000000E+00 0. -1.
     999901    1    3    3    0    0  0.56762121178E-01  0.11099982651E+00  0.49606425065E-01  0.89017060011E+00  0.88000000000E+00 0.  1.
        -11    1    4    4    0    0 -0.26789715764E-01 -0.10754509852E+00 -0.41019031508E-01  0.11817977472E+00  0.51100000000E-03 0. -1.
         11    1    4    4    0    0 -0.17480144234E-01  0.57692508050E-03 -0.12926683854E-01  0.21754276855E-01  0.51100000000E-03 0.  1.
</event>
<event>
 8    1  0.2927513E+004  0.1043930E+01  0.7957747E-01            NaN
         13   -1    0    0    0    0  0.00000000000E+00  0.00000000000E+00  0.74505805969E-08  0.10566000000E+00  0.10566000000E+00 0.  1.
     999900   -1    0    0    0    0 -0.00000000000E+00 -0.00000000000E+00 -0.74505805969E-08  0.93827000000E+00  0.93827000000E+00 0.  1.
     999902    2    1    2    0    0 -0.11253609463E-01 -0.32550199405E-02  0.73049021228E-02  0.10301241869E+01  0.10300316694E+01 0.  0.
     999903    2    3    3    0    0  0.32566563039E-01  0.12310347101E+00  0.35626475844E-01  0.13956886166E+00  0.44667390351E-01 0.  0.
         14    1    1    2    0    0  0.11253609463E-01  0.32550199405E-02 -0.73049021228E-02  0.13805813115E-01  0.00000000000E+00 0.  1.
     999901    1    3    3    0    0 -0.43820172502E-01 -0.12635849095E+00 -0.28321573721E-01  0.89055532523E+00  0.88000000000E+00 0. -1.
        -11    1    4    4    0    0  0.20181440373E-01  0.76836063980E-01 -0.70953023154E-03  0.79447062989E-01  0.51100000000E-03 0.  1.
         11    1    4    4    0    0  0.12385122666E-01  0.46267407028E-01  0.36336006075E-01  0.60121798668E-01  0.51100000000E-03 0. -1.
</event>
<event>
 8    1  0.2927513E+004  0.1043930E+01  0.7957747E-01            NaN
         13   -1    0    0    0    0  0.00000000000E+00  0.00000000000E+00  0.74505805969E-08  0.10566000000E+00  0.10566000000E+00 0. -1.
     999900   -1    0    0    0    0 -0.00000000000E+00 -0.00000000000E+00 -0.74505805969E-08  0.93827000000E+00  0.93827000000E+00 0.  1.
     999902    2    1    2    0    0  0.20157385864E-02 -0.18010651117E-02 -0.12918403174E-01  0.10307318116E+01  0.10306473088E+01 0.  0.
     999903    2    3    3    0    0  0.87499834195E-01 -0.19773158442E-01  0.97466214319E-01  0.13954423842E+00  0.43883171750E-01 0.  0.
         14    1    1    2    0    0 -0.20157385864E-02  0.18010651117E-02  0.12918403174E-01  0.13198188442E-01  0.00000000000E+00 0. -1.
     999901    1    3    3    0    0 -0.85484095609E-01  0.17972093331E-01 -0.11038461749E+00  0.89118757314E+00  0.88000000000E+00 0.  1.
        -11    1    4    4    0    0  0.74689733983E-01  0.81076405382E-03  0.64974466239E-01  0.99000788304E-01  0.51100000000E-03 0. -1.
         11    1    4    4    0    0  0.12810100212E-01 -0.20583922496E-01  0.32491748081E-01  0.40543450113E-01  0.51100000000E-03 0.  1.
</event>
<event>
 8    1  0.2927513E+004  0.1043930E+01  0.7957747E-01            NaN
         13   -1    0    0    0    0  0.00000000000E+00  0.00000000000E+00  0.74505805969E-08  0.10566000000E+00  0.10566000000E+00 0.  1.
     999900   -1    0    0    0    0 -0.00000000000E+00 -0.00000000000E+00 -0.74505805969E-08  0.93827000000E+00  0.93827000000E+00 0. -1.
     999902    2    1    2    0    0  0.13709347296E-01  0.44921614626E-02 -0.37535819180E-03  0.10294985548E+01  0.10293974003E+01 0.  0.
     999903    2    3    3    0    0 -0.24214765120E-01  0.10636072625E+00 -0.74917975349E-01  0.13968281846E+00  0.44717198100E-01 0.  0.
         14    1    1    2    0    0 -0.13709347296E-01 -0.44921614626E-02  0.37535819180E-03  0.14431445238E-01  0.00000000000E+00 0.  1.
     999901    1    3    3    0    0  0.37924112416E-01 -0.10186856478E+00  0.74542617157E-01  0.88981573630E+00  0.88000000000E+00 0.  1.
        -11    1    4    4    0    0 -0.32637051849E-01  0.43360979001E-01 -0.32354048174E-01  0.63185419264E-01  0.51100000000E-03 0. -1.
         11    1    4    4    0    0  0.84222867285E-02  0.62999747244E-01 -0.42563927174E-01  0.76497399198E-01  0.51100000000E-03 0.  1.
</event>
<event>
 8    1  0.2927513E+004  0.1043930E+01  0.7957747E-01            NaN
         13   -1    0    0    0    0  0.00000000000E+00  0.00000000000E+00  0.74505805969E-08  0.10566000000E+00  0.10566000000E+00 0. -1.
     999900   -1    0    0    0    0 -0.00000000000E+00 -0.00000000000E+00 -0.74505805969E-08  0.93827000000E+00  0.93827000000E+00 0. -1.
     999902    2    1    2    0    0 -0.94577874918E-02 -0.65479831973E-02  0.66944090623E-02  0.10306205695E+01  0.10305346269E+01 0.  0.
     999903    2    3    3    0    0 -0.69769859011E-01 -0.10493122626E+00 -0.48193380813E-01  0.14139085902E+00  0.42312853692E-01 0.  0.
         14    1    1    2    0    0  0.94577874918E-02  0.65479831973E-02 -0.66944090623E-02  0.13309430524E-01  0.00000000000E+00 0.  1.
     999901    1    3    3    0    0  0.60312071519E-01  0.98383243066E-01  0.54887789876E-01  0.88922971046E+00  0.88000000000E+00 0.  1.
        -11    1    4    4    0    0 -0.26338633249E-01 -0.34828382991E-01  0.39075527351E-02  0.43843699121E-01  0.51100000000E-03 0.  1.
         11    1    4    4    0    0 -0.43431225762E-01 -0.70102843271E-01 -0.52100933548E-01  0.97547159895E-01  0.51100000000E-03 0. -1.
</event>
<event>
 8    1  0.2927513E+004  0.1043930E+01  0.7957747E-01            NaN
         13   -1    0    0    0    0  0.00000000000E+00  0.00000000000E+00  0.74505805969E-08  0.10566000000E+00  0.10566000000E+00 0. -1.
     999900   -1    0    0    0    0 -0.00000000000E+00 -0.00000000000E+00 -0.74505805969E-08  0.93827000000E+00  0.93827000000E+00 0.  1.
     999902    2    1    2    0    0 -0.87193663737E-02 -0.10543515053E-01  0.27051576595E-02  0.10299832822E+01  0.10298888535E+01 0.  0.
     999903    2    3    3    0    0 -0.97175909121E-01 -0.32548475167E-03 -0.91128624085E-01  0.14052628678E+00  0.44720776981E-01 0.  0.
         14    1    1    2    0    0  0.87193663737E-02  0.10543515053E-01 -0.27051576595E-02  0.13946717808E-01  0.00000000000E+00 0. -1.
     999901    1    3    3    0    0  0.88456542747E-01 -0.10218030302E-01  0.93833781744E-01  0.88945699542E+00  0.88000000000E+00 0. -1.
        -11    1    4    4    0    0 -0.17638993913E-01  0.23378669298E-02  0.21290681874E-02  0.17927458838E-01  0.51100000000E-03 0. -1.
         11    1    4    4    0    0 -0.79536915208E-01 -0.26633516815E-02 -0.93257692272E-01  0.12259882794E+00  0.51100000000E-03 0.  1.
</event>
<event>
 8    1  0.2927513E+004  0.1043930E+01  0.7957747E-01            NaN
         13   -1    0    0    0    0  0.00000000000E+00  0.00000000000E+00  0.74505805969E-08  0.10566000000E+00  0.10566000000E+00 0. -1.
     999900   -1    0    0    0    0 -0.00000000000E+00 -0.00000000000E+00 -0.74505805969E-08  0.93827000000E+00  0.93827000000E+00 0. -1.
     999902    2    1    2    0    0  0.10127730386E-01  0.26980043363E-03  0.74504831529E-02  0.10313540939E+01  0.10312774183E+01 0.  0.
     999903    2    3    3    0    0 -0.77467856396E-01 -0.26612391825E-01 -0.10313474092E+00  0.13971250062E+00  0.46618878919E-01 0.  0.
         14    1    1    2    0    0 -0.10127730386E-01 -0.26980043363E-03 -0.74504831529E-02  0.12575906101E-01  0.00000000000E+00 0.  1.
     999901    1    3    3    0    0  0.87595586782E-01  0.26882192258E-01  0.11058522407E+00  0.89164159328E+00  0.88000000000E+00 0.  1.
        -11    1    4    4    0    0 -0.14828243181E-02 -0.15862225445E-01 -0.28540016954E-01  0.32689488414E-01  0.51100000000E-03 0.  1.
         11    1    4    4    0    0 -0.75985032078E-01 -0.10750166379E-01 -0.74594723964E-01  0.10702301220E+00  0.51100000000E-03 0. -1.
</event>
<event>
 8    1  0.2927513E+004  0.1043930E+01  0.7957747E-01            NaN
         13   -1    0    0    0    0  0.00000000000E+00  0.00000000000E+00  0.74505805969E-08  0.10566000000E+00  0.10566000000E+00 0. -1.
     999900   -1    0    0    0    0 -0.00000000000E+00 -0.00000000000E+00 -0.74505805969E-08  0.93827000000E+00  0.93827000000E+00 0. -1.
     999902    2    1    2    0    0 -0.97948246408E-02 -0.79861168394E-02 -0.43385190628E-02  0.10305681364E+01  0.10304815109E+01 0.  0.
     999903    2    3    3    0    0 -0.32165402221E-01 -0.13053857318E+00 -0.48109874760E-02  0.14179382839E+00  0.44804151396E-01 0.  0.
         14    1    1    2    0    0  0.97948246408E-02  0.79861168394E-02  0.43385190628E-02  0.13361863627E-01  0.00000000000E+00 0. -1.
     999901    1    3    3    0    0  0.22370577580E-01  0.12255245634E+00  0.47246841318E-03  0.88877430798E+00  0.88000000000E+00 0.  1.
        -11    1    4    4    0    0 -0.18687271178E-01 -0.64815290221E-01  0.19841767975E-01  0.70314954511E-01  0.51100000000E-03 0.  1.
         11    1    4    4    0    0 -0.13478131043E-01 -0.65723282960E-01 -0.24652755451E-01  0.71478873884E-01  0.51100000000E-03 0. -1.
</event>
<event>
 8    1  0.2927513E+004  0.1043930E+01  0.7957747E-01            NaN
         13   -1    0    0    0    0  0.00000000000E+00  0.00000000000E+00  0.74505805969E-08  0.10566000000E+00  0.10566000000E+00 0.  1.
     999900   -1    0    0    0    0 -0.00000000000E+00 -0.00000000000E+00 -0.74505805969E-08  0.93827000000E+00  0.93827000000E+00 0. -1.
     999902    2    1    2    0    0  0.12525055652E-01  0.49025417975E-02  0.21348125080E-02  0.10303112864E+01  0.10302212760E+01 0.  0.
     999903    2    3    3    0    0  0.87043717194E-01 -0.39464958164E-01  0.91688345125E-01  0.14152484347E+00  0.49884236594E-01 0.  0.
         14    1    1    2    0    0 -0.12525055652E-01 -0.49025417975E-02 -0.21348125080E-02  0.13618713581E-01  0.00000000000E+00 0. -1.
     999901    1    3    3    0    0 -0.74518661542E-01  0.44367499962E-01 -0.89553532618E-01  0.88878644295E+00  0.88000000000E+00 0. -1.
        -11    1    4    4    0    0  0.66107878028E-01 -0.39083329711E-02  0.51151457146E-01  0.83679503423E-01  0.51100000000E-03 0. -1.
         11    1    4    4    0    0  0.20935839166E-01 -0.35556625193E-01  0.40536887979E-01  0.57845340044E-01  0.51100000000E-03 0.  1.
</event>
<event>
 8    1  0.2927513E+004  0.1043930E+01  0.7957747E-01            NaN
         13   -1    0    0    0    0  0.00000000000E+00  0.00000000000E+00  0.74505805969E-08  0.10566000000E+00  0.10566000000E+00 0.  1.
     999900   -1    0    0    0    0 -0.00000000000E+00 -0.00000000000E+00 -0.74505805969E-08  0.93827000000E+00  0.93827000000E+00 0.  1.
     999902    2    1    2    0    0  0.12165404525E-01  0.44579896274E-02 -0.42642751531E-02  0.10302898101E+01  0.10301995137E+01 0.  0.
     999903    2    3    3    0    0  0.66857237693E-01  0.35623612582E-02 -0.11565186961E+00  0.14158333718E+00  0.46775055029E-01 0.  0.
         14    1    1    2    0    0 -0.12165404525E-01 -0.44579896274E-02  0.42642751531E-02  0.13640189931E-01  0.00000000000E+00 0.  1.
     999901    1    3    3    0    0 -0.54691833168E-01  0.89562836912E-03  0.11138759445E+00  0.88870647289E+00  0.88000000000E+00 0. -1.
        -11    1    4    4    0    0  0.22922791057E-01 -0.52193851587E-02 -0.77679519392E-02  0.24764864821E-01  0.51100000000E-03 0.  1.
         11    1    4    4    0    0  0.43934446636E-01  0.87817464170E-02 -0.10788391767E+00  0.11681847235E+00  0.51100000000E-03 0. -1.
</event>
<event>
 8    1  0.2927513E+004  0.1043930E+01  0.7957747E-01            NaN
         13   -1    0    0    0    0  0.00000000000E+00  0.00000000000E+00  0.74505805969E-08  0.10566000000E+00  0.10566000000E+00 0. -1.
     999900   -1    0    0    0    0 -0.00000000000E+00 -0.00000000000E+00 -0.74505805969E-08  0.93827000000E+00  0.93827000000E+00 0. -1.
     999902    2    1    2    0    0  0.90731747552E-02  0.73001914293E-02  0.80021866359E-02  0.10298002340E+01  0.10297032931E+01 0.  0.
     999903    2    3    3    0    0  0.33914065585E-01 -0.64917619335E-01  0.11200298114E+00  0.14039107775E+00  0.42432602815E-01 0.  0.
         14    1    1    2    0    0 -0.90731747552E-02 -0.73001914293E-02 -0.80021866359E-02  0.14129765957E-01  0.00000000000E+00 0.  1.
     999901    1    3    3    0    0 -0.24840890830E-01  0.72217810764E-01 -0.10400079450E+00  0.88940915630E+00  0.88000000000E+00 0. -1.
        -11    1    4    4    0    0  0.17177336508E-01 -0.31473457212E-02  0.42285139288E-01  0.45752167164E-01  0.51100000000E-03 0. -1.
         11    1    4    4    0    0  0.16736729077E-01 -0.61770273614E-01  0.69717841852E-01  0.94638910582E-01  0.51100000000E-03 0.  1.
</event>
<event>
 8    1  0.2927513E+004  0.1043930E+01  0.7957747E-01            NaN
         13   -1    0    0    0    0  0.00000000000E+00  0.00000000000E+00  0.74505805969E-08  0.10566000000E+00  0.10566000000E+00 0.  1.
     999900   -1    0    0    0    0 -0.00000000000E+00 -0.00000000000E+00 -0.74505805969E-08  0.93827000000E+00  0.93827000000E+00 0.  1.
     999902    2    1    2    0    0  0.10075197848E-01 -0.57467562362E-02  0.74617301744E-02  0.10301382548E+01  0.10300459270E+01 0.  0.
     999903    2    3    3    0    0  0.54068372541E-01 -0.12047856268E+00  0.25348953400E-01  0.14142078585E+00  0.43804066683E-01 0.  0.
         14    1    1    2    0    0 -0.10075197848E-01  0.57467562362E-02 -0.74617301744E-02  0.13791745216E-01  0.00000000000E+00 0.  1.
     999901    1    3    3    0    0 -0.43993174694E-01  0.11473180644E+00 -0.17887223226E-01  0.88871746893E+00  0.88000000000E+00 0. -1.
        -11    1    4    4    0    0  0.54201878146E-01 -0.69493939486E-01  0.15259628885E-01  0.89444779694E-01  0.51100000000E-03 0.  1.
         11    1    4    4    0    0 -0.13350560482E-03 -0.50984623194E-01  0.10089324515E-01  0.51976006158E-01  0.51100000000E-03 0. -1.
</event>
<event>
 8    1  0.2927513E+004  0.1043930E+01  0.7957747E-01            NaN
         13   -1    0    0    0    0  0.00000000000E+00  0.00000000000E+00  0.74505805969E-08  0.10566000000E+00  0.10566000000E+00 0.  1.
     999900   -1    0    0    0    0 -0.00000000000E+00 -0.00000000000E+00 -0.74505805969E-08  0.93827000000E+00  0.93827000000E+00 0.  1.
     999902    2    1    2    0    0  0.19785096593E-02 -0.79883484841E-02 -0.11688624849E-01  0.10296348203E+01  0.10295355802E+01 0.  0.
     999903    2    3    3    0    0 -0.10396390475E+00  0.75498681598E-01  0.25127879819E-01  0.13859647410E+00  0.45486568072E-01 0.  0.
         14    1    1    2    0    0 -0.19785096593E-02  0.79883484841E-02  0.11688624849E-01  0.14295179707E-01  0.00000000000E+00 0. -1.
     999901    1    3    3    0    0  0.10594241441E+00 -0.83487030083E-01 -0.36816504669E-01  0.89103834619E+00  0.88000000000E+00 0. -1.
        -11    1    4    4    0    0 -0.14517245371E-01 -0.36006225599E-02  0.10536360979E-01  0.18302757160E-01  0.51100000000E-03 0. -1.
         11    1    4    4    0    0 -0.89446659384E-01  0.79099304158E-01  0.14591518841E-01  0.12029371694E+00  0.51100000000E-03 0.  1.
</event>
<event>
 8    1  0.2927513E+004  0.1043930E+01  0.7957747E-01            NaN
         13   -1    0    0    0    0  0.00000000000E+00  0.00000000000E+00  0.74505805969E-08  0.10566000000E+00  0.10566000000E+00 0.  1.
     999900   -1    0    0    0    0 -0.00000000000E+00 -0.00000000000E+00 -0.74505805969E-08  0.93827000000E+00  0.93827000000E+00 0. -1.
     999902    2    1    2    0    0  0.12273967727E-01  0.50571727543E-02 -0.46663302813E-02  0.10298587556E+01  0.10297626215E+01 0.  0.
     999903    2    3    3    0    0  0.30395222764E-01 -0.12824531232E+00 -0.11874001556E-01  0.13960604828E+00  0.44476140848E-01 0.  0.
         14    1    1    2    0    0 -0.12273967727E-01 -0.50571727543E-02  0.46663302813E-02  0.14071244377E-01  0.00000000000E+00 0.  1.
     999901    1    3    3    0    0 -0.18121255038E-01  0.13330248507E+00  0.72076712750E-02  0.89025270735E+00  0.88000000000E+00 0. -1.
        -11    1    4    4    0    0  0.15224064367E-01 -0.20384003947E-01 -0.16930693348E-01  0.30564509664E-01  0.51100000000E-03 0.  1.
         11    1    4    4    0    0  0.15171158398E-01 -0.10786130837E+00  0.50566917921E-02  0.10904153861E+00  0.51100000000E-03 0. -1.
</event>
<event>
 8    1  0.2927513E+004  0.1043930E+01  0.7957747E-01            NaN
         13   -1    0    0    0    0  0.00000000000E+00  0.00000000000E+00  0.74505805969E-08  0.10566000000E+00  0.10566000000E+00 0.  1.
     999900   -1    0    0    0    0 -0.00000000000E+00 -0.00000000000E+00 -0.74505805969E-08  0.93827000000E+00  0.93827000000E+00 0. -1.
     999902    2    1    2    0    0 -0.80048270737E-03  0.57559031297E-04 -0.14164508952E-01  0.10297427734E+01  0.10296450368E+01 0.  0.
     999903    2    3    3    0    0 -0.74917916225E-01  0.58483832665E-01  0.90161709272E-01  0.13856883793E+00  0.45156795407E-01 0.  0.
         14    1    1    2    0    0  0.80048270737E-03 -0.57559031297E-04  0.14164508952E-01  0.14187226630E-01  0.00000000000E+00 0.  1.
     999901    1    3    3    0    0  0.74117433517E-01 -0.58426273633E-01 -0.10432621822E+00  0.89117393544E+00  0.88000000000E+00 0. -1.
        -11    1    4    4    0    0 -0.50714807417E-01  0.11285918215E-01  0.49117265114E-01  0.71499164293E-01  0.51100000000E-03 0.  1.
         11    1    4    4    0    0 -0.24203108807E-01  0.47197914449E-01  0.41044444158E-01  0.67069673635E-01  0.51100000000E-03 0. -1.
</event>
<event>
 8    1  0.2927513E+004  0.1043930E+01  0.7957747E-01            NaN
         13   -1    0    0    0    0  0.00000000000E+00  0.00000000000E+00  0.74505805969E-08  0.10566000000E+00  0.10566000000E+00 0.  1.
     999900   -1    0    0    0    0 -0.00000000000E+00 -0.00000000000E+00 -0.74505805969E-08  0.93827000000E+00  0.93827000000E+00 0.  1.
     999902    2    1    2    0    0  0.93442281802E-02  0.84039004090E-02  0.24771417471E-02  0.10311207700E+01  0.10310412048E+01 0.  0.
     999903    2    3    3    0    0  0.80538502113E-01  0.90196135861E-01 -0.59906486168E-01  0.14227302630E+00  0.45066991031E-01 0.  0.
         14    1    1    2    0    0 -0.93442281802E-02 -0.84039004090E-02 -0.24771417471E-02  0.12809230016E-01  0.00000000000E+00 0.  1.
     999901    1    3    3    0    0 -0.71194273933E-01 -0.81792235452E-01  0.62383627915E-01  0.88884774368E+00  0.88000000000E+00 0. -1.
        -11    1    4    4    0    0  0.27683751927E-01  0.43667298046E-01 -0.48583603569E-01  0.70949634926E-01  0.51100000000E-03 0. -1.
         11    1    4    4    0    0  0.52854750186E-01  0.46528837815E-01 -0.11322882599E-01  0.71323391373E-01  0.51100000000E-03 0.  1.
</event>
<event>
 8    1  0.2927513E+004  0.1043930E+01  0.7957747E-01            NaN
         13   -1    0    0    0    0  0.00000000000E+00  0.00000000000E+00  0.74505805969E-08  0.10566000000E+00  0.10566000000E+00 0. -1.
     999900   -1    0    0    0    0 -0.00000000000E+00 -0.00000000000E+00 -0.74505805969E-08  0.93827000000E+00  0.93827000000E+00 0.  1.
     999902    2    1    2    0    0 -0.37141907214E-02 -0.88061571361E-02  0.14195554250E-01  0.10268169238E+01  0.10266743094E+01 0.  0.
     999903    2    3    3    0    0 -0.42640339981E-01  0.17317229927E-01 -0.11895248560E+00  0.13556719620E+00  0.45942200753E-01 0.  0.
         14    1    1    2    0    0  0.37141907214E-02  0.88061571361E-02 -0.14195554250E-01  0.17113076190E-01  0.00000000000E+00 0.  1.
     999901    1    3    3    0    0  0.38926149260E-01 -0.26123387063E-01  0.13314803985E+00  0.89124972761E+00  0.88000000000E+00 0. -1.
        -11    1    4    4    0    0 -0.48543943883E-01  0.66659107265E-02 -0.11007126411E+00  0.12048607038E+00  0.51100000000E-03 0.  1.
         11    1    4    4    0    0  0.59036039017E-02  0.10651319201E-01 -0.88812214898E-02  0.15081125817E-01  0.51100000000E-03 0. -1.
</event>
<event>
 8    1  0.2927513E+004  0.1043930E+01  0.7957747E-01            NaN
         13   -1    0    0    0    0  0.00000000000E+00  0.00000000000E+00  0.74505805969E-08  0.10566000000E+00  0.10566000000E+00 0.  1.
     999900   -1    0    0    0    0 -0.00000000000E+00 -0.00000000000E+00 -0.74505805969E-08  0.93827000000E+00  0.93827000000E+00 0. -1.
     999902    2    1    2    0    0 -0.65985807270E-02 -0.10255776133E-01  0.52084788080E-02  0.10306691379E+01  0.10305838255E+01 0.  0.
     999903    2    3    3    0    0  0.94956057386E-01 -0.72233593805E-01  0.60028560173E-01  0.14097265275E+00  0.45116691780E-01 0.  0.
         14    1    1    2    0    0  0.65985807270E-02  0.10255776133E-01 -0.52084788080E-02  0.13260862083E-01  0.00000000000E+00 0.  1.
     999901    1    3    3    0    0 -0.10155463811E+00  0.61977817672E-01 -0.54820081365E-01  0.88969648517E+00  0.88000000000E+00 0. -1.
        -11    1    4    4    0    0  0.25192455855E-01 -0.20549431348E-01 -0.44596724426E-02  0.32819030455E-01  0.51100000000E-03 0. -1.
         11    1    4    4    0    0  0.69763601532E-01 -0.51684162457E-01  0.64488232615E-01  0.10815362229E+00  0.51100000000E-03 0.  1.
</event>
<event>
 8    1  0.2927513E+004  0.1043930E+01  0.7957747E-01            NaN
         13   -1    0    0    0    0  0.00000000000E+00  0.00000000000E+00  0.74505805969E-08  0.10566000000E+00  0.10566000000E+00 0. -1.
     999900   -1    0    0    0    0 -0.00000000000E+00 -0.00000000000E+00 -0.74505805969E-08  0.93827000000E+00  0.93827000000E+00 0. -1.
     999902    2    1    2    0    0  0.18527940523E-01 -0.33751696855E-02 -0.11330374354E-02  0.10250630945E+01  0.10248894514E+01 0.  0.
     999903    2    3    3    0    0  0.11105441446E+00  0.62736759400E-01  0.23132831649E-01  0.13741408278E+00  0.45590769849E-01 0.  0.
         14    1    1    2    0    0 -0.18527940523E-01  0.33751696855E-02  0.11330374354E-02  0.18866905529E-01  0.00000000000E+00 0. -1.
     999901    1    3    3    0    0 -0.92526473940E-01 -0.66111929086E-01 -0.24265869085E-01  0.88764901169E+00  0.88000000000E+00 0.  1.
        -11    1    4    4    0    0 -0.64597552977E-03  0.13217328621E-01  0.30340720509E-02  0.13586087534E-01  0.51100000000E-03 0. -1.
         11    1    4    4    0    0  0.11170038999E+00  0.49519430779E-01  0.20098759598E-01  0.12382799525E+00  0.51100000000E-03 0.  1.
</event>
<event>
 8    1  0.2927513E+004  0.1043930E+01  0.7957747E-01            NaN
         13   -1    0    0    0    0  0.00000000000E+00  0.00000000000E+00  0.74505805969E-08  0.10566000000E+00  0.10566000000E+00 0.  1.
     999900   -1    0    0    0    0 -0.00000000000E+00 -0.00000000000E+00 -0.74505805969E-08  0.93827000000E+00  0.93827000000E+00 0. -1.
     999902    2    1    2    0    0  0.10644076891E-01 -0.41191565558E-02  0.85747374881E-02  0.10296544984E+01  0.10295555333E+01 0.  0.
     999903    2    3    3    0    0 -0.47423534401E-01  0.10865290860E+00  0.57768346897E-01  0.13919989686E+00  0.44553150500E-01 0.  0.
         14    1    1    2    0    0 -0.10644076891E-01  0.41191565558E-02 -0.85747374881E-02  0.14275501623E-01  0.00000000000E+00 0. -1.
     999901    1    3    3    0    0  0.58067611292E-01 -0.11277206516E+00 -0.49193609409E-01  0.89045460152E+00  0.88000000000E+00 0. -1.
        -11    1    4    4    0    0 -0.15077120918E-01  0.18333421770E-01  0.32028214781E-01  0.39868553924E-01  0.51100000000E-03 0. -1.
         11    1    4    4    0    0 -0.32346413482E-01  0.90319486831E-01  0.25740132117E-01  0.99331342933E-01  0.51100000000E-03 0.  1.
</event>
<event>
 8    1  0.2927513E+004  0.1043930E+01  0.7957747E-01            NaN
         13   -1    0    0    0    0  0.00000000000E+00  0.00000000000E+00  0.74505805969E-08  0.10566000000E+00  0.10566000000E+00 0. -1.
     999900   -1    0    0    0    0 -0.00000000000E+00 -0.00000000000E+00 -0.74505805969E-08  0.93827000000E+00  0.93827000000E+00 0.  1.
     999902    2    1    2    0    0  0.89086510343E-02  0.53350094254E-02  0.94772999337E-02  0.10298713513E+01  0.10297753904E+01 0.  0.
     999903    2    3    3    0    0  0.77993422718E-01 -0.81971112545E-01 -0.68066035245E-01  0.13947366857E+00  0.44918612963E-01 0.  0.
         14    1    1    2    0    0 -0.89086510343E-02 -0.53350094254E-02 -0.94772999337E-02  0.14058648685E-01  0.00000000000E+00 0.  1.
     999901    1    3    3    0    0 -0.69084771683E-01  0.87306121971E-01  0.77543335178E-01  0.89039768275E+00  0.88000000000E+00 0. -1.
        -11    1    4    4    0    0  0.37198138691E-01 -0.33297102298E-01 -0.53443375113E-02  0.50211767625E-01  0.51100000000E-03 0. -1.
         11    1    4    4    0    0  0.40795284027E-01 -0.48674010247E-01 -0.62721697733E-01  0.89261900942E-01  0.51100000000E-03 0.  1.
</event>
<event>
 8    1  0.2927513E+004  0.1043930E+01  0.7957747E-01            NaN
         13   -1    0    0    0    0  0.00000000000E+00  0.00000000000E+00  0.74505805969E-08  0.10566000000E+00  0.10566000000E+00 0.  1.
     999900   -1    0    0    0    0 -0.00000000000E+00 -0.00000000000E+00 -0.74505805969E-08  0.93827000000E+00  0.93827000000E+00 0.  1.
     999902    2    1    2    0    0 -0.38623489353E-02 -0.21824368314E-02  0.13183805812E-01  0.10300198057E+01  0.10299258743E+01 0.  0.
     999903    2    3    3    0    0 -0.41514382885E-01  0.12481027470E+00  0.27770092192E-02  0.14004613988E+00  0.48001675568E-01 0.  0.
         14    1    1    2    0    0  0.38623489353E-02  0.21824368314E-02 -0.13183805812E-01  0.13910194302E-01  0.00000000000E+00 0. -1.
     999901    1    3    3    0    0  0.37652033950E-01 -0.12699271153E+00  0.10406796593E-01  0.88997366582E+00  0.88000000000E+00 0.  1.
        -11    1    4    4    0    0 -0.45554406469E-01  0.94805815065E-01  0.17074943237E-01  0.10656059932E+00  0.51100000000E-03 0.  1.
         11    1    4    4    0    0  0.40400235836E-02  0.30004459633E-01 -0.14297934018E-01  0.33485540560E-01  0.51100000000E-03 0. -1.
</event>
<event>
 8    1  0.2927513E+004  0.1043930E+01  0.7957747E-01            NaN
         13   -1    0    0    0    0  0.00000000000E+00  0.00000000000E+00  0.74505805969E-08  0.10566000000E+00  0.10566000000E+00 0. -1.
     999900   -1    0    0    0    0 -0.00000000000E+00 -0.00000000000E+00 -0.74505805969E-08  0.93827000000E+00  0.93827000000E+00 0.  1.
     999902    2    1    2    0    0 -0.11056395719E-01 -0.42587912149E-02  0.95006481179E-02  0.10287430482E+01  0.10286309425E+01 0.  0.
     999903    2    3    3    0    0 -0.66281914941E-01 -0.21808002372E-01  0.11392001126E+00  0.14067703934E+00  0.44083774972E-01 0.  0.
         14    1    1    2    0    0  0.11056395719E-01  0.42587912149E-02 -0.95006481179E-02  0.15186951753E-01  0.00000000000E+00 0.  1.
     999901    1    3    3    0    0  0.55225519222E-01  0.17549211157E-01 -0.10441936314E+00  0.88806600891E+00  0.88000000000E+00 0.  1.
        -11    1    4    4    0    0 -0.28420908148E-01  0.11700259818E-01  0.55252518383E-01  0.63227731325E-01  0.51100000000E-03 0.  1.
         11    1    4    4    0    0 -0.37861006793E-01 -0.33508262189E-01  0.58667492873E-01  0.77449308011E-01  0.51100000000E-03 0. -1.
</event>
<event>
 8    1  0.2927513E+004  0.1043930E+01  0.7957747E-01            NaN
         13   -1    0    0    0    0  0.00000000000E+00  0.00000000000E+00  0.74505805969E-08  0.10566000000E+00  0.10566000000E+00 0. -1.
     999900   -1    0    0    0    0 -0.00000000000E+00 -0.00000000000E+00 -0.74505805969E-08  0.93827000000E+00  0.93827000000E+00 0.  1.
     999902    2    1    2    0    0  0.72251070015E-02 -0.10579063310E-01 -0.76473372593E-02  0.10290101971E+01  0.10289020290E+01 0.  0.
     999903    2    3    3    0    0  0.91682694417E-01 -0.75864265141E-01 -0.60795672533E-01  0.14096741254E+00  0.44884233517E-01 0.  0.
         14    1    1    2    0    0 -0.72251070015E-02  0.10579063310E-01  0.76473372593E-02  0.14919802909E-01  0.00000000000E+00 0. -1.
     999901    1    3    3    0    0 -0.84457587416E-01  0.65285201832E-01  0.53148335274E-01  0.88804278455E+00  0.88000000000E+00 0. -1.
        -11    1    4    4    0    0  0.77085043282E-01 -0.71713850321E-01 -0.34848960396E-01  0.11090397372E+00  0.51100000000E-03 0.  1.
         11    1    4    4    0    0  0.14597651135E-01 -0.41504148202E-02 -0.25946712137E-01  0.30063438818E-01  0.51100000000E-03 0. -1.
</event>
<event>
 8    1  0.2927513E+004  0.1043930E+01  0.7957747E-01            NaN
         13   -1    0    0    0    0  0.00000000000E+00  0.00000000000E+00  0.74505805969E-08  0.10566000000E+00  0.10566000000E+00 0. -1.
     999900   -1    0    0    0    0 -0.00000000000E+00 -0.00000000000E+00 -0.74505805969E-08  0.93827000000E+00  0.93827000000E+00 0. -1.
     999902    2    1    2    0    0 -0.27291907391E-02 -0.12017825768E-02  0.13764309347E-01  0.10298463579E+01  0.10297500531E+01 0.  0.
     999903    2    3    3    0    0 -0.82429096124E-01 -0.82346671919E-01  0.64555868839E-01  0.14107397392E+00  0.46463702517E-01 0.  0.
         14    1    1    2    0    0  0.27291907391E-02  0.12017825768E-02 -0.13764309347E-01  0.14083642116E-01  0.00000000000E+00 0.  1.
     999901    1    3    3    0    0  0.79699905385E-01  0.81144889342E-01 -0.50791559492E-01  0.88877238397E+00  0.88000000000E+00 0. -1.
        -11    1    4    4    0    0 -0.55424604216E-01 -0.64808242719E-01  0.22670530699E-01  0.88239498865E-01  0.51100000000E-03 0. -1.
         11    1    4    4    0    0 -0.27004491908E-01 -0.17538429200E-01  0.41885338140E-01  0.52834475053E-01  0.51100000000E-03 0.  1.
</event>
<event>
 8    1  0.2927513E+004  0.1043930E+01  0.7957747E-01            NaN
         13   -1    0    0    0    0  0.00000000000E+00  0.00000000000E+00  0.74505805969E-08  0.10566000000E+00  0.10566000000E+00 0.  1.
     999900   -1    0    0    0    0 -0.00000000000E+00 -0.00000000000E+00 -0.74505805969E-08  0.93827000000E+00  0.93827000000E+00 0.  1.
     999902    2    1    2    0    0  0.10089475729E-01  0.91429475360E-02  0.93911010597E-03  0.10302818156E+01  0.10301914126E+01 0.  0.
     999903    2    3    3    0    0  0.97297625876E-01  0.91502012798E-01  0.18792867638E-01  0.14196484865E+00  0.44287696154E-01 0.  0.
         14    1    1    2    0    0 -0.10089475729E-01 -0.91429475360E-02 -0.93911010597E-03  0.13648184419E-01  0.00000000000E+00 0. -1.
     999901    1    3    3    0    0 -0.87208150146E-01 -0.82359065262E-01 -0.17853757532E-01  0.88831696693E+00  0.88000000000E+00 0.  1.
        -11    1    4    4    0    0  0.55794893586E-01  0.65597971095E-01 -0.74585186043E-02  0.86441046863E-01  0.51100000000E-03 0. -1.
         11    1    4    4    0    0  0.41502732290E-01  0.25904041703E-01  0.26251386242E-01  0.55523801785E-01  0.51100000000E-03 0.  1.
</event>
<event>
 8    1  0.2927513E+004  0.1043930E+01  0.7957747E-01            NaN
         13   -1    0    0    0    0  0.00000000000E+00  0.00000000000E+00  0.74505805969E-08  0.10566000000E+00  0.10566000000E+00 0. -1.
     999900   -1    0    0    0    0 -0.00000000000E+00 -0.00000000000E+00 -0.74505805969E-08  0.93827000000E+00  0.93827000000E+00 0.  1.
     999902    2    1    2    0    0 -0.62266444311E-02  0.11240865019E-01  0.64340763817E-02  0.10295590054E+01  0.10294587025E+01 0.  0.
     999903    2    3    3    0    0  0.12595498578E+00  0.19858848398E-01  0.33245034402E-01  0.13924160105E+00  0.44988430144E-01 0.  0.
         14    1    1    2    0    0  0.62266444311E-02 -0.11240865019E-01 -0.64340763817E-02  0.14370994611E-01  0.00000000000E+00 0.  1.
     999901    1    3    3    0    0 -0.13218163021E+00 -0.86179833790E-02 -0.26810958020E-01  0.89031740434E+00  0.88000000000E+00 0.  1.
        -11    1    4    4    0    0  0.52499932386E-01  0.26812394193E-02  0.36061492070E-01  0.63750484520E-01  0.51100000000E-03 0. -1.
         11    1    4    4    0    0  0.73455053396E-01  0.17177608978E-01 -0.28164576680E-02  0.75491116527E-01  0.51100000000E-03 0.  1.
</event>
<event>
 8    1  0.2927513E+004  0.1043930E+01  0.7957747E-01            NaN
         13   -1    0    0    0    0  0.00000000000E+00  0.00000000000E+00  0.74505805969E-08  0.10566000000E+00  0.10566000000E+00 0. -1.
     999900   -1    0    0    0    0 -0.00000000000E+00 -0.00000000000E+00 -0.74505805969E-08  0.93827000000E+00  0.93827000000E+00 0.  1.
     999902    2    1    2    0    0 -0.11147631363E-01  0.57023055785E-02 -0.78016706059E-02  0.10291769651E+01  0.10290712189E+01 0.  0.
     999903    2    3    3    0    0  0.10377531671E-01 -0.43793457979E-01 -0.12453730117E+00  0.13982868087E+00  0.44910583216E-01 0.  0.
         14    1    1    2    0    0  0.11147631363E-01 -0.57023055785E-02  0.78016706059E-02  0.14753034880E-01  0.00000000000E+00 0. -1.
     999901    1    3    3    0    0 -0.21525163033E-01  0.49495763558E-01  0.11673563057E+00  0.88934828425E+00  0.88000000000E+00 0. -1.
        -11    1    4    4    0    0  0.27851669928E-01 -0.27734796046E-01 -0.86156834803E-01  0.94700558255E-01  0.51100000000E-03 0. -1.
         11    1    4    4    0    0 -0.17474138257E-01 -0.16058661934E-01 -0.38380466371E-01  0.45128122616E-01  0.51100000000E-03 0.  1.
</event>
<event>
 8    1  0.2927513E+004  0.1043930E+01  0.7957747E-01            NaN
         13   -1    0    0    0    0  0.00000000000E+00  0.00000000000E+00  0.74505805969E-08  0.10566000000E+00  0.10566000000E+00 0.  1.
     999900   -1    0    0    0    0 -0.00000000000E+00 -0.00000000000E+00 -0.74505805969E-08  0.93827000000E+00  0.93827000000E+00 0. -1.
     999902    2    1    2    0    0  0.62442173046E-02 -0.10032668673E-01  0.20095706739E-02  0.10319432129E+01  0.10318735928E+01 0.  0.
     999903    2    3    3    0    0  0.30878973801E-02 -0.99797930659E-01 -0.91377299215E-01  0.14245522981E+00  0.44435566991E-01 0.  0.
         14    1    1    2    0    0 -0.62442173046E-02  0.10032668673E-01 -0.20095706739E-02  0.11986787090E-01  0.00000000000E+00 0. -1.
     999901    1    3    3    0    0  0.31563199244E-02  0.89765261986E-01  0.93386869889E-01  0.88948798310E+00  0.88000000000E+00 0.  1.
        -11    1    4    4    0    0  0.13662697547E-01 -0.58623629827E-01 -0.76651638084E-01  0.97463500965E-01  0.51100000000E-03 0.  1.
         11    1    4    4    0    0 -0.10574800167E-01 -0.41174300831E-01 -0.14725661131E-01  0.44991728843E-01  0.51100000000E-03 0. -1.
</event>
<event>
 8    1  0.2927513E+004  0.1043930E+01  0.7957747E-01            NaN
         13   -1    0    0    0    0  0.00000000000E+00  0.00000000000E+00  0.74505805969E-08  0.10566000000E+00  0.10566000000E+00 0. -1.
     999900   -1    0    0    0    0 -0.00000000000E+00 -0.00000000000E+00 -0.74505805969E-08  0.93827000000E+00  0.93827000000E+00 0. -1.
     999902    2    1    2    0    0 -0.55323923730E-03 -0.45905753929E-02  0.14232158863E-01  0.10289655821E+01  0.10288567614E+01 0.  0.
     999903    2    3    3    0    0 -0.27858530690E-01  0.27586302949E-01  0.12755825965E+00  0.14069550183E+00  0.44575921633E-01 0.  0.
         14    1    1    2    0    0  0.55323923730E-03  0.45905753929E-02 -0.14232158863E-01  0.14964417864E-01  0.00000000000E+00 0.  1.
     999901    1    3    3    0    0  0.27305291453E-01 -0.32176878342E-01 -0.11332610078E+00  0.88827008030E+00  0.88000000000E+00 0. -1.
        -11    1    4    4    0    0 -0.21234426360E-01 -0.76489257142E-02  0.61839068252E-01  0.65831135572E-01  0.51100000000E-03 0.  1.
         11    1    4    4    0    0 -0.66241043298E-02  0.35235228663E-01  0.65719191395E-01  0.74864366262E-01  0.51100000000E-03 0. -1.
</event>
<event>
 8    1  0.2927513E+004  0.1043930E+01  0.7957747E-01            NaN
         13   -1    0    0    0    0  0.00000000000E+00  0.00000000000E+00  0.74505805969E-08  0.10566000000E+00  0.10566000000E+00 0. -1.
     999900   -1    0    0    0    0 -0.00000000000E+00 -0.00000000000E+00 -0.74505805969E-08  0.93827000000E+00  0.93827000000E+00 0.  1.
     999902    2    1    2    0    0  0.28375591427E-02  0.79910545182E-02  0.10820999521E-01  0.10301821738E+01  0.10300904371E+01 0.  0.
     999903    2    3    3    0    0 -0.10044338604E+00 -0.70334928178E-01 -0.47060563827E-01  0.13880560436E+00  0.44904601233E-01 0.  0.
         14    1    1    2    0    0 -0.28375591427E-02 -0.79910545182E-02 -0.10820999521E-01  0.13747826186E-01  0.00000000000E+00 0.  1.
     999901    1    3    3    0    0  0.10328094518E+00  0.78325982697E-01  0.57881563348E-01  0.89137656946E+00  0.88000000000E+00 0. -1.
        -11    1    4    4    0    0 -0.10312957963E+00 -0.62594116278E-01 -0.49255459051E-01  0.13030769338E+00  0.51100000000E-03 0. -1.
         11    1    4    4    0    0  0.26861935900E-02 -0.77408119005E-02  0.21948952235E-02  0.84979109741E-02  0.51100000000E-03 0.  1.
</event>
<event>
 8    1  0.2927513E+004  0.1043930E+01  0.7957747E-01            NaN
         13   -1    0    0    0    0  0.00000000000E+00  0.00000000000E+00  0.74505805969E-08  0.10566000000E+00  0.10566000000E+00 0. -1.
     999900   -1    0    0    0    0 -0.00000000000E+00 -0.00000000000E+00 -0.74505805969E-08  0.93827000000E+00  0.93827000000E+00 0. -1.
     999902    2    1    2    0    0 -0.54885300941E-02 -0.12734730367E-01 -0.35033829317E-02  0.10296271677E+01  0.10295278206E+01 0.  0.
     999903    2    3    3    0    0  0.65002662379E-01 -0.11599767636E+00  0.95174434613E-02  0.14069421963E+00  0.44983048699E-01 0.  0.
         14    1    1    2    0    0  0.54885300941E-02  0.12734730367E-01  0.35033829317E-02  0.14302832309E-01  0.00000000000E+00 0.  1.
     999901    1    3    3    0    0 -0.70491192473E-01  0.10326294599E+00 -0.13020826393E-01  0.88893294806E+00  0.88000000000E+00 0.  1.
        -11    1    4    4    0    0  0.10185664868E-01 -0.42137446621E-01 -0.14349778803E-01  0.45667159418E-01  0.51100000000E-03 0. -1.
         11    1    4    4    0    0  0.54816997510E-01 -0.73860229736E-01  0.23867222265E-01  0.95027060211E-01  0.51100000000E-03 0.  1.
</event>
<event>
 8    1  0.2927513E+004  0.1043930E+01  0.7957747E-01            NaN
         13   -1    0    0    0    0  0.00000000000E+00  0.00000000000E+00  0.74505805969E-08  0.10566000000E+00  0.10566000000E+00 0. -1.
     999900   -1    0    0    0    0 -0.00000000000E+00 -0.00000000000E+00 -0.74505805969E-08  0.93827000000E+00  0.93827000000E+00 0. -1.
     999902    2    1    2    0    0 -0.13272804216E-01  0.42228726964E-02 -0.62767301565E-03  0.10299874766E+01  0.10298931051E+01 0.  0.
     999903    2    3    3    0    0 -0.12072355992E-01  0.34821996004E-01  0.12742643652E+00  0.14019221790E+00  0.45365714488E-01 0.  0.
         14    1    1    2    0    0  0.13272804216E-01 -0.42228726964E-02  0.62767301565E-03  0.13942523408E-01  0.00000000000E+00 0.  1.
     999901    1    3    3    0    0 -0.12004482241E-02 -0.30599123308E-01 -0.12805410953E+00  0.88979525869E+00  0.88000000000E+00 0. -1.
        -11    1    4    4    0    0 -0.38477708985E-03 -0.10944733906E-01  0.19281992678E-01  0.22180884030E-01  0.51100000000E-03 0.  1.
         11    1    4    4    0    0 -0.11687578902E-01  0.45766729911E-01  0.10814444384E+00  0.11801133387E+00  0.51100000000E-03 0. -1.
</event>
<event>
 8    1  0.2927513E+004  0.1043930E+01  0.7957747E-01            NaN
         13   -1    0    0    0    0  0.00000000000E+00  0.00000000000E+00  0.74505805969E-08  0.10566000000E+00  0.10566000000E+00 0.  1.
     999900   -1    0    0    0    0 -0.00000000000E+00 -0.00000000000E+00 -0.74505805969E-08  0.93827000000E+00  0.93827000000E+00 0.  1.
     999902    2    1    2    0    0  0.42443031913E-02 -0.77812406590E-02 -0.12373053772E-01  0.10287098070E+01  0.10285972063E+01 0.  0.
     999903    2    3    3    0    0  0.86729739112E-01  0.42578655040E-02  0.97730627108E-01  0.13793957412E+00  0.43998563252E-01 0.  0.
         14    1    1    2    0    0 -0.42443031913E-02  0.77812406590E-02  0.12373053772E-01  0.15220193015E-01  0.00000000000E+00 0.  1.
     999901    1    3    3    0    0 -0.82485435920E-01 -0.12039106163E-01 -0.11010368088E+00  0.89077023287E+00  0.88000000000E+00 0.  1.
        -11    1    4    4    0    0  0.44544498926E-01  0.13496077387E-01  0.23702163565E-01  0.52234185818E-01  0.51100000000E-03 0.  1.
         11    1    4    4    0    0  0.42185240185E-01 -0.92382118830E-02  0.74028463542E-01  0.85705388300E-01  0.51100000000E-03 0. -1.
</event>
<event>
 8    1  0.2927513E+004  0.1043930E+01  0.7957747E-01            NaN
         13   -1    0    0    0    0  0.00000000000E+00  0.00000000000E+00  0.74505805969E-08  0.10566000000E+00  0.10566000000E+00 0. -1.
     999900   -1    0    0    0    0 -0.00000000000E+00 -0.00000000000E+00 -0.74505805969E-08  0.93827000000E+00  0.93827000000E+00 0. -1.
     999902    2    1    2    0    0 -0.12324028535E-01 -0.16756490402E-02 -0.66084134008E-02  0.10298459449E+01  0.10297496345E+01 0.  0.
     999903    2    3    3    0    0  0.16996932757E-01 -0.12173137666E+00 -0.49027800734E-01  0.14019854236E+00  0.46308554802E-01 0.  0.
         14    1    1    2    0    0  0.12324028535E-01  0.16756490402E-02  0.66084134008E-02  0.14084055053E-01  0.00000000000E+00 0. -1.
     999901    1    3    3    0    0 -0.29320961292E-01  0.12005572762E+00  0.42419387333E-01  0.88964740259E+00  0.88000000000E+00 0.  1.
        -11    1    4    4    0    0 -0.89518648978E-03 -0.10977077380E+00 -0.42309005894E-01  0.11764666268E+00  0.51100000000E-03 0.  1.
         11    1    4    4    0    0  0.17892119247E-01 -0.11960602865E-01 -0.67187948403E-02  0.22551879681E-01  0.51100000000E-03 0. -1.
</event>
<event>
 8    1  0.2927513E+004  0.1043930E+01  0.7957747E-01            NaN
         13   -1    0    0    0    0  0.00000000000E+00  0.00000000000E+00  0.74505805969E-08  0.10566000000E+00  0.10566000000E+00 0.  1.
     999900   -1    0    0    0    0 -0.00000000000E+00 -0.00000000000E+00 -0.74505805969E-08  0.93827000000E+00  0.93827000000E+00 0.  1.
     999902    2    1    2    0    0 -0.33949591119E-02 -0.32571658055E-02  0.12854158152E-01  0.10302418935E+01  0.10301509574E+01 0.  0.
     999903    2    3    3    0    0 -0.50926912061E-01  0.16898675942E-01 -0.11976464980E+00  0.13880861353E+00  0.45223270854E-01 0.  0.
         14    1    1    2    0    0  0.33949591119E-02  0.32571658055E-02 -0.12854158152E-01  0.13688106452E-01  0.00000000000E+00 0. -1.
     999901    1    3    3    0    0  0.47531952949E-01 -0.20155841747E-01  0.13261880795E+00  0.89143328002E+00  0.88000000000E+00 0. -1.
        -11    1    4    4    0    0 -0.25418326408E-01 -0.18066245023E-02 -0.95766983686E-01  0.99100612989E-01  0.51100000000E-03 0.  1.
         11    1    4    4    0    0 -0.25508585653E-01  0.18705300444E-01 -0.23997666113E-01  0.39708000537E-01  0.51100000000E-03 0. -1.
</event>
<event>
 8    1  0.2927513E+004  0.1043930E+01  0.7957747E-01            NaN
         13   -1    0    0    0    0  0.00000000000E+00  0.00000000000E+00  0.74505805969E-08  0.10566000000E+00  0.10566000000E+00 0.  1.
     999900   -1    0    0    0    0 -0.00000000000E+00 -0.00000000000E+00 -0.74505805969E-08  0.93827000000E+00  0.93827000000E+00 0. -1.
     999902    2    1    2    0    0  0.13730793610E-01  0.42897800996E-02  0.34318208007E-02  0.10291410075E+01  0.10290347414E+01 0.  0.
     999903    2    3    3    0    0 -0.24836717210E-01 -0.15288511613E-01  0.12853663178E+00  0.13924102649E+00  0.44897623982E-01 0.  0.
         14    1    1    2    0    0 -0.13730793610E-01 -0.42897800996E-02 -0.34318208007E-02  0.14788992544E-01  0.00000000000E+00 0. -1.
     999901    1    3    3    0    0  0.38567510820E-01  0.19578291712E-01 -0.12510481098E+00  0.88989998097E+00  0.88000000000E+00 0. -1.
        -11    1    4    4    0    0 -0.19763797255E-01  0.13630343599E-02  0.16294983522E-01  0.25656444679E-01  0.51100000000E-03 0. -1.
         11    1    4    4    0    0 -0.50729199552E-02 -0.16651545973E-01  0.11224164826E+00  0.11358458181E+00  0.51100000000E-03 0.  1.
</event>
<event>
 8    1  0.2927513E+004  0.1043930E+01  0.7957747E-01            NaN
         13   -1    0    0    0    0  0.00000000000E+00  0.00000000000E+00  0.74505805969E-08  0.10566000000E+00  0.10566000000E+00 0. -1.
     999900   -1    0    0    0    0 -0.00000000000E+00 -0.00000000000E+00 -0.74505805969E-08  0.93827000000E+00  0.93827000000E+00 0. -1.
     999902    2    1    2    0    0 -0.26570595640E-02 -0.11270375648E-01 -0.71909833002E-02  0.10302994617E+01  0.10302092939E+01 0.  0.
     999903    2    3    3    0    0 -0.20925635872E-01  0.66002014688E-01  0.11153318222E+00  0.13878379127E+00  0.45023791542E-01 0.  0.
         14    1    1    2    0    0  0.26570595640E-02  0.11270375648E-01  0.71909833002E-02  0.13630538273E-01  0.00000000000E+00 0. -1.
     999901    1    3    3    0    0  0.18268576308E-01 -0.77272390336E-01 -0.11872416552E+00  0.89151567045E+00  0.88000000000E+00 0. -1.
        -11    1    4    4    0    0  0.20992894290E-03  0.25311389029E-01  0.97170810708E-02  0.27118135449E-01  0.51100000000E-03 0.  1.
         11    1    4    4    0    0 -0.21135564815E-01  0.40690625659E-01  0.10181610115E+00  0.11166565582E+00  0.51100000000E-03 0. -1.
</event>
<event>
 8    1  0.2927513E+004  0.1043930E+01  0.7957747E-01            NaN
         13   -1    0    0    0    0  0.00000000000E+00  0.00000000000E+00  0.74505805969E-08  0.10566000000E+00  0.10566000000E+00 0.  1.
     999900   -1    0    0    0    0 -0.00000000000E+00 -0.00000000000E+00 -0.74505805969E-08  0.93827000000E+00  0.93827000000E+00 0.  1.
     999902    2    1    2    0    0 -0.58390655558E-02  0.70098358330E-02  0.99921804910E-02  0.10303994362E+01  0.10303105949E+01 0.  0.
     999903    2    3    3    0    0  0.13137621792E+00  0.13814765744E-01  0.42320515089E-02  0.13972131245E+00  0.45316404393E-01 0.  0.
         14    1    1    2    0    0  0.58390655558E-02 -0.70098358330E-02 -0.99921804910E-02  0.13530563770E-01  0.00000000000E+00 0. -1.
     999901    1    3    3    0    0 -0.13721528347E+00 -0.68049299112E-02  0.57601289820E-02  0.89067812378E+00  0.88000000000E+00 0.  1.
        -11    1    4    4    0    0  0.43017246721E-01  0.24388274733E-01  0.10337644000E-01  0.50521277343E-01  0.51100000000E-03 0. -1.
         11    1    4    4    0    0  0.88358971195E-01 -0.10573508988E-01 -0.61055924910E-02  0.89200035110E-01  0.51100000000E-03 0.  1.
</event>
<event>
 8    1  0.2927513E+004  0.1043930E+01  0.7957747E-01            NaN
         13   -1    0    0    0    0  0.00000000000E+00  0.00000000000E+00  0.74505805969E-08  0.10566000000E+00  0.10566000000E+00 0. -1.
     999900   -1    0    0    0    0 -0.00000000000E+00 -0.00000000000E+00 -0.74505805969E-08  0.93827000000E+00  0.93827000000E+00 0.  1.
     999902    2    1    2    0    0 -0.12783022274E-01 -0.53455440498E-03 -0.46568005306E-02  0.10303146705E+01  0.10302247051E+01 0.  0.
     999903    2    3    3    0    0 -0.89677776524E-01 -0.98732369261E-01  0.12352935969E-01  0.14135744698E+00  0.45156931327E-01 0.  0.
         14    1    1    2    0    0  0.12783022274E-01  0.53455440498E-03  0.46568005306E-02  0.13615329524E-01  0.00000000000E+00 0. -1.
     999901    1    3    3    0    0  0.76894754250E-01  0.98197814856E-01 -0.17009736499E-01  0.88895722350E+00  0.88000000000E+00 0. -1.
        -11    1    4    4    0    0 -0.16700137851E-02 -0.73207907210E-02 -0.99953089628E-02  0.12512004040E-01  0.51100000000E-03 0. -1.
         11    1    4    4    0    0 -0.88007762739E-01 -0.91411578539E-01  0.22348244931E-01  0.12884544294E+00  0.51100000000E-03 0.  1.
</event>
<event>
 8    1  0.2927513E+004  0.1043930E+01  0.7957747E-01            NaN
         13   -1    0    0    0    0  0.00000000000E+00  0.00000000000E+00  0.74505805969E-08  0.10566000000E+00  0.10566000000E+00 0. -1.
     999900   -1    0    0    0    0 -0.00000000000E+00 -0.00000000000E+00 -0.74505805969E-08  0.93827000000E+00  0.93827000000E+00 0. -1.
     999902    2    1    2    0    0 -0.32869538211E-02 -0.25186305717E-02 -0.13183994423E-01  0.10301109814E+01  0.10300182857E+01 0.  0.
     999903    2    3    3    0    0  0.69826320400E-01 -0.30517362704E-01 -0.10999710822E+00  0.14134652508E+00  0.45524190148E-01 0.  0.
         14    1    1    2    0    0  0.32869538211E-02  0.25186305717E-02  0.13183994423E-01  0.13819018573E-01  0.00000000000E+00 0. -1.
     999901    1    3    3    0    0 -0.73113274221E-01  0.27998732132E-01  0.96813113793E-01  0.88876445635E+00  0.88000000000E+00 0.  1.
        -11    1    4    4    0    0  0.38244963235E-01 -0.38737003725E-01 -0.81556871847E-01  0.98056193772E-01  0.51100000000E-03 0. -1.
         11    1    4    4    0    0  0.31581357164E-01  0.82196410210E-02 -0.28440236368E-01  0.43290331305E-01  0.51100000000E-03 0.  1.
</event>
<event>
 8    1  0.2927513E+004  0.1043930E+01  0.7957747E-01            NaN
         13   -1    0    0    0    0  0.00000000000E+00  0.00000000000E+00  0.74505805969E-08  0.10566000000E+00  0.10566000000E+00 0.  1.
     999900   -1    0    0    0    0 -0.00000000000E+00 -0.00000000000E+00 -0.74505805969E-08  0.93827000000E+00  0.93827000000E+00 0. -1.
     999902    2    1    2    0    0 -0.12215603231E-01  0.68352328260E-02  0.26199709894E-02  0.10296890163E+01  0.10295905325E+01 0.  0.
     999903    2    3    3    0    0  0.77562326077E-01 -0.53481319467E-01  0.91089022264E-01  0.13866436109E+00  0.45325810547E-01 0.  0.
         14    1    1    2    0    0  0.12215603231E-01 -0.68352328260E-02 -0.26199709894E-02  0.14240983747E-01  0.00000000000E+00 0. -1.
     999901    1    3    3    0    0 -0.89777929308E-01  0.60316552293E-01 -0.88469051275E-01  0.89102465516E+00  0.88000000000E+00 0. -1.
        -11    1    4    4    0    0  0.30992480676E-02 -0.21208696532E-01  0.30961298696E-01  0.37660022373E-01  0.51100000000E-03 0.  1.
         11    1    4    4    0    0  0.74463078009E-01 -0.32272622935E-01  0.60127723568E-01  0.10100433872E+00  0.51100000000E-03 0. -1.
</event>
<event>
 8    1  0.2927513E+004  0.1043930E+01  0.7957747E-01            NaN
         13   -1    0    0    0    0  0.00000000000E+00  0.00000000000E+00  0.74505805969E-08  0.10566000000E+00  0.10566000000E+00 0. -1.
     999900   -1    0    0    0    0 -0.00000000000E+00 -0.00000000000E+00 -0.74505805969E-08  0.93827000000E+00  0.93827000000E+00 0.  1.
     999902    2    1    2    0    0  0.15347304144E-02  0.79183280621E-02 -0.13860562337E-01  0.10278934634E+01  0.10277683599E+01 0.  0.
     999903    2    3    3    0    0 -0.35367514298E-01  0.83895884740E-01 -0.94281674820E-01  0.14019874107E+00  0.49772203549E-01 0.  0.
         14    1    1    2    0    0 -0.15347304144E-02 -0.79183280621E-02  0.13860562337E-01  0.16036536567E-01  0.00000000000E+00 0. -1.
     999901    1    3    3    0    0  0.36902244713E-01 -0.75977556678E-01  0.80421112482E-01  0.88769472237E+00  0.88000000000E+00 0. -1.
        -11    1    4    4    0    0 -0.30904813905E-01  0.54724507794E-01 -0.30374605016E-01  0.69805136105E-01  0.51100000000E-03 0.  1.
         11    1    4    4    0    0 -0.44627003936E-02  0.29171376947E-01 -0.63907069803E-01  0.70393604962E-01  0.51100000000E-03 0. -1.
</event>
<event>
 8    1  0.2927513E+004  0.1043930E+01  0.7957747E-01            NaN
         13   -1    0    0    0    0  0.00000000000E+00  0.00000000000E+00  0.74505805969E-08  0.10566000000E+00  0.10566000000E+00 0. -1.
     999900   -1    0    0    0    0 -0.00000000000E+00 -0.00000000000E+00 -0.74505805969E-08  0.93827000000E+00  0.93827000000E+00 0.  1.
     999902    2    1    2    0    0 -0.27161318647E-02 -0.11259305061E-01 -0.28327083411E-02  0.10320063445E+01  0.10319374601E+01 0.  0.
     999903    2    3    3    0    0  0.10036918740E+00 -0.81193090297E-01 -0.39818195079E-01  0.14246419063E+00  0.45213551737E-01 0.  0.
         14    1    1    2    0    0  0.27161318647E-02  0.11259305061E-01  0.28327083411E-02  0.11923655451E-01  0.00000000000E+00 0. -1.
     999901    1    3    3    0    0 -0.10308531927E+00  0.69933785236E-01  0.36985486738E-01  0.88954215392E+00  0.88000000000E+00 0. -1.
        -11    1    4    4    0    0  0.99946449611E-01 -0.62080138785E-01 -0.34613121584E-01  0.12264406112E+00  0.51100000000E-03 0. -1.
         11    1    4    4    0    0  0.42273779420E-03 -0.19112951513E-01 -0.52050734955E-02  0.19820129512E-01  0.51100000000E-03 0.  1.
</event>
<event>
 8    1  0.2927513E+004  0.1043930E+01  0.7957747E-01            NaN
         13   -1    0    0    0    0  0.00000000000E+00  0.00000000000E+00  0.74505805969E-08  0.10566000000E+00  0.10566000000E+00 0. -1.
     999900   -1    0    0    0    0 -0.00000000000E+00 -0.00000000000E+00 -0.74505805969E-08  0.93827000000E+00  0.93827000000E+00 0.  1.
     999902    2    1    2    0    0  0.47834651693E-02  0.14474529837E-01  0.24676067019E-02  0.10284871170E+01  0.10283711719E+01 0.  0.
     999903    2    3    3    0    0  0.55868549108E-01 -0.11114107400E+00 -0.39064360163E-01  0.13713204183E+00  0.42491640981E-01 0.  0.
         14    1    1    2    0    0 -0.47834651693E-02 -0.14474529837E-01 -0.24676067019E-02  0.15442883017E-01  0.00000000000E+00 0.  1.
     999901    1    3    3    0    0 -0.51085083938E-01  0.12561560383E+00  0.41531966865E-01  0.89135507515E+00  0.88000000000E+00 0. -1.
        -11    1    4    4    0    0  0.31222940353E-01 -0.63697281988E-01 -0.43937900682E-01  0.83444688113E-01  0.51100000000E-03 0.  1.
         11    1    4    4    0    0  0.24645608755E-01 -0.47443792008E-01  0.48735405186E-02  0.53687353718E-01  0.51100000000E-03 0. -1.
</event>
<event>
 8    1  0.2927513E+004  0.1043930E+01  0.7957747E-01            NaN
         13   -1    0    0    0    0  0.00000000000E+00  0.00000000000E+00  0.74505805969E-08  0.10566000000E+00  0.10566000000E+00 0.  1.
     999900   -1    0    0    0    0 -0.00000000000E+00 -0.00000000000E+00 -0.74505805969E-08  0.93827000000E+00  0.93827000000E+00 0. -1.
     999902    2    1    2    0    0  0.54972285268E-02  0.11549815434E-01  0.59319983449E-02  0.10298301290E+01  0.10297336006E+01 0.  0.
     999903    2    3    3    0    0 -0.18783384566E-01 -0.90230830955E-01 -0.92517223526E-01  0.13817935799E+00  0.45162815832E-01 0.  0.
         14    1    1    2    0    0 -0.54972285268E-02 -0.11549815434E-01 -0.59319983449E-02  0.14099871006E-01  0.00000000000E+00 0.  1.
     999901    1    3    3    0    0  0.24280613093E-01  0.10178064639E+00  0.98449221871E-01  0.89165077101E+00  0.88000000000E+00 0.  1.
        -11    1    4    4    0    0 -0.27502928446E-01 -0.49500741830E-01 -0.72407991645E-01  0.91923407737E-01  0.51100000000E-03 0.  1.
         11    1    4    4    0    0  0.87195438805E-02 -0.40730089125E-01 -0.20109231881E-01  0.46255950249E-01  0.51100000000E-03 0. -1.
</event>
<event>
 8    1  0.2927513E+004  0.1043930E+01  0.7957747E-01            NaN
         13   -1    0    0    0    0  0.00000000000E+00  0.00000000000E+00  0.74505805969E-08  0.10566000000E+00  0.10566000000E+00 0. -1.
     999900   -1    0    0    0    0 -0.00000000000E+00 -0.00000000000E+00 -0.74505805969E-08  0.93827000000E+00  0.93827000000E+00 0.  1.
     999902    2    1    2    0    0  0.12584658447E-01  0.48517114202E-02  0.67748782918E-02  0.10288365674E+01  0.10287258482E+01 0.  0.
     999903    2    3    3    0    0  0.33233584677E-01  0.98714894239E-01 -0.80381725988E-01  0.13932380812E+00  0.45834486372E-01 0.  0.
         14    1    1    2    0    0 -0.12584658447E-01 -0.48517114202E-02 -0.67748782918E-02  0.15093432605E-01  0.00000000000E+00 0.  1.
     999901    1    3    3    0    0 -0.20648926230E-01 -0.93863182819E-01  0.87156604280E-01  0.88951275927E+00  0.88000000000E+00 0. -1.
        -11    1    4    4    0    0  0.80830014229E-02  0.33228767001E-03 -0.19022758066E-01  0.20677808698E-01  0.51100000000E-03 0.  1.
         11    1    4    4    0    0  0.25150583254E-01  0.98382606569E-01 -0.61358967922E-01  0.11864599942E+00  0.51100000000E-03 0. -1.
</event>
<event>
 8    1  0.2927513E+004  0.1043930E+01  0.7957747E-01            NaN
         13   -1    0    0    0    0  0.00000000000E+00  0.00000000000E+00  0.74505805969E-08  0.10566000000E+00  0.10566000000E+00 0. -1.
     999900   -1    0    0    0    0 -0.00000000000E+00 -0.00000000000E+00 -0.74505805969E-08  0.93827000000E+00  0.93827000000E+00 0.  1.
     999902    2    1    2    0    0 -0.67925526980E-02  0.11071027992E-01 -0.59347517938E-02  0.10296496740E+01  0.10295506415E+01 0.  0.
     999903    2    3    3    0    0 -0.90627717282E-01  0.97952353479E-01 -0.15213536871E-01  0.14135760747E+00  0.44073515783E-01 0.  0.
         14    1    1    2    0    0  0.67925526980E-02 -0.11071027992E-01  0.59347517938E-02  0.14280326040E-01  0.00000000000E+00 0. -1.
     999901    1    3    3    0    0  0.83835164584E-01 -0.86881325487E-01  0.92787850768E-02  0.88829206649E+00  0.88000000000E+00 0. -1.
        -11    1    4    4    0    0 -0.61051891494E-01  0.36043887366E-01  0.78837935891E-03  0.70904005066E-01  0.51100000000E-03 0.  1.
         11    1    4    4    0    0 -0.29575825788E-01  0.61908466113E-01 -0.16001916229E-01  0.70453602403E-01  0.51100000000E-03 0. -1.
</event>
<event>
 8    1  0.2927513E+004  0.1043930E+01  0.7957747E-01            NaN
         13   -1    0    0    0    0  0.00000000000E+00  0.00000000000E+00  0.74505805969E-08  0.10566000000E+00  0.10566000000E+00 0. -1.
     999900   -1    0    0    0    0 -0.00000000000E+00 -0.00000000000E+00 -0.74505805969E-08  0.93827000000E+00  0.93827000000E+00 0.  1.
     999902    2    1    2    0    0  0.12675485501E-01 -0.56805385114E-02 -0.38359333481E-03  0.10300345477E+01  0.10299408167E+01 0.  0.
     999903    2    3    3    0    0  0.47782600928E-01  0.74283521530E-01  0.99122421173E-01  0.14013106566E+00  0.44835729727E-01 0.  0.
         14    1    1    2    0    0 -0.12675485501E-01  0.56805385114E-02  0.38359333481E-03  0.13895452288E-01  0.00000000000E+00 0. -1.
     999901    1    3    3    0    0 -0.35107115428E-01 -0.79964060042E-01 -0.99506014508E-01  0.88990348206E+00  0.88000000000E+00 0.  1.
        -11    1    4    4    0    0  0.85626286630E-02  0.44287103589E-01  0.26520284872E-01  0.52328317235E-01  0.51100000000E-03 0. -1.
         11    1    4    4    0    0  0.39219972265E-01  0.29996417941E-01  0.72602136301E-01  0.87802748421E-01  0.51100000000E-03 0.  1.
</event>
<event>
 8    1  0.2927513E+004  0.1043930E+01  0.7957747E-01            NaN
         13   -1    0    0    0    0  0.00000000000E+00  0.00000000000E+00  0.74505805969E-08  0.10566000000E+00  0.10566000000E+00 0. -1.
     999900   -1    0    0    0    0 -0.00000000000E+00 -0.00000000000E+00 -0.74505805969E-08  0.93827000000E+00  0.93827000000E+00 0. -1.
     999902    2    1    2    0    0 -0.14721564547E-01  0.86822330538E-02  0.60687391243E-02  0.10257934284E+01  0.10256330838E+01 0.  0.
     999903    2    3    3    0    0 -0.24809848302E-01  0.12626048697E+00 -0.18118340542E-01  0.13758656397E+00  0.45216691368E-01 0.  0.
         14    1    1    2    0    0  0.14721564547E-01 -0.86822330538E-02 -0.60687391243E-02  0.18136571563E-01  0.00000000000E+00 0. -1.
     999901    1    3    3    0    0  0.10088283756E-01 -0.11757825392E+00  0.24187079666E-01  0.88820686447E+00  0.88000000000E+00 0.  1.
        -11    1    4    4    0    0 -0.31807086156E-01  0.47035247423E-01 -0.53685465272E-02  0.57035845244E-01  0.51100000000E-03 0.  1.
         11    1    4    4    0    0  0.69972378530E-02  0.79225239547E-01 -0.12749794015E-01  0.80550718726E-01  0.51100000000E-03 0. -1.
</event>
<event>
 8    1  0.2927513E+004  0.1043930E+01  0.7957747E-01            NaN
         13   -1    0    0    0    0  0.00000000000E+00  0.00000000000E+00  0.74505805969E-08  0.10566000000E+00  0.10566000000E+00 0.  1.
     999900   -1    0    0    0    0 -0.00000000000E+00 -0.00000000000E+00 -0.74505805969E-08  0.93827000000E+00  0.93827000000E+00 0. -1.
     999902    2    1    2    0    0  0.12865413793E-01  0.72787171982E-02 -0.41762984120E-02  0.10285696594E+01  0.10284549597E+01 0.  0.
     999903    2    3    3    0    0  0.67357322175E-01  0.11381856643E+00  0.14639531004E-01  0.14027120558E+00  0.44384911093E-01 0.  0.
         14    1    1    2    0    0 -0.12865413793E-01 -0.72787171982E-02  0.41762984120E-02  0.15360340639E-01  0.00000000000E+00 0.  1.
     999901    1    3    3    0    0 -0.54491908383E-01 -0.10653984923E+00 -0.18815829416E-01  0.88829845378E+00  0.88000000000E+00 0.  1.
        -11    1    4    4    0    0  0.34858085807E-01  0.34171661618E-01  0.22766657696E-01  0.53864370668E-01  0.51100000000E-03 0.  1.
         11    1    4    4    0    0  0.32499236369E-01  0.79646904809E-01 -0.81271266919E-02  0.86406834912E-01  0.51100000000E-03 0. -1.
</event>
<event>
 8    1  0.2927513E+004  0.1043930E+01  0.7957747E-01            NaN
         13   -1    0    0    0    0  0.00000000000E+00  0.00000000000E+00  0.74505805969E-08  0.10566000000E+00  0.10566000000E+00 0. -1.
     999900   -1    0    0    0    0 -0.00000000000E+00 -0.00000000000E+00 -0.74505805969E-08  0.93827000000E+00  0.93827000000E+00 0. -1.
     999902    2    1    2    0    0  0.74146067354E-02  0.10825453488E-01 -0.57002758882E-02  0.10296240578E+01  0.10295246672E+01 0.  0.
     999903    2    3    3    0    0  0.91610625328E-02 -0.13079275505E+00 -0.39180609478E-02  0.13829811106E+00  0.43821758055E-01 0.  0.
         14    1    1    2    0    0 -0.74146067354E-02 -0.10825453488E-01  0.57002758882E-02  0.14305942173E-01  0.00000000000E+00 0. -1.
     999901    1    3    3    0    0 -0.17464557974E-02  0.14161820854E+00 -0.17822149404E-02  0.89132594677E+00  0.88000000000E+00 0.  1.
        -11    1    4    4    0    0  0.16420690449E-01 -0.26523795299E-01 -0.12081781711E-01  0.33457157115E-01  0.51100000000E-03 0.  1.
         11    1    4    4    0    0 -0.72596279165E-02 -0.10426895975E+00  0.81637207631E-02  0.10484095394E+00  0.51100000000E-03 0. -1.
</event>
<event>
 8    1  0.2927513E+004  0.1043930E+01  0.7957747E-01            NaN
         13   -1    0    0    0    0  0.00000000000E+00  0.00000000000E+00  0.74505805969E-08  0.10566000000E+00  0.10566000000E+00 0.  1.
     999900   -1    0    0    0    0 -0.00000000000E+00 -0.00000000000E+00 -0.74505805969E-08  0.93827000000E+00  0.93827000000E+00 0. -1.
     999902    2    1    2    0    0  0.21672749089E-02 -0.10154302705E-01  0.87033006692E-02  0.10303817755E+01  0.10302927006E+01 0.  0.
     999903    2    3    3    0    0 -0.13778659622E-01  0.10415724699E+00  0.79090246830E-01  0.14005839303E+00  0.48192351617E-01 0.  0.
         14    1    1    2    0    0 -0.21672749089E-02  0.10154302705E-01 -0.87033006692E-02  0.13548224477E-01  0.00000000000E+00 0. -1.
     999901    1    3    3    0    0  0.15945934531E-01 -0.11431154969E+00 -0.70386946161E-01  0.89032338249E+00  0.88000000000E+00 0. -1.
        -11    1    4    4    0    0 -0.29503695219E-01  0.47647498392E-01  0.47310940674E-01  0.73343972915E-01  0.51100000000E-03 0. -1.
         11    1    4    4    0    0  0.15725035597E-01  0.56509748594E-01  0.31779306156E-01  0.66714420116E-01  0.51100000000E-03 0.  1.
</event>
<event>
 8    1  0.2927513E+004  0.1043930E+01  0.7957747E-01            NaN
         13   -1    0    0    0    0  0.00000000000E+00  0.00000000000E+00  0.74505805969E-08  0.10566000000E+00  0.10566000000E+00 0. -1.
     999900   -1    0    0    0    0 -0.00000000000E+00 -0.00000000000E+00 -0.74505805969E-08  0.93827000000E+00  0.93827000000E+00 0. -1.
     999902    2    1    2    0    0  0.27519299907E-02 -0.14854392268E-01 -0.49706565803E-02  0.10280261164E+01  0.10279030900E+01 0.  0.
     999903    2    3    3    0    0  0.87386691594E-01 -0.10079410730E-02  0.97075073546E-01  0.13798785980E+00  0.44493030193E-01 0.  0.
         14    1    1    2    0    0 -0.27519299907E-02  0.14854392268E-01  0.49706565803E-02  0.15903883650E-01  0.00000000000E+00 0. -1.
     999901    1    3    3    0    0 -0.84634761603E-01 -0.13846451195E-01 -0.10204573013E+00  0.89003825655E+00  0.88000000000E+00 0. -1.
        -11    1    4    4    0    0  0.93410313750E-02  0.95893322798E-02  0.35713006393E-01  0.38143021739E-01  0.51100000000E-03 0.  1.
         11    1    4    4    0    0  0.78045660219E-01 -0.10597273353E-01  0.61362067153E-01  0.99844838063E-01  0.51100000000E-03 0. -1.
</event>
<event>
 8    1  0.2927513E+004  0.1043930E+01  0.7957747E-01            NaN
         13   -1    0    0    0    0  0.00000000000E+00  0.00000000000E+00  0.74505805969E-08  0.10566000000E+00  0.10566000000E+00 0.  1.
     999900   -1    0    0    0    0 -0.00000000000E+00 -0.00000000000E+00 -0.74505805969E-08  0.93827000000E+00  0.93827000000E+00 0. -1.
     999902    2    1    2    0    0  0.15733494871E-02 -0.74449005582E-02 -0.12687353968E-01  0.10291357131E+01  0.10290293704E+01 0.  0.
     999903    2    3    3    0    0  0.40023775761E-01 -0.11342785385E+00  0.54137071891E-01  0.13942996091E+00  0.45189719952E-01 0.  0.
         14    1    1    2    0    0 -0.15733494871E-02  0.74449005582E-02  0.12687353968E-01  0.14794286858E-01  0.00000000000E+00 0.  1.
     999901    1    3    3    0    0 -0.38450426274E-01  0.10598295330E+00 -0.66824425859E-01  0.88970575224E+00  0.88000000000E+00 0. -1.
        -11    1    4    4    0    0  0.87742552316E-02 -0.53316260604E-01  0.46427487702E-01  0.71241728888E-01  0.51100000000E-03 0. -1.
         11    1    4    4    0    0  0.31249520529E-01 -0.60111593250E-01  0.77095841888E-02  0.68188232018E-01  0.51100000000E-03 0.  1.
</event>
<event>
 8    1  0.2927513E+004  0.1043930E+01  0.7957747E-01            NaN
         13   -1    0    0    0    0  0.00000000000E+00  0.00000000000E+00  0.74505805969E-08  0.10566000000E+00  0.10566000000E+00 0.  1.
     999900   -1    0    0    0    0 -0.00000000000E+00 -0.00000000000E+00 -0.74505805969E-08  0.93827000000E+00  0.93827000000E+00 0. -1.
     999902    2    1    2    0    0  0.59473642455E-02  0.85738733004E-02 -0.34386439746E-02  0.10329433391E+01  0.10328849089E+01 0.  0.
     999903    2    3    3    0    0  0.82748920205E-01 -0.20469611154E-01 -0.10586709499E+00  0.14320540548E+00  0.45094983993E-01 0.  0.
         14    1    1    2    0    0 -0.59473642455E-02 -0.85738733004E-02  0.34386439746E-02  0.10986660877E-01  0.00000000000E+00 0.  1.
     999901    1    3    3    0    0 -0.76801555959E-01  0.29043484454E-01  0.10242845101E+00  0.88973793364E+00  0.88000000000E+00 0.  1.
        -11    1    4    4    0    0  0.31842806714E-01 -0.19597168686E-01 -0.17651386176E-01  0.41350283130E-01  0.51100000000E-03 0.  1.
         11    1    4    4    0    0  0.50906113490E-01 -0.87244246743E-03 -0.88215708813E-01  0.10185512235E+00  0.51100000000E-03 0. -1.
</event>
<event>
 8    1  0.2927513E+004  0.1043930E+01  0.7957747E-01            NaN
         13   -1    0    0    0    0  0.00000000000E+00  0.00000000000E+00  0.74505805969E-08  0.10566000000E+00  0.10566000000E+00 0. -1.
     999900   -1    0    0    0    0 -0.00000000000E+00 -0.00000000000E+00 -0.74505805969E-08  0.93827000000E+00  0.93827000000E+00 0. -1.
     999902    2    1    2    0    0 -0.14784069379E-01 -0.65727683473E-03 -0.22567259877E-02  0.10289602461E+01  0.10288513471E+01 0.  0.
     999903    2    3    3    0    0 -0.47785662695E-01  0.10127225304E+00 -0.68647861864E-01  0.13997964047E+00  0.48396611581E-01 0.  0.
         14    1    1    2    0    0  0.14784069379E-01  0.65727683473E-03  0.22567259877E-02  0.14969753920E-01  0.00000000000E+00 0. -1.
     999901    1    3    3    0    0  0.33001593316E-01 -0.10192952988E+00  0.66391135877E-01  0.88898060561E+00  0.88000000000E+00 0.  1.
        -11    1    4    4    0    0 -0.26891545781E-01  0.90274752317E-01 -0.68313458219E-01  0.11636011273E+00  0.51100000000E-03 0. -1.
         11    1    4    4    0    0 -0.20894116914E-01  0.10997500728E-01 -0.33440364574E-03  0.23619527740E-01  0.51100000000E-03 0.  1.
</event>
<event>
 8    1  0.2927513E+004  0.1043930E+01  0.7957747E-01            NaN
         13   -1    0    0    0    0  0.00000000000E+00  0.00000000000E+00  0.74505805969E-08  0.10566000000E+00  0.10566000000E+00 0.  1.
     999900   -1    0    0    0    0 -0.00000000000E+00 -0.00000000000E+00 -0.74505805969E-08  0.93827000000E+00  0.93827000000E+00 0.  1.
     999902    2    1    2    0    0 -0.12277453289E-01  0.61976597830E-02  0.31973598648E-02  0.10298101574E+01  0.10297133534E+01 0.  0.
     999903    2    3    3    0    0  0.16212213271E-01  0.12949280707E+00 -0.25092406598E-01  0.14030823756E+00  0.45006107545E-01 0.  0.
         14    1    1    2    0    0  0.12277453289E-01 -0.61976597830E-02 -0.31973598648E-02  0.14119842639E-01  0.00000000000E+00 0. -1.
     999901    1    3    3    0    0 -0.28489666560E-01 -0.12329514729E+00  0.28289766463E-01  0.88950191980E+00  0.88000000000E+00 0.  1.
        -11    1    4    4    0    0 -0.91271025140E-02  0.84397796385E-01 -0.25291085669E-01  0.88578734300E-01  0.51100000000E-03 0.  1.
         11    1    4    4    0    0  0.25339315785E-01  0.45095010683E-01  0.19867907044E-03  0.51729503258E-01  0.51100000000E-03 0. -1.
</event>
<event>
 8    1  0.2927513E+004  0.1043930E+01  0.7957747E-01            NaN
         13   -1    0    0    0    0  0.00000000000E+00  0.00000000000E+00  0.74505805969E-08  0.10566000000E+00  0.10566000000E+00 0. -1.
     999900   -1    0    0    0    0 -0.00000000000E+00 -0.00000000000E+00 -0.74505805969E-08  0.93827000000E+00  0.93827000000E+00 0.  1.
     999902    2    1    2    0    0  0.57645463097E-02  0.10454318021E-01  0.56374635329E-02  0.10307275853E+01  0.10306430281E+01 0.  0.
     999903    2    3    3    0    0  0.43601969156E-01 -0.12463644104E+00  0.66136405153E-02  0.13961472112E+00  0.44868206585E-01 0.  0.
         14    1    1    2    0    0 -0.57645463097E-02 -0.10454318021E-01 -0.56374635329E-02  0.13202414723E-01  0.00000000000E+00 0.  1.
     999901    1    3    3    0    0 -0.37837422846E-01  0.13509075906E+00 -0.97617698243E-03  0.89111286416E+00  0.88000000000E+00 0.  1.
        -11    1    4    4    0    0  0.26853340744E-01 -0.24667528765E-01 -0.76258489831E-02  0.37255920042E-01  0.51100000000E-03 0. -1.
         11    1    4    4    0    0  0.16748628412E-01 -0.99968912274E-01  0.14239489498E-01  0.10235880107E+00  0.51100000000E-03 0.  1.
</event>
<event>
 8    1  0.2927513E+004  0.1043930E+01  0.7957747E-01            NaN
         13   -1    0    0    0    0  0.00000000000E+00  0.00000000000E+00  0.74505805969E-08  0.10566000000E+00  0.10566000000E+00 0.  1.
     999900   -1    0    0    0    0 -0.00000000000E+00 -0.00000000000E+00 -0.74505805969E-08  0.93827000000E+00  0.93827000000E+00 0.  1.
     999902    2    1    2    0    0  0.15250592357E-02 -0.71792776322E-02  0.18561283386E-01  0.10239703138E+01  0.10237757637E+01 0.  0.
     999903    2    3    3    0    0  0.77972038020E-01  0.99326215827E-01 -0.12520358355E-01  0.13371550242E+00  0.42163258298E-01 0.  0.
         14    1    1    2    0    0 -0.15250592357E-02  0.71792776322E-02 -0.18561283386E-01  0.19959686218E-01  0.00000000000E+00 0. -1.
     999901    1    3    3    0    0 -0.76446978784E-01 -0.10650549346E+00  0.31081641741E-01  0.89025481136E+00  0.88000000000E+00 0.  1.
        -11    1    4    4    0    0  0.12090125503E-01  0.44239160488E-01  0.47737803324E-02  0.46112086865E-01  0.51100000000E-03 0. -1.
         11    1    4    4    0    0  0.65881912517E-01  0.55087055339E-01 -0.17294138688E-01  0.87603415554E-01  0.51100000000E-03 0.  1.
</event>
<event>
 8    1  0.2927513E+004  0.1043930E+01  0.7957747E-01            NaN
         13   -1    0    0    0    0  0.00000000000E+00  0.00000000000E+00  0.74505805969E-08  0.10566000000E+00  0.10566000000E+00 0.  1.
     999900   -1    0    0    0    0 -0.00000000000E+00 -0.00000000000E+00 -0.74505805969E-08  0.93827000000E+00  0.93827000000E+00 0. -1.
     999902    2    1    2    0    0 -0.26827474093E-02 -0.98525025162E-02  0.10608340870E-01  0.10292056720E+01  0.10291003398E+01 0.  0.
     999903    2    3    3    0    0  0.65051166652E-01  0.85343343593E-01  0.76088163650E-01  0.13907212053E+00  0.45127657629E-01 0.  0.
         14    1    1    2    0    0  0.26827474093E-02  0.98525025162E-02 -0.10608340870E-01  0.14724328015E-01  0.00000000000E+00 0. -1.
     999901    1    3    3    0    0 -0.67733914061E-01 -0.95195846109E-01 -0.65479822780E-01  0.89013355145E+00  0.88000000000E+00 0. -1.
        -11    1    4    4    0    0  0.32221803162E-01  0.56460605839E-01  0.68948513376E-01  0.94763934218E-01  0.51100000000E-03 0. -1.
         11    1    4    4    0    0  0.32829363491E-01  0.28882737754E-01  0.71396502737E-02  0.44308186314E-01  0.51100000000E-03 0.  1.
</event>
<event>
 8    1  0.2927513E+004  0.1043930E+01  0.7957747E-01            NaN
         13   -1    0    0    0    0  0.00000000000E+00  0.00000000000E+00  0.74505805969E-08  0.10566000000E+00  0.10566000000E+00 0. -1.
     999900   -1    0    0    0    0 -0.00000000000E+00 -0.00000000000E+00 -0.74505805969E-08  0.93827000000E+00  0.93827000000E+00 0. -1.
     999902    2    1    2    0    0  0.10022482739E-01  0.73447778367E-02 -0.65554842641E-02  0.10298811461E+01  0.10297853198E+01 0.  0.
     999903    2    3    3    0    0 -0.68040482684E-01  0.11398049889E+00 -0.24272216063E-02  0.14000360053E+00  0.44430342621E-01 0.  0.
         14    1    1    2    0    0 -0.10022482739E-01 -0.73447778367E-02  0.65554842641E-02  0.14048853891E-01  0.00000000000E+00 0. -1.
     999901    1    3    3    0    0  0.78062965422E-01 -0.10663572105E+00 -0.41282626578E-02  0.88987754558E+00  0.88000000000E+00 0. -1.
        -11    1    4    4    0    0 -0.32463408492E-01  0.51266608553E-01  0.20961111299E-01  0.64200991826E-01  0.51100000000E-03 0.  1.
         11    1    4    4    0    0 -0.35577074191E-01  0.62713890336E-01 -0.23388332906E-01  0.75802608703E-01  0.51100000000E-03 0. -1.
</event>
<event>
 8    1  0.2927513E+004  0.1043930E+01  0.7957747E-01            NaN
         13   -1    0    0    0    0  0.00000000000E+00  0.00000000000E+00  0.74505805969E-08  0.10566000000E+00  0.10566000000E+00 0. -1.
     999900   -1    0    0    0    0 -0.00000000000E+00 -0.00000000000E+00 -0.74505805969E-08  0.93827000000E+00  0.93827000000E+00 0. -1.
     999902    2    1    2    0    0  0.26640675141E-02  0.11992675180E-01 -0.59442507007E-02  0.10302824497E+01  0.10301920551E+01 0.  0.
     999903    2    3    3    0    0 -0.13190738236E+00  0.10647649286E-01  0.83257959888E-02  0.13993705689E+00  0.44722824758E-01 0.  0.
         14    1    1    2    0    0 -0.26640675141E-02 -0.11992675180E-01  0.59442507007E-02  0.13647550333E-01  0.00000000000E+00 0.  1.
     999901    1    3    3    0    0  0.13457144987E+00  0.13450258942E-02 -0.14270046689E-01  0.89034539278E+00  0.88000000000E+00 0. -1.
        -11    1    4    4    0    0 -0.12842691625E+00  0.28397749329E-03  0.10202632748E-01  0.12883286963E+00  0.51100000000E-03 0. -1.
         11    1    4    4    0    0 -0.34804661072E-02  0.10363671792E-01 -0.18768367596E-02  0.11104187254E-01  0.51100000000E-03 0.  1.
</event>
<event>
 8    1  0.2927513E+004  0.1043930E+01  0.7957747E-01            NaN
         13   -1    0    0    0    0  0.00000000000E+00  0.00000000000E+00  0.74505805969E-08  0.10566000000E+00  0.10566000000E+00 0.  1.
     999900   -1    0    0    0    0 -0.00000000000E+00 -0.00000000000E+00 -0.74505805969E-08  0.93827000000E+00  0.93827000000E+00 0.  1.
     999902    2    1    2    0    0 -0.79987315190E-02 -0.15301514577E-01 -0.25359421520E-02  0.10264787233E+01  0.10263303671E+01 0.  0.
     999903    2    3    3    0    0 -0.82248467746E-01  0.38003574997E-01 -0.93073522102E-01  0.13712417690E+00  0.43946299212E-01 0.  0.
         14    1    1    2    0    0  0.79987315190E-02  0.15301514577E-01  0.25359421520E-02  0.17451276654E-01  0.00000000000E+00 0. -1.
     999901    1    3    3    0    0  0.74249736227E-01 -0.53305089574E-01  0.90537579950E-01  0.88935454645E+00  0.88000000000E+00 0. -1.
        -11    1    4    4    0    0 -0.39811106052E-01  0.18431173972E-01 -0.75247439430E-01  0.87103792115E-01  0.51100000000E-03 0. -1.
         11    1    4    4    0    0 -0.42437361694E-01  0.19572401025E-01 -0.17826082672E-01  0.50020384783E-01  0.51100000000E-03 0.  1.
</event>
<event>
 8    1  0.2927513E+004  0.1043930E+01  0.7957747E-01            NaN
         13   -1    0    0    0    0  0.00000000000E+00  0.00000000000E+00  0.74505805969E-08  0.10566000000E+00  0.10566000000E+00 0.  1.
     999900   -1    0    0    0    0 -0.00000000000E+00 -0.00000000000E+00 -0.74505805969E-08  0.93827000000E+00  0.93827000000E+00 0. -1.
     999902    2    1    2    0    0  0.63421629140E-02 -0.11607343390E-01  0.20135591573E-02  0.10305506177E+01  0.10304637634E+01 0.  0.
     999903    2    3    3    0    0  0.15106163893E-01 -0.13348053070E+00 -0.93737051585E-02  0.14203525411E+00  0.45176307929E-01 0.  0.
         14    1    1    2    0    0 -0.63421629140E-02  0.11607343390E-01 -0.20135591573E-02  0.13379382328E-01  0.00000000000E+00 0. -1.
     999901    1    3    3    0    0 -0.87640009788E-02  0.12187318731E+00  0.11387264316E-01  0.88851536356E+00  0.88000000000E+00 0.  1.
        -11    1    4    4    0    0  0.10487890957E-02 -0.27150496941E-01 -0.20729574899E-01  0.34179318882E-01  0.51100000000E-03 0.  1.
         11    1    4    4    0    0  0.14057374797E-01 -0.10633003376E+00  0.11355869741E-01  0.10785593523E+00  0.51100000000E-03 0. -1.
</event>
<event>
 8    1  0.2927513E+004  0.1043930E+01  0.7957747E-01            NaN
         13   -1    0    0    0    0  0.00000000000E+00  0.00000000000E+00  0.74505805969E-08  0.10566000000E+00  0.10566000000E+00 0.  1.
     999900   -1    0    0    0    0 -0.00000000000E+00 -0.00000000000E+00 -0.74505805969E-08  0.93827000000E+00  0.93827000000E+00 0.  1.
     999902    2    1    2    0    0 -0.53120656634E-02 -0.11845959285E-01 -0.54278141899E-02  0.10298585409E+01  0.10297624039E+01 0.  0.
     999903    2    3    3    0    0  0.46247709962E-02 -0.64905257693E-02 -0.13332490779E+00  0.14054133773E+00  0.43735810739E-01 0.  0.
         14    1    1    2    0    0  0.53120656634E-02  0.11845959285E-01  0.54278141899E-02  0.14071459053E-01  0.00000000000E+00 0.  1.
     999901    1    3    3    0    0 -0.99368366597E-02 -0.53554335158E-02  0.12789709360E+00  0.88931720322E+00  0.88000000000E+00 0. -1.
        -11    1    4    4    0    0  0.18991168317E-01 -0.27060401682E-02 -0.26674706426E-01  0.32860131031E-01  0.51100000000E-03 0.  1.
         11    1    4    4    0    0 -0.14366397321E-01 -0.37844856010E-02 -0.10665020137E+00  0.10768120670E+00  0.51100000000E-03 0. -1.
</event>
<event>
 8    1  0.2927513E+004  0.1043930E+01  0.7957747E-01            NaN
         13   -1    0    0    0    0  0.00000000000E+00  0.00000000000E+00  0.74505805969E-08  0.10566000000E+00  0.10566000000E+00 0.  1.
     999900   -1    0    0    0    0 -0.00000000000E+00 -0.00000000000E+00 -0.74505805969E-08  0.93827000000E+00  0.93827000000E+00 0. -1.
     999902    2    1    2    0    0 -0.76731962721E-02  0.10705716051E-01  0.45124421388E-02  0.10300069101E+01  0.10299128034E+01 0.  0.
     999903    2    3    3    0    0  0.77099931863E-01  0.96612702646E-01  0.49724223078E-01  0.14061914390E+00  0.44975898712E-01 0.  0.
         14    1    1    2    0    0  0.76731962721E-02 -0.10705716051E-01 -0.45124421388E-02  0.13923089860E-01  0.00000000000E+00 0. -1.
     999901    1    3    3    0    0 -0.84773128135E-01 -0.85906986595E-01 -0.45211780939E-01  0.88938776624E+00  0.88000000000E+00 0.  1.
        -11    1    4    4    0    0  0.25798764867E-01  0.64029661998E-01  0.37728227265E-01  0.78670541741E-01  0.51100000000E-03 0. -1.
         11    1    4    4    0    0  0.51301166997E-01  0.32583040648E-01  0.11995995812E-01  0.61948602160E-01  0.51100000000E-03 0.  1.
</event>
<event>
 8    1  0.2927513E+004  0.1043930E+01  0.7957747E-01            NaN
         13   -1    0    0    0    0  0.00000000000E+00  0.00000000000E+00  0.74505805969E-08  0.10566000000E+00  0.10566000000E+00 0.  1.
     999900   -1    0    0    0    0 -0.00000000000E+00 -0.00000000000E+00 -0.74505805969E-08  0.93827000000E+00  0.93827000000E+00 0.  1.
     999902    2    1    2    0    0 -0.64611560855E-02  0.21705027535E-02 -0.11802527707E-01  0.10303007197E+01  0.10302105687E+01 0.  0.
     999903    2    3    3    0    0  0.24224895472E-01  0.63986379495E-01 -0.11547729930E+00  0.14153118007E+00  0.44888372167E-01 0.  0.
         14    1    1    2    0    0  0.64611560855E-02 -0.21705027535E-02  0.11802527707E-01  0.13629280261E-01  0.00000000000E+00 0.  1.
     999901    1    3    3    0    0 -0.30686051557E-01 -0.61815876742E-01  0.10367477160E+00  0.88876953967E+00  0.88000000000E+00 0. -1.
        -11    1    4    4    0    0  0.57205233055E-02  0.32442357360E-01 -0.92852332340E-01  0.98524350695E-01  0.51100000000E-03 0.  1.
         11    1    4    4    0    0  0.18504372166E-01  0.31544022135E-01 -0.22624966965E-01  0.43006829375E-01  0.51100000000E-03 0. -1.
</event>
<event>
 8    1  0.2927513E+004  0.1043930E+01  0.7957747E-01            NaN
         13   -1    0    0    0    0  0.00000000000E+00  0.00000000000E+00  0.74505805969E-08  0.10566000000E+00  0.10566000000E+00 0.  1.
     999900   -1    0    0    0    0 -0.00000000000E+00 -0.00000000000E+00 -0.74505805969E-08  0.93827000000E+00  0.93827000000E+00 0.  1.
     999902    2    1    2    0    0 -0.12335499326E-01 -0.54320436689E-02  0.18900004727E-02  0.10303195722E+01  0.10302296721E+01 0.  0.
     999903    2    3    3    0    0 -0.83939853280E-01 -0.10457722016E+00  0.12967737202E-01  0.14179288959E+00  0.44212751387E-01 0.  0.
         14    1    1    2    0    0  0.12335499326E-01  0.54320436689E-02 -0.18900004727E-02  0.13610427760E-01  0.00000000000E+00 0. -1.
     999901    1    3    3    0    0  0.71604353954E-01  0.99145176492E-01 -0.11077736729E-01  0.88852668265E+00  0.88000000000E+00 0. -1.
        -11    1    4    4    0    0 -0.53055143344E-01 -0.37762735358E-01 -0.70661234014E-02  0.65506210682E-01  0.51100000000E-03 0.  1.
         11    1    4    4    0    0 -0.30884709936E-01 -0.66814484804E-01  0.20033860603E-01  0.76286678910E-01  0.51100000000E-03 0. -1.
</event>
<event>
 8    1  0.2927513E+004  0.1043930E+01  0.7957747E-01            NaN
         13   -1    0    0    0    0  0.00000000000E+00  0.00000000000E+00  0.74505805969E-08  0.10566000000E+00  0.10566000000E+00 0. -1.
     999900   -1    0    0    0    0 -0.00000000000E+00 -0.00000000000E+00 -0.74505805969E-08  0.93827000000E+00  0.93827000000E+00 0. -1.
     999902    2    1    2    0    0  0.48552962069E-02 -0.52734904733E-02 -0.11728602794E-01  0.10301843197E+01  0.10300926118E+01 0.  0.
     999903    2    3    3    0    0  0.75468712247E-01 -0.28818961464E-01 -0.10734553892E+00  0.14188074424E+00  0.45618217752E-01 0.  0.
         14    1    1    2    0    0 -0.48552962069E-02  0.52734904733E-02  0.11728602794E-01  0.13745680286E-01  0.00000000000E+00 0. -1.
     999901    1    3    3    0    0 -0.70613416040E-01  0.23545470991E-01  0.95616936128E-01  0.88830357548E+00  0.88000000000E+00 0.  1.
        -11    1    4    4    0    0  0.72641853454E-01 -0.38817739578E-01 -0.95833963425E-01  0.12636481095E+00  0.51100000000E-03 0.  1.
         11    1    4    4    0    0  0.28268587926E-02  0.99987781145E-02 -0.11511575497E-01  0.15515933289E-01  0.51100000000E-03 0. -1.
</event>
<event>
 8    1  0.2927513E+004  0.1043930E+01  0.7957747E-01            NaN
         13   -1    0    0    0    0  0.00000000000E+00  0.00000000000E+00  0.74505805969E-08  0.10566000000E+00  0.10566000000E+00 0.  1.
     999900   -1    0    0    0    0 -0.00000000000E+00 -0.00000000000E+00 -0.74505805969E-08  0.93827000000E+00  0.93827000000E+00 0. -1.
     999902    2    1    2    0    0  0.25736537264E-02  0.86967368093E-02  0.10410619592E-01  0.10301228307E+01  0.10300302949E+01 0.  0.
     999903    2    3    3    0    0 -0.77726652861E-02  0.12793315224E+00  0.35151935127E-01  0.14167671425E+00  0.49084896364E-01 0.  0.
         14    1    1    2    0    0 -0.25736537264E-02 -0.86967368093E-02 -0.10410619592E-01  0.13807169331E-01  0.00000000000E+00 0. -1.
     999901    1    3    3    0    0  0.10346319013E-01 -0.11923641543E+00 -0.24741315535E-01  0.88844611642E+00  0.88000000000E+00 0. -1.
        -11    1    4    4    0    0 -0.14829259678E-01  0.85599986891E-01  0.10908174084E-02  0.86883345365E-01  0.51100000000E-03 0. -1.
         11    1    4    4    0    0  0.70565943923E-02  0.42333165348E-01  0.34061117719E-01  0.54793368887E-01  0.51100000000E-03 0.  1.
</event>
<event>
 8    1  0.2927513E+004  0.1043930E+01  0.7957747E-01            NaN
         13   -1    0    0    0    0  0.00000000000E+00  0.00000000000E+00  0.74505805969E-08  0.10566000000E+00  0.10566000000E+00 0. -1.
     999900   -1    0    0    0    0 -0.00000000000E+00 -0.00000000000E+00 -0.74505805969E-08  0.93827000000E+00  0.93827000000E+00 0.  1.
     999902    2    1    2    0    0 -0.88375849069E-02 -0.45969968033E-02 -0.97304959806E-02  0.10300045615E+01  0.10299104227E+01 0.  0.
     999903    2    3    3    0    0  0.10051846579E+00 -0.85786227340E-01 -0.68878827642E-02  0.13952237891E+00  0.44224569208E-01 0.  0.
         14    1    1    2    0    0  0.88375849069E-02  0.45969968033E-02  0.97304959806E-02  0.13925438543E-01  0.00000000000E+00 0. -1.
     999901    1    3    3    0    0 -0.10935605070E+00  0.81189230537E-01 -0.28426132164E-02  0.89048218254E+00  0.88000000000E+00 0.  1.
        -11    1    4    4    0    0  0.19843540358E-01 -0.32907121468E-01  0.13861620372E-01  0.40854012992E-01  0.51100000000E-03 0. -1.
         11    1    4    4    0    0  0.80674925435E-01 -0.52879105873E-01 -0.20749503136E-01  0.98668365920E-01  0.51100000000E-03 0.  1.
</event>
<event>
 8    1  0.2927513E+004  0.1043930E+01  0.7957747E-01            NaN
         13   -1    0    0    0    0  0.00000000000E+00  0.00000000000E+00  0.74505805969E-08  0.10566000000E+00  0.10566000000E+00 0. -1.
     999900   -1    0    0    0    0 -0.00000000000E+00 -0.00000000000E+00 -0.74505805969E-08  0.93827000000E+00  0.93827000000E+00 0.  1.
     999902    2    1    2    0    0 -0.14687478597E-01 -0.14434500461E-01  0.11917864596E-01  0.10201368849E+01  0.10198593783E+01 0.  0.
     999903    2    3    3    0    0  0.44405900263E-01 -0.64155913173E-01 -0.94131600787E-01  0.13041179507E+00  0.45371939059E-01 0.  0.
         14    1    1    2    0    0  0.14687478597E-01  0.14434500461E-01 -0.11917864596E-01  0.23793115131E-01  0.00000000000E+00 0. -1.
     999901    1    3    3    0    0 -0.59093378859E-01  0.49721412711E-01  0.10604946538E+00  0.88972508980E+00  0.88000000000E+00 0. -1.
        -11    1    4    4    0    0  0.31599256467E-01 -0.99496915771E-02 -0.46655082574E-01  0.57222960626E-01  0.51100000000E-03 0. -1.
         11    1    4    4    0    0  0.12806643796E-01 -0.54206221596E-01 -0.47476518213E-01  0.73188834446E-01  0.51100000000E-03 0.  1.
</event>
<event>
 8    1  0.2927513E+004  0.1043930E+01  0.7957747E-01            NaN
         13   -1    0    0    0    0  0.00000000000E+00  0.00000000000E+00  0.74505805969E-08  0.10566000000E+00  0.10566000000E+00 0.  1.
     999900   -1    0    0    0    0 -0.00000000000E+00 -0.00000000000E+00 -0.74505805969E-08  0.93827000000E+00  0.93827000000E+00 0.  1.
     999902    2    1    2    0    0 -0.70036731484E-02 -0.11358698767E-01 -0.12072094829E-02  0.10305311631E+01  0.10304440544E+01 0.  0.
     999903    2    3    3    0    0 -0.12622145146E+00  0.41165544978E-01 -0.12121558641E-01  0.14087347733E+00  0.45518650353E-01 0.  0.
         14    1    1    2    0    0  0.70036731484E-02  0.11358698767E-01  0.12072094829E-02  0.13398836889E-01  0.00000000000E+00 0.  1.
     999901    1    3    3    0    0  0.11921777831E+00 -0.52524243745E-01  0.10914349158E-01  0.88965768578E+00  0.88000000000E+00 0.  1.
        -11    1    4    4    0    0 -0.29435016858E-01 -0.23903891369E-02 -0.17974249870E-01  0.34575554328E-01  0.51100000000E-03 0. -1.
         11    1    4    4    0    0 -0.96786434602E-01  0.43555934115E-01  0.58526912291E-02  0.10629792300E+00  0.51100000000E-03 0.  1.
</event>
<event>
 8    1  0.2927513E+004  0.1043930E+01  0.7957747E-01            NaN
         13   -1    0    0    0    0  0.00000000000E+00  0.00000000000E+00  0.74505805969E-08  0.10566000000E+00  0.10566000000E+00 0.  1.
     999900   -1    0    0    0    0 -0.00000000000E+00 -0.00000000000E+00 -0.74505805969E-08  0.93827000000E+00  0.93827000000E+00 0.  1.
     999902    2    1    2    0    0  0.10607534961E-01  0.30600306848E-02 -0.10452581372E-01  0.10287267095E+01  0.10286143605E+01 0.  0.
     999903    2    3    3    0    0 -0.30922538163E-01  0.84861614287E-01 -0.96294915084E-01  0.13980311752E+00  0.45983736827E-01 0.  0.
         14    1    1    2    0    0 -0.10607534961E-01 -0.30600306848E-02  0.10452581372E-01  0.15203290534E-01  0.00000000000E+00 0.  1.
     999901    1    3    3    0    0  0.41530073124E-01 -0.81801583602E-01  0.85842333712E-01  0.88892359194E+00  0.88000000000E+00 0. -1.
        -11    1    4    4    0    0 -0.42702973332E-01  0.65652883075E-01 -0.68773412300E-01  0.10422997816E+00  0.51100000000E-03 0.  1.
         11    1    4    4    0    0  0.11780435169E-01  0.19208731212E-01 -0.27521502784E-01  0.35573139361E-01  0.51100000000E-03 0. -1.
</event>
<event>
 8    1  0.2927513E+004  0.1043930E+01  0.7957747E-01            NaN
         13   -1    0    0    0    0  0.00000000000E+00  0.00000000000E+00  0.74505805969E-08  0.10566000000E+00  0.10566000000E+00 0.  1.
     999900   -1    0    0    0    0 -0.00000000000E+00 -0.00000000000E+00 -0.74505805969E-08  0.93827000000E+00  0.93827000000E+00 0. -1.
     999902    2    1    2    0    0  0.25333629085E-02 -0.82022100978E-02 -0.10593738028E-01  0.10302946979E+01  0.10302044666E+01 0.  0.
     999903    2    3    3    0    0  0.81149094253E-01 -0.64994694472E-02  0.10376646511E+00  0.13941783289E+00  0.45193298663E-01 0.  0.
         14    1    1    2    0    0 -0.25333629085E-02  0.82022100978E-02  0.10593738028E-01  0.13635302106E-01  0.00000000000E+00 0.  1.
     999901    1    3    3    0    0 -0.78615731344E-01 -0.17027406506E-02 -0.11436020314E+00  0.89087686501E+00  0.88000000000E+00 0. -1.
        -11    1    4    4    0    0  0.61533479565E-01  0.14529968028E-01  0.80879023205E-01  0.10266044318E+00  0.51100000000E-03 0.  1.
         11    1    4    4    0    0  0.19615614688E-01 -0.21029437475E-01  0.22887441908E-01  0.36757389709E-01  0.51100000000E-03 0. -1.
</event>
<event>
 8    1  0.2927513E+004  0.1043930E+01  0.7957747E-01            NaN
         13   -1    0    0    0    0  0.00000000000E+00  0.00000000000E+00  0.74505805969E-08  0.10566000000E+00  0.10566000000E+00 0.  1.
     999900   -1    0    0    0    0 -0.00000000000E+00 -0.00000000000E+00 -0.74505805969E-08  0.93827000000E+00  0.93827000000E+00 0. -1.
     999902    2    1    2    0    0  0.10140282593E-01  0.72114033402E-02  0.72565984087E-02  0.10295255601E+01  0.10294247864E+01 0.  0.
     999903    2    3    3    0    0 -0.46096230755E-01 -0.99202524291E-01 -0.70526763275E-01  0.13793332099E+00  0.45668078425E-01 0.  0.
         14    1    1    2    0    0 -0.10140282593E-01 -0.72114033402E-02 -0.72565984087E-02  0.14404439929E-01  0.00000000000E+00 0.  1.
     999901    1    3    3    0    0  0.56236513348E-01  0.10641392763E+00  0.77783361683E-01  0.89159223908E+00  0.88000000000E+00 0.  1.
        -11    1    4    4    0    0  0.75298462468E-03 -0.51536672140E-01 -0.34249662089E-01  0.61886153825E-01  0.51100000000E-03 0. -1.
         11    1    4    4    0    0 -0.46849215380E-01 -0.47665852151E-01 -0.36277101186E-01  0.76047167169E-01  0.51100000000E-03 0.  1.
</event>
<event>
 8    1  0.2927513E+004  0.1043930E+01  0.7957747E-01            NaN
         13   -1    0    0    0    0  0.00000000000E+00  0.00000000000E+00  0.74505805969E-08  0.10566000000E+00  0.10566000000E+00 0.  1.
     999900   -1    0    0    0    0 -0.00000000000E+00 -0.00000000000E+00 -0.74505805969E-08  0.93827000000E+00  0.93827000000E+00 0. -1.
     999902    2    1    2    0    0 -0.79425485590E-02  0.87972290459E-02  0.69555734475E-02  0.10301875359E+01  0.10300958712E+01 0.  0.
     999903    2    3    3    0    0 -0.93651924791E-01 -0.93828464457E-01  0.12342195304E-02  0.14006908088E+00  0.45203543689E-01 0.  0.
         14    1    1    2    0    0  0.79425485590E-02 -0.87972290459E-02 -0.69555734475E-02  0.13742464061E-01  0.00000000000E+00 0. -1.
     999901    1    3    3    0    0  0.85709376232E-01  0.10262569350E+00  0.57213539172E-02  0.89011845506E+00  0.88000000000E+00 0.  1.
        -11    1    4    4    0    0 -0.75498675853E-01 -0.72560921521E-01 -0.17830174007E-01  0.10622294297E+00  0.51100000000E-03 0. -1.
         11    1    4    4    0    0 -0.18153248938E-01 -0.21267542935E-01  0.19064393537E-01  0.33846137910E-01  0.51100000000E-03 0.  1.
</event>
<event>
 8    1  0.2927513E+004  0.1043930E+01  0.7957747E-01            NaN
         13   -1    0    0    0    0  0.00000000000E+00  0.00000000000E+00  0.74505805969E-08  0.10566000000E+00  0.10566000000E+00 0.  1.
     999900   -1    0    0    0    0 -0.00000000000E+00 -0.00000000000E+00 -0.74505805969E-08  0.93827000000E+00  0.93827000000E+00 0.  1.
     999902    2    1    2    0    0 -0.68910705156E-02  0.81362763472E-03  0.45068679477E-02  0.10356559018E+01  0.10356228494E+01 0.  0.
     999903    2    3    3    0    0  0.77968129544E-01 -0.10605187564E+00  0.38720041734E-01  0.14448147391E+00  0.45272785638E-01 0.  0.
         14    1    1    2    0    0  0.68910705156E-02 -0.81362763472E-03 -0.45068679477E-02  0.82740982274E-02  0.00000000000E+00 0.  1.
     999901    1    3    3    0    0 -0.84859200060E-01  0.10686550327E+00 -0.34213173787E-01  0.89117442787E+00  0.88000000000E+00 0. -1.
        -11    1    4    4    0    0  0.44624466319E-01 -0.51939779804E-01 -0.28405181209E-02  0.68537678576E-01  0.51100000000E-03 0. -1.
         11    1    4    4    0    0  0.33343663225E-01 -0.54112095832E-01  0.41560559855E-01  0.75943795330E-01  0.51100000000E-03 0.  1.
</event>
<event>
 8    1  0.2927513E+004  0.1043930E+01  0.7957747E-01            NaN
         13   -1    0    0    0    0  0.00000000000E+00  0.00000000000E+00  0.74505805969E-08  0.10566000000E+00  0.10566000000E+00 0. -1.
     999900   -1    0    0    0    0 -0.00000000000E+00 -0.00000000000E+00 -0.74505805969E-08  0.93827000000E+00  0.93827000000E+00 0. -1.
     999902    2    1    2    0    0  0.10734117655E-01  0.51349906011E-02  0.75357941530E-02  0.10298453415E+01  0.10297490228E+01 0.  0.
     999903    2    3    3    0    0  0.15134476314E-01 -0.41505182332E-01  0.12597680823E+00  0.14067553622E+00  0.44358964640E-01 0.  0.
         14    1    1    2    0    0 -0.10734117655E-01 -0.51349906011E-02 -0.75357941530E-02  0.14084658456E-01  0.00000000000E+00 0. -1.
     999901    1    3    3    0    0 -0.44003586596E-02  0.46640172933E-01 -0.11844101408E+00  0.88916980533E+00  0.88000000000E+00 0. -1.
        -11    1    4    4    0    0  0.13102850865E-01 -0.50794862731E-01  0.11295891251E+00  0.12454629588E+00  0.51100000000E-03 0. -1.
         11    1    4    4    0    0  0.20316254499E-02  0.92896803986E-02  0.13017895721E-01  0.16129240338E-01  0.51100000000E-03 0.  1.
</event>
<event>
 7    1  0.2927513E+004  0.1043930E+01  0.7957747E-01            NaN
         13   -1    0    0    0    0  0.00000000000E+00  0.00000000000E+00  0.74505805969E-08  0.10566000000E+00  0.10566000000E+00 0. -1.
     999900   -1    0    0    0    0 -0.00000000000E+00 -0.00000000000E+00 -0.74505805969E-08  0.93827000000E+00  0.93827000000E+00 0. -1.
     999903    2    1    2    0    0 -0.30503238037E-01 -0.10652805775E+00  0.39530557625E-01  0.12596148447E+00  0.44999510728E-01 0.  0.
         14    1    1    2    0    0 -0.20427366052E-01  0.19804768665E-01  0.11691277074E-01  0.30760235781E-01  0.00000000000E+00 0. -1.
     999901    1    1    2    0    0  0.50930604089E-01  0.86723289083E-01 -0.51221834700E-01  0.88720827975E+00  0.88000000000E+00 0. -1.
        -11    1    3    3    0    0 -0.74143320360E-02 -0.85566747192E-01  0.17177706180E-01  0.87589812508E-01  0.51100000000E-03 0.  1.
         11    1    3    3    0    0 -0.23088906001E-01 -0.20961310556E-01  0.22352851445E-01  0.38371671964E-01  0.51100000000E-03 0. -1.
</event>
<event>
 8    1  0.2927513E+004  0.1043930E+01  0.7957747E-01            NaN
         13   -1    0    0    0    0  0.00000000000E+00  0.00000000000E+00  0.74505805969E-08  0.10566000000E+00  0.10566000000E+00 0. -1.
     999900   -1    0    0    0    0 -0.00000000000E+00 -0.00000000000E+00 -0.74505805969E-08  0.93827000000E+00  0.93827000000E+00 0.  1.
     999902    2    1    2    0    0 -0.11257468045E-01  0.84291332217E-02 -0.75455651040E-03  0.10298463134E+01  0.10297500080E+01 0.  0.
     999903    2    3    3    0    0  0.10448772883E+00  0.58182763825E-01 -0.55204477400E-01  0.13920768393E+00  0.45036934386E-01 0.  0.
         14    1    1    2    0    0  0.11257468045E-01 -0.84291332217E-02  0.75455651040E-03  0.14083686633E-01  0.00000000000E+00 0. -1.
     999901    1    3    3    0    0 -0.11574519687E+00 -0.49753630604E-01  0.54449920890E-01  0.89063862944E+00  0.88000000000E+00 0. -1.
        -11    1    4    4    0    0  0.89164795722E-01  0.58635919675E-01 -0.60869043626E-01  0.12285696344E+00  0.51100000000E-03 0. -1.
         11    1    4    4    0    0  0.15322933104E-01 -0.45315584912E-03  0.56645662254E-02  0.16350720493E-01  0.51100000000E-03 0.  1.
</event>
<event>
 8    1  0.2927513E+004  0.1043930E+01  0.7957747E-01            NaN
         13   -1    0    0    0    0  0.00000000000E+00  0.00000000000E+00  0.74505805969E-08  0.10566000000E+00  0.10566000000E+00 0. -1.
     999900   -1    0    0    0    0 -0.00000000000E+00 -0.00000000000E+00 -0.74505805969E-08  0.93827000000E+00  0.93827000000E+00 0.  1.
     999902    2    1    2    0    0 -0.72428269975E-03 -0.12321335561E-01 -0.90638125720E-02  0.10286168490E+01  0.10285028583E+01 0.  0.
     999903    2    3    3    0    0 -0.27930487407E-01 -0.64473034757E-01  0.11171937527E+00  0.13842105268E+00  0.41740683708E-01 0.  0.
         14    1    1    2    0    0  0.72428269975E-03  0.12321335561E-01  0.90638125720E-02  0.15313151007E-01  0.00000000000E+00 0. -1.
     999901    1    3    3    0    0  0.27206204707E-01  0.52151699196E-01 -0.12078318785E+00  0.89019579631E+00  0.88000000000E+00 0.  1.
        -11    1    4    4    0    0 -0.37883320897E-01 -0.39555812907E-01  0.71448258269E-01  0.90027346221E-01  0.51100000000E-03 0. -1.
         11    1    4    4    0    0  0.99528334899E-02 -0.24917221850E-01  0.40271117005E-01  0.48393706461E-01  0.51100000000E-03 0.  1.
</event>
<event>
 8    1  0.2927513E+004  0.1043930E+01  0.7957747E-01            NaN
         13   -1    0    0    0    0  0.00000000000E+00  0.00000000000E+00  0.74505805969E-08  0.10566000000E+00  0.10566000000E+00 0. -1.
     999900   -1    0    0    0    0 -0.00000000000E+00 -0.00000000000E+00 -0.74505805969E-08  0.93827000000E+00  0.93827000000E+00 0. -1.
     999902    2    1    2    0    0  0.85780607737E-02  0.48330147005E-02 -0.89743524654E-02  0.10306078320E+01  0.10305217238E+01 0.  0.
     999903    2    3    3    0    0  0.42733084355E-03 -0.71755042490E-01  0.11346281962E+00  0.13879898141E+00  0.35247369696E-01 0.  0.
         14    1    1    2    0    0 -0.85780607737E-02 -0.48330147005E-02  0.89743524654E-02  0.13322167988E-01  0.00000000000E+00 0. -1.
     999901    1    3    3    0    0  0.81507299301E-02  0.76588057190E-01 -0.12243717208E+00  0.89180885060E+00  0.88000000000E+00 0. -1.
        -11    1    4    4    0    0  0.18669399289E-03 -0.26057435407E-01  0.73868571014E-01  0.78331677496E-01  0.51100000000E-03 0.  1.
         11    1    4    4    0    0  0.24063685066E-03 -0.45697607083E-01  0.39594248605E-01  0.60467303915E-01  0.51100000000E-03 0. -1.
</event>
<event>
 8    1  0.2927513E+004  0.1043930E+01  0.7957747E-01            NaN
         13   -1    0    0    0    0  0.00000000000E+00  0.00000000000E+00  0.74505805969E-08  0.10566000000E+00  0.10566000000E+00 0.  1.
     999900   -1    0    0    0    0 -0.00000000000E+00 -0.00000000000E+00 -0.74505805969E-08  0.93827000000E+00  0.93827000000E+00 0. -1.
     999902    2    1    2    0    0 -0.13264979010E-01  0.33560108240E-02 -0.37062916360E-03  0.10302420548E+01  0.10301511208E+01 0.  0.
     999903    2    3    3    0    0 -0.54151958520E-01 -0.11034301960E+00  0.52848384986E-01  0.14039292264E+00  0.42534742795E-01 0.  0.
         14    1    1    2    0    0  0.13264979010E-01 -0.33560108240E-02  0.37062916360E-03  0.13687945162E-01  0.00000000000E+00 0.  1.
     999901    1    3    3    0    0  0.40886979510E-01  0.11369903042E+00 -0.53219014149E-01  0.88984913220E+00  0.88000000000E+00 0.  1.
        -11    1    4    4    0    0 -0.25210334395E-01 -0.78326462768E-01  0.51772914142E-01  0.97217752956E-01  0.51100000000E-03 0. -1.
         11    1    4    4    0    0 -0.28941624125E-01 -0.32016556833E-01  0.10754708439E-02  0.43175169681E-01  0.51100000000E-03 0.  1.
</event>
<event>
 8    1  0.2927513E+004  0.1043930E+01  0.7957747E-01            NaN
         13   -1    0    0    0    0  0.00000000000E+00  0.00000000000E+00  0.74505805969E-08  0.10566000000E+00  0.10566000000E+00 0. -1.
     999900   -1    0    0    0    0 -0.00000000000E+00 -0.00000000000E+00 -0.74505805969E-08  0.93827000000E+00  0.93827000000E+00 0. -1.
     999902    2    1    2    0    0  0.80534033022E-02  0.25337915108E-02 -0.11437186643E-01  0.10297142819E+01  0.10296161496E+01 0.  0.
     999903    2    3    3    0    0  0.12153103302E+00  0.15153666881E-01 -0.54319359396E-01  0.14130260113E+00  0.44904417084E-01 0.  0.
         14    1    1    2    0    0 -0.80534033022E-02 -0.25337915108E-02  0.11437186643E-01  0.14215718148E-01  0.00000000000E+00 0. -1.
     999901    1    3    3    0    0 -0.11347762972E+00 -0.12619875370E-01  0.42882172753E-01  0.88841168072E+00  0.88000000000E+00 0.  1.
        -11    1    4    4    0    0  0.97682101440E-01  0.30192881276E-01 -0.42245343908E-01  0.11062700043E+00  0.51100000000E-03 0.  1.
         11    1    4    4    0    0  0.23848931582E-01 -0.15039214396E-01 -0.12074015489E-01  0.30675600699E-01  0.51100000000E-03 0. -1.
</event>
<event>
 8    1  0.2927513E+004  0.1043930E+01  0.7957747E-01            NaN
         13   -1    0    0    0    0  0.00000000000E+00  0.00000000000E+00  0.74505805969E-08  0.10566000000E+00  0.10566000000E+00 0. -1.
     999900   -1    0    0    0    0 -0.00000000000E+00 -0.00000000000E+00 -0.74505805969E-08  0.93827000000E+00  0.93827000000E+00 0. -1.
     999902    2    1    2    0    0  0.62283989942E-03 -0.28923083181E-02 -0.14548983338E-01  0.10290832396E+01  0.10289761357E+01 0.  0.
     999903    2    3    3    0    0 -0.31811419210E-01 -0.10174417655E+00  0.76753506401E-01  0.13826349488E+00  0.43149153160E-01 0.  0.
         14    1    1    2    0    0 -0.62283989942E-03  0.28923083181E-02  0.14548983338E-01  0.14846760358E-01  0.00000000000E+00 0. -1.
     999901    1    3    3    0    0  0.32434259110E-01  0.98851868234E-01 -0.91302489739E-01  0.89081974476E+00  0.88000000000E+00 0. -1.
        -11    1    4    4    0    0 -0.27033927492E-01 -0.10307238140E+00  0.79143268306E-01  0.13273532718E+00  0.51100000000E-03 0. -1.
         11    1    4    4    0    0 -0.47774917178E-02  0.13282048430E-02 -0.23897619052E-02  0.55281677057E-02  0.51100000000E-03 0.  1.
</event>
<event>
 8    1  0.2927513E+004  0.1043930E+01  0.7957747E-01            NaN
         13   -1    0    0    0    0  0.00000000000E+00  0.00000000000E+00  0.74505805969E-08  0.10566000000E+00  0.10566000000E+00 0. -1.
     999900   -1    0    0    0    0 -0.00000000000E+00 -0.00000000000E+00 -0.74505805969E-08  0.93827000000E+00  0.93827000000E+00 0. -1.
     999902    2    1    2    0    0 -0.29986643405E-03 -0.20096323582E-01  0.20758637354E-02  0.10237245217E+01  0.10235251023E+01 0.  0.
     999903    2    3    3    0    0  0.43017987959E-01 -0.60310475151E-01  0.10430324589E+00  0.13583711212E+00  0.45658002856E-01 0.  0.
         14    1    1    2    0    0  0.29986643405E-03  0.20096323582E-01 -0.20758637354E-02  0.20205478258E-01  0.00000000000E+00 0.  1.
     999901    1    3    3    0    0 -0.43317854393E-01  0.40214151569E-01 -0.10222738216E+00  0.88788740962E+00  0.88000000000E+00 0. -1.
        -11    1    4    4    0    0  0.16121333508E-01 -0.47719695223E-01  0.37720711069E-01  0.62929960041E-01  0.51100000000E-03 0.  1.
         11    1    4    4    0    0  0.26896654451E-01 -0.12590779928E-01  0.66582534826E-01  0.72907152082E-01  0.51100000000E-03 0. -1.
</event>
<event>
 8    1  0.2927513E+004  0.1043930E+01  0.7957747E-01            NaN
         13   -1    0    0    0    0  0.00000000000E+00  0.00000000000E+00  0.74505805969E-08  0.10566000000E+00  0.10566000000E+00 0. -1.
     999900   -1    0    0    0    0 -0.00000000000E+00 -0.00000000000E+00 -0.74505805969E-08  0.93827000000E+00  0.93827000000E+00 0. -1.
     999902    2    1    2    0    0  0.46454041722E-02  0.12769330669E-01 -0.74811799935E-02  0.10284185965E+01  0.10283016123E+01 0.  0.
     999903    2    3    3    0    0  0.41198924436E-01  0.12882337401E-01  0.12315162756E+00  0.13802480548E+00  0.44957953301E-01 0.  0.
         14    1    1    2    0    0 -0.46454041722E-02 -0.12769330669E-01  0.74811799935E-02  0.15511403539E-01  0.00000000000E+00 0. -1.
     999901    1    3    3    0    0 -0.36553520263E-01 -0.11300673228E-03 -0.13063280755E+00  0.89039379098E+00  0.88000000000E+00 0. -1.
        -11    1    4    4    0    0  0.18518470465E-02 -0.14254013286E-01  0.32582214297E-01  0.35615558984E-01  0.51100000000E-03 0. -1.
         11    1    4    4    0    0  0.39347077389E-01  0.27136350688E-01  0.90569413261E-01  0.10240924649E+00  0.51100000000E-03 0.  1.
</event>
<event>
 8    1  0.2927513E+004  0.1043930E+01  0.7957747E-01            NaN
         13   -1    0    0    0    0  0.00000000000E+00  0.00000000000E+00  0.74505805969E-08  0.10566000000E+00  0.10566000000E+00 0.  1.
     999900   -1    0    0    0    0 -0.00000000000E+00 -0.00000000000E+00 -0.74505805969E-08  0.93827000000E+00  0.93827000000E+00 0. -1.
     999902    2    1    2    0    0 -0.61399708030E-03  0.12665164115E-01  0.38261765841E-02  0.10306852651E+01  0.10306001614E+01 0.  0.
     999903    2    3    3    0    0  0.12979323597E+00 -0.26169974430E-01  0.11869383276E-01  0.14019163372E+00  0.44515842571E-01 0.  0.
         14    1    1    2    0    0  0.61399708030E-03 -0.12665164115E-01 -0.38261765841E-02  0.13244734868E-01  0.00000000000E+00 0. -1.
     999901    1    3    3    0    0 -0.13040723305E+00  0.38835138544E-01 -0.80432066918E-02  0.89049363142E+00  0.88000000000E+00 0.  1.
        -11    1    4    4    0    0  0.76426915250E-01 -0.10105739767E-01 -0.14644361779E-01  0.78472401542E-01  0.51100000000E-03 0. -1.
         11    1    4    4    0    0  0.53366320719E-01 -0.16064234662E-01  0.26513745055E-01  0.61719232174E-01  0.51100000000E-03 0.  1.
</event>
<event>
 8    1  0.2927513E+004  0.1043930E+01  0.7957747E-01            NaN
         13   -1    0    0    0    0  0.00000000000E+00  0.00000000000E+00  0.74505805969E-08  0.10566000000E+00  0.10566000000E+00 0.  1.
     999900   -1    0    0    0    0 -0.00000000000E+00 -0.00000000000E+00 -0.74505805969E-08  0.93827000000E+00  0.93827000000E+00 0. -1.
     999902    2    1    2    0    0 -0.11274443482E-01 -0.85466134105E-02 -0.12870762785E-02  0.10297238660E+01  0.10296258670E+01 0.  0.
     999903    2    3    3    0    0 -0.75936051116E-01 -0.48454220714E-01  0.98420816489E-01  0.14083950658E+00  0.45111130901E-01 0.  0.
         14    1    1    2    0    0  0.11274443482E-01  0.85466134105E-02  0.12870762785E-02  0.14206133955E-01  0.00000000000E+00 0.  1.
     999901    1    3    3    0    0  0.64661607634E-01  0.39907607303E-01 -0.99707892767E-01  0.88888435947E+00  0.88000000000E+00 0.  1.
        -11    1    4    4    0    0 -0.31244361600E-01 -0.23567146100E-01  0.12944344174E-01  0.41224236490E-01  0.51100000000E-03 0.  1.
         11    1    4    4    0    0 -0.44691689516E-01 -0.24887074613E-01  0.85476472314E-01  0.99615270089E-01  0.51100000000E-03 0. -1.
</event>
<event>
 8    1  0.2927513E+004  0.1043930E+01  0.7957747E-01            NaN
         13   -1    0    0    0    0  0.00000000000E+00  0.00000000000E+00  0.74505805969E-08  0.10566000000E+00  0.10566000000E+00 0.  1.
     999900   -1    0    0    0    0 -0.00000000000E+00 -0.00000000000E+00 -0.74505805969E-08  0.93827000000E+00  0.93827000000E+00 0. -1.
     999902    2    1    2    0    0 -0.21016806013E-02 -0.90293760547E-02  0.10418783455E-01  0.10299837553E+01  0.10298893331E+01 0.  0.
     999903    2    3    3    0    0  0.40310853811E-01  0.12382423482E+00 -0.11306259915E-01  0.13873694181E+00  0.46504853990E-01 0.  0.
         14    1    1    2    0    0  0.21016806013E-02  0.90293760547E-02 -0.10418783455E-01  0.13946244727E-01  0.00000000000E+00 0. -1.
     999901    1    3    3    0    0 -0.42412534412E-01 -0.13285361088E+00  0.21725043370E-01  0.89124681346E+00  0.88000000000E+00 0.  1.
        -11    1    4    4    0    0 -0.59996056794E-02  0.49095489177E-01 -0.11662918242E-01  0.50819751167E-01  0.51100000000E-03 0. -1.
         11    1    4    4    0    0  0.46310459490E-01  0.74728745648E-01  0.35665832710E-03  0.87917190643E-01  0.51100000000E-03 0.  1.
</event>
<event>
 8    1  0.2927513E+004  0.1043930E+01  0.7957747E-01            NaN
         13   -1    0    0    0    0  0.00000000000E+00  0.00000000000E+00  0.74505805969E-08  0.10566000000E+00  0.10566000000E+00 0.  1.
     999900   -1    0    0    0    0 -0.00000000000E+00 -0.00000000000E+00 -0.74505805969E-08  0.93827000000E+00  0.93827000000E+00 0.  1.
     999902    2    1    2    0    0  0.87477218538E-02 -0.89577810591E-02  0.63599162421E-02  0.10298867449E+01  0.10297909955E+01 0.  0.
     999903    2    3    3    0    0  0.50608310972E-02  0.99510693373E-01  0.86756532418E-01  0.13958195496E+00  0.45038162984E-01 0.  0.
         14    1    1    2    0    0 -0.87477218538E-02  0.89577810591E-02 -0.63599162421E-02  0.14043255098E-01  0.00000000000E+00 0.  1.
     999901    1    3    3    0    0  0.36868907566E-02 -0.10846847443E+00 -0.80396616176E-01  0.89030478995E+00  0.88000000000E+00 0.  1.
        -11    1    4    4    0    0 -0.16824485764E-01  0.55925473674E-01  0.33348209592E-01  0.67253893054E-01  0.51100000000E-03 0.  1.
         11    1    4    4    0    0  0.21885316861E-01  0.43585219699E-01  0.53408322827E-01  0.72328061902E-01  0.51100000000E-03 0. -1.
</event>
<event>
 8    1  0.2927513E+004  0.1043930E+01  0.7957747E-01            NaN
         13   -1    0    0    0    0  0.00000000000E+00  0.00000000000E+00  0.74505805969E-08  0.10566000000E+00  0.10566000000E+00 0.  1.
     999900   -1    0    0    0    0 -0.00000000000E+00 -0.00000000000E+00 -0.74505805969E-08  0.93827000000E+00  0.93827000000E+00 0. -1.
     999902    2    1    2    0    0  0.10908876830E-01 -0.83263340885E-02  0.38228091258E-03  0.10302012866E+01  0.10301098064E+01 0.  0.
     999903    2    3    3    0    0 -0.75409487598E-01  0.10332314271E+00 -0.28585908296E-01  0.13848629755E+00  0.44710600703E-01 0.  0.
         14    1    1    2    0    0 -0.10908876830E-01  0.83263340885E-02 -0.38228091258E-03  0.13728713404E-01  0.00000000000E+00 0. -1.
     999901    1    3    3    0    0  0.86318364428E-01 -0.11164947680E+00  0.28968189209E-01  0.89171498905E+00  0.88000000000E+00 0. -1.
        -11    1    4    4    0    0 -0.13183313912E-01  0.28521158604E-01 -0.26588229282E-01  0.41163713525E-01  0.51100000000E-03 0. -1.
         11    1    4    4    0    0 -0.62226173686E-01  0.74801984109E-01 -0.19976790142E-02  0.97322584022E-01  0.51100000000E-03 0.  1.
</event>
<event>
 8    1  0.2927513E+004  0.1043930E+01  0.7957747E-01            NaN
         13   -1    0    0    0    0  0.00000000000E+00  0.00000000000E+00  0.74505805969E-08  0.10566000000E+00  0.10566000000E+00 0. -1.
     999900   -1    0    0    0    0 -0.00000000000E+00 -0.00000000000E+00 -0.74505805969E-08  0.93827000000E+00  0.93827000000E+00 0. -1.
     999902    2    1    2    0    0 -0.70065430763E-03 -0.11052673809E-01  0.16149171603E-01  0.10243481651E+01  0.10241609810E+01 0.  0.
     999903    2    3    3    0    0  0.12464361917E+00  0.12401268007E-01 -0.17044868685E-01  0.13453744444E+00  0.46043166254E-01 0.  0.
         14    1    1    2    0    0  0.70065430763E-03  0.11052673809E-01 -0.16149171603E-01  0.19581834905E-01  0.00000000000E+00 0.  1.
     999901    1    3    3    0    0 -0.12534427348E+00 -0.23453941816E-01  0.33194040289E-01  0.88981072065E+00  0.88000000000E+00 0.  1.
        -11    1    4    4    0    0  0.68713373594E-01 -0.13519223131E-01 -0.19961104479E-01  0.72821726962E-01  0.51100000000E-03 0. -1.
         11    1    4    4    0    0  0.55930245580E-01  0.25920491138E-01  0.29162357932E-02  0.61715717477E-01  0.51100000000E-03 0.  1.
</event>
<event>
 8    1  0.2927513E+004  0.1043930E+01  0.7957747E-01            NaN
         13   -1    0    0    0    0  0.00000000000E+00  0.00000000000E+00  0.74505805969E-08  0.10566000000E+00  0.10566000000E+00 0. -1.
     999900   -1    0    0    0    0 -0.00000000000E+00 -0.00000000000E+00 -0.74505805969E-08  0.93827000000E+00  0.93827000000E+00 0.  1.
     999902    2    1    2    0    0 -0.92462965747E-02 -0.57158551739E-02 -0.74964044775E-02  0.10307254144E+01  0.10306408292E+01 0.  0.
     999903    2    3    3    0    0 -0.90244499171E-01 -0.80246639629E-01  0.58647533136E-01  0.14140513062E+00  0.44410415687E-01 0.  0.
         14    1    1    2    0    0  0.92462965747E-02  0.57158551739E-02  0.74964044775E-02  0.13204585598E-01  0.00000000000E+00 0. -1.
     999901    1    3    3    0    0  0.80998202597E-01  0.74530784455E-01 -0.66143937614E-01  0.88932028378E+00  0.88000000000E+00 0. -1.
        -11    1    4    4    0    0 -0.56860695752E-01 -0.21050859785E-01  0.30029483300E-01  0.67663198323E-01  0.51100000000E-03 0.  1.
         11    1    4    4    0    0 -0.33383803420E-01 -0.59195779844E-01  0.28618049837E-01  0.73741932301E-01  0.51100000000E-03 0. -1.
</event>
<event>
 8    1  0.2927513E+004  0.1043930E+01  0.7957747E-01            NaN
         13   -1    0    0    0    0  0.00000000000E+00  0.00000000000E+00  0.74505805969E-08  0.10566000000E+00  0.10566000000E+00 0. -1.
     999900   -1    0    0    0    0 -0.00000000000E+00 -0.00000000000E+00 -0.74505805969E-08  0.93827000000E+00  0.93827000000E+00 0. -1.
     999902    2    1    2    0    0 -0.18596146976E-02 -0.30558149280E-02  0.12325168364E-01  0.10310962185E+01  0.10310163461E+01 0.  0.
     999903    2    3    3    0    0 -0.51911298603E-01  0.11973447774E+00  0.26173053053E-01  0.14105442684E+00  0.46692553395E-01 0.  0.
         14    1    1    2    0    0  0.18596146976E-02  0.30558149280E-02 -0.12325168364E-01  0.12833781473E-01  0.00000000000E+00 0.  1.
     999901    1    3    3    0    0  0.50051683905E-01 -0.12279029267E+00 -0.13847884689E-01  0.89004179169E+00  0.88000000000E+00 0.  1.
        -11    1    4    4    0    0 -0.45358993274E-01  0.83209733332E-01 -0.14647661706E-02  0.94782406874E-01  0.51100000000E-03 0. -1.
         11    1    4    4    0    0 -0.65523053285E-02  0.36524744412E-01  0.27637819223E-01  0.46272019968E-01  0.51100000000E-03 0.  1.
</event>
<event>
 8    1  0.2927513E+004  0.1043930E+01  0.7957747E-01            NaN
         13   -1    0    0    0    0  0.00000000000E+00  0.00000000000E+00  0.74505805969E-08  0.10566000000E+00  0.10566000000E+00 0.  1.
     999900   -1    0    0    0    0 -0.00000000000E+00 -0.00000000000E+00 -0.74505805969E-08  0.93827000000E+00  0.93827000000E+00 0. -1.
     999902    2    1    2    0    0 -0.40854294487E-02 -0.26481382310E-02 -0.13114650167E-01  0.10299408106E+01  0.10298458021E+01 0.  0.
     999903    2    3    3    0    0 -0.10990803154E+00 -0.60872350587E-02  0.71913265923E-01  0.13952517903E+00  0.46678988228E-01 0.  0.
         14    1    1    2    0    0  0.40854294487E-02  0.26481382310E-02  0.13114650167E-01  0.13989189357E-01  0.00000000000E+00 0.  1.
     999901    1    3    3    0    0  0.10582260209E+00  0.34390968278E-02 -0.85027916090E-01  0.89041563161E+00  0.88000000000E+00 0.  1.
        -11    1    4    4    0    0 -0.60198455784E-01 -0.17283377886E-01  0.17618749099E-01  0.65063435743E-01  0.51100000000E-03 0. -1.
         11    1    4    4    0    0 -0.49709575752E-01  0.11196142828E-01  0.54294516825E-01  0.74461743291E-01  0.51100000000E-03 0.  1.
</event>
<event>
 7    1  0.2927513E+004  0.1043930E+01  0.7957747E-01            NaN
         13   -1    0    0    0    0  0.00000000000E+00  0.00000000000E+00  0.74505805969E-08  0.10566000000E+00  0.10566000000E+00 0. -1.
     999900   -1    0    0    0    0 -0.00000000000E+00 -0.00000000000E+00 -0.74505805969E-08  0.93827000000E+00  0.93827000000E+00 0.  1.
     999903    2    1    2    0    0 -0.17564156033E-01 -0.67221794216E-01  0.94270993950E-01  0.12747573794E+00  0.50356471969E-01 0.  0.
         14    1    1    2    0    0  0.28665171812E-01  0.66877173332E-02 -0.23500891746E-02  0.29528639611E-01  0.00000000000E+00 0.  1.
     999901    1    1    2    0    0 -0.11101015779E-01  0.60534076883E-01 -0.91920904775E-01  0.88692562245E+00  0.88000000000E+00 0.  1.
        -11    1    3    3    0    0  0.10865949250E-01 -0.44430007411E-01  0.33808417590E-01  0.56880265756E-01  0.51100000000E-03 0. -1.
         11    1    3    3    0    0 -0.28430105283E-01 -0.22791786806E-01  0.60462576360E-01  0.70595472187E-01  0.51100000000E-03 0.  1.
</event>
<event>
 8    1  0.2927513E+004  0.1043930E+01  0.7957747E-01            NaN
         13   -1    0    0    0    0  0.00000000000E+00  0.00000000000E+00  0.74505805969E-08  0.10566000000E+00  0.10566000000E+00 0.  1.
     999900   -1    0    0    0    0 -0.00000000000E+00 -0.00000000000E+00 -0.74505805969E-08  0.93827000000E+00  0.93827000000E+00 0. -1.
     999902    2    1    2    0    0  0.34818916307E-02  0.13961033795E-01 -0.15337883219E-02  0.10294598051E+01  0.10293581028E+01 0.  0.
     999903    2    3    3    0    0 -0.89052556213E-01  0.28594914541E-01  0.93592626711E-01  0.13938912850E+00  0.43837455021E-01 0.  0.
         14    1    1    2    0    0 -0.34818916307E-02 -0.13961033795E-01  0.15337883219E-02  0.14470194905E-01  0.00000000000E+00 0. -1.
     999901    1    3    3    0    0  0.92534447844E-01 -0.14633880746E-01 -0.95126415033E-01  0.89007067660E+00  0.88000000000E+00 0. -1.
        -11    1    4    4    0    0 -0.10327876422E-01  0.42958519467E-02  0.38943963327E-01  0.40521756822E-01  0.51100000000E-03 0.  1.
         11    1    4    4    0    0 -0.78724679791E-01  0.24299062594E-01  0.54648663384E-01  0.98867371675E-01  0.51100000000E-03 0. -1.
</event>
<event>
 8    1  0.2927513E+004  0.1043930E+01  0.7957747E-01            NaN
         13   -1    0    0    0    0  0.00000000000E+00  0.00000000000E+00  0.74505805969E-08  0.10566000000E+00  0.10566000000E+00 0.  1.
     999900   -1    0    0    0    0 -0.00000000000E+00 -0.00000000000E+00 -0.74505805969E-08  0.93827000000E+00  0.93827000000E+00 0.  1.
     999902    2    1    2    0    0 -0.43799750479E-02  0.60692715140E-02 -0.11065161770E-01  0.10305711811E+01  0.10304845953E+01 0.  0.
     999903    2    3    3    0    0 -0.30485204579E-01 -0.32303668923E-01 -0.12742406420E+00  0.14169922193E+00  0.43230806545E-01 0.  0.
         14    1    1    2    0    0  0.43799750479E-02 -0.60692715140E-02  0.11065161770E-01  0.13358818927E-01  0.00000000000E+00 0.  1.
     999901    1    3    3    0    0  0.26105229531E-01  0.38372940437E-01  0.11635890243E+00  0.88887195914E+00  0.88000000000E+00 0. -1.
        -11    1    4    4    0    0 -0.23020822663E-01 -0.19563063782E-02 -0.22634778133E-01  0.32347793014E-01  0.51100000000E-03 0. -1.
         11    1    4    4    0    0 -0.74643819158E-02 -0.30347362545E-01 -0.10478928607E+00  0.10935142892E+00  0.51100000000E-03 0.  1.
</event>
<event>
 8    1  0.2927513E+004  0.1043930E+01  0.7957747E-01            NaN
         13   -1    0    0    0    0  0.00000000000E+00  0.00000000000E+00  0.74505805969E-08  0.10566000000E+00  0.10566000000E+00 0. -1.
     999900   -1    0    0    0    0 -0.00000000000E+00 -0.00000000000E+00 -0.74505805969E-08  0.93827000000E+00  0.93827000000E+00 0.  1.
     999902    2    1    2    0    0  0.46493007088E-02 -0.12744888774E-01  0.96700516112E-02  0.10272699254E+01  0.10271348215E+01 0.  0.
     999903    2    3    3    0    0  0.10694080270E+00 -0.39058224442E-01  0.65658153538E-01  0.13918737826E+00  0.45828516908E-01 0.  0.
         14    1    1    2    0    0 -0.46493007088E-02  0.12744888774E-01 -0.96700516112E-02  0.16660074583E-01  0.00000000000E+00 0.  1.
     999901    1    3    3    0    0 -0.10229150199E+00  0.26313335668E-01 -0.55988101927E-01  0.88808254716E+00  0.88000000000E+00 0.  1.
        -11    1    4    4    0    0  0.15531131691E-01 -0.80333925939E-02  0.32875973397E-01  0.37240330234E-01  0.51100000000E-03 0. -1.
         11    1    4    4    0    0  0.91409671007E-01 -0.31024831848E-01  0.32782180141E-01  0.10194704802E+00  0.51100000000E-03 0.  1.
</event>
<event>
 8    1  0.2927513E+004  0.1043930E+01  0.7957747E-01            NaN
         13   -1    0    0    0    0  0.00000000000E+00  0.00000000000E+00  0.74505805969E-08  0.10566000000E+00  0.10566000000E+00 0.  1.
     999900   -1    0    0    0    0 -0.00000000000E+00 -0.00000000000E+00 -0.74505805969E-08  0.93827000000E+00  0.93827000000E+00 0.  1.
     999902    2    1    2    0    0 -0.10734418777E-01 -0.27799807715E-02 -0.96450937443E-02  0.10292336102E+01  0.10291286802E+01 0.  0.
     999903    2    3    3    0    0  0.90581137884E-01 -0.30924499275E-01  0.87582213652E-01  0.13765629710E+00  0.46014614935E-01 0.  0.
         14    1    1    2    0    0  0.10734418777E-01  0.27799807715E-02  0.96450937443E-02  0.14696389792E-01  0.00000000000E+00 0.  1.
     999901    1    3    3    0    0 -0.10131555666E+00  0.28144518504E-01 -0.97227307396E-01  0.89157731311E+00  0.88000000000E+00 0.  1.
        -11    1    4    4    0    0  0.88936576767E-01 -0.37014365583E-01  0.70313766888E-01  0.11926468413E+00  0.51100000000E-03 0. -1.
         11    1    4    4    0    0  0.16445611174E-02  0.60898663077E-02  0.17268446764E-01  0.18391612968E-01  0.51100000000E-03 0.  1.
</event>
<event>
 7    1  0.2927513E+004  0.1043930E+01  0.7957747E-01            NaN
         13   -1    0    0    0    0  0.00000000000E+00  0.00000000000E+00  0.74505805969E-08  0.10566000000E+00  0.10566000000E+00 0.  1.
     999900   -1    0    0    0    0 -0.00000000000E+00 -0.00000000000E+00 -0.74505805969E-08  0.93827000000E+00  0.93827000000E+00 0.  1.
     999903    2    1    2    0    0  0.66495861767E-01  0.16601844058E-02  0.36515391475E-01  0.87939626231E-01  0.44447139421E-01 0.  0.
         14    1    1    2    0    0 -0.61680669899E-01 -0.38195560759E-01  0.13522854734E-01  0.73798871950E-01  0.00000000000E+00 0.  1.
     999901    1    1    2    0    0 -0.48151918680E-02  0.36535376353E-01 -0.50038246208E-01  0.88219150182E+00  0.88000000000E+00 0.  1.
        -11    1    3    3    0    0  0.19501680540E-01 -0.87717665226E-02 -0.75432771648E-02  0.22680863811E-01  0.51100000000E-03 0.  1.
         11    1    3    3    0    0  0.46994181227E-01  0.10431950928E-01  0.44058668639E-01  0.65258762420E-01  0.51100000000E-03 0. -1.
</event>
<event>
 8    1  0.2927513E+004  0.1043930E+01  0.7957747E-01            NaN
         13   -1    0    0    0    0  0.00000000000E+00  0.00000000000E+00  0.74505805969E-08  0.10566000000E+00  0.10566000000E+00 0.  1.
     999900   -1    0    0    0    0 -0.00000000000E+00 -0.00000000000E+00 -0.74505805969E-08  0.93827000000E+00  0.93827000000E+00 0. -1.
     999902    2    1    2    0    0 -0.76996863945E-02 -0.11282120999E-01  0.20437591865E-02  0.10301188315E+01  0.10300262417E+01 0.  0.
     999903    2    3    3    0    0  0.75774748096E-01 -0.62376324137E-01  0.94423251585E-01  0.13988708106E+00  0.31937857555E-01 0.  0.
         14    1    1    2    0    0  0.76996863945E-02  0.11282120999E-01 -0.20437591865E-02  0.13811168539E-01  0.00000000000E+00 0. -1.
     999901    1    3    3    0    0 -0.83474434491E-01  0.51094203138E-01 -0.92379492399E-01  0.89023175040E+00  0.88000000000E+00 0. -1.
        -11    1    4    4    0    0  0.39444669487E-01 -0.30142572730E-01  0.69173038725E-01  0.85144741758E-01  0.51100000000E-03 0.  1.
         11    1    4    4    0    0  0.36330078609E-01 -0.32233751408E-01  0.25250212861E-01  0.54742339300E-01  0.51100000000E-03 0. -1.
</event>
<event>
 8    1  0.2927513E+004  0.1043930E+01  0.7957747E-01            NaN
         13   -1    0    0    0    0  0.00000000000E+00  0.00000000000E+00  0.74505805969E-08  0.10566000000E+00  0.10566000000E+00 0. -1.
     999900   -1    0    0    0    0 -0.00000000000E+00 -0.00000000000E+00 -0.74505805969E-08  0.93827000000E+00  0.93827000000E+00 0. -1.
     999902    2    1    2    0    0 -0.53927227844E-02 -0.11738486345E-01  0.53439175383E-02  0.10299503371E+01  0.10298554587E+01 0.  0.
     999903    2    3    3    0    0 -0.13130774996E+00  0.46780913740E-02 -0.25598469993E-01  0.14029786030E+00  0.42007120843E-01 0.  0.
         14    1    1    2    0    0  0.53927227844E-02  0.11738486345E-01 -0.53439175383E-02  0.13979662920E-01  0.00000000000E+00 0.  1.
     999901    1    3    3    0    0  0.12591502717E+00 -0.16416577719E-01  0.30942387531E-01  0.88965247678E+00  0.88000000000E+00 0. -1.
        -11    1    4    4    0    0 -0.10085028993E-01 -0.10097287169E-01 -0.94262343841E-02  0.17110757833E-01  0.51100000000E-03 0. -1.
         11    1    4    4    0    0 -0.12122272096E+00  0.14775378543E-01 -0.16172235609E-01  0.12318710247E+00  0.51100000000E-03 0.  1.
</event>
<event>
 8    1  0.2927513E+004  0.1043930E+01  0.7957747E-01            NaN
         13   -1    0    0    0    0  0.00000000000E+00  0.00000000000E+00  0.74505805969E-08  0.10566000000E+00  0.10566000000E+00 0. -1.
     999900   -1    0    0    0    0 -0.00000000000E+00 -0.00000000000E+00 -0.74505805969E-08  0.93827000000E+00  0.93827000000E+00 0. -1.
     999902    2    1    2    0    0 -0.18360757344E-03 -0.10863871566E-01 -0.88766097282E-02  0.10298996181E+01  0.10298040453E+01 0.  0.
     999903    2    3    3    0    0  0.13642673361E-01 -0.44656657634E-01 -0.12579749920E+00  0.14141573366E+00  0.44643692904E-01 0.  0.
         14    1    1    2    0    0  0.18360757344E-03  0.10863871566E-01  0.88766097282E-02  0.14030381941E-01  0.00000000000E+00 0. -1.
     999901    1    3    3    0    0 -0.13826280934E-01  0.33792786067E-01  0.11692088947E+00  0.88848388439E+00  0.88000000000E+00 0.  1.
        -11    1    4    4    0    0  0.25106607565E-01 -0.40425266053E-01 -0.72435920977E-01  0.86670454294E-01  0.51100000000E-03 0. -1.
         11    1    4    4    0    0 -0.11463934204E-01 -0.42313915812E-02 -0.53361578220E-01  0.54745279370E-01  0.51100000000E-03 0.  1.
</event>
<event>
 7    1  0.2927513E+004  0.1043930E+01  0.7957747E-01            NaN
         13   -1    0    0    0    0  0.00000000000E+00  0.00000000000E+00  0.74505805969E-08  0.10566000000E+00  0.10566000000E+00 0. -1.
     999900   -1    0    0    0    0 -0.00000000000E+00 -0.00000000000E+00 -0.74505805969E-08  0.93827000000E+00  0.93827000000E+00 0.  1.
     999903    2    1    2    0    0 -0.58924468062E-01  0.34450810322E-02  0.96468758100E-01  0.12223258375E+00  0.46374796194E-01 0.  0.
         14    1    1    2    0    0 -0.15165434478E-01 -0.27717735108E-01 -0.13514836513E-01  0.34364429988E-01  0.00000000000E+00 0.  1.
     999901    1    1    2    0    0  0.74089902540E-01  0.24272654076E-01 -0.82953921588E-01  0.88733298626E+00  0.88000000000E+00 0. -1.
        -11    1    3    3    0    0 -0.53176148536E-01  0.15972100348E-01  0.92491107545E-01  0.10787806477E+00  0.51100000000E-03 0. -1.
         11    1    3    3    0    0 -0.57483195257E-02 -0.12527019316E-01  0.39776505552E-02  0.14354518984E-01  0.51100000000E-03 0.  1.
</event>
<event>
 8    1  0.2927513E+004  0.1043930E+01  0.7957747E-01            NaN
         13   -1    0    0    0    0  0.00000000000E+00  0.00000000000E+00  0.74505805969E-08  0.10566000000E+00  0.10566000000E+00 0. -1.
     999900   -1    0    0    0    0 -0.00000000000E+00 -0.00000000000E+00 -0.74505805969E-08  0.93827000000E+00  0.93827000000E+00 0.  1.
     999902    2    1    2    0    0 -0.56313450073E-02  0.91680501530E-02  0.88275064275E-02  0.10300127424E+01  0.10299187149E+01 0.  0.
     999903    2    3    3    0    0 -0.87230288677E-01  0.10072148524E+00 -0.13316701110E-01  0.14123223796E+00  0.44891754929E-01 0.  0.
         14    1    1    2    0    0  0.56313450073E-02 -0.91680501530E-02 -0.88275064275E-02  0.13917257630E-01  0.00000000000E+00 0.  1.
     999901    1    3    3    0    0  0.81598943670E-01 -0.91553435086E-01  0.22144207537E-01  0.88878050441E+00  0.88000000000E+00 0.  1.
        -11    1    4    4    0    0 -0.71041737693E-01  0.10200498299E+00 -0.12963220553E-01  0.12498100358E+00  0.51100000000E-03 0.  1.
         11    1    4    4    0    0 -0.16188550984E-01 -0.12834977473E-02 -0.35348055662E-03  0.16251234382E-01  0.51100000000E-03 0. -1.
</event>
<event>
 8    1  0.2927513E+004  0.1043930E+01  0.7957747E-01            NaN
         13   -1    0    0    0    0  0.00000000000E+00  0.00000000000E+00  0.74505805969E-08  0.10566000000E+00  0.10566000000E+00 0.  1.
     999900   -1    0    0    0    0 -0.00000000000E+00 -0.00000000000E+00 -0.74505805969E-08  0.93827000000E+00  0.93827000000E+00 0.  1.
     999902    2    1    2    0    0 -0.28060072475E-02 -0.51439881128E-02 -0.12535596948E-01  0.10300925334E+01  0.10299995883E+01 0.  0.
     999903    2    3    3    0    0 -0.21187117240E-01  0.94658321396E-01  0.87989155769E-01  0.13857495531E+00  0.45297184885E-01 0.  0.
         14    1    1    2    0    0  0.28060072475E-02  0.51439881128E-02  0.12535596948E-01  0.13837466575E-01  0.00000000000E+00 0.  1.
     999901    1    3    3    0    0  0.18381109992E-01 -0.99802309509E-01 -0.10052475272E+00  0.89151757812E+00  0.88000000000E+00 0.  1.
        -11    1    4    4    0    0  0.25028548198E-02  0.65206882158E-01  0.36724440862E-01  0.74880888354E-01  0.51100000000E-03 0.  1.
         11    1    4    4    0    0 -0.23689972060E-01  0.29451439238E-01  0.51264714906E-01  0.63694066951E-01  0.51100000000E-03 0. -1.
</event>
<event>
 8    1  0.2927513E+004  0.1043930E+01  0.7957747E-01            NaN
         13   -1    0    0    0    0  0.00000000000E+00  0.00000000000E+00  0.74505805969E-08  0.10566000000E+00  0.10566000000E+00 0. -1.
     999900   -1    0    0    0    0 -0.00000000000E+00 -0.00000000000E+00 -0.74505805969E-08  0.93827000000E+00  0.93827000000E+00 0. -1.
     999902    2    1    2    0    0 -0.32431746786E-02  0.13128537874E-01 -0.44700006139E-02  0.10296871915E+01  0.10295886823E+01 0.  0.
     999903    2    3    3    0    0  0.47995325479E-01  0.84003107710E-01 -0.92756704581E-01  0.14095600005E+00  0.43643033032E-01 0.  0.
         14    1    1    2    0    0  0.32431746786E-02 -0.13128537874E-01  0.44700006139E-02  0.14242808508E-01  0.00000000000E+00 0. -1.
     999901    1    3    3    0    0 -0.51238500158E-01 -0.70874569836E-01  0.88286703967E-01  0.88873119144E+00  0.88000000000E+00 0.  1.
        -11    1    4    4    0    0  0.18432159509E-01  0.69261413183E-01 -0.52321301231E-01  0.88739323548E-01  0.51100000000E-03 0. -1.
         11    1    4    4    0    0  0.29563165970E-01  0.14741694527E-01 -0.40435403350E-01  0.52216676501E-01  0.51100000000E-03 0.  1.
</event>
<event>
 8    1  0.2927513E+004  0.1043930E+01  0.7957747E-01            NaN
         13   -1    0    0    0    0  0.00000000000E+00  0.00000000000E+00  0.74505805969E-08  0.10566000000E+00  0.10566000000E+00 0. -1.
     999900   -1    0    0    0    0 -0.00000000000E+00 -0.00000000000E+00 -0.74505805969E-08  0.93827000000E+00  0.93827000000E+00 0.  1.
     999902    2    1    2    0    0 -0.60239671922E-03  0.71917663860E-02  0.13654435944E-01  0.10284856481E+01  0.10283696807E+01 0.  0.
     999903    2    3    3    0    0 -0.78480019713E-01 -0.39166941946E-01  0.98764587866E-01  0.13974620821E+00  0.45622319731E-01 0.  0.
         14    1    1    2    0    0  0.60239671922E-03 -0.71917663860E-02 -0.13654435944E-01  0.15444351929E-01  0.00000000000E+00 0.  1.
     999901    1    3    3    0    0  0.77877622994E-01  0.46358708332E-01 -0.85110151922E-01  0.88873943986E+00  0.88000000000E+00 0.  1.
        -11    1    4    4    0    0 -0.74579738204E-02 -0.21044012542E-01  0.39947039512E-01  0.45765695932E-01  0.51100000000E-03 0. -1.
         11    1    4    4    0    0 -0.71022045893E-01 -0.18122929404E-01  0.58817548354E-01  0.93980512280E-01  0.51100000000E-03 0.  1.
</event>
<event>
 8    1  0.2927513E+004  0.1043930E+01  0.7957747E-01            NaN
         13   -1    0    0    0    0  0.00000000000E+00  0.00000000000E+00  0.74505805969E-08  0.10566000000E+00  0.10566000000E+00 0. -1.
     999900   -1    0    0    0    0 -0.00000000000E+00 -0.00000000000E+00 -0.74505805969E-08  0.93827000000E+00  0.93827000000E+00 0. -1.
     999902    2    1    2    0    0  0.57437872673E-03 -0.15401656142E-01 -0.38461857034E-02  0.10280449735E+01  0.10279222410E+01 0.  0.
     999903    2    3    3    0    0  0.87142541050E-01 -0.34661602829E-01 -0.92255171901E-01  0.13917988748E+00  0.45439797164E-01 0.  0.
         14    1    1    2    0    0 -0.57437872673E-03  0.15401656142E-01  0.38461857034E-02  0.15885026513E-01  0.00000000000E+00 0. -1.
     999901    1    3    3    0    0 -0.86568162324E-01  0.19259946687E-01  0.88408986197E-01  0.88886508600E+00  0.88000000000E+00 0.  1.
        -11    1    4    4    0    0  0.57397475822E-01 -0.28255097837E-01 -0.87476736624E-01  0.10837555700E+00  0.51100000000E-03 0.  1.
         11    1    4    4    0    0  0.29745065228E-01 -0.64065049924E-02 -0.47784352763E-02  0.30804330480E-01  0.51100000000E-03 0. -1.
</event>
<event>
 8    1  0.2927513E+004  0.1043930E+01  0.7957747E-01            NaN
         13   -1    0    0    0    0  0.00000000000E+00  0.00000000000E+00  0.74505805969E-08  0.10566000000E+00  0.10566000000E+00 0.  1.
     999900   -1    0    0    0    0 -0.00000000000E+00 -0.00000000000E+00 -0.74505805969E-08  0.93827000000E+00  0.93827000000E+00 0.  1.
     999902    2    1    2    0    0 -0.90218465172E-02 -0.98232825264E-02 -0.24115616925E-02  0.10303761731E+01  0.10302870240E+01 0.  0.
     999903    2    3    3    0    0  0.27108445117E-01  0.34468616672E-01 -0.12501805853E+00  0.14003942591E+00  0.45371494550E-01 0.  0.
         14    1    1    2    0    0  0.90218465172E-02  0.98232825264E-02  0.24115616925E-02  0.13553826912E-01  0.00000000000E+00 0.  1.
     999901    1    3    3    0    0 -0.36130291634E-01 -0.44291899198E-01  0.12260649684E+00  0.89033674718E+00  0.88000000000E+00 0. -1.
        -11    1    4    4    0    0 -0.20117543675E-02  0.32443127764E-01 -0.80340722027E-01  0.86668889640E-01  0.51100000000E-03 0.  1.
         11    1    4    4    0    0  0.29120199484E-01  0.20254889080E-02 -0.44677336507E-01  0.53370536269E-01  0.51100000000E-03 0. -1.
</event>
<event>
 7    1  0.2927513E+004  0.1043930E+01  0.7957747E-01            NaN
         13   -1    0    0    0    0  0.00000000000E+00  0.00000000000E+00  0.74505805969E-08  0.10566000000E+00  0.10566000000E+00 0. -1.
     999900   -1    0    0    0    0 -0.00000000000E+00 -0.00000000000E+00 -0.74505805969E-08  0.93827000000E+00  0.93827000000E+00 0. -1.
     999902    2    1    2    0    0 -0.69810155849E-02 -0.10563167140E-01  0.55540413182E-02  0.10301038489E+01  0.10300110568E+01 0.  0.
         14    1    1    2    0    0  0.69810155849E-02  0.10563167140E-01 -0.55540413182E-02  0.13826151076E-01  0.00000000000E+00 0.  1.
     999901    1    3    3    0    0 -0.36093990450E-01  0.69688754879E-01 -0.90196783107E-01  0.88808488242E+00  0.88000000000E+00 0.  1.
        -11    1    3    3    0    0  0.13301108150E-01 -0.86755516798E-01  0.80885894703E-01  0.11935756472E+00  0.51100000000E-03 0. -1.
         11    1    3    3    0    0  0.15811866715E-01  0.65035947797E-02  0.14864929722E-01  0.22661401782E-01  0.51100000000E-03 0.  1.
</event>
<event>
 8    1  0.2927513E+004  0.1043930E+01  0.7957747E-01            NaN
         13   -1    0    0    0    0  0.00000000000E+00  0.00000000000E+00  0.74505805969E-08  0.10566000000E+00  0.10566000000E+00 0.  1.
     999900   -1    0    0    0    0 -0.00000000000E+00 -0.00000000000E+00 -0.74505805969E-08  0.93827000000E+00  0.93827000000E+00 0.  1.
     999902    2    1    2    0    0 -0.12292480948E-01  0.46527779707E-03  0.65993688827E-02  0.10299702994E+01  0.10298756937E+01 0.  0.
     999903    2    3    3    0    0  0.65362359585E-01  0.68116343675E-01 -0.91259745684E-01  0.13857625226E+00  0.44305329039E-01 0.  0.
         14    1    1    2    0    0  0.12292480948E-01 -0.46527779707E-03 -0.65993688827E-02  0.13959700603E-01  0.00000000000E+00 0. -1.
     999901    1    3    3    0    0 -0.77654840532E-01 -0.67651065878E-01  0.97859114566E-01  0.89139404714E+00  0.88000000000E+00 0. -1.
        -11    1    4    4    0    0  0.13365260722E-01  0.67808317927E-02 -0.41228043270E-01  0.43870520248E-01  0.51100000000E-03 0.  1.
         11    1    4    4    0    0  0.51997098862E-01  0.61335511883E-01 -0.50031702414E-01  0.94705732009E-01  0.51100000000E-03 0. -1.
</event>
<event>
 8    1  0.2927513E+004  0.1043930E+01  0.7957747E-01            NaN
         13   -1    0    0    0    0  0.00000000000E+00  0.00000000000E+00  0.74505805969E-08  0.10566000000E+00  0.10566000000E+00 0. -1.
     999900   -1    0    0    0    0 -0.00000000000E+00 -0.00000000000E+00 -0.74505805969E-08  0.93827000000E+00  0.93827000000E+00 0.  1.
     999902    2    1    2    0    0  0.50929188543E-02  0.15026341379E-01 -0.16906582506E-02  0.10279742147E+01  0.10278503778E+01 0.  0.
     999903    2    3    3    0    0 -0.93159494163E-01  0.81451155665E-01 -0.43573403670E-01  0.13903104616E+00  0.46021822834E-01 0.  0.
         14    1    1    2    0    0 -0.50929188543E-02 -0.15026341379E-01  0.16906582506E-02  0.15955785252E-01  0.00000000000E+00 0. -1.
     999901    1    3    3    0    0  0.98252413017E-01 -0.66424814286E-01  0.41882745419E-01  0.88894316859E+00  0.88000000000E+00 0. -1.
        -11    1    4    4    0    0 -0.84070480179E-01  0.52013685572E-01 -0.21620662407E-01  0.10119774349E+00  0.51100000000E-03 0.  1.
         11    1    4    4    0    0 -0.90890139843E-02  0.29437470092E-01 -0.21952741263E-01  0.37833302666E-01  0.51100000000E-03 0. -1.
</event>
<event>
 8    1  0.2927513E+004  0.1043930E+01  0.7957747E-01            NaN
         13   -1    0    0    0    0  0.00000000000E+00  0.00000000000E+00  0.74505805969E-08  0.10566000000E+00  0.10566000000E+00 0. -1.
     999900   -1    0    0    0    0 -0.00000000000E+00 -0.00000000000E+00 -0.74505805969E-08  0.93827000000E+00  0.93827000000E+00 0. -1.
     999902    2    1    2    0    0  0.11336192779E-01 -0.71757738086E-02  0.95555256125E-02  0.10274585378E+01  0.10273265001E+01 0.  0.
     999903    2    3    3    0    0 -0.10616250369E-01  0.50828590723E-01  0.12073634670E+00  0.13829736512E+00  0.43042367248E-01 0.  0.
         14    1    1    2    0    0 -0.11336192779E-01  0.71757738086E-02 -0.95555256125E-02  0.16471462176E-01  0.00000000000E+00 0.  1.
     999901    1    3    3    0    0  0.21952443148E-01 -0.58004364531E-01 -0.11118082109E+00  0.88916117270E+00  0.88000000000E+00 0. -1.
        -11    1    4    4    0    0 -0.98776867166E-02 -0.32491977713E-02  0.75744284839E-02  0.12874745391E-01  0.51100000000E-03 0.  1.
         11    1    4    4    0    0 -0.73856365199E-03  0.54077788494E-01  0.11316191822E+00  0.12542261973E+00  0.51100000000E-03 0. -1.
</event>
<event>
 8    1  0.2927513E+004  0.1043930E+01  0.7957747E-01            NaN
         13   -1    0    0    0    0  0.00000000000E+00  0.00000000000E+00  0.74505805969E-08  0.10566000000E+00  0.10566000000E+00 0. -1.
     999900   -1    0    0    0    0 -0.00000000000E+00 -0.00000000000E+00 -0.74505805969E-08  0.93827000000E+00  0.93827000000E+00 0. -1.
     999902    2    1    2    0    0 -0.10534541675E-01  0.52855286711E-02 -0.69546849399E-02  0.10302449343E+01  0.10301540387E+01 0.  0.
     999903    2    3    3    0    0 -0.70815935596E-01  0.74768241164E-01  0.82430562692E-01  0.14094666243E+00  0.49658608152E-01 0.  0.
         14    1    1    2    0    0  0.10534541675E-01 -0.52855286711E-02  0.69546849399E-02  0.13685065738E-01  0.00000000000E+00 0.  1.
     999901    1    3    3    0    0  0.60281393921E-01 -0.69482712493E-01 -0.89385247632E-01  0.88929827183E+00  0.88000000000E+00 0. -1.
        -11    1    4    4    0    0 -0.54526716559E-01  0.77852369526E-01  0.57774782578E-01  0.11123102482E+00  0.51100000000E-03 0.  1.
         11    1    4    4    0    0 -0.16289219037E-01 -0.30841283624E-02  0.24655780114E-01  0.29715637611E-01  0.51100000000E-03 0. -1.
</event>
<event>
 8    1  0.2927513E+004  0.1043930E+01  0.7957747E-01            NaN
         13   -1    0    0    0    0  0.00000000000E+00  0.00000000000E+00  0.74505805969E-08  0.10566000000E+00  0.10566000000E+00 0. -1.
     999900   -1    0    0    0    0 -0.00000000000E+00 -0.00000000000E+00 -0.74505805969E-08  0.93827000000E+00  0.93827000000E+00 0. -1.
     999902    2    1    2    0    0 -0.13917390485E-01  0.46984273623E-02  0.44332377866E-02  0.10285865136E+01  0.10284720674E+01 0.  0.
     999903    2    3    3    0    0  0.85021548891E-01 -0.24850655709E-01  0.95504296849E-01  0.13788117521E+00  0.45209831856E-01 0.  0.
         14    1    1    2    0    0  0.13917390485E-01 -0.46984273623E-02 -0.44332377866E-02  0.15343486398E-01  0.00000000000E+00 0.  1.
     999901    1    3    3    0    0 -0.98938939376E-01  0.29549083071E-01 -0.91071059062E-01  0.89070533839E+00  0.88000000000E+00 0. -1.
        -11    1    4    4    0    0  0.21601948127E-01 -0.17396197134E-01  0.56792398081E-01  0.63205295968E-01  0.51100000000E-03 0.  1.
         11    1    4    4    0    0  0.63419600764E-01 -0.74544585746E-02  0.38711898768E-01  0.74675879245E-01  0.51100000000E-03 0. -1.
</event>
<event>
 8    1  0.2927513E+004  0.1043930E+01  0.7957747E-01            NaN
         13   -1    0    0    0    0  0.00000000000E+00  0.00000000000E+00  0.74505805969E-08  0.10566000000E+00  0.10566000000E+00 0. -1.
     999900   -1    0    0    0    0 -0.00000000000E+00 -0.00000000000E+00 -0.74505805969E-08  0.93827000000E+00  0.93827000000E+00 0. -1.
     999902    2    1    2    0    0  0.29193226929E-02  0.73736890765E-02 -0.11255547607E-01  0.10301611552E+01  0.10300691358E+01 0.  0.
     999903    2    3    3    0    0  0.19234851954E-01  0.12180580389E-01  0.12927099835E+00  0.13884919363E+00  0.45274291691E-01 0.  0.
         14    1    1    2    0    0 -0.29193226929E-02 -0.73736890765E-02  0.11255547607E-01  0.13768844814E-01  0.00000000000E+00 0. -1.
     999901    1    3    3    0    0 -0.16315529261E-01 -0.48068913127E-02 -0.14052654596E+00  0.89131196156E+00  0.88000000000E+00 0. -1.
        -11    1    4    4    0    0  0.20802580586E-02  0.23959533695E-01  0.36093683102E-01  0.43375128926E-01  0.51100000000E-03 0. -1.
         11    1    4    4    0    0  0.17154593895E-01 -0.11778953306E-01  0.93177315248E-01  0.95474064701E-01  0.51100000000E-03 0.  1.
</event>
<event>
 8    1  0.2927513E+004  0.1043930E+01  0.7957747E-01            NaN
         13   -1    0    0    0    0  0.00000000000E+00  0.00000000000E+00  0.74505805969E-08  0.10566000000E+00  0.10566000000E+00 0. -1.
     999900   -1    0    0    0    0 -0.00000000000E+00 -0.00000000000E+00 -0.74505805969E-08  0.93827000000E+00  0.93827000000E+00 0.  1.
     999902    2    1    2    0    0 -0.75143139753E-02  0.11563568595E-01  0.14599079215E-02  0.10300623266E+01  0.10299689725E+01 0.  0.
     999903    2    3    3    0    0  0.39618310022E-02  0.13336926272E+00 -0.13316141325E-01  0.14147543688E+00  0.45110123908E-01 0.  0.
         14    1    1    2    0    0  0.75143139753E-02 -0.11563568595E-01 -0.14599079215E-02  0.13867673356E-01  0.00000000000E+00 0.  1.
     999901    1    3    3    0    0 -0.11476144978E-01 -0.12180569412E+00  0.14776049247E-01  0.88858688976E+00  0.88000000000E+00 0. -1.
        -11    1    4    4    0    0 -0.24693961051E-02  0.37966893580E-01  0.16269361924E-01  0.41382800578E-01  0.51100000000E-03 0. -1.
         11    1    4    4    0    0  0.64312271073E-02  0.95402369137E-01 -0.29585503250E-01  0.10009263631E+00  0.51100000000E-03 0.  1.
</event>
<event>
 8    1  0.2927513E+004  0.1043930E+01  0.7957747E-01            NaN
         13   -1    0    0    0    0  0.00000000000E+00  0.00000000000E+00  0.74505805969E-08  0.10566000000E+00  0.10566000000E+00 0.  1.
     999900   -1    0    0    0    0 -0.00000000000E+00 -0.00000000000E+00 -0.74505805969E-08  0.93827000000E+00  0.93827000000E+00 0. -1.
     999902    2    1    2    0    0  0.17228783641E-01 -0.13746174525E-01  0.12723751518E-01  0.10184803998E+01  0.10181623852E+01 0.  0.
     999903    2    3    3    0    0 -0.78567482101E-01 -0.16874528316E-01 -0.88293178189E-01  0.12753083260E+00  0.44842268006E-01 0.  0.
         14    1    1    2    0    0 -0.17228783641E-01  0.13746174525E-01 -0.12723751518E-01  0.25449600242E-01  0.00000000000E+00 0. -1.
     999901    1    3    3    0    0  0.95796265742E-01  0.31283537908E-02  0.10101692971E+00  0.89094956716E+00  0.88000000000E+00 0.  1.
        -11    1    4    4    0    0 -0.26687756702E-02 -0.74737267555E-02  0.29427665466E-02  0.84793838892E-02  0.51100000000E-03 0.  1.
         11    1    4    4    0    0 -0.75898706431E-01 -0.94008015601E-02 -0.91235944735E-01  0.11905144871E+00  0.51100000000E-03 0. -1.
</event>
<event>
 8    1  0.2927513E+004  0.1043930E+01  0.7957747E-01            NaN
         13   -1    0    0    0    0  0.00000000000E+00  0.00000000000E+00  0.74505805969E-08  0.10566000000E+00  0.10566000000E+00 0. -1.
     999900   -1    0    0    0    0 -0.00000000000E+00 -0.00000000000E+00 -0.74505805969E-08  0.93827000000E+00  0.93827000000E+00 0.  1.
     999902    2    1    2    0    0  0.13568192100E-02 -0.12581472399E-01 -0.56900001124E-02  0.10300551844E+01  0.10299617335E+01 0.  0.
     999903    2    3    3    0    0  0.63702322156E-01  0.11460256102E+00  0.72905854918E-02  0.13863427615E+00  0.44436213252E-01 0.  0.
         14    1    1    2    0    0 -0.13568192100E-02  0.12581472399E-01  0.56900001124E-02  0.13874815580E-01  0.00000000000E+00 0. -1.
     999901    1    3    3    0    0 -0.62345502946E-01 -0.12718403341E+00 -0.12980585604E-01  0.89142090827E+00  0.88000000000E+00 0.  1.
        -11    1    4    4    0    0  0.55251415550E-01  0.54327708047E-01  0.65263486544E-02  0.77762929019E-01  0.51100000000E-03 0. -1.
         11    1    4    4    0    0  0.84509066054E-02  0.60274852969E-01  0.76423683738E-03  0.60871347133E-01  0.51100000000E-03 0.  1.
</event>
<event>
 8    1  0.2927513E+004  0.1043930E+01  0.7957747E-01            NaN
         13   -1    0    0    0    0  0.00000000000E+00  0.00000000000E+00  0.74505805969E-08  0.10566000000E+00  0.10566000000E+00 0. -1.
     999900   -1    0    0    0    0 -0.00000000000E+00 -0.00000000000E+00 -0.74505805969E-08  0.93827000000E+00  0.93827000000E+00 0. -1.
     999902    2    1    2    0    0  0.37110923336E-02 -0.10779119705E-02  0.13093801767E-01  0.10302778300E+01  0.10301873739E+01 0.  0.
     999903    2    3    3    0    0  0.86440635639E-01 -0.77437212697E-01  0.61178872288E-01  0.14180324166E+00  0.53821924268E-01 0.  0.
         14    1    1    2    0    0 -0.37110923336E-02  0.10779119705E-02 -0.13093801767E-01  0.13652169983E-01  0.00000000000E+00 0.  1.
     999901    1    3    3    0    0 -0.82729543305E-01  0.76359300726E-01 -0.48085070521E-01  0.88847458835E+00  0.88000000000E+00 0. -1.
        -11    1    4    4    0    0  0.25967263370E-01 -0.49155603332E-01  0.48650081506E-01  0.73876001904E-01  0.51100000000E-03 0.  1.
         11    1    4    4    0    0  0.60473372269E-01 -0.28281609365E-01  0.12528790782E-01  0.67927239759E-01  0.51100000000E-03 0. -1.
</event>
<event>
 8    1  0.2927513E+004  0.1043930E+01  0.7957747E-01            NaN
         13   -1    0    0    0    0  0.00000000000E+00  0.00000000000E+00  0.74505805969E-08  0.10566000000E+00  0.10566000000E+00 0.  1.
     999900   -1    0    0    0    0 -0.00000000000E+00 -0.00000000000E+00 -0.74505805969E-08  0.93827000000E+00  0.93827000000E+00 0.  1.
     999902    2    1    2    0    0  0.67535153590E-03  0.40062359390E-02 -0.13910814955E-01  0.10294380437E+01  0.10293360330E+01 0.  0.
     999903    2    3    3    0    0 -0.10527001188E+00 -0.53497069429E-01 -0.60304213049E-01  0.14000935199E+00  0.44970086678E-01 0.  0.
         14    1    1    2    0    0 -0.67535153590E-03 -0.40062359390E-02  0.13910814955E-01  0.14491956349E-01  0.00000000000E+00 0.  1.
     999901    1    3    3    0    0  0.10594536341E+00  0.57503305368E-01  0.46393398093E-01  0.88942869166E+00  0.88000000000E+00 0. -1.
        -11    1    4    4    0    0 -0.89272251877E-01 -0.26477881009E-01 -0.34291880644E-01  0.99231080499E-01  0.51100000000E-03 0. -1.
         11    1    4    4    0    0 -0.15997760001E-01 -0.27019188420E-01 -0.26012332405E-01  0.40778271494E-01  0.51100000000E-03 0.  1.
</event>
<event>
 8    1  0.2927513E+004  0.1043930E+01  0.7957747E-01            NaN
         13   -1    0    0    0    0  0.00000000000E+00  0.00000000000E+00  0.74505805969E-08  0.10566000000E+00  0.10566000000E+00 0.  1.
     999900   -1    0    0    0    0 -0.00000000000E+00 -0.00000000000E+00 -0.74505805969E-08  0.93827000000E+00  0.93827000000E+00 0. -1.
     999902    2    1    2    0    0 -0.88233211068E-03  0.11829522728E-01  0.80721809738E-02  0.10295816125E+01  0.10294816271E+01 0.  0.
     999903    2    3    3    0    0 -0.88479157097E-01 -0.10020492870E-01  0.98972700668E-01  0.14030464136E+00  0.44281208121E-01 0.  0.
         14    1    1    2    0    0  0.88233211068E-03 -0.11829522728E-01 -0.80721809738E-02  0.14348387491E-01  0.00000000000E+00 0. -1.
     999901    1    3    3    0    0  0.87596824986E-01  0.21850015597E-01 -0.90900519694E-01  0.88927697115E+00  0.88000000000E+00 0.  1.
        -11    1    4    4    0    0 -0.62407359383E-01 -0.16276982258E-02  0.37059214716E-01  0.72601476728E-01  0.51100000000E-03 0.  1.
         11    1    4    4    0    0 -0.26071797714E-01 -0.83927946437E-02  0.61913485952E-01  0.67703164635E-01  0.51100000000E-03 0. -1.
</event>
<event>
 8    1  0.2927513E+004  0.1043930E+01  0.7957747E-01            NaN
         13   -1    0    0    0    0  0.00000000000E+00  0.00000000000E+00  0.74505805969E-08  0.10566000000E+00  0.10566000000E+00 0.  1.
     999900   -1    0    0    0    0 -0.00000000000E+00 -0.00000000000E+00 -0.74505805969E-08  0.93827000000E+00  0.93827000000E+00 0. -1.
     999902    2    1    2    0    0  0.43252562367E-02 -0.71200870372E-02  0.11853941030E-01  0.10294414045E+01  0.10293394416E+01 0.  0.
     999903    2    3    3    0    0  0.96564493862E-01  0.75167827862E-01 -0.42884953706E-01  0.13911802255E+00  0.50396439585E-01 0.  0.
         14    1    1    2    0    0 -0.43252562367E-02  0.71200870372E-02 -0.11853941030E-01  0.14488595476E-01  0.00000000000E+00 0. -1.
     999901    1    3    3    0    0 -0.92239237626E-01 -0.82287914899E-01  0.54738894736E-01  0.89032338198E+00  0.88000000000E+00 0.  1.
        -11    1    4    4    0    0  0.70783509253E-01  0.26396255573E-01 -0.13957839408E-01  0.76825450811E-01  0.51100000000E-03 0.  1.
         11    1    4    4    0    0  0.25780984610E-01  0.48771572289E-01 -0.28927114298E-01  0.62292571736E-01  0.51100000000E-03 0. -1.
</event>
<event>
 8    1  0.2927513E+004  0.1043930E+01  0.7957747E-01            NaN
         13   -1    0    0    0    0  0.00000000000E+00  0.00000000000E+00  0.74505805969E-08  0.10566000000E+00  0.10566000000E+00 0.  1.
     999900   -1    0    0    0    0 -0.00000000000E+00 -0.00000000000E+00 -0.74505805969E-08  0.93827000000E+00  0.93827000000E+00 0. -1.
     999902    2    1    2    0    0  0.71502658432E-02 -0.98197694419E-02  0.73411258358E-02  0.10297368220E+01  0.10296390029E+01 0.  0.
     999903    2    3    3    0    0 -0.12694712066E+00 -0.23714192969E-01 -0.32676269479E-01  0.13857098108E+00  0.38160762816E-01 0.  0.
         14    1    1    2    0    0 -0.71502658432E-02  0.98197694419E-02 -0.73411258358E-02  0.14193178011E-01  0.00000000000E+00 0.  1.
     999901    1    3    3    0    0  0.13409738650E+00  0.13894423527E-01  0.40017395315E-01  0.89116584091E+00  0.88000000000E+00 0. -1.
        -11    1    4    4    0    0 -0.76825430022E-01  0.48313108494E-02 -0.19017705430E-01  0.79293268967E-01  0.51100000000E-03 0.  1.
         11    1    4    4    0    0 -0.50121690638E-01 -0.28545503818E-01 -0.13658564049E-01  0.59277712115E-01  0.51100000000E-03 0. -1.
</event>
<event>
 8    1  0.2927513E+004  0.1043930E+01  0.7957747E-01            NaN
         13   -1    0    0    0    0  0.00000000000E+00  0.00000000000E+00  0.74505805969E-08  0.10566000000E+00  0.10566000000E+00 0. -1.
     999900   -1    0    0    0    0 -0.00000000000E+00 -0.00000000000E+00 -0.74505805969E-08  0.93827000000E+00  0.93827000000E+00 0. -1.
     999902    2    1    2    0    0 -0.92842277160E-02 -0.94940949421E-02 -0.44836870976E-03  0.10306433241E+01  0.10305576770E+01 0.  0.
     999903    2    3    3    0    0 -0.36135885454E-01 -0.85061600914E-01 -0.98338965811E-01  0.14159100362E+00  0.42850693588E-01 0.  0.
         14    1    1    2    0    0  0.92842277160E-02  0.94940949421E-02  0.44836870976E-03  0.13286675941E-01  0.00000000000E+00 0. -1.
     999901    1    3    3    0    0  0.26851657738E-01  0.75567505972E-01  0.97890597101E-01  0.88905232044E+00  0.88000000000E+00 0.  1.
        -11    1    4    4    0    0 -0.10431179749E-01 -0.36134700050E-01 -0.70030875738E-01  0.79492834497E-01  0.51100000000E-03 0. -1.
         11    1    4    4    0    0 -0.25704705706E-01 -0.48926900864E-01 -0.28308090073E-01  0.62098169121E-01  0.51100000000E-03 0.  1.
</event>
<event>
 8    1  0.2927513E+004  0.1043930E+01  0.7957747E-01            NaN
         13   -1    0    0    0    0  0.00000000000E+00  0.00000000000E+00  0.74505805969E-08  0.10566000000E+00  0.10566000000E+00 0. -1.
     999900   -1    0    0    0    0 -0.00000000000E+00 -0.00000000000E+00 -0.74505805969E-08  0.93827000000E+00  0.93827000000E+00 0. -1.
     999902    2    1    2    0    0 -0.47366156334E-02  0.12490213680E-01 -0.52424193521E-02  0.10295799503E+01  0.10294799416E+01 0.  0.
     999903    2    3    3    0    0 -0.13129645656E+00 -0.10793184676E-01 -0.15782572738E-01  0.14015845023E+00  0.45166904134E-01 0.  0.
         14    1    1    2    0    0  0.47366156334E-02 -0.12490213680E-01  0.52424193521E-02  0.14350049689E-01  0.00000000000E+00 0. -1.
     999901    1    3    3    0    0  0.12655984092E+00  0.23283398355E-01  0.10540153386E-01  0.88942150008E+00  0.88000000000E+00 0.  1.
        -11    1    4    4    0    0 -0.12163186342E+00 -0.12769643256E-01 -0.91041835736E-03  0.12230479946E+00  0.51100000000E-03 0.  1.
         11    1    4    4    0    0 -0.96645931385E-02  0.19764585808E-02 -0.14872154380E-01  0.17853650774E-01  0.51100000000E-03 0. -1.
</event>
<event>
 8    1  0.2927513E+004  0.1043930E+01  0.7957747E-01            NaN
         13   -1    0    0    0    0  0.00000000000E+00  0.00000000000E+00  0.74505805969E-08  0.10566000000E+00  0.10566000000E+00 0.  1.
     999900   -1    0    0    0    0 -0.00000000000E+00 -0.00000000000E+00 -0.74505805969E-08  0.93827000000E+00  0.93827000000E+00 0.  1.
     999902    2    1    2    0    0 -0.74945801918E-02 -0.54650262933E-02 -0.10633707260E-01  0.10298193312E+01  0.10297226539E+01 0.  0.
     999903    2    3    3    0    0 -0.58733860961E-02 -0.46067634632E-01  0.12288576030E+00  0.13882065088E+00  0.44872479313E-01 0.  0.
         14    1    1    2    0    0  0.74945801918E-02  0.54650262933E-02  0.10633707260E-01  0.14110668827E-01  0.00000000000E+00 0.  1.
     999901    1    3    3    0    0 -0.16211940957E-02  0.40602608339E-01 -0.13351946756E+00  0.89099868030E+00  0.88000000000E+00 0.  1.
        -11    1    4    4    0    0  0.30007079003E-02  0.57115274669E-02  0.16319380642E-02  0.66745888827E-02  0.51100000000E-03 0.  1.
         11    1    4    4    0    0 -0.88740939964E-02 -0.51779162099E-01  0.12125382224E+00  0.13214606199E+00  0.51100000000E-03 0. -1.
</event>
<event>
 8    1  0.2927513E+004  0.1043930E+01  0.7957747E-01            NaN
         13   -1    0    0    0    0  0.00000000000E+00  0.00000000000E+00  0.74505805969E-08  0.10566000000E+00  0.10566000000E+00 0. -1.
     999900   -1    0    0    0    0 -0.00000000000E+00 -0.00000000000E+00 -0.74505805969E-08  0.93827000000E+00  0.93827000000E+00 0.  1.
     999902    2    1    2    0    0  0.10863954596E-01  0.19659978657E-02 -0.95888129704E-02  0.10293068679E+01  0.10292029889E+01 0.  0.
     999903    2    3    3    0    0 -0.11598167981E+00  0.31253806287E-01 -0.54394291612E-01  0.13860202255E+00  0.42699311894E-01 0.  0.
         14    1    1    2    0    0 -0.10863954596E-01 -0.19659978657E-02  0.95888129704E-02  0.14623132060E-01  0.00000000000E+00 0. -1.
     999901    1    3    3    0    0  0.12684563440E+00 -0.29287808421E-01  0.44805478641E-01  0.89070484539E+00  0.88000000000E+00 0. -1.
        -11    1    4    4    0    0 -0.98896990382E-01  0.18418368132E-01 -0.27580644753E-01  0.10431109278E+00  0.51100000000E-03 0. -1.
         11    1    4    4    0    0 -0.17084689424E-01  0.12835438155E-01 -0.26813646859E-01  0.34290929766E-01  0.51100000000E-03 0.  1.
</event>
<event>
 8    1  0.2927513E+004  0.1043930E+01  0.7957747E-01            NaN
         13   -1    0    0    0    0  0.00000000000E+00  0.00000000000E+00  0.74505805969E-08  0.10566000000E+00  0.10566000000E+00 0.  1.
     999900   -1    0    0    0    0 -0.00000000000E+00 -0.00000000000E+00 -0.74505805969E-08  0.93827000000E+00  0.93827000000E+00 0. -1.
     999902    2    1    2    0    0  0.67167870802E-02 -0.96863140610E-03 -0.12924040485E-01  0.10293325928E+01  0.10292290815E+01 0.  0.
     999903    2    3    3    0    0 -0.81062838438E-01  0.77486096321E-01  0.66809485779E-01  0.13791919699E+00  0.44529974284E-01 0.  0.
         14    1    1    2    0    0 -0.67167870802E-02  0.96863140610E-03  0.12924040485E-01  0.14597407233E-01  0.00000000000E+00 0.  1.
     999901    1    3    3    0    0  0.87779625518E-01 -0.78454727727E-01 -0.79733526264E-01  0.89141339578E+00  0.88000000000E+00 0. -1.
        -11    1    4    4    0    0 -0.55467717812E-01  0.69248913761E-01  0.32875676278E-01  0.94621091666E-01  0.51100000000E-03 0.  1.
         11    1    4    4    0    0 -0.25595120625E-01  0.82371825597E-02  0.33933809502E-01  0.43298105324E-01  0.51100000000E-03 0. -1.
</event>
<event>
 8    1  0.2927513E+004  0.1043930E+01  0.7957747E-01            NaN
         13   -1    0    0    0    0  0.00000000000E+00  0.00000000000E+00  0.74505805969E-08  0.10566000000E+00  0.10566000000E+00 0.  1.
     999900   -1    0    0    0    0 -0.00000000000E+00 -0.00000000000E+00 -0.74505805969E-08  0.93827000000E+00  0.93827000000E+00 0.  1.
     999902    2    1    2    0    0  0.82284238115E-02 -0.40971881831E-02  0.12111638678E-01  0.10287252080E+01  0.10286128367E+01 0.  0.
     999903    2    3    3    0    0 -0.89112601461E-01 -0.32514890417E-01 -0.88069907845E-01  0.13725497107E+00  0.45654622744E-01 0.  0.
         14    1    1    2    0    0 -0.82284238115E-02  0.40971881831E-02 -0.12111638678E-01  0.15204792037E-01  0.00000000000E+00 0. -1.
     999901    1    3    3    0    0  0.97341025273E-01  0.28417702234E-01  0.10018154652E+00  0.89147023689E+00  0.88000000000E+00 0. -1.
        -11    1    4    4    0    0 -0.38241095945E-01 -0.14595617805E-01 -0.96174450577E-02  0.42049611753E-01  0.51100000000E-03 0.  1.
         11    1    4    4    0    0 -0.50871505516E-01 -0.17919272611E-01 -0.78452462787E-01  0.95205359317E-01  0.51100000000E-03 0. -1.
</event>
<event>
 8    1  0.2927513E+004  0.1043930E+01  0.7957747E-01            NaN
         13   -1    0    0    0    0  0.00000000000E+00  0.00000000000E+00  0.74505805969E-08  0.10566000000E+00  0.10566000000E+00 0. -1.
     999900   -1    0    0    0    0 -0.00000000000E+00 -0.00000000000E+00 -0.74505805969E-08  0.93827000000E+00  0.93827000000E+00 0.  1.
     999902    2    1    2    0    0 -0.18865987996E-02 -0.19498048522E-01 -0.73516866262E-02  0.10230067964E+01  0.10227928065E+01 0.  0.
     999903    2    3    3    0    0 -0.70129853540E-01 -0.76784405616E-01  0.72322941712E-01  0.13492632996E+00  0.46480805888E-01 0.  0.
         14    1    1    2    0    0  0.18865987996E-02  0.19498048522E-01  0.73516866262E-02  0.20923203566E-01  0.00000000000E+00 0.  1.
     999901    1    3    3    0    0  0.68243254741E-01  0.57286357094E-01 -0.79674628339E-01  0.88808046647E+00  0.88000000000E+00 0. -1.
        -11    1    4    4    0    0 -0.62717877875E-01 -0.54406395077E-01  0.33559872583E-01  0.89555090303E-01  0.51100000000E-03 0.  1.
         11    1    4    4    0    0 -0.74119756656E-02 -0.22378010539E-01  0.38763069130E-01  0.45371239660E-01  0.51100000000E-03 0. -1.
</event>
<event>
 8    1  0.2927513E+004  0.1043930E+01  0.7957747E-01            NaN
         13   -1    0    0    0    0  0.00000000000E+00  0.00000000000E+00  0.74505805969E-08  0.10566000000E+00  0.10566000000E+00 0.  1.
     999900   -1    0    0    0    0 -0.00000000000E+00 -0.00000000000E+00 -0.74505805969E-08  0.93827000000E+00  0.93827000000E+00 0. -1.
     999902    2    1    2    0    0  0.11954635098E-01 -0.63347767037E-02  0.39816931335E-02  0.10298269302E+01  0.10297303578E+01 0.  0.
     999903    2    3    3    0    0  0.48197110382E-01 -0.10761047495E+00 -0.62276205844E-01  0.14080477459E+00  0.45218170740E-01 0.  0.
         14    1    1    2    0    0 -0.11954635098E-01  0.63347767037E-02 -0.39816931335E-02  0.14103069751E-01  0.00000000000E+00 0. -1.
     999901    1    3    3    0    0 -0.36242475285E-01  0.10127569825E+00  0.66257898977E-01  0.88902215566E+00  0.88000000000E+00 0.  1.
        -11    1    4    4    0    0  0.42347643104E-01 -0.41404833691E-01 -0.22571981249E-01  0.63383267413E-01  0.51100000000E-03 0. -1.
         11    1    4    4    0    0  0.58494672784E-02 -0.66205641261E-01 -0.39704224595E-01  0.77421507179E-01  0.51100000000E-03 0.  1.
</event>
<event>
 8    1  0.2927513E+004  0.1043930E+01  0.7957747E-01            NaN
         13   -1    0    0    0    0  0.00000000000E+00  0.00000000000E+00  0.74505805969E-08  0.10566000000E+00  0.10566000000E+00 0. -1.
     999900   -1    0    0    0    0 -0.00000000000E+00 -0.00000000000E+00 -0.74505805969E-08  0.93827000000E+00  0.93827000000E+00 0.  1.
     999902    2    1    2    0    0 -0.12897632425E-01  0.43601981280E-02 -0.14714826604E-02  0.10302360046E+01  0.10301449896E+01 0.  0.
     999903    2    3    3    0    0 -0.10518477264E+00 -0.85050496783E-01  0.99420365514E-03  0.14090070884E+00  0.39428389667E-01 0.  0.
         14    1    1    2    0    0  0.12897632425E-01 -0.43601981280E-02  0.14714826604E-02  0.13693995440E-01  0.00000000000E+00 0. -1.
     999901    1    3    3    0    0  0.92287140211E-01  0.89410694911E-01 -0.24656863156E-02  0.88933529572E+00  0.88000000000E+00 0. -1.
        -11    1    4    4    0    0 -0.41939895370E-01 -0.52677125403E-01 -0.12751687668E-01  0.68532481524E-01  0.51100000000E-03 0. -1.
         11    1    4    4    0    0 -0.63244877267E-01 -0.32373371380E-01  0.13745891324E-01  0.72368227312E-01  0.51100000000E-03 0.  1.
</event>
<event>
 8    1  0.2927513E+004  0.1043930E+01  0.7957747E-01            NaN
         13   -1    0    0    0    0  0.00000000000E+00  0.00000000000E+00  0.74505805969E-08  0.10566000000E+00  0.10566000000E+00 0. -1.
     999900   -1    0    0    0    0 -0.00000000000E+00 -0.00000000000E+00 -0.74505805969E-08  0.93827000000E+00  0.93827000000E+00 0. -1.
     999902    2    1    2    0    0  0.73363532450E-02 -0.48432179998E-02 -0.12471048307E-01  0.10286720222E+01  0.10285588576E+01 0.  0.
     999903    2    3    3    0    0 -0.10241053480E+00 -0.64009556426E-01  0.48446260214E-01  0.13779831990E+00  0.45345296182E-01 0.  0.
         14    1    1    2    0    0 -0.73363532450E-02  0.48432179998E-02  0.12471048307E-01  0.15257977763E-01  0.00000000000E+00 0.  1.
     999901    1    3    3    0    0  0.10974688805E+00  0.59166338426E-01 -0.60917308521E-01  0.89087370234E+00  0.88000000000E+00 0. -1.
        -11    1    4    4    0    0 -0.46658278473E-01 -0.45182626441E-01  0.44669994800E-01  0.78829780150E-01  0.51100000000E-03 0.  1.
         11    1    4    4    0    0 -0.55752256331E-01 -0.18826929986E-01  0.37762654137E-02  0.58968539749E-01  0.51100000000E-03 0. -1.
</event>
<event>
 8    1  0.2927513E+004  0.1043930E+01  0.7957747E-01            NaN
         13   -1    0    0    0    0  0.00000000000E+00  0.00000000000E+00  0.74505805969E-08  0.10566000000E+00  0.10566000000E+00 0. -1.
     999900   -1    0    0    0    0 -0.00000000000E+00 -0.00000000000E+00 -0.74505805969E-08  0.93827000000E+00  0.93827000000E+00 0.  1.
     999902    2    1    2    0    0  0.78148071401E-02  0.11410038669E-01 -0.72827757609E-04  0.10301001230E+01  0.10300072805E+01 0.  0.
     999903    2    3    3    0    0 -0.48470257502E-01  0.11110785330E+00  0.55939893984E-01  0.14091786514E+00  0.45102683405E-01 0.  0.
         14    1    1    2    0    0 -0.78148071401E-02 -0.11410038669E-01  0.72827757609E-04  0.13829876968E-01  0.00000000000E+00 0.  1.
     999901    1    3    3    0    0  0.56285064642E-01 -0.99697814634E-01 -0.56012721741E-01  0.88918225789E+00  0.88000000000E+00 0.  1.
        -11    1    4    4    0    0 -0.19820261549E-01  0.93508045270E-01  0.38646619990E-01  0.10310392648E+00  0.51100000000E-03 0. -1.
         11    1    4    4    0    0 -0.28649995953E-01  0.17599808033E-01  0.17293273993E-01  0.37813938665E-01  0.51100000000E-03 0.  1.
</event>
<event>
 7    1  0.2927513E+004  0.1043930E+01  0.7957747E-01            NaN
         13   -1    0    0    0    0  0.00000000000E+00  0.00000000000E+00  0.74505805969E-08  0.10566000000E+00  0.10566000000E+00 0. -1.
     999900   -1    0    0    0    0 -0.00000000000E+00 -0.00000000000E+00 -0.74505805969E-08  0.93827000000E+00  0.93827000000E+00 0. -1.
     999903    2    1    2    0    0 -0.24407259639E-02 -0.56616860095E-01  0.57032597274E-01  0.91718432988E-01  0.44137600837E-01 0.  0.
         14    1    1    2    0    0  0.38234867559E-01 -0.24133716291E-01  0.42692556220E-01  0.62185172798E-01  0.00000000000E+00 0. -1.
     999901    1    1    2    0    0 -0.35794141595E-01  0.80750576386E-01 -0.99725153494E-01  0.89002639421E+00  0.88000000000E+00 0. -1.
        -11    1    3    3    0    0 -0.80208895754E-03  0.46187780026E-02  0.19081837251E-01  0.19655892013E-01  0.51100000000E-03 0.  1.
         11    1    3    3    0    0 -0.16386370064E-02 -0.61235638098E-01  0.37950760022E-01  0.72062540975E-01  0.51100000000E-03 0. -1.
</event>
<event>
 8    1  0.2927513E+004  0.1043930E+01  0.7957747E-01            NaN
         13   -1    0    0    0    0  0.00000000000E+00  0.00000000000E+00  0.74505805969E-08  0.10566000000E+00  0.10566000000E+00 0.  1.
     999900   -1    0    0    0    0 -0.00000000000E+00 -0.00000000000E+00 -0.74505805969E-08  0.93827000000E+00  0.93827000000E+00 0.  1.
     999902    2    1    2    0    0  0.10110686737E-01  0.13935672531E-02  0.77519930660E-02  0.10311135491E+01  0.10310338936E+01 0.  0.
     999903    2    3    3    0    0  0.91434257281E-01  0.86889627839E-01 -0.45846325305E-01  0.14162162719E+00  0.45219121089E-01 0.  0.
         14    1    1    2    0    0 -0.10110686737E-01 -0.13935672531E-02 -0.77519930660E-02  0.12816450854E-01  0.00000000000E+00 0.  1.
     999901    1    3    3    0    0 -0.81323570544E-01 -0.85496060586E-01  0.53598318371E-01  0.88949192196E+00  0.88000000000E+00 0.  1.
        -11    1    4    4    0    0  0.27461027611E-01  0.55914301619E-01 -0.28217078382E-01  0.68388462451E-01  0.51100000000E-03 0. -1.
         11    1    4    4    0    0  0.63973229671E-01  0.30975326219E-01 -0.17629246923E-01  0.73233164734E-01  0.51100000000E-03 0.  1.
</event>
<event>
 8    1  0.2927513E+004  0.1043930E+01  0.7957747E-01            NaN
         13   -1    0    0    0    0  0.00000000000E+00  0.00000000000E+00  0.74505805969E-08  0.10566000000E+00  0.10566000000E+00 0.  1.
     999900   -1    0    0    0    0 -0.00000000000E+00 -0.00000000000E+00 -0.74505805969E-08  0.93827000000E+00  0.93827000000E+00 0. -1.
     999902    2    1    2    0    0  0.31850025696E-02  0.12690178689E-01  0.51624252431E-02  0.10298645988E+01  0.10297685450E+01 0.  0.
     999903    2    3    3    0    0  0.99916251422E-01  0.47950930637E-01 -0.73492640264E-01  0.14037773860E+00  0.44968792237E-01 0.  0.
         14    1    1    2    0    0 -0.31850025696E-02 -0.12690178689E-01 -0.51624252431E-02  0.14065401200E-01  0.00000000000E+00 0.  1.
     999901    1    3    3    0    0 -0.96731248852E-01 -0.35260751947E-01  0.78655065508E-01  0.88948686020E+00  0.88000000000E+00 0. -1.
        -11    1    4    4    0    0  0.22627016576E-03  0.10733485846E-01  0.51527027189E-03  0.10760369001E-01  0.51100000000E-03 0.  1.
         11    1    4    4    0    0  0.99689981256E-01  0.37217444791E-01 -0.74007910536E-01  0.12961736960E+00  0.51100000000E-03 0. -1.
</event>
<event>
 8    1  0.2927513E+004  0.1043930E+01  0.7957747E-01            NaN
         13   -1    0    0    0    0  0.00000000000E+00  0.00000000000E+00  0.74505805969E-08  0.10566000000E+00  0.10566000000E+00 0.  1.
     999900   -1    0    0    0    0 -0.00000000000E+00 -0.00000000000E+00 -0.74505805969E-08  0.93827000000E+00  0.93827000000E+00 0.  1.
     999902    2    1    2    0    0  0.12790204935E-01 -0.21704065720E-02  0.34220085549E-02  0.10305132139E+01  0.10304258701E+01 0.  0.
     999903    2    3    3    0    0  0.25979232647E-01 -0.12135654920E+00  0.50302715460E-01  0.14114428722E+00  0.44598363978E-01 0.  0.
         14    1    1    2    0    0 -0.12790204935E-01  0.21704065720E-02 -0.34220085549E-02  0.13416786109E-01  0.00000000000E+00 0.  1.
     999901    1    3    3    0    0 -0.13189027713E-01  0.11918614263E+00 -0.46880706905E-01  0.88936892667E+00  0.88000000000E+00 0.  1.
        -11    1    4    4    0    0  0.46020011974E-03 -0.60843781162E-01  0.43785653215E-02  0.61005003447E-01  0.51100000000E-03 0. -1.
         11    1    4    4    0    0  0.25519032528E-01 -0.60512768038E-01  0.45924150138E-01  0.80139283773E-01  0.51100000000E-03 0.  1.
</event>
<event>
 8    1  0.2927513E+004  0.1043930E+01  0.7957747E-01            NaN
         13   -1    0    0    0    0  0.00000000000E+00  0.00000000000E+00  0.74505805969E-08  0.10566000000E+00  0.10566000000E+00 0. -1.
     999900   -1    0    0    0    0 -0.00000000000E+00 -0.00000000000E+00 -0.74505805969E-08  0.93827000000E+00  0.93827000000E+00 0. -1.
     999902    2    1    2    0    0 -0.12991497741E-01 -0.67593408006E-02 -0.13424329080E-02  0.10292238847E+01  0.10291188148E+01 0.  0.
     999903    2    3    3    0    0  0.47764674842E-01 -0.87518806571E-02  0.12164924341E+00  0.13859363864E+00  0.45294576629E-01 0.  0.
         14    1    1    2    0    0  0.12991497741E-01  0.67593408006E-02  0.13424329080E-02  0.14706115318E-01  0.00000000000E+00 0.  1.
     999901    1    3    3    0    0 -0.60756172583E-01  0.19925398565E-02 -0.12299167632E+00  0.89063024604E+00  0.88000000000E+00 0. -1.
        -11    1    4    4    0    0  0.17139905163E-01 -0.20892290295E-01  0.26299094787E-01  0.37711638129E-01  0.51100000000E-03 0. -1.
         11    1    4    4    0    0  0.30624769679E-01  0.12140409638E-01  0.95350148621E-01  0.10088200051E+00  0.51100000000E-03 0.  1.
</event>
<event>
 8    1  0.2927513E+004  0.1043930E+01  0.7957747E-01            NaN
         13   -1    0    0    0    0  0.00000000000E+00  0.00000000000E+00  0.74505805969E-08  0.10566000000E+00  0.10566000000E+00 0.  1.
     999900   -1    0    0    0    0 -0.00000000000E+00 -0.00000000000E+00 -0.74505805969E-08  0.93827000000E+00  0.93827000000E+00 0.  1.
     999902    2    1    2    0    0 -0.56713202578E-02  0.40886658256E-04 -0.14951453931E-01  0.10279390175E+01  0.10278146293E+01 0.  0.
     999903    2    3    3    0    0  0.38219858934E-01  0.29331450423E-01 -0.12339182603E+00  0.13971399705E+00  0.44422591556E-01 0.  0.
         14    1    1    2    0    0  0.56713202578E-02 -0.40886658256E-04  0.14951453931E-01  0.15990982453E-01  0.00000000000E+00 0.  1.
     999901    1    3    3    0    0 -0.43891179192E-01 -0.29290563765E-01  0.10844037210E+00  0.88822502050E+00  0.88000000000E+00 0. -1.
        -11    1    4    4    0    0  0.53098712833E-02  0.11614321883E-01 -0.85636599483E-01  0.86585076646E-01  0.51100000000E-03 0. -1.
         11    1    4    4    0    0  0.32909987650E-01  0.17717128541E-01 -0.37755226544E-01  0.53128920403E-01  0.51100000000E-03 0.  1.
</event>
<event>
 8    1  0.2927513E+004  0.1043930E+01  0.7957747E-01            NaN
         13   -1    0    0    0    0  0.00000000000E+00  0.00000000000E+00  0.74505805969E-08  0.10566000000E+00  0.10566000000E+00 0. -1.
     999900   -1    0    0    0    0 -0.00000000000E+00 -0.00000000000E+00 -0.74505805969E-08  0.93827000000E+00  0.93827000000E+00 0.  1.
     999902    2    1    2    0    0 -0.33029532661E-02 -0.29314195651E-02 -0.13047431703E-01  0.10301554512E+01  0.10300633550E+01 0.  0.
     999903    2    3    3    0    0  0.16720611119E-01  0.99107757450E-01 -0.89305876632E-01  0.14075774082E+00  0.41656639061E-01 0.  0.
         14    1    1    2    0    0  0.33029532661E-02  0.29314195651E-02  0.13047431703E-01  0.13774548812E-01  0.00000000000E+00 0. -1.
     999901    1    3    3    0    0 -0.20023564385E-01 -0.10203917702E+00  0.76258444929E-01  0.88939771036E+00  0.88000000000E+00 0. -1.
        -11    1    4    4    0    0  0.12783404972E-01  0.52132206375E-01 -0.20735095785E-01  0.57544658331E-01  0.51100000000E-03 0.  1.
         11    1    4    4    0    0  0.39372061475E-02  0.46975551076E-01 -0.68570780847E-01  0.83213082494E-01  0.51100000000E-03 0. -1.
</event>
<event>
 8    1  0.2927513E+004  0.1043930E+01  0.7957747E-01            NaN
         13   -1    0    0    0    0  0.00000000000E+00  0.00000000000E+00  0.74505805969E-08  0.10566000000E+00  0.10566000000E+00 0. -1.
     999900   -1    0    0    0    0 -0.00000000000E+00 -0.00000000000E+00 -0.74505805969E-08  0.93827000000E+00  0.93827000000E+00 0. -1.
     999902    2    1    2    0    0  0.49825648397E-02  0.88687499151E-02  0.83946118799E-02  0.10307409824E+01  0.10306565978E+01 0.  0.
     999903    2    3    3    0    0 -0.19903974070E-01  0.10234009004E+00 -0.83201443590E-01  0.14071510150E+00  0.44817377883E-01 0.  0.
         14    1    1    2    0    0 -0.49825648397E-02 -0.88687499151E-02 -0.83946118799E-02  0.13189017630E-01  0.00000000000E+00 0.  1.
     999901    1    3    3    0    0  0.24886538910E-01 -0.93471340128E-01  0.91596055470E-01  0.89002588087E+00  0.88000000000E+00 0.  1.
        -11    1    4    4    0    0  0.10943283168E-01  0.64596473269E-02 -0.10572191505E-01  0.16538284201E-01  0.51100000000E-03 0. -1.
         11    1    4    4    0    0 -0.30847257239E-01  0.95880442716E-01 -0.72629252084E-01  0.12417681730E+00  0.51100000000E-03 0.  1.
</event>
<event>
 8    1  0.2927513E+004  0.1043930E+01  0.7957747E-01            NaN
         13   -1    0    0    0    0  0.00000000000E+00  0.00000000000E+00  0.74505805969E-08  0.10566000000E+00  0.10566000000E+00 0. -1.
     999900   -1    0    0    0    0 -0.00000000000E+00 -0.00000000000E+00 -0.74505805969E-08  0.93827000000E+00  0.93827000000E+00 0. -1.
     999902    2    1    2    0    0  0.16413687426E-02  0.12278313939E-01 -0.43285128592E-02  0.10308079915E+01  0.10307244676E+01 0.  0.
     999903    2    3    3    0    0 -0.64622085182E-03 -0.13096759108E+00 -0.14617033856E-01  0.13916317651E+00  0.44719173757E-01 0.  0.
         14    1    1    2    0    0 -0.16413687426E-02 -0.12278313939E-01  0.43285128592E-02  0.13122008539E-01  0.00000000000E+00 0. -1.
     999901    1    3    3    0    0  0.22875895944E-02  0.14324590502E+00  0.10288520997E-01  0.89164481495E+00  0.88000000000E+00 0. -1.
        -11    1    4    4    0    0 -0.21188126148E-01 -0.49458634311E-01 -0.11629896822E-01  0.55050965647E-01  0.51100000000E-03 0. -1.
         11    1    4    4    0    0  0.20541905296E-01 -0.81508956770E-01 -0.29871370343E-02  0.84112210859E-01  0.51100000000E-03 0.  1.
</event>
<event>
 8    1  0.2927513E+004  0.1043930E+01  0.7957747E-01            NaN
         13   -1    0    0    0    0  0.00000000000E+00  0.00000000000E+00  0.74505805969E-08  0.10566000000E+00  0.10566000000E+00 0.  1.
     999900   -1    0    0    0    0 -0.00000000000E+00 -0.00000000000E+00 -0.74505805969E-08  0.93827000000E+00  0.93827000000E+00 0.  1.
     999902    2    1    2    0    0  0.38560489936E-02 -0.11973269556E-01  0.48425065904E-02  0.10304511956E+01  0.10303630372E+01 0.  0.
     999903    2    3    3    0    0  0.10594791787E+00 -0.56683122884E-01 -0.58630222581E-01  0.14115343444E+00  0.45264239015E-01 0.  0.
         14    1    1    2    0    0 -0.38560489936E-02  0.11973269556E-01 -0.48425065904E-02  0.13478804390E-01  0.00000000000E+00 0. -1.
     999901    1    3    3    0    0 -0.10209186888E+00  0.44709853328E-01  0.63472729171E-01  0.88929776117E+00  0.88000000000E+00 0.  1.
        -11    1    4    4    0    0  0.11079474994E-01 -0.26385636563E-01 -0.16323350342E-01  0.32949498788E-01  0.51100000000E-03 0.  1.
         11    1    4    4    0    0  0.94868442875E-01 -0.30297486320E-01 -0.42306872238E-01  0.10820393565E+00  0.51100000000E-03 0. -1.
</event>
<event>
 8    1  0.2927513E+004  0.1043930E+01  0.7957747E-01            NaN
         13   -1    0    0    0    0  0.00000000000E+00  0.00000000000E+00  0.74505805969E-08  0.10566000000E+00  0.10566000000E+00 0. -1.
     999900   -1    0    0    0    0 -0.00000000000E+00 -0.00000000000E+00 -0.74505805969E-08  0.93827000000E+00  0.93827000000E+00 0. -1.
     999902    2    1    2    0    0 -0.86426187398E-02  0.93867431895E-03  0.10313592143E-01  0.10304412584E+01  0.10303529690E+01 0.  0.
     999903    2    3    3    0    0 -0.10475814596E+00 -0.77525065481E-01 -0.29460237989E-01  0.14084769352E+00  0.44561892086E-01 0.  0.
         14    1    1    2    0    0  0.86426187398E-02 -0.93867431895E-03 -0.10313592143E-01  0.13488741641E-01  0.00000000000E+00 0.  1.
     999901    1    3    3    0    0  0.96115527217E-01  0.78463739800E-01  0.39773830132E-01  0.88959356484E+00  0.88000000000E+00 0. -1.
        -11    1    4    4    0    0 -0.18207622402E-01 -0.30592753681E-01 -0.22556337954E-01  0.42148352212E-01  0.51100000000E-03 0.  1.
         11    1    4    4    0    0 -0.86550523555E-01 -0.46932311800E-01 -0.69039000351E-02  0.98699341311E-01  0.51100000000E-03 0. -1.
</event>
<event>
 8    1  0.2927513E+004  0.1043930E+01  0.7957747E-01            NaN
         13   -1    0    0    0    0  0.00000000000E+00  0.00000000000E+00  0.74505805969E-08  0.10566000000E+00  0.10566000000E+00 0. -1.
     999900   -1    0    0    0    0 -0.00000000000E+00 -0.00000000000E+00 -0.74505805969E-08  0.93827000000E+00  0.93827000000E+00 0. -1.
     999902    2    1    2    0    0 -0.12621497004E-01 -0.54496499029E-02  0.22187672779E-03  0.10301804509E+01  0.10300886910E+01 0.  0.
     999903    2    3    3    0    0 -0.32608066063E-01 -0.37139487009E-01 -0.12398466053E+00  0.14066880253E+00  0.44417209394E-01 0.  0.
         14    1    1    2    0    0  0.12621497004E-01  0.54496499029E-02 -0.22187672779E-03  0.13749549082E-01  0.00000000000E+00 0.  1.
     999901    1    3    3    0    0  0.19986569059E-01  0.31689837106E-01  0.12420653726E+00  0.88951164839E+00  0.88000000000E+00 0.  1.
        -11    1    4    4    0    0  0.31153968871E-02  0.80053290135E-02 -0.20799086482E-01  0.22508978428E-01  0.51100000000E-03 0.  1.
         11    1    4    4    0    0 -0.35723462951E-01 -0.45144816022E-01 -0.10318557405E+00  0.11815982410E+00  0.51100000000E-03 0. -1.
</event>
<event>
 8    1  0.2927513E+004  0.1043930E+01  0.7957747E-01            NaN
         13   -1    0    0    0    0  0.00000000000E+00  0.00000000000E+00  0.74505805969E-08  0.10566000000E+00  0.10566000000E+00 0. -1.
     999900   -1    0    0    0    0 -0.00000000000E+00 -0.00000000000E+00 -0.74505805969E-08  0.93827000000E+00  0.93827000000E+00 0.  1.
     999902    2    1    2    0    0 -0.77271277433E-02 -0.38794796215E-02  0.11168636610E-01  0.10298056484E+01  0.10297087822E+01 0.  0.
     999903    2    3    3    0    0  0.11503579637E+00  0.59831607174E-01 -0.19028997229E-01  0.13849103769E+00  0.44772861444E-01 0.  0.
         14    1    1    2    0    0  0.77271277433E-02  0.38794796215E-02 -0.11168636610E-01  0.14124351632E-01  0.00000000000E+00 0.  1.
     999901    1    3    3    0    0 -0.12276292411E+00 -0.63711086796E-01  0.30197633839E-01  0.89131461068E+00  0.88000000000E+00 0.  1.
        -11    1    4    4    0    0  0.51995537850E-01  0.27068012035E-02 -0.57059517192E-02  0.52380165474E-01  0.51100000000E-03 0.  1.
         11    1    4    4    0    0  0.63040258520E-01  0.57124805971E-01 -0.13323045510E-01  0.86110872217E-01  0.51100000000E-03 0. -1.
</event>
<event>
 8    1  0.2927513E+004  0.1043930E+01  0.7957747E-01            NaN
         13   -1    0    0    0    0  0.00000000000E+00  0.00000000000E+00  0.74505805969E-08  0.10566000000E+00  0.10566000000E+00 0. -1.
     999900   -1    0    0    0    0 -0.00000000000E+00 -0.00000000000E+00 -0.74505805969E-08  0.93827000000E+00  0.93827000000E+00 0. -1.
     999902    2    1    2    0    0 -0.50392627463E-02  0.34811436631E-02  0.14489332545E-01  0.10281993520E+01  0.10280790116E+01 0.  0.
     999903    2    3    3    0    0  0.24450534251E-01 -0.13554320040E-01  0.12977023236E+00  0.14002732976E+00  0.44562222312E-01 0.  0.
         14    1    1    2    0    0  0.50392627463E-02 -0.34811436631E-02 -0.14489332545E-01  0.15730648042E-01  0.00000000000E+00 0.  1.
     999901    1    3    3    0    0 -0.29489796997E-01  0.17035463703E-01 -0.11528089981E+00  0.88817202220E+00  0.88000000000E+00 0. -1.
        -11    1    4    4    0    0  0.27714522541E-01  0.90609172011E-02  0.82938359075E-01  0.87916025316E-01  0.51100000000E-03 0. -1.
         11    1    4    4    0    0 -0.32639882902E-02 -0.22615237241E-01  0.46831873282E-01  0.52111304446E-01  0.51100000000E-03 0.  1.
</event>
<event>
 8    1  0.2927513E+004  0.1043930E+01  0.7957747E-01            NaN
         13   -1    0    0    0    0  0.00000000000E+00  0.00000000000E+00  0.74505805969E-08  0.10566000000E+00  0.10566000000E+00 0. -1.
     999900   -1    0    0    0    0 -0.00000000000E+00 -0.00000000000E+00 -0.74505805969E-08  0.93827000000E+00  0.93827000000E+00 0. -1.
     999902    2    1    2    0    0 -0.84944322633E-02  0.12023214212E-01 -0.45164609107E-04  0.10292087535E+01  0.10291034657E+01 0.  0.
     999903    2    3    3    0    0  0.11417759214E+00 -0.50301659214E-01  0.34463772225E-01  0.13784817428E+00  0.47408734325E-01 0.  0.
         14    1    1    2    0    0  0.84944322633E-02 -0.12023214212E-01  0.45164609107E-04  0.14721246527E-01  0.00000000000E+00 0.  1.
     999901    1    3    3    0    0 -0.12267202440E+00  0.62324873426E-01 -0.34508936834E-01  0.89136057919E+00  0.88000000000E+00 0. -1.
        -11    1    4    4    0    0  0.34797470442E-01 -0.39651826685E-01  0.20212256068E-01  0.56497147937E-01  0.51100000000E-03 0.  1.
         11    1    4    4    0    0  0.79380121696E-01 -0.10649832529E-01  0.14251516157E-01  0.81351026343E-01  0.51100000000E-03 0. -1.
</event>
<event>
 8    1  0.2927513E+004  0.1043930E+01  0.7957747E-01            NaN
         13   -1    0    0    0    0  0.00000000000E+00  0.00000000000E+00  0.74505805969E-08  0.10566000000E+00  0.10566000000E+00 0. -1.
     999900   -1    0    0    0    0 -0.00000000000E+00 -0.00000000000E+00 -0.74505805969E-08  0.93827000000E+00  0.93827000000E+00 0.  1.
     999902    2    1    2    0    0  0.77627186631E-02  0.12652276361E-01 -0.39000009457E-02  0.10285823648E+01  0.10284678562E+01 0.  0.
     999903    2    3    3    0    0  0.12420102435E+00  0.15507806004E-01 -0.43480907069E-01  0.14002584934E+00  0.45279826697E-01 0.  0.
         14    1    1    2    0    0 -0.77627186631E-02 -0.12652276361E-01  0.39000009457E-02  0.15347635177E-01  0.00000000000E+00 0. -1.
     999901    1    3    3    0    0 -0.11643830569E+00 -0.28555296430E-02  0.39580906123E-01  0.88855651549E+00  0.88000000000E+00 0.  1.
        -11    1    4    4    0    0  0.45814135413E-01  0.19343280699E-01  0.11395813452E-02  0.49745927255E-01  0.51100000000E-03 0. -1.
         11    1    4    4    0    0  0.78386888941E-01 -0.38354746951E-02 -0.44620488414E-01  0.90279922082E-01  0.51100000000E-03 0.  1.
</event>
<event>
 8    1  0.2927513E+004  0.1043930E+01  0.7957747E-01            NaN
         13   -1    0    0    0    0  0.00000000000E+00  0.00000000000E+00  0.74505805969E-08  0.10566000000E+00  0.10566000000E+00 0. -1.
     999900   -1    0    0    0    0 -0.00000000000E+00 -0.00000000000E+00 -0.74505805969E-08  0.93827000000E+00  0.93827000000E+00 0.  1.
     999902    2    1    2    0    0 -0.25169013054E-02 -0.66734609703E-02  0.12289772928E-01  0.10297205527E+01  0.10296225077E+01 0.  0.
     999903    2    3    3    0    0 -0.69260699612E-01  0.10083751589E+00  0.50791371254E-01  0.13983532538E+00  0.44820817804E-01 0.  0.
         14    1    1    2    0    0  0.25169013054E-02  0.66734609703E-02 -0.12289772928E-01  0.14209447285E-01  0.00000000000E+00 0.  1.
     999901    1    3    3    0    0  0.66743798307E-01 -0.10751097686E+00 -0.38501598325E-01  0.88988522734E+00  0.88000000000E+00 0.  1.
        -11    1    4    4    0    0 -0.12158916525E-02  0.34938113165E-01  0.19732985876E-01  0.40147253911E-01  0.51100000000E-03 0.  1.
         11    1    4    4    0    0 -0.68044807960E-01  0.65899402724E-01  0.31058385378E-01  0.99688071468E-01  0.51100000000E-03 0. -1.
</event>
<event>
 8    1  0.2927513E+004  0.1043930E+01  0.7957747E-01            NaN
         13   -1    0    0    0    0  0.00000000000E+00  0.00000000000E+00  0.74505805969E-08  0.10566000000E+00  0.10566000000E+00 0.  1.
     999900   -1    0    0    0    0 -0.00000000000E+00 -0.00000000000E+00 -0.74505805969E-08  0.93827000000E+00  0.93827000000E+00 0.  1.
     999902    2    1    2    0    0 -0.37336540337E-02  0.30541062135E-02 -0.13249978686E-01  0.10298293024E+01  0.10297327626E+01 0.  0.
     999903    2    3    3    0    0  0.10245693905E-01 -0.24726623536E-01 -0.13138813074E+00  0.14139032641E+00  0.44855360287E-01 0.  0.
         14    1    1    2    0    0  0.37336540337E-02 -0.30541062135E-02  0.13249978686E-01  0.14100697585E-01  0.00000000000E+00 0.  1.
     999901    1    3    3    0    0 -0.13979347939E-01  0.27780729750E-01  0.11813815206E+00  0.88843897601E+00  0.88000000000E+00 0. -1.
        -11    1    4    4    0    0  0.71735755653E-02 -0.30242690669E-01 -0.44561571413E-01  0.54333003719E-01  0.51100000000E-03 0. -1.
         11    1    4    4    0    0  0.30721183401E-02  0.55160671326E-02 -0.86826559331E-01  0.87057322691E-01  0.51100000000E-03 0.  1.
</event>
<event>
 8    1  0.2927513E+004  0.1043930E+01  0.7957747E-01            NaN
         13   -1    0    0    0    0  0.00000000000E+00  0.00000000000E+00  0.74505805969E-08  0.10566000000E+00  0.10566000000E+00 0.  1.
     999900   -1    0    0    0    0 -0.00000000000E+00 -0.00000000000E+00 -0.74505805969E-08  0.93827000000E+00  0.93827000000E+00 0. -1.
     999902    2    1    2    0    0  0.12353409811E-01 -0.45612290458E-02  0.43508660308E-02  0.10300612733E+01  0.10299679049E+01 0.  0.
     999903    2    3    3    0    0  0.39867663914E-01  0.12199336439E+00  0.32947420047E-01  0.14012258881E+00  0.45574069661E-01 0.  0.
         14    1    1    2    0    0 -0.12353409811E-01  0.45612290458E-02 -0.43508660308E-02  0.13868726675E-01  0.00000000000E+00 0.  1.
     999901    1    3    3    0    0 -0.27514254103E-01 -0.12655459344E+00 -0.28596554016E-01  0.88993868452E+00  0.88000000000E+00 0. -1.
        -11    1    4    4    0    0  0.22548463827E-01  0.10213459796E+00  0.41332620915E-01  0.11246579922E+00  0.51100000000E-03 0.  1.
         11    1    4    4    0    0  0.17319200086E-01  0.19858766430E-01 -0.83852008680E-02  0.27656789589E-01  0.51100000000E-03 0. -1.
</event>
<event>
 8    1  0.2927513E+004  0.1043930E+01  0.7957747E-01            NaN
         13   -1    0    0    0    0  0.00000000000E+00  0.00000000000E+00  0.74505805969E-08  0.10566000000E+00  0.10566000000E+00 0.  1.
     999900   -1    0    0    0    0 -0.00000000000E+00 -0.00000000000E+00 -0.74505805969E-08  0.93827000000E+00  0.93827000000E+00 0.  1.
     999902    2    1    2    0    0 -0.50131536738E-02 -0.12037965922E-01 -0.31091522155E-02  0.10305243609E+01  0.10304371631E+01 0.  0.
     999903    2    3    3    0    0 -0.27941689475E-01 -0.10072881844E+00  0.83876914815E-01  0.14150334821E+00  0.45396341697E-01 0.  0.
         14    1    1    2    0    0  0.50131536738E-02  0.12037965922E-01  0.31091522155E-02  0.13405639142E-01  0.00000000000E+00 0. -1.
     999901    1    3    3    0    0  0.22928535801E-01  0.88690852522E-01 -0.86986067031E-01  0.88902101265E+00  0.88000000000E+00 0.  1.
        -11    1    4    4    0    0 -0.35017271423E-01 -0.41698038123E-01  0.37899710089E-01  0.66344440815E-01  0.51100000000E-03 0.  1.
         11    1    4    4    0    0  0.70755819479E-02 -0.59030780321E-01  0.45977204727E-01  0.75158907394E-01  0.51100000000E-03 0. -1.
</event>
<event>
 8    1  0.2927513E+004  0.1043930E+01  0.7957747E-01            NaN
         13   -1    0    0    0    0  0.00000000000E+00  0.00000000000E+00  0.74505805969E-08  0.10566000000E+00  0.10566000000E+00 0.  1.
     999900   -1    0    0    0    0 -0.00000000000E+00 -0.00000000000E+00 -0.74505805969E-08  0.93827000000E+00  0.93827000000E+00 0.  1.
     999902    2    1    2    0    0  0.12234260650E-01  0.83833954698E-02  0.24129686625E-02  0.10289039935E+01  0.10287942685E+01 0.  0.
     999903    2    3    3    0    0  0.83735126391E-01  0.10403449836E+00 -0.22837255756E-02  0.14082541240E+00  0.44629957820E-01 0.  0.
         14    1    1    2    0    0 -0.12234260650E-01 -0.83833954698E-02 -0.24129686625E-02  0.15026006490E-01  0.00000000000E+00 0.  1.
     999901    1    3    3    0    0 -0.71500865740E-01 -0.95651102891E-01  0.46966942381E-02  0.88807858111E+00  0.88000000000E+00 0.  1.
        -11    1    4    4    0    0  0.37923198526E-01  0.64199833006E-01 -0.20695053967E-01  0.77384326088E-01  0.51100000000E-03 0. -1.
         11    1    4    4    0    0  0.45811927865E-01  0.39834665354E-01  0.18411328391E-01  0.63441086314E-01  0.51100000000E-03 0.  1.
</event>
<event>
 8    1  0.2927513E+004  0.1043930E+01  0.7957747E-01            NaN
         13   -1    0    0    0    0  0.00000000000E+00  0.00000000000E+00  0.74505805969E-08  0.10566000000E+00  0.10566000000E+00 0. -1.
     999900   -1    0    0    0    0 -0.00000000000E+00 -0.00000000000E+00 -0.74505805969E-08  0.93827000000E+00  0.93827000000E+00 0.  1.
     999902    2    1    2    0    0 -0.94164561007E-02  0.69380046537E-02 -0.62027536178E-02  0.10306906758E+01  0.10306056420E+01 0.  0.
     999903    2    3    3    0    0 -0.51501686076E-02 -0.67130879645E-01 -0.11479371501E+00  0.14091744749E+00  0.46336279134E-01 0.  0.
         14    1    1    2    0    0  0.94164561007E-02 -0.69380046537E-02  0.62027536178E-02  0.13239324247E-01  0.00000000000E+00 0. -1.
     999901    1    3    3    0    0 -0.42662874931E-02  0.74068884298E-01  0.10859096139E+00  0.88977322826E+00  0.88000000000E+00 0. -1.
        -11    1    4    4    0    0 -0.15992180079E-01 -0.56167561761E-01 -0.58947840664E-01  0.82979840068E-01  0.51100000000E-03 0.  1.
         11    1    4    4    0    0  0.10842011471E-01 -0.10963317884E-01 -0.55845874346E-01  0.57937607426E-01  0.51100000000E-03 0. -1.
</event>
<event>
 8    1  0.2927513E+004  0.1043930E+01  0.7957747E-01            NaN
         13   -1    0    0    0    0  0.00000000000E+00  0.00000000000E+00  0.74505805969E-08  0.10566000000E+00  0.10566000000E+00 0.  1.
     999900   -1    0    0    0    0 -0.00000000000E+00 -0.00000000000E+00 -0.74505805969E-08  0.93827000000E+00  0.93827000000E+00 0.  1.
     999902    2    1    2    0    0  0.60120205971E-02 -0.97666370984E-02 -0.82292641821E-02  0.10298143215E+01  0.10297175750E+01 0.  0.
     999903    2    3    3    0    0  0.71506631480E-01  0.10924531627E+00 -0.14608635170E-01  0.13936831777E+00  0.46501379600E-01 0.  0.
         14    1    1    2    0    0 -0.60120205971E-02  0.97666370984E-02  0.82292641821E-02  0.14115678547E-01  0.00000000000E+00 0.  1.
     999901    1    3    3    0    0 -0.65494610883E-01 -0.11901195337E+00  0.63793709876E-02  0.89044600368E+00  0.88000000000E+00 0. -1.
        -11    1    4    4    0    0  0.24968843134E-01  0.22873913209E-01 -0.22937641364E-01  0.40903001666E-01  0.51100000000E-03 0. -1.
         11    1    4    4    0    0  0.46537788347E-01  0.86371403059E-01  0.83290061943E-02  0.98465316105E-01  0.51100000000E-03 0.  1.
</event>
<event>
 8    1  0.2927513E+004  0.1043930E+01  0.7957747E-01            NaN
         13   -1    0    0    0    0  0.00000000000E+00  0.00000000000E+00  0.74505805969E-08  0.10566000000E+00  0.10566000000E+00 0. -1.
     999900   -1    0    0    0    0 -0.00000000000E+00 -0.00000000000E+00 -0.74505805969E-08  0.93827000000E+00  0.93827000000E+00 0.  1.
     999902    2    1    2    0    0  0.80624307481E-02  0.14146477967E-01 -0.14457499678E-02  0.10275832627E+01  0.10274532329E+01 0.  0.
     999903    2    3    3    0    0  0.70734272625E-01  0.11163188705E+00 -0.96939443787E-02  0.13994640141E+00  0.45011189489E-01 0.  0.
         14    1    1    2    0    0 -0.80624307481E-02 -0.14146477967E-01  0.14457499678E-02  0.16346737332E-01  0.00000000000E+00 0. -1.
     999901    1    3    3    0    0 -0.62671841877E-01 -0.97485409088E-01  0.82481944109E-02  0.88763686126E+00  0.88000000000E+00 0. -1.
        -11    1    4    4    0    0  0.34819841381E-01  0.92657131295E-01 -0.64395855582E-02  0.99194227236E-01  0.51100000000E-03 0. -1.
         11    1    4    4    0    0  0.35914431245E-01  0.18974755759E-01 -0.32543588205E-02  0.40752174176E-01  0.51100000000E-03 0.  1.
</event>
<event>
 8    1  0.2927513E+004  0.1043930E+01  0.7957747E-01            NaN
         13   -1    0    0    0    0  0.00000000000E+00  0.00000000000E+00  0.74505805969E-08  0.10566000000E+00  0.10566000000E+00 0. -1.
     999900   -1    0    0    0    0 -0.00000000000E+00 -0.00000000000E+00 -0.74505805969E-08  0.93827000000E+00  0.93827000000E+00 0.  1.
     999902    2    1    2    0    0  0.10449876674E-01  0.51995709333E-02 -0.74537074549E-02  0.10300810573E+01  0.10299879569E+01 0.  0.
     999903    2    3    3    0    0  0.32248252979E-01 -0.10528776145E+00  0.73610481075E-01  0.13920843870E+00  0.42837179527E-01 0.  0.
         14    1    1    2    0    0 -0.10449876674E-01 -0.51995709333E-02  0.74537074549E-02  0.13848942747E-01  0.00000000000E+00 0. -1.
     999901    1    3    3    0    0 -0.21798376304E-01  0.11048733238E+00 -0.81064188530E-01  0.89087261855E+00  0.88000000000E+00 0.  1.
        -11    1    4    4    0    0 -0.88600107006E-02 -0.37314897992E-01  0.18953892476E-01  0.42783321082E-01  0.51100000000E-03 0.  1.
         11    1    4    4    0    0  0.41108263679E-01 -0.67972863456E-01  0.54656588599E-01  0.96425117617E-01  0.51100000000E-03 0. -1.
</event>
<event>
 8    1  0.2927513E+004  0.1043930E+01  0.7957747E-01            NaN
         13   -1    0    0    0    0  0.00000000000E+00  0.00000000000E+00  0.74505805969E-08  0.10566000000E+00  0.10566000000E+00 0. -1.
     999900   -1    0    0    0    0 -0.00000000000E+00 -0.00000000000E+00 -0.74505805969E-08  0.93827000000E+00  0.93827000000E+00 0. -1.
     999902    2    1    2    0    0  0.15310460359E-03 -0.13655652280E-01 -0.13517965741E-02  0.10302067484E+01  0.10301153415E+01 0.  0.
     999903    2    3    3    0    0  0.11226828911E+00  0.18392970789E-01  0.67392318758E-01  0.13985699566E+00  0.45560778008E-01 0.  0.
         14    1    1    2    0    0 -0.15310460359E-03  0.13655652280E-01  0.13517965741E-02  0.13723251589E-01  0.00000000000E+00 0. -1.
     999901    1    3    3    0    0 -0.11211518450E+00 -0.32048623069E-01 -0.68744115332E-01  0.89034975275E+00  0.88000000000E+00 0. -1.
        -11    1    4    4    0    0  0.10491538901E+00  0.16895963197E-01  0.74282651810E-01  0.12965680045E+00  0.51100000000E-03 0. -1.
         11    1    4    4    0    0  0.73529001009E-02  0.14970075919E-02 -0.68903330514E-02  0.10200195203E-01  0.51100000000E-03 0.  1.
</event>
<event>
 8    1  0.2927513E+004  0.1043930E+01  0.7957747E-01            NaN
         13   -1    0    0    0    0  0.00000000000E+00  0.00000000000E+00  0.74505805969E-08  0.10566000000E+00  0.10566000000E+00 0.  1.
     999900   -1    0    0    0    0 -0.00000000000E+00 -0.00000000000E+00 -0.74505805969E-08  0.93827000000E+00  0.93827000000E+00 0. -1.
     999902    2    1    2    0    0 -0.36443749852E-02  0.12955716488E-01 -0.44992653010E-02  0.10297393183E+01  0.10296415338E+01 0.  0.
     999903    2    3    3    0    0  0.36985789246E-01 -0.10843261745E+00 -0.63517241207E-01  0.13852157872E+00  0.45035615997E-01 0.  0.
         14    1    1    2    0    0  0.36443749852E-02 -0.12955716488E-01  0.44992653010E-02  0.14190681696E-01  0.00000000000E+00 0.  1.
     999901    1    3    3    0    0 -0.40630164231E-01  0.12138833394E+00  0.59017975906E-01  0.89121773958E+00  0.88000000000E+00 0.  1.
        -11    1    4    4    0    0  0.30707790721E-01 -0.42128546384E-01 -0.10008464630E-01  0.53086846927E-01  0.51100000000E-03 0. -1.
         11    1    4    4    0    0  0.62779985254E-02 -0.66304071068E-01 -0.53508776577E-01  0.85434731798E-01  0.51100000000E-03 0.  1.
</event>
<event>
 8    1  0.2927513E+004  0.1043930E+01  0.7957747E-01            NaN
         13   -1    0    0    0    0  0.00000000000E+00  0.00000000000E+00  0.74505805969E-08  0.10566000000E+00  0.10566000000E+00 0. -1.
     999900   -1    0    0    0    0 -0.00000000000E+00 -0.00000000000E+00 -0.74505805969E-08  0.93827000000E+00  0.93827000000E+00 0.  1.
     999902    2    1    2    0    0  0.20453521949E-02 -0.84270015796E-02 -0.96774234459E-02  0.10309357572E+01  0.10308538622E+01 0.  0.
     999903    2    3    3    0    0  0.11640431066E-01  0.13035758372E+00  0.14951936852E-01  0.13966709286E+00  0.46419146314E-01 0.  0.
         14    1    1    2    0    0 -0.20453521949E-02  0.84270015796E-02  0.96774234459E-02  0.12994242794E-01  0.00000000000E+00 0. -1.
     999901    1    3    3    0    0 -0.95950788708E-02 -0.13878458530E+00 -0.24629360298E-01  0.89126866435E+00  0.88000000000E+00 0. -1.
        -11    1    4    4    0    0  0.19764430286E-02 -0.78321486009E-03  0.76619017813E-02  0.79677859201E-02  0.51100000000E-03 0. -1.
         11    1    4    4    0    0  0.96639880371E-02  0.13114079858E+00  0.72900350708E-02  0.13169930694E+00  0.51100000000E-03 0.  1.
</event>
<event>
 8    1  0.2927513E+004  0.1043930E+01  0.7957747E-01            NaN
         13   -1    0    0    0    0  0.00000000000E+00  0.00000000000E+00  0.74505805969E-08  0.10566000000E+00  0.10566000000E+00 0. -1.
     999900   -1    0    0    0    0 -0.00000000000E+00 -0.00000000000E+00 -0.74505805969E-08  0.93827000000E+00  0.93827000000E+00 0. -1.
     999902    2    1    2    0    0 -0.47588542000E-02 -0.15639211572E-01  0.60615206918E-02  0.10264951595E+01  0.10263470849E+01 0.  0.
     999903    2    3    3    0    0  0.13544849605E-01  0.19115594435E-01 -0.12590543288E+00  0.13578858658E+00  0.45138601167E-01 0.  0.
         14    1    1    2    0    0  0.47588542000E-02  0.15639211572E-01 -0.60615206918E-02  0.17434840549E-01  0.00000000000E+00 0. -1.
     999901    1    3    3    0    0 -0.18303703805E-01 -0.34754806007E-01  0.13196695358E+00  0.89070657287E+00  0.88000000000E+00 0.  1.
        -11    1    4    4    0    0 -0.52773264473E-02  0.17442175699E-01 -0.15958289423E-01  0.24228243639E-01  0.51100000000E-03 0. -1.
         11    1    4    4    0    0  0.18822176052E-01  0.16734187364E-02 -0.10994714346E+00  0.11156034294E+00  0.51100000000E-03 0.  1.
</event>
<event>
 8    1  0.2927513E+004  0.1043930E+01  0.7957747E-01            NaN
         13   -1    0    0    0    0  0.00000000000E+00  0.00000000000E+00  0.74505805969E-08  0.10566000000E+00  0.10566000000E+00 0. -1.
     999900   -1    0    0    0    0 -0.00000000000E+00 -0.00000000000E+00 -0.74505805969E-08  0.93827000000E+00  0.93827000000E+00 0. -1.
     999902    2    1    2    0    0 -0.12742693522E-01 -0.15899309263E-02 -0.37994704422E-02  0.10305382080E+01  0.10304511914E+01 0.  0.
     999903    2    3    3    0    0 -0.10124525477E+00 -0.69619348488E-02 -0.88510125547E-01  0.14203527782E+00  0.45176406128E-01 0.  0.
         14    1    1    2    0    0  0.12742693522E-01  0.15899309263E-02  0.37994704422E-02  0.13391792046E-01  0.00000000000E+00 0.  1.
     999901    1    3    3    0    0  0.88502561245E-01  0.53720039225E-02  0.84710655105E-01  0.88850293014E+00  0.88000000000E+00 0. -1.
        -11    1    4    4    0    0 -0.60890676500E-01  0.12657688767E-02 -0.79019860015E-01  0.99768111405E-01  0.51100000000E-03 0.  1.
         11    1    4    4    0    0 -0.40354578267E-01 -0.82277037255E-02 -0.94902655320E-02  0.42267166412E-01  0.51100000000E-03 0. -1.
</event>
<event>
 8    1  0.2927513E+004  0.1043930E+01  0.7957747E-01            NaN
         13   -1    0    0    0    0  0.00000000000E+00  0.00000000000E+00  0.74505805969E-08  0.10566000000E+00  0.10566000000E+00 0. -1.
     999900   -1    0    0    0    0 -0.00000000000E+00 -0.00000000000E+00 -0.74505805969E-08  0.93827000000E+00  0.93827000000E+00 0. -1.
     999902    2    1    2    0    0 -0.59231531764E-02  0.10470131706E-01 -0.68658209365E-02  0.10300791192E+01  0.10299859926E+01 0.  0.
     999903    2    3    3    0    0  0.11214215600E-01 -0.12946238310E+00  0.17265405866E-01  0.13853152417E+00  0.44795331019E-01 0.  0.
         14    1    1    2    0    0  0.59231531764E-02 -0.10470131706E-01  0.68658209365E-02  0.13850880789E-01  0.00000000000E+00 0.  1.
     999901    1    3    3    0    0 -0.17137368776E-01  0.13993251481E+00 -0.24131226802E-01  0.89154759504E+00  0.88000000000E+00 0. -1.
        -11    1    4    4    0    0 -0.57196935311E-02 -0.77051467189E-01 -0.84828530821E-02  0.77729424336E-01  0.51100000000E-03 0.  1.
         11    1    4    4    0    0  0.16933909131E-01 -0.52410915910E-01  0.25748258948E-01  0.60802099839E-01  0.51100000000E-03 0. -1.
</event>
<event>
 8    1  0.2927513E+004  0.1043930E+01  0.7957747E-01            NaN
         13   -1    0    0    0    0  0.00000000000E+00  0.00000000000E+00  0.74505805969E-08  0.10566000000E+00  0.10566000000E+00 0.  1.
     999900   -1    0    0    0    0 -0.00000000000E+00 -0.00000000000E+00 -0.74505805969E-08  0.93827000000E+00  0.93827000000E+00 0. -1.
     999902    2    1    2    0    0 -0.12121884283E-01 -0.47399904214E-02  0.48915648154E-02  0.10300255045E+01  0.10299316506E+01 0.  0.
     999903    2    3    3    0    0  0.11739728794E+00 -0.60892276271E-01 -0.71560767368E-02  0.13869310815E+00  0.41165231553E-01 0.  0.
         14    1    1    2    0    0  0.12121884283E-01  0.47399904214E-02 -0.48915648154E-02  0.13904495464E-01  0.00000000000E+00 0. -1.
     999901    1    3    3    0    0 -0.12951917222E+00  0.56152285849E-01  0.12047641552E-01  0.89133239639E+00  0.88000000000E+00 0.  1.
        -11    1    4    4    0    0  0.45307019077E-01 -0.26191107746E-01  0.17150243898E-01  0.55073515316E-01  0.51100000000E-03 0. -1.
         11    1    4    4    0    0  0.72090268864E-01 -0.34701168525E-01 -0.24306320634E-01  0.83619592834E-01  0.51100000000E-03 0.  1.
</event>
<event>
 8    1  0.2927513E+004  0.1043930E+01  0.7957747E-01            NaN
         13   -1    0    0    0    0  0.00000000000E+00  0.00000000000E+00  0.74505805969E-08  0.10566000000E+00  0.10566000000E+00 0. -1.
     999900   -1    0    0    0    0 -0.00000000000E+00 -0.00000000000E+00 -0.74505805969E-08  0.93827000000E+00  0.93827000000E+00 0. -1.
     999902    2    1    2    0    0 -0.91659340568E-02  0.84998781406E-03  0.99328778646E-02  0.10303875154E+01  0.10302985165E+01 0.  0.
     999903    2    3    3    0    0  0.63196934849E-01 -0.11602637989E+00  0.54846535410E-02  0.13970448715E+00  0.45069822499E-01 0.  0.
         14    1    1    2    0    0  0.91659340568E-02 -0.84998781406E-03 -0.99328778646E-02  0.13542484598E-01  0.00000000000E+00 0. -1.
     999901    1    3    3    0    0 -0.72362868906E-01  0.11687636770E+00  0.44482243236E-02  0.89068302826E+00  0.88000000000E+00 0. -1.
        -11    1    4    4    0    0  0.50566066170E-01 -0.52953633230E-01  0.14814413547E-01  0.74704365936E-01  0.51100000000E-03 0.  1.
         11    1    4    4    0    0  0.12630868679E-01 -0.63072746658E-01 -0.93297600055E-02  0.65000121210E-01  0.51100000000E-03 0. -1.
</event>
<event>
 8    1  0.2927513E+004  0.1043930E+01  0.7957747E-01            NaN
         13   -1    0    0    0    0  0.00000000000E+00  0.00000000000E+00  0.74505805969E-08  0.10566000000E+00  0.10566000000E+00 0. -1.
     999900   -1    0    0    0    0 -0.00000000000E+00 -0.00000000000E+00 -0.74505805969E-08  0.93827000000E+00  0.93827000000E+00 0. -1.
     999902    2    1    2    0    0 -0.13541440177E-01 -0.24063604960E-02 -0.84177601627E-03  0.10301506764E+01  0.10300585159E+01 0.  0.
     999903    2    3    3    0    0  0.31013168260E-01 -0.10772175107E+00 -0.71071558208E-01  0.13997728487E+00  0.44459887926E-01 0.  0.
         14    1    1    2    0    0  0.13541440177E-01  0.24063604960E-02  0.84177601627E-03  0.13779323632E-01  0.00000000000E+00 0. -1.
     999901    1    3    3    0    0 -0.44554608436E-01  0.10531539057E+00  0.70229782192E-01  0.89017339150E+00  0.88000000000E+00 0. -1.
        -11    1    4    4    0    0  0.12179767133E-01 -0.19052203509E-01 -0.36539574553E-01  0.42973652573E-01  0.51100000000E-03 0. -1.
         11    1    4    4    0    0  0.18833401127E-01 -0.88669547561E-01 -0.34531983655E-01  0.97003632297E-01  0.51100000000E-03 0.  1.
</event>
<event>
 8    1  0.2927513E+004  0.1043930E+01  0.7957747E-01            NaN
         13   -1    0    0    0    0  0.00000000000E+00  0.00000000000E+00  0.74505805969E-08  0.10566000000E+00  0.10566000000E+00 0. -1.
     999900   -1    0    0    0    0 -0.00000000000E+00 -0.00000000000E+00 -0.74505805969E-08  0.93827000000E+00  0.93827000000E+00 0. -1.
     999902    2    1    2    0    0 -0.36912987398E-02  0.99051769122E-02  0.84799177829E-02  0.10303783499E+01  0.10302892296E+01 0.  0.
     999903    2    3    3    0    0 -0.56293677663E-01 -0.72595703532E-01  0.96279304121E-01  0.14061313488E+00  0.45422846478E-01 0.  0.
         14    1    1    2    0    0  0.36912987398E-02 -0.99051769122E-02 -0.84799177829E-02  0.13551650145E-01  0.00000000000E+00 0.  1.
     999901    1    3    3    0    0  0.52602378923E-01  0.82500880444E-01 -0.87799386338E-01  0.88976521498E+00  0.88000000000E+00 0. -1.
        -11    1    4    4    0    0 -0.30386200476E-01 -0.19997581194E-01  0.64163192829E-01  0.73759073123E-01  0.51100000000E-03 0.  1.
         11    1    4    4    0    0 -0.25907477186E-01 -0.52598122337E-01  0.32116111292E-01  0.66854061755E-01  0.51100000000E-03 0. -1.
</event>
<event>
 8    1  0.2927513E+004  0.1043930E+01  0.7957747E-01            NaN
         13   -1    0    0    0    0  0.00000000000E+00  0.00000000000E+00  0.74505805969E-08  0.10566000000E+00  0.10566000000E+00 0.  1.
     999900   -1    0    0    0    0 -0.00000000000E+00 -0.00000000000E+00 -0.74505805969E-08  0.93827000000E+00  0.93827000000E+00 0. -1.
     999902    2    1    2    0    0  0.13633004910E-01  0.13396630526E-03  0.28601347089E-02  0.10299995607E+01  0.10299053538E+01 0.  0.
     999903    2    3    3    0    0 -0.88510878738E-01  0.82158978085E-01  0.53891423770E-01  0.13883982863E+00  0.42284029159E-01 0.  0.
         14    1    1    2    0    0 -0.13633004910E-01 -0.13396630526E-03 -0.28601347089E-02  0.13930439347E-01  0.00000000000E+00 0.  1.
     999901    1    3    3    0    0  0.10214388365E+00 -0.82025011780E-01 -0.51031289062E-01  0.89115973203E+00  0.88000000000E+00 0. -1.
        -11    1    4    4    0    0 -0.29659051204E-01  0.51178868480E-01  0.38477753772E-01  0.70567234277E-01  0.51100000000E-03 0. -1.
         11    1    4    4    0    0 -0.58851827535E-01  0.30980109605E-01  0.15413669998E-01  0.68272594349E-01  0.51100000000E-03 0.  1.
</event>
<event>
 8    1  0.2927513E+004  0.1043930E+01  0.7957747E-01            NaN
         13   -1    0    0    0    0  0.00000000000E+00  0.00000000000E+00  0.74505805969E-08  0.10566000000E+00  0.10566000000E+00 0. -1.
     999900   -1    0    0    0    0 -0.00000000000E+00 -0.00000000000E+00 -0.74505805969E-08  0.93827000000E+00  0.93827000000E+00 0. -1.
     999902    2    1    2    0    0  0.12300687067E-01 -0.25241725421E-02  0.65948006717E-02  0.10297465679E+01  0.10296488840E+01 0.  0.
     999903    2    3    3    0    0  0.44488930751E-01  0.50840892826E-01 -0.11327595028E+00  0.13943599843E+00  0.45242628159E-01 0.  0.
         14    1    1    2    0    0 -0.12300687067E-01  0.25241725421E-02 -0.65948006717E-02  0.14183432069E-01  0.00000000000E+00 0.  1.
     999901    1    3    3    0    0 -0.32188243684E-01 -0.53365065368E-01  0.11987075095E+00  0.89031056950E+00  0.88000000000E+00 0.  1.
        -11    1    4    4    0    0  0.18631222101E-01  0.43513561982E-01 -0.42088120389E-01  0.63342114839E-01  0.51100000000E-03 0. -1.
         11    1    4    4    0    0  0.25857708649E-01  0.73273308444E-02 -0.71187829894E-01  0.76093883590E-01  0.51100000000E-03 0.  1.
</event>
<event>
 8    1  0.2927513E+004  0.1043930E+01  0.7957747E-01            NaN
         13   -1    0    0    0    0  0.00000000000E+00  0.00000000000E+00  0.74505805969E-08  0.10566000000E+00  0.10566000000E+00 0.  1.
     999900   -1    0    0    0    0 -0.00000000000E+00 -0.00000000000E+00 -0.74505805969E-08  0.93827000000E+00  0.93827000000E+00 0. -1.
     999902    2    1    2    0    0 -0.56561049984E-02 -0.11724669912E-01 -0.32413350851E-03  0.10309083077E+01  0.10308260641E+01 0.  0.
     999903    2    3    3    0    0  0.12692838509E+00  0.34817502693E-01  0.24482738399E-01  0.13941506501E+00  0.38911212231E-01 0.  0.
         14    1    1    2    0    0  0.56561049984E-02  0.11724669912E-01  0.32413350851E-03  0.13021692318E-01  0.00000000000E+00 0. -1.
     999901    1    3    3    0    0 -0.13258449008E+00 -0.46542172605E-01 -0.24806871907E-01  0.89149324268E+00  0.88000000000E+00 0. -1.
        -11    1    4    4    0    0  0.24809069399E-01  0.73497363242E-02  0.21462904440E-01  0.33621807454E-01  0.51100000000E-03 0. -1.
         11    1    4    4    0    0  0.10211931569E+00  0.27467766369E-01  0.30198339589E-02  0.10579325755E+00  0.51100000000E-03 0.  1.
</event>
<event>
 8    1  0.2927513E+004  0.1043930E+01  0.7957747E-01            NaN
         13   -1    0    0    0    0  0.00000000000E+00  0.00000000000E+00  0.74505805969E-08  0.10566000000E+00  0.10566000000E+00 0. -1.
     999900   -1    0    0    0    0 -0.00000000000E+00 -0.00000000000E+00 -0.74505805969E-08  0.93827000000E+00  0.93827000000E+00 0. -1.
     999902    2    1    2    0    0  0.67213419374E-02 -0.44948192631E-02  0.11744522668E-01  0.10296711904E+01  0.10295724582E+01 0.  0.
     999903    2    3    3    0    0  0.53735269859E-01 -0.10636081278E+00  0.60894130321E-01  0.14118783438E+00  0.45008974055E-01 0.  0.
         14    1    1    2    0    0 -0.67213419374E-02  0.44948192631E-02 -0.11744522668E-01  0.14258809569E-01  0.00000000000E+00 0.  1.
     999901    1    3    3    0    0 -0.47013927921E-01  0.10186599352E+00 -0.49149607653E-01  0.88848335606E+00  0.88000000000E+00 0. -1.
        -11    1    4    4    0    0 -0.44728922136E-03 -0.40103164016E-01  0.90462598940E-02  0.41116417291E-01  0.51100000000E-03 0.  1.
         11    1    4    4    0    0  0.54182559080E-01 -0.66257648767E-01  0.51847870427E-01  0.10007141708E+00  0.51100000000E-03 0. -1.
</event>
<event>
 8    1  0.2927513E+004  0.1043930E+01  0.7957747E-01            NaN
         13   -1    0    0    0    0  0.00000000000E+00  0.00000000000E+00  0.74505805969E-08  0.10566000000E+00  0.10566000000E+00 0. -1.
     999900   -1    0    0    0    0 -0.00000000000E+00 -0.00000000000E+00 -0.74505805969E-08  0.93827000000E+00  0.93827000000E+00 0. -1.
     999902    2    1    2    0    0  0.50149050973E-02  0.11551750699E-01 -0.81583869465E-02  0.10289249510E+01  0.10288155342E+01 0.  0.
     999903    2    3    3    0    0  0.10692529807E-01 -0.43514112423E-01  0.12108545782E+00  0.13776365467E+00  0.48055470835E-01 0.  0.
         14    1    1    2    0    0 -0.50149050973E-02 -0.11551750699E-01  0.81583869465E-02  0.15005048981E-01  0.00000000000E+00 0. -1.
     999901    1    3    3    0    0 -0.56776247097E-02  0.55065863123E-01 -0.12924384477E+00  0.89116129635E+00  0.88000000000E+00 0. -1.
        -11    1    4    4    0    0 -0.12728809677E-01 -0.33691196114E-02  0.57562543843E-01  0.59051512575E-01  0.51100000000E-03 0. -1.
         11    1    4    4    0    0  0.23421339484E-01 -0.40144992812E-01  0.63522913981E-01  0.78712142092E-01  0.51100000000E-03 0.  1.
</event>
<event>
 8    1  0.2927513E+004  0.1043930E+01  0.7957747E-01            NaN
         13   -1    0    0    0    0  0.00000000000E+00  0.00000000000E+00  0.74505805969E-08  0.10566000000E+00  0.10566000000E+00 0. -1.
     999900   -1    0    0    0    0 -0.00000000000E+00 -0.00000000000E+00 -0.74505805969E-08  0.93827000000E+00  0.93827000000E+00 0. -1.
     999902    2    1    2    0    0  0.13308244871E-01 -0.18783971362E-02  0.52129084415E-02  0.10295143081E+01  0.10294133759E+01 0.  0.
     999903    2    3    3    0    0  0.99801544368E-01 -0.43891281065E-01  0.77779979313E-01  0.14130703895E+00  0.45068406478E-01 0.  0.
         14    1    1    2    0    0 -0.13308244871E-01  0.18783971362E-02 -0.52129084415E-02  0.14415691859E-01  0.00000000000E+00 0.  1.
     999901    1    3    3    0    0 -0.86493299498E-01  0.42012883928E-01 -0.72567070871E-01  0.88820726919E+00  0.88000000000E+00 0. -1.
        -11    1    4    4    0    0  0.71770858326E-01 -0.10177966728E-01  0.36824717726E-01  0.81307859818E-01  0.51100000000E-03 0. -1.
         11    1    4    4    0    0  0.28030686042E-01 -0.33713314337E-01  0.40955261587E-01  0.59999179129E-01  0.51100000000E-03 0.  1.
</event>
<event>
 8    1  0.2927513E+004  0.1043930E+01  0.7957747E-01            NaN
         13   -1    0    0    0    0  0.00000000000E+00  0.00000000000E+00  0.74505805969E-08  0.10566000000E+00  0.10566000000E+00 0. -1.
     999900   -1    0    0    0    0 -0.00000000000E+00 -0.00000000000E+00 -0.74505805969E-08  0.93827000000E+00  0.93827000000E+00 0. -1.
     999902    2    1    2    0    0 -0.11762876867E-01  0.65070839200E-02 -0.16546236048E-02  0.10303858059E+01  0.10302967844E+01 0.  0.
     999903    2    3    3    0    0 -0.74541728310E-01 -0.83136952873E-01 -0.72559375907E-01  0.14077649764E+00  0.45661111064E-01 0.  0.
         14    1    1    2    0    0  0.11762876867E-01 -0.65070839200E-02  0.16546236048E-02  0.13544194055E-01  0.00000000000E+00 0. -1.
     999901    1    3    3    0    0  0.62778851444E-01  0.89644036793E-01  0.70904752302E-01  0.88960930830E+00  0.88000000000E+00 0.  1.
        -11    1    4    4    0    0 -0.76935708375E-01 -0.61513175729E-01 -0.63536229435E-01  0.11721811969E+00  0.51100000000E-03 0. -1.
         11    1    4    4    0    0  0.23939800645E-02 -0.21623777144E-01 -0.90231464717E-02  0.23558377953E-01  0.51100000000E-03 0.  1.
</event>
<event>
 8    1  0.2927513E+004  0.1043930E+01  0.7957747E-01            NaN
         13   -1    0    0    0    0  0.00000000000E+00  0.00000000000E+00  0.74505805969E-08  0.10566000000E+00  0.10566000000E+00 0. -1.
     999900   -1    0    0    0    0 -0.00000000000E+00 -0.00000000000E+00 -0.74505805969E-08  0.93827000000E+00  0.93827000000E+00 0. -1.
     999902    2    1    2    0    0  0.55018584560E-02 -0.12672690972E-01  0.18482290699E-02  0.10299914386E+01  0.10298971211E+01 0.  0.
     999903    2    3    3    0    0 -0.11151790214E+00 -0.22032444296E-01 -0.67522239216E-01  0.13948961872E+00  0.44457056173E-01 0.  0.
         14    1    1    2    0    0 -0.55018584560E-02  0.12672690972E-01 -0.18482290699E-02  0.13938561390E-01  0.00000000000E+00 0.  1.
     999901    1    3    3    0    0  0.11701976059E+00  0.93597533248E-02  0.69370468286E-01  0.89050181989E+00  0.88000000000E+00 0.  1.
        -11    1    4    4    0    0  0.11035278659E-02 -0.82464749686E-02 -0.70515252088E-02  0.10918207359E-01  0.51100000000E-03 0. -1.
         11    1    4    4    0    0 -0.11262143000E+00 -0.13785969328E-01 -0.60470714007E-01  0.12857141136E+00  0.51100000000E-03 0.  1.
</event>
<event>
 8    1  0.2927513E+004  0.1043930E+01  0.7957747E-01            NaN
         13   -1    0    0    0    0  0.00000000000E+00  0.00000000000E+00  0.74505805969E-08  0.10566000000E+00  0.10566000000E+00 0.  1.
     999900   -1    0    0    0    0 -0.00000000000E+00 -0.00000000000E+00 -0.74505805969E-08  0.93827000000E+00  0.93827000000E+00 0.  1.
     999902    2    1    2    0    0 -0.13379098264E-01 -0.21034993554E-02  0.57465586649E-02  0.10292178310E+01  0.10291126740E+01 0.  0.
     999903    2    3    3    0    0 -0.37910712596E-01 -0.56748015592E-01 -0.11297527584E+00  0.13922755171E+00  0.44309579117E-01 0.  0.
         14    1    1    2    0    0  0.13379098264E-01  0.21034993554E-02 -0.57465586649E-02  0.14712168989E-01  0.00000000000E+00 0.  1.
     999901    1    3    3    0    0  0.24531614333E-01  0.54644516236E-01  0.11872183451E+00  0.88999027930E+00  0.88000000000E+00 0. -1.
        -11    1    4    4    0    0  0.26865163667E-03 -0.14434915867E-01 -0.58959256452E-01  0.60703327851E-01  0.51100000000E-03 0. -1.
         11    1    4    4    0    0 -0.38179364233E-01 -0.42313099724E-01 -0.54016019389E-01  0.78524223862E-01  0.51100000000E-03 0.  1.
</event>
<event>
 8    1  0.2927513E+004  0.1043930E+01  0.7957747E-01            NaN
         13   -1    0    0    0    0  0.00000000000E+00  0.00000000000E+00  0.74505805969E-08  0.10566000000E+00  0.10566000000E+00 0. -1.
     999900   -1    0    0    0    0 -0.00000000000E+00 -0.00000000000E+00 -0.74505805969E-08  0.93827000000E+00  0.93827000000E+00 0. -1.
     999902    2    1    2    0    0 -0.56253152142E-03 -0.83211655754E-03  0.15507325198E-01  0.10283901804E+01  0.10282727639E+01 0.  0.
     999903    2    3    3    0    0  0.10942688086E+00  0.41373839727E-01  0.61097541741E-01  0.13936966236E+00  0.44776738493E-01 0.  0.
         14    1    1    2    0    0  0.56253152142E-03  0.83211655754E-03 -0.15507325198E-01  0.15539819641E-01  0.00000000000E+00 0.  1.
     999901    1    3    3    0    0 -0.10998941238E+00 -0.42205956285E-01 -0.45590216543E-01  0.88902051800E+00  0.88000000000E+00 0.  1.
        -11    1    4    4    0    0  0.86663208873E-01  0.11838999038E-01  0.48443156288E-01  0.99988370236E-01  0.51100000000E-03 0. -1.
         11    1    4    4    0    0  0.22763671988E-01  0.29534840690E-01  0.12654385454E-01  0.39381292121E-01  0.51100000000E-03 0.  1.
</event>
<event>
 8    1  0.2927513E+004  0.1043930E+01  0.7957747E-01            NaN
         13   -1    0    0    0    0  0.00000000000E+00  0.00000000000E+00  0.74505805969E-08  0.10566000000E+00  0.10566000000E+00 0.  1.
     999900   -1    0    0    0    0 -0.00000000000E+00 -0.00000000000E+00 -0.74505805969E-08  0.93827000000E+00  0.93827000000E+00 0.  1.
     999902    2    1    2    0    0 -0.37899890700E-02  0.11709509965E-01  0.70930122781E-02  0.10297248086E+01  0.10296268226E+01 0.  0.
     999903    2    3    3    0    0 -0.30110148101E-01 -0.76070991664E-01 -0.10245440334E+00  0.13820991608E+00  0.43722526780E-01 0.  0.
         14    1    1    2    0    0  0.37899890700E-02 -0.11709509965E-01 -0.70930122781E-02  0.14205191443E-01  0.00000000000E+00 0. -1.
     999901    1    3    3    0    0  0.26320159031E-01  0.87780501629E-01  0.10954741562E+00  0.89151489248E+00  0.88000000000E+00 0. -1.
        -11    1    4    4    0    0 -0.35024264196E-01 -0.29157906995E-01 -0.51601685930E-01  0.68846769965E-01  0.51100000000E-03 0. -1.
         11    1    4    4    0    0  0.49141160952E-02 -0.46913084669E-01 -0.50852717410E-01  0.69363146116E-01  0.51100000000E-03 0.  1.
</event>
<event>
 8    1  0.2927513E+004  0.1043930E+01  0.7957747E-01            NaN
         13   -1    0    0    0    0  0.00000000000E+00  0.00000000000E+00  0.74505805969E-08  0.10566000000E+00  0.10566000000E+00 0. -1.
     999900   -1    0    0    0    0 -0.00000000000E+00 -0.00000000000E+00 -0.74505805969E-08  0.93827000000E+00  0.93827000000E+00 0. -1.
     999902    2    1    2    0    0  0.61256599375E-02 -0.98668184680E-02  0.76960253809E-02  0.10299977847E+01  0.10299035537E+01 0.  0.
     999903    2    3    3    0    0  0.92626717006E-01 -0.28572279401E-01 -0.90645716505E-01  0.14010822676E+00  0.44917540356E-01 0.  0.
         14    1    1    2    0    0 -0.61256599375E-02  0.98668184680E-02 -0.76960253809E-02  0.13932215295E-01  0.00000000000E+00 0.  1.
     999901    1    3    3    0    0 -0.86501057069E-01  0.18705460933E-01  0.98341741886E-01  0.88988955795E+00  0.88000000000E+00 0.  1.
        -11    1    4    4    0    0  0.29444436382E-01 -0.10609833712E-01 -0.42689232348E-02  0.31591584826E-01  0.51100000000E-03 0. -1.
         11    1    4    4    0    0  0.63182280625E-01 -0.17962445689E-01 -0.86376793270E-01  0.10851664193E+00  0.51100000000E-03 0.  1.
</event>
<event>
 8    1  0.2927513E+004  0.1043930E+01  0.7957747E-01            NaN
         13   -1    0    0    0    0  0.00000000000E+00  0.00000000000E+00  0.74505805969E-08  0.10566000000E+00  0.10566000000E+00 0.  1.
     999900   -1    0    0    0    0 -0.00000000000E+00 -0.00000000000E+00 -0.74505805969E-08  0.93827000000E+00  0.93827000000E+00 0.  1.
     999902    2    1    2    0    0  0.12498098777E-01 -0.14379693553E-02 -0.34587640006E-02  0.10308826525E+01  0.10308000824E+01 0.  0.
     999903    2    3    3    0    0  0.10727502403E+00  0.45190674475E-01  0.67228260384E-01  0.14175186829E+00  0.44986946195E-01 0.  0.
         14    1    1    2    0    0 -0.12498098777E-01  0.14379693553E-02  0.34587640006E-02  0.13047347520E-01  0.00000000000E+00 0.  1.
     999901    1    3    3    0    0 -0.94776925254E-01 -0.46628643830E-01 -0.70687024385E-01  0.88913078419E+00  0.88000000000E+00 0.  1.
        -11    1    4    4    0    0  0.82695336373E-01  0.13879927207E-01  0.54284239622E-01  0.99890994737E-01  0.51100000000E-03 0. -1.
         11    1    4    4    0    0  0.24579687657E-01  0.31310747268E-01  0.12944020763E-01  0.41860873549E-01  0.51100000000E-03 0.  1.
</event>
<event>
 8    1  0.2927513E+004  0.1043930E+01  0.7957747E-01            NaN
         13   -1    0    0    0    0  0.00000000000E+00  0.00000000000E+00  0.74505805969E-08  0.10566000000E+00  0.10566000000E+00 0.  1.
     999900   -1    0    0    0    0 -0.00000000000E+00 -0.00000000000E+00 -0.74505805969E-08  0.93827000000E+00  0.93827000000E+00 0. -1.
     999902    2    1    2    0    0 -0.12030341718E-01 -0.70155753107E-02  0.98720095023E-04  0.10300031495E+01  0.10299089915E+01 0.  0.
     999903    2    3    3    0    0  0.11287040669E+00 -0.61594362770E-01  0.28339276148E-01  0.13906175414E+00  0.44737709604E-01 0.  0.
         14    1    1    2    0    0  0.12030341718E-01  0.70155753107E-02 -0.98720095023E-04  0.13926850485E-01  0.00000000000E+00 0.  1.
     999901    1    3    3    0    0 -0.12490074840E+00  0.54578787459E-01 -0.28240556053E-01  0.89094139538E+00  0.88000000000E+00 0.  1.
        -11    1    4    4    0    0  0.10846947980E+00 -0.44225686626E-01  0.18432580239E-01  0.11858145108E+00  0.51100000000E-03 0.  1.
         11    1    4    4    0    0  0.44009268885E-02 -0.17368676144E-01  0.99066959088E-02  0.20480303057E-01  0.51100000000E-03 0. -1.
</event>
<event>
 8    1  0.2927513E+004  0.1043930E+01  0.7957747E-01            NaN
         13   -1    0    0    0    0  0.00000000000E+00  0.00000000000E+00  0.74505805969E-08  0.10566000000E+00  0.10566000000E+00 0.  1.
     999900   -1    0    0    0    0 -0.00000000000E+00 -0.00000000000E+00 -0.74505805969E-08  0.93827000000E+00  0.93827000000E+00 0.  1.
     999902    2    1    2    0    0 -0.50217151325E-02 -0.69598628950E-02  0.11476623964E-01  0.10295992564E+01  0.10294995185E+01 0.  0.
     999903    2    3    3    0    0 -0.11275774701E+00 -0.66453838550E-01  0.30632914287E-01  0.14082844840E+00  0.41998265118E-01 0.  0.
         14    1    1    2    0    0  0.50217151325E-02  0.69598628950E-02 -0.11476623964E-01  0.14330743596E-01  0.00000000000E+00 0. -1.
     999901    1    3    3    0    0  0.10773603187E+00  0.59493975655E-01 -0.19156290322E-01  0.88877080801E+00  0.88000000000E+00 0.  1.
        -11    1    4    4    0    0 -0.71287927916E-01 -0.23817757833E-01  0.29473211545E-02  0.75221021515E-01  0.51100000000E-03 0. -1.
         11    1    4    4    0    0 -0.41469819090E-01 -0.42636080717E-01  0.27685593132E-01  0.65607426884E-01  0.51100000000E-03 0.  1.
</event>
<event>
 8    1  0.2927513E+004  0.1043930E+01  0.7957747E-01            NaN
         13   -1    0    0    0    0  0.00000000000E+00  0.00000000000E+00  0.74505805969E-08  0.10566000000E+00  0.10566000000E+00 0.  1.
     999900   -1    0    0    0    0 -0.00000000000E+00 -0.00000000000E+00 -0.74505805969E-08  0.93827000000E+00  0.93827000000E+00 0. -1.
     999902    2    1    2    0    0 -0.11431903005E-01  0.69297483850E-02  0.29067277553E-02  0.10302493975E+01  0.10301585616E+01 0.  0.
     999903    2    3    3    0    0 -0.88031575900E-01  0.19049508398E-01 -0.98346666790E-01  0.14105501582E+00  0.45956593588E-01 0.  0.
         14    1    1    2    0    0  0.11431903005E-01 -0.69297483850E-02 -0.29067277553E-02  0.13680602517E-01  0.00000000000E+00 0. -1.
     999901    1    3    3    0    0  0.76599672895E-01 -0.12119760013E-01  0.10125339455E+00  0.88919438166E+00  0.88000000000E+00 0.  1.
        -11    1    4    4    0    0 -0.45187188015E-01  0.17113863786E-01 -0.21160090064E-01  0.52752031495E-01  0.51100000000E-03 0.  1.
         11    1    4    4    0    0 -0.42844387885E-01  0.19356446123E-02 -0.77186576726E-01  0.88302984327E-01  0.51100000000E-03 0. -1.
</event>
<event>
 8    1  0.2927513E+004  0.1043930E+01  0.7957747E-01            NaN
         13   -1    0    0    0    0  0.00000000000E+00  0.00000000000E+00  0.74505805969E-08  0.10566000000E+00  0.10566000000E+00 0.  1.
     999900   -1    0    0    0    0 -0.00000000000E+00 -0.00000000000E+00 -0.74505805969E-08  0.93827000000E+00  0.93827000000E+00 0. -1.
     999902    2    1    2    0    0 -0.17247635771E-03  0.13485232467E-01 -0.22137052636E-02  0.10302631886E+01  0.10301725370E+01 0.  0.
     999903    2    3    3    0    0 -0.16695845200E-01 -0.57302239307E-01 -0.11808159124E+00  0.13969637197E+00  0.44827628507E-01 0.  0.
         14    1    1    2    0    0  0.17247635771E-03 -0.13485232467E-01  0.22137052636E-02  0.13666811398E-01  0.00000000000E+00 0. -1.
     999901    1    3    3    0    0  0.16523368843E-01  0.70787471774E-01  0.11586788597E+00  0.89056681663E+00  0.88000000000E+00 0.  1.
        -11    1    4    4    0    0 -0.30670370578E-01 -0.38189839559E-01 -0.93554213871E-01  0.10560202427E+00  0.51100000000E-03 0.  1.
         11    1    4    4    0    0  0.13974525378E-01 -0.19112399748E-01 -0.24527377365E-01  0.34094347700E-01  0.51100000000E-03 0. -1.
</event>
<event>
 8    1  0.2927513E+004  0.1043930E+01  0.7957747E-01            NaN
         13   -1    0    0    0    0  0.00000000000E+00  0.00000000000E+00  0.74505805969E-08  0.10566000000E+00  0.10566000000E+00 0.  1.
     999900   -1    0    0    0    0 -0.00000000000E+00 -0.00000000000E+00 -0.74505805969E-08  0.93827000000E+00  0.93827000000E+00 0.  1.
     999902    2    1    2    0    0 -0.11377900506E-01 -0.15657861777E-01 -0.11162863104E-01  0.10215864379E+01  0.10213420658E+01 0.  0.
     999903    2    3    3    0    0  0.55488410207E-01 -0.14649818998E-01  0.10846402469E+00  0.13097838046E+00  0.45796404143E-01 0.  0.
         14    1    1    2    0    0  0.11377900506E-01  0.15657861777E-01  0.11162863104E-01  0.22343562116E-01  0.00000000000E+00 0.  1.
     999901    1    3    3    0    0 -0.66866310713E-01 -0.10080427792E-02 -0.11962688780E+00  0.89060805742E+00  0.88000000000E+00 0.  1.
        -11    1    4    4    0    0  0.31592705633E-01  0.15050568645E-01  0.57853831825E-01  0.67616164071E-01  0.51100000000E-03 0.  1.
         11    1    4    4    0    0  0.23895704574E-01 -0.29700387643E-01  0.50610192867E-01  0.63362216393E-01  0.51100000000E-03 0. -1.
</event>
<event>
 8    1  0.2927513E+004  0.1043930E+01  0.7957747E-01            NaN
         13   -1    0    0    0    0  0.00000000000E+00  0.00000000000E+00  0.74505805969E-08  0.10566000000E+00  0.10566000000E+00 0. -1.
     999900   -1    0    0    0    0 -0.00000000000E+00 -0.00000000000E+00 -0.74505805969E-08  0.93827000000E+00  0.93827000000E+00 0.  1.
     999902    2    1    2    0    0 -0.79527559288E-02  0.12481554716E-02  0.10185360827E-01  0.10309474812E+01  0.10308657348E+01 0.  0.
     999903    2    3    3    0    0  0.89313713495E-01  0.62380389084E-02  0.99339901000E-01  0.14109682124E+00  0.44989381931E-01 0.  0.
         14    1    1    2    0    0  0.79527559288E-02 -0.12481554716E-02 -0.10185360827E-01  0.12982518790E-01  0.00000000000E+00 0.  1.
     999901    1    3    3    0    0 -0.97266469424E-01 -0.49898834368E-02 -0.89154540172E-01  0.88985065997E+00  0.88000000000E+00 0.  1.
        -11    1    4    4    0    0  0.41595472008E-01  0.80018049392E-02  0.78066270818E-01  0.88819006605E-01  0.51100000000E-03 0.  1.
         11    1    4    4    0    0  0.47718241487E-01 -0.17637660308E-02  0.21273630182E-01  0.52277814638E-01  0.51100000000E-03 0. -1.
</event>
<event>
 8    1  0.2927513E+004  0.1043930E+01  0.7957747E-01            NaN
         13   -1    0    0    0    0  0.00000000000E+00  0.00000000000E+00  0.74505805969E-08  0.10566000000E+00  0.10566000000E+00 0.  1.
     999900   -1    0    0    0    0 -0.00000000000E+00 -0.00000000000E+00 -0.74505805969E-08  0.93827000000E+00  0.93827000000E+00 0. -1.
     999902    2    1    2    0    0 -0.13985643332E-01 -0.19188283292E-03 -0.61934371104E-03  0.10299293348E+01  0.10298341692E+01 0.  0.
     999903    2    3    3    0    0 -0.93848334135E-01  0.90903210472E-03 -0.95195431196E-01  0.14126522634E+00  0.45665719026E-01 0.  0.
         14    1    1    2    0    0  0.13985643332E-01  0.19188283292E-03  0.61934371104E-03  0.14000665165E-01  0.00000000000E+00 0.  1.
     999901    1    3    3    0    0  0.79862690802E-01 -0.11009149376E-02  0.94576087485E-01  0.88866410849E+00  0.88000000000E+00 0.  1.
        -11    1    4    4    0    0 -0.55907329645E-01  0.21160081337E-01 -0.67223708648E-01  0.89959250084E-01  0.51100000000E-03 0. -1.
         11    1    4    4    0    0 -0.37941004490E-01 -0.20251049233E-01 -0.27971722548E-01  0.51305976260E-01  0.51100000000E-03 0.  1.
</event>
<event>
 8    1  0.2927513E+004  0.1043930E+01  0.7957747E-01            NaN
         13   -1    0    0    0    0  0.00000000000E+00  0.00000000000E+00  0.74505805969E-08  0.10566000000E+00  0.10566000000E+00 0.  1.
     999900   -1    0    0    0    0 -0.00000000000E+00 -0.00000000000E+00 -0.74505805969E-08  0.93827000000E+00  0.93827000000E+00 0.  1.
     999902    2    1    2    0    0  0.26998846551E-02 -0.22428461691E-02  0.14676303112E-01  0.10288398175E+01  0.10287291463E+01 0.  0.
     999903    2    3    3    0    0  0.90837196065E-01  0.41407833254E-02  0.97141546001E-01  0.14057777691E+00  0.45355144439E-01 0.  0.
         14    1    1    2    0    0 -0.26998846551E-02  0.22428461691E-02 -0.14676303112E-01  0.15090182541E-01  0.00000000000E+00 0. -1.
     999901    1    3    3    0    0 -0.88137311410E-01 -0.63836294945E-02 -0.82465242889E-01  0.88826204054E+00  0.88000000000E+00 0.  1.
        -11    1    4    4    0    0 -0.13500124342E-02  0.37268440072E-03  0.20718325110E-01  0.20771893116E-01  0.51100000000E-03 0. -1.
         11    1    4    4    0    0  0.92187208499E-01  0.37680989246E-02  0.76423220891E-01  0.11980588380E+00  0.51100000000E-03 0.  1.
</event>
<event>
 8    1  0.2927513E+004  0.1043930E+01  0.7957747E-01            NaN
         13   -1    0    0    0    0  0.00000000000E+00  0.00000000000E+00  0.74505805969E-08  0.10566000000E+00  0.10566000000E+00 0. -1.
     999900   -1    0    0    0    0 -0.00000000000E+00 -0.00000000000E+00 -0.74505805969E-08  0.93827000000E+00  0.93827000000E+00 0.  1.
     999902    2    1    2    0    0  0.72848072096E-02  0.11373523810E-01 -0.54187263229E-02  0.10293770603E+01  0.10292741832E+01 0.  0.
     999903    2    3    3    0    0 -0.10024502073E+00  0.12313959618E-01  0.83918939808E-01  0.13834127709E+00  0.43534155609E-01 0.  0.
         14    1    1    2    0    0 -0.72848072096E-02 -0.11373523810E-01  0.54187263229E-02  0.14552939734E-01  0.00000000000E+00 0.  1.
     999901    1    3    3    0    0  0.10752982794E+00 -0.94043580808E-03 -0.89337666131E-01  0.89103578318E+00  0.88000000000E+00 0.  1.
        -11    1    4    4    0    0 -0.29533590700E-01  0.15661027977E-01  0.76812298719E-02  0.34303982135E-01  0.51100000000E-03 0.  1.
         11    1    4    4    0    0 -0.70711430031E-01 -0.33470683590E-02  0.76237709936E-01  0.10403729495E+00  0.51100000000E-03 0. -1.
</event>
<event>
 8    1  0.2927513E+004  0.1043930E+01  0.7957747E-01            NaN
         13   -1    0    0    0    0  0.00000000000E+00  0.00000000000E+00  0.74505805969E-08  0.10566000000E+00  0.10566000000E+00 0. -1.
     999900   -1    0    0    0    0 -0.00000000000E+00 -0.00000000000E+00 -0.74505805969E-08  0.93827000000E+00  0.93827000000E+00 0. -1.
     999902    2    1    2    0    0 -0.24204075609E-02  0.10998363882E-01 -0.72471840729E-02  0.10305380600E+01  0.10304510415E+01 0.  0.
     999903    2    3    3    0    0 -0.40344202347E-01  0.96055188601E-01 -0.85966792633E-01  0.14212956473E+00  0.44229739022E-01 0.  0.
         14    1    1    2    0    0  0.24204075609E-02 -0.10998363882E-01  0.72471840729E-02  0.13391940032E-01  0.00000000000E+00 0. -1.
     999901    1    3    3    0    0  0.37923794786E-01 -0.85056824720E-01  0.78719608560E-01  0.88840849524E+00  0.88000000000E+00 0. -1.
        -11    1    4    4    0    0 -0.40208138786E-01  0.67205030797E-01 -0.40213999695E-01  0.88037704886E-01  0.51100000000E-03 0. -1.
         11    1    4    4    0    0 -0.13606356161E-03  0.28850157804E-01 -0.45752792938E-01  0.54091859842E-01  0.51100000000E-03 0.  1.
</event>
<event>
 8    1  0.2927513E+004  0.1043930E+01  0.7957747E-01            NaN
         13   -1    0    0    0    0  0.00000000000E+00  0.00000000000E+00  0.74505805969E-08  0.10566000000E+00  0.10566000000E+00 0. -1.
     999900   -1    0    0    0    0 -0.00000000000E+00 -0.00000000000E+00 -0.74505805969E-08  0.93827000000E+00  0.93827000000E+00 0.  1.
     999902    2    1    2    0    0  0.10138691542E-01 -0.51262704868E-02 -0.72161615053E-02  0.10304709992E+01  0.10303831013E+01 0.  0.
     999903    2    3    3    0    0 -0.81778489031E-01 -0.57567672311E-01  0.85461068808E-01  0.13929877246E+00  0.45812613603E-01 0.  0.
         14    1    1    2    0    0 -0.10138691542E-01  0.51262704868E-02  0.72161615053E-02  0.13459000786E-01  0.00000000000E+00 0. -1.
     999901    1    3    3    0    0  0.91917180573E-01  0.52441401824E-01 -0.92677230313E-01  0.89117222675E+00  0.88000000000E+00 0.  1.
        -11    1    4    4    0    0 -0.28891590266E-01 -0.10386421815E-01  0.53201431176E-01  0.61426827579E-01  0.51100000000E-03 0.  1.
         11    1    4    4    0    0 -0.52886898764E-01 -0.47181250495E-01  0.32259637632E-01  0.77871944886E-01  0.51100000000E-03 0. -1.
</event>
<event>
 8    1  0.2927513E+004  0.1043930E+01  0.7957747E-01            NaN
         13   -1    0    0    0    0  0.00000000000E+00  0.00000000000E+00  0.74505805969E-08  0.10566000000E+00  0.10566000000E+00 0.  1.
     999900   -1    0    0    0    0 -0.00000000000E+00 -0.00000000000E+00 -0.74505805969E-08  0.93827000000E+00  0.93827000000E+00 0. -1.
     999902    2    1    2    0    0 -0.11721300664E-01  0.35764603075E-02 -0.62074282723E-02  0.10301927469E+01  0.10301011521E+01 0.  0.
     999903    2    3    3    0    0 -0.27859610885E-01 -0.11388499536E+00  0.61152829987E-01  0.13969005569E+00  0.45029911781E-01 0.  0.
         14    1    1    2    0    0  0.11721300664E-01 -0.35764603075E-02  0.62074282723E-02  0.13737253122E-01  0.00000000000E+00 0.  1.
     999901    1    3    3    0    0  0.16138310221E-01  0.11746145567E+00 -0.67360258259E-01  0.89050269119E+00  0.88000000000E+00 0.  1.
        -11    1    4    4    0    0  0.99983861585E-02 -0.52286183148E-01  0.27939728117E-01  0.60122393517E-01  0.51100000000E-03 0. -1.
         11    1    4    4    0    0 -0.37857997043E-01 -0.61598812215E-01  0.33213101870E-01  0.79567662170E-01  0.51100000000E-03 0.  1.
</event>
<event>
 8    1  0.2927513E+004  0.1043930E+01  0.7957747E-01            NaN
         13   -1    0    0    0    0  0.00000000000E+00  0.00000000000E+00  0.74505805969E-08  0.10566000000E+00  0.10566000000E+00 0. -1.
     999900   -1    0    0    0    0 -0.00000000000E+00 -0.00000000000E+00 -0.74505805969E-08  0.93827000000E+00  0.93827000000E+00 0.  1.
     999902    2    1    2    0    0  0.11143662682E-01  0.17385737277E-02 -0.99729274487E-02  0.10288746641E+01  0.10287645072E+01 0.  0.
     999903    2    3    3    0    0 -0.91935278759E-01 -0.41823075360E-01  0.81558339162E-01  0.13707824217E+00  0.44016095645E-01 0.  0.
         14    1    1    2    0    0 -0.11143662682E-01 -0.17385737277E-02  0.99729274487E-02  0.15055335881E-01  0.00000000000E+00 0. -1.
     999901    1    3    3    0    0  0.10307894144E+00  0.43561649087E-01 -0.91531266611E-01  0.89179642195E+00  0.88000000000E+00 0.  1.
        -11    1    4    4    0    0 -0.14276782656E-01 -0.13110242015E-01  0.39964396180E-01  0.44419804724E-01  0.51100000000E-03 0.  1.
         11    1    4    4    0    0 -0.77658496102E-01 -0.28712833345E-01  0.41593942982E-01  0.92658437443E-01  0.51100000000E-03 0. -1.
</event>
<event>
 8    1  0.2927513E+004  0.1043930E+01  0.7957747E-01            NaN
         13   -1    0    0    0    0  0.00000000000E+00  0.00000000000E+00  0.74505805969E-08  0.10566000000E+00  0.10566000000E+00 0. -1.
     999900   -1    0    0    0    0 -0.00000000000E+00 -0.00000000000E+00 -0.74505805969E-08  0.93827000000E+00  0.93827000000E+00 0. -1.
     999902    2    1    2    0    0  0.59669709614E-02 -0.79400564527E-02  0.93188281268E-02  0.10303105361E+01  0.10302205157E+01 0.  0.
     999903    2    3    3    0    0  0.86433535460E-01  0.81503121198E-01  0.60796855019E-01  0.14063366371E+00  0.44362765603E-01 0.  0.
         14    1    1    2    0    0 -0.59669709614E-02  0.79400564527E-02 -0.93188281268E-02  0.13619463888E-01  0.00000000000E+00 0.  1.
     999901    1    3    3    0    0 -0.80466564498E-01 -0.89443177650E-01 -0.51478026892E-01  0.88967687240E+00  0.88000000000E+00 0.  1.
        -11    1    4    4    0    0  0.77184944932E-01  0.45556217769E-01  0.45014768561E-01  0.10029693520E+00  0.51100000000E-03 0. -1.
         11    1    4    4    0    0  0.92485905281E-02  0.35946903429E-01  0.15782086458E-01  0.40336728510E-01  0.51100000000E-03 0.  1.
</event>
<event>
 8    1  0.2927513E+004  0.1043930E+01  0.7957747E-01            NaN
         13   -1    0    0    0    0  0.00000000000E+00  0.00000000000E+00  0.74505805969E-08  0.10566000000E+00  0.10566000000E+00 0. -1.
     999900   -1    0    0    0    0 -0.00000000000E+00 -0.00000000000E+00 -0.74505805969E-08  0.93827000000E+00  0.93827000000E+00 0.  1.
     999902    2    1    2    0    0  0.30901152925E-02  0.13294691446E-01 -0.49691644428E-02  0.10294044973E+01  0.10293020105E+01 0.  0.
     999903    2    3    3    0    0 -0.63938300130E-01  0.32812437029E-01 -0.11152196035E+00  0.14023227036E+00  0.45422238617E-01 0.  0.
         14    1    1    2    0    0 -0.30901152925E-02 -0.13294691446E-01  0.49691644428E-02  0.14525502691E-01  0.00000000000E+00 0. -1.
     999901    1    3    3    0    0  0.67028415423E-01 -0.19517745583E-01  0.10655279591E+00  0.88917222695E+00  0.88000000000E+00 0. -1.
        -11    1    4    4    0    0 -0.37457958682E-01  0.11699141113E-01 -0.94498490596E-01  0.10232396795E+00  0.51100000000E-03 0.  1.
         11    1    4    4    0    0 -0.26480341448E-01  0.21113295916E-01 -0.17023469757E-01  0.37908302405E-01  0.51100000000E-03 0. -1.
</event>
<event>
 8    1  0.2927513E+004  0.1043930E+01  0.7957747E-01            NaN
         13   -1    0    0    0    0  0.00000000000E+00  0.00000000000E+00  0.74505805969E-08  0.10566000000E+00  0.10566000000E+00 0.  1.
     999900   -1    0    0    0    0 -0.00000000000E+00 -0.00000000000E+00 -0.74505805969E-08  0.93827000000E+00  0.93827000000E+00 0.  1.
     999902    2    1    2    0    0  0.22231829008E-02  0.62864463669E-02  0.13144256302E-01  0.10291911593E+01  0.10290856179E+01 0.  0.
     999903    2    3    3    0    0  0.24274855064E-01 -0.86593752286E-02 -0.12767140184E+00  0.13759780842E+00  0.44372476468E-01 0.  0.
         14    1    1    2    0    0 -0.22231829008E-02 -0.62864463669E-02 -0.13144256302E-01  0.14738840656E-01  0.00000000000E+00 0. -1.
     999901    1    3    3    0    0 -0.22051672163E-01  0.14945821595E-01  0.14081565814E+00  0.89159335092E+00  0.88000000000E+00 0. -1.
        -11    1    4    4    0    0 -0.82016114285E-03 -0.39155382438E-02 -0.99452696299E-01  0.99534436384E-01  0.51100000000E-03 0. -1.
         11    1    4    4    0    0  0.25095016206E-01 -0.47438369848E-02 -0.28218705540E-01  0.38063372040E-01  0.51100000000E-03 0.  1.
</event>
<event>
 8    1  0.2927513E+004  0.1043930E+01  0.7957747E-01            NaN
         13   -1    0    0    0    0  0.00000000000E+00  0.00000000000E+00  0.74505805969E-08  0.10566000000E+00  0.10566000000E+00 0.  1.
     999900   -1    0    0    0    0 -0.00000000000E+00 -0.00000000000E+00 -0.74505805969E-08  0.93827000000E+00  0.93827000000E+00 0. -1.
     999902    2    1    2    0    0  0.91235164691E-02 -0.10379820588E-01 -0.32328244123E-02  0.10297373828E+01  0.10296395715E+01 0.  0.
     999903    2    3    3    0    0  0.11170488025E+00  0.71333435926E-01  0.44603290837E-02  0.13998507062E+00  0.44827291999E-01 0.  0.
         14    1    1    2    0    0 -0.91235164691E-02  0.10379820588E-01  0.32328244123E-02  0.14192617161E-01  0.00000000000E+00 0. -1.
     999901    1    3    3    0    0 -0.10258136378E+00 -0.81713256514E-01 -0.76931534961E-02  0.88975231222E+00  0.88000000000E+00 0. -1.
        -11    1    4    4    0    0  0.64046573240E-01  0.53760060945E-01  0.21615298835E-01  0.86368917797E-01  0.51100000000E-03 0.  1.
         11    1    4    4    0    0  0.47658307013E-01  0.17573374981E-01 -0.17154969752E-01  0.53616152825E-01  0.51100000000E-03 0. -1.
</event>
<event>
 8    1  0.2927513E+004  0.1043930E+01  0.7957747E-01            NaN
         13   -1    0    0    0    0  0.00000000000E+00  0.00000000000E+00  0.74505805969E-08  0.10566000000E+00  0.10566000000E+00 0.  1.
     999900   -1    0    0    0    0 -0.00000000000E+00 -0.00000000000E+00 -0.74505805969E-08  0.93827000000E+00  0.93827000000E+00 0. -1.
     999902    2    1    2    0    0 -0.28911304924E-02  0.83820995978E-02  0.64551172391E-02  0.10329624676E+01  0.10329042418E+01 0.  0.
     999903    2    3    3    0    0 -0.61911548221E-01  0.53112349726E-01  0.10951821100E+00  0.14385830815E+00  0.45243925419E-01 0.  0.
         14    1    1    2    0    0  0.28911304924E-02 -0.83820995978E-02 -0.64551172391E-02  0.10967532437E-01  0.00000000000E+00 0. -1.
     999901    1    3    3    0    0  0.59020417729E-01 -0.44730250128E-01 -0.10306309376E+00  0.88910415941E+00  0.88000000000E+00 0. -1.
        -11    1    4    4    0    0 -0.29718636453E-01  0.52750468555E-01  0.63998567777E-01  0.88101572539E-01  0.51100000000E-03 0. -1.
         11    1    4    4    0    0 -0.32192911768E-01  0.36188117090E-03  0.45519643223E-01  0.55756735613E-01  0.51100000000E-03 0.  1.
</event>
<event>
 8    1  0.2927513E+004  0.1043930E+01  0.7957747E-01            NaN
         13   -1    0    0    0    0  0.00000000000E+00  0.00000000000E+00  0.74505805969E-08  0.10566000000E+00  0.10566000000E+00 0. -1.
     999900   -1    0    0    0    0 -0.00000000000E+00 -0.00000000000E+00 -0.74505805969E-08  0.93827000000E+00  0.93827000000E+00 0.  1.
     999902    2    1    2    0    0 -0.45086619447E-03  0.47869882182E-02  0.13317504993E-01  0.10297710991E+01  0.10296737551E+01 0.  0.
     999903    2    3    3    0    0 -0.34124317442E-02 -0.22322307183E-01 -0.12824103488E+00  0.13804103622E+00  0.45821769550E-01 0.  0.
         14    1    1    2    0    0  0.45086619447E-03 -0.47869882182E-02 -0.13317504993E-01  0.14158900938E-01  0.00000000000E+00 0.  1.
     999901    1    3    3    0    0  0.29615655497E-02  0.27109295401E-01  0.14155853987E+00  0.89173006284E+00  0.88000000000E+00 0. -1.
        -11    1    4    4    0    0  0.20355508646E-01 -0.92088567569E-02 -0.75269114490E-01  0.78516561897E-01  0.51100000000E-03 0.  1.
         11    1    4    4    0    0 -0.23767940390E-01 -0.13113450426E-01 -0.52971920391E-01  0.59524474322E-01  0.51100000000E-03 0. -1.
</event>
<event>
 8    1  0.2927513E+004  0.1043930E+01  0.7957747E-01            NaN
         13   -1    0    0    0    0  0.00000000000E+00  0.00000000000E+00  0.74505805969E-08  0.10566000000E+00  0.10566000000E+00 0. -1.
     999900   -1    0    0    0    0 -0.00000000000E+00 -0.00000000000E+00 -0.74505805969E-08  0.93827000000E+00  0.93827000000E+00 0.  1.
     999902    2    1    2    0    0  0.75773210119E-02  0.72945981358E-02 -0.88634928915E-02  0.10301754203E+01  0.10300835928E+01 0.  0.
     999903    2    3    3    0    0 -0.44527944245E-01  0.10568505537E-01  0.12282759053E+00  0.13884595342E+00  0.45794657517E-01 0.  0.
         14    1    1    2    0    0 -0.75773210119E-02 -0.72945981358E-02  0.88634928915E-02  0.13754579671E-01  0.00000000000E+00 0. -1.
     999901    1    3    3    0    0  0.52105265257E-01 -0.32739074008E-02 -0.13169108342E+00  0.89132946691E+00  0.88000000000E+00 0.  1.
        -11    1    4    4    0    0 -0.53661961685E-01  0.12311875577E-01  0.99308037887E-01  0.11354970683E+00  0.51100000000E-03 0. -1.
         11    1    4    4    0    0  0.91340174405E-02 -0.17433700404E-02  0.23519552640E-01  0.25296246581E-01  0.51100000000E-03 0.  1.
</event>
<event>
 8    1  0.2927513E+004  0.1043930E+01  0.7957747E-01            NaN
         13   -1    0    0    0    0  0.00000000000E+00  0.00000000000E+00  0.74505805969E-08  0.10566000000E+00  0.10566000000E+00 0.  1.
     999900   -1    0    0    0    0 -0.00000000000E+00 -0.00000000000E+00 -0.74505805969E-08  0.93827000000E+00  0.93827000000E+00 0.  1.
     999902    2    1    2    0    0  0.10646630214E-01 -0.56711015967E-02  0.73633883621E-03  0.10318447063E+01  0.10317739305E+01 0.  0.
     999903    2    3    3    0    0  0.32906373108E-01  0.44555949774E-01  0.12247857137E+00  0.14176638167E+00  0.45040475980E-01 0.  0.
         14    1    1    2    0    0 -0.10646630214E-01  0.56711015967E-02 -0.73633883621E-03  0.12085293671E-01  0.00000000000E+00 0. -1.
     999901    1    3    3    0    0 -0.22259742893E-01 -0.50227051371E-01 -0.12174223253E+00  0.89007832466E+00  0.88000000000E+00 0.  1.
        -11    1    4    4    0    0  0.33185800325E-01  0.17407499140E-01  0.39467279775E-01  0.54426516179E-01  0.51100000000E-03 0. -1.
         11    1    4    4    0    0 -0.27942721681E-03  0.27148450634E-01  0.83011291593E-01  0.87339865493E-01  0.51100000000E-03 0.  1.
</event>
<event>
 8    1  0.2927513E+004  0.1043930E+01  0.7957747E-01            NaN
         13   -1    0    0    0    0  0.00000000000E+00  0.00000000000E+00  0.74505805969E-08  0.10566000000E+00  0.10566000000E+00 0. -1.
     999900   -1    0    0    0    0 -0.00000000000E+00 -0.00000000000E+00 -0.74505805969E-08  0.93827000000E+00  0.93827000000E+00 0.  1.
     999902    2    1    2    0    0 -0.74936043971E-02  0.11317797244E-01  0.13854298845E-02  0.10302857317E+01  0.10301953809E+01 0.  0.
     999903    2    3    3    0    0  0.29684308457E-01  0.12143240168E+00 -0.47784253739E-01  0.14128343638E+00  0.45284524322E-01 0.  0.
         14    1    1    2    0    0  0.74936043971E-02 -0.11317797244E-01 -0.13854298845E-02  0.13644268294E-01  0.00000000000E+00 0. -1.
     999901    1    3    3    0    0 -0.37177912854E-01 -0.11011460443E+00  0.49169683624E-01  0.88900229533E+00  0.88000000000E+00 0. -1.
        -11    1    4    4    0    0  0.28114468104E-02  0.41791980177E-01  0.47578049812E-02  0.42158886009E-01  0.51100000000E-03 0.  1.
         11    1    4    4    0    0  0.26872861647E-01  0.79640421501E-01 -0.52542058720E-01  0.99124550367E-01  0.51100000000E-03 0. -1.
</event>
<event>
 8    1  0.2927513E+004  0.1043930E+01  0.7957747E-01            NaN
         13   -1    0    0    0    0  0.00000000000E+00  0.00000000000E+00  0.74505805969E-08  0.10566000000E+00  0.10566000000E+00 0.  1.
     999900   -1    0    0    0    0 -0.00000000000E+00 -0.00000000000E+00 -0.74505805969E-08  0.93827000000E+00  0.93827000000E+00 0.  1.
     999902    2    1    2    0    0 -0.11729789496E-01 -0.51117080608E-02  0.39338722747E-02  0.10305437058E+01  0.10304567612E+01 0.  0.
     999903    2    3    3    0    0  0.14441786609E-01  0.19796491127E-01 -0.12991524968E+00  0.13968964525E+00  0.45108298903E-01 0.  0.
         14    1    1    2    0    0  0.11729789496E-01  0.51117080608E-02 -0.39338722747E-02  0.13386294185E-01  0.00000000000E+00 0. -1.
     999901    1    3    3    0    0 -0.26171576105E-01 -0.24908199188E-01  0.13384912195E+00  0.89085406057E+00  0.88000000000E+00 0. -1.
        -11    1    4    4    0    0 -0.14628958854E-01  0.88029167960E-02 -0.71576909623E-01  0.73586771185E-01  0.51100000000E-03 0.  1.
         11    1    4    4    0    0  0.29070745463E-01  0.10993574331E-01 -0.58338340052E-01  0.66102874063E-01  0.51100000000E-03 0. -1.
</event>
<event>
 7    1  0.2927513E+004  0.1043930E+01  0.7957747E-01            NaN
         13   -1    0    0    0    0  0.00000000000E+00  0.00000000000E+00  0.74505805969E-08  0.10566000000E+00  0.10566000000E+00 0.  1.
     999900   -1    0    0    0    0 -0.00000000000E+00 -0.00000000000E+00 -0.74505805969E-08  0.93827000000E+00  0.93827000000E+00 0.  1.
     999903    2    1    2    0    0 -0.42066502122E-01 -0.10329044656E+00 -0.12443949320E-01  0.12112038307E+00  0.45571793575E-01 0.  0.
         14    1    1    2    0    0  0.14128920515E-01 -0.25167031283E-01 -0.15191002700E-01  0.32615524242E-01  0.00000000000E+00 0. -1.
     999901    1    1    2    0    0  0.27937581606E-01  0.12845747784E+00  0.27634952020E-01  0.89019409269E+00  0.88000000000E+00 0. -1.
        -11    1    3    3    0    0 -0.29721392117E-01 -0.57193280895E-01  0.14845908847E-01  0.66144498330E-01  0.51100000000E-03 0. -1.
         11    1    3    3    0    0 -0.12345110005E-01 -0.46097165665E-01 -0.27289858167E-01  0.54975884742E-01  0.51100000000E-03 0.  1.
</event>
<event>
 8    1  0.2927513E+004  0.1043930E+01  0.7957747E-01            NaN
         13   -1    0    0    0    0  0.00000000000E+00  0.00000000000E+00  0.74505805969E-08  0.10566000000E+00  0.10566000000E+00 0.  1.
     999900   -1    0    0    0    0 -0.00000000000E+00 -0.00000000000E+00 -0.74505805969E-08  0.93827000000E+00  0.93827000000E+00 0. -1.
     999902    2    1    2    0    0 -0.90420598489E-02  0.54017160170E-03 -0.10024569197E-01  0.10304191666E+01  0.10303305859E+01 0.  0.
     999903    2    3    3    0    0 -0.56746047209E-01 -0.42297086777E-01 -0.11426334807E+00  0.14195058294E+00  0.45658491667E-01 0.  0.
         14    1    1    2    0    0  0.90420598489E-02 -0.54017160170E-03  0.10024569197E-01  0.13510833403E-01  0.00000000000E+00 0.  1.
     999901    1    3    3    0    0  0.47703987361E-01  0.42837258379E-01  0.10423877888E+00  0.88846858365E+00  0.88000000000E+00 0.  1.
        -11    1    4    4    0    0 -0.76045588156E-02 -0.10887728590E-01 -0.62726763102E-01  0.64119262932E-01  0.51100000000E-03 0. -1.
         11    1    4    4    0    0 -0.49141488394E-01 -0.31409358187E-01 -0.51536584972E-01  0.77831320013E-01  0.51100000000E-03 0.  1.
</event>
<event>
 8    1  0.2927513E+004  0.1043930E+01  0.7957747E-01            NaN
         13   -1    0    0    0    0  0.00000000000E+00  0.00000000000E+00  0.74505805969E-08  0.10566000000E+00  0.10566000000E+00 0.  1.
     999900   -1    0    0    0    0 -0.00000000000E+00 -0.00000000000E+00 -0.74505805969E-08  0.93827000000E+00  0.93827000000E+00 0.  1.
     999902    2    1    2    0    0  0.11874329408E-01  0.24462731951E-02  0.76873200761E-02  0.10295745536E+01  0.10294744691E+01 0.  0.
     999903    2    3    3    0    0 -0.81812029840E-01  0.10104878586E+00 -0.15650745536E-01  0.13881967445E+00  0.46063986265E-01 0.  0.
         14    1    1    2    0    0 -0.11874329408E-01 -0.24462731951E-02 -0.76873200761E-02  0.14355446401E-01  0.00000000000E+00 0. -1.
     999901    1    3    3    0    0  0.93686359248E-01 -0.98602512660E-01  0.23338065612E-01  0.89075487914E+00  0.88000000000E+00 0. -1.
        -11    1    4    4    0    0 -0.43590729352E-01  0.19299856044E-01 -0.44211162811E-02  0.47879468658E-01  0.51100000000E-03 0. -1.
         11    1    4    4    0    0 -0.38221300488E-01  0.81748929811E-01 -0.11229629254E-01  0.90940205797E-01  0.51100000000E-03 0.  1.
</event>
<event>
 8    1  0.2927513E+004  0.1043930E+01  0.7957747E-01            NaN
         13   -1    0    0    0    0  0.00000000000E+00  0.00000000000E+00  0.74505805969E-08  0.10566000000E+00  0.10566000000E+00 0.  1.
     999900   -1    0    0    0    0 -0.00000000000E+00 -0.00000000000E+00 -0.74505805969E-08  0.93827000000E+00  0.93827000000E+00 0.  1.
     999902    2    1    2    0    0 -0.10070507691E-01 -0.75328770205E-02 -0.61160676941E-02  0.10299455213E+01  0.10298505771E+01 0.  0.
     999903    2    3    3    0    0 -0.20597556898E-01  0.35607906424E-01 -0.12678898458E+00  0.14060087557E+00  0.44732284199E-01 0.  0.
         14    1    1    2    0    0  0.10070507691E-01  0.75328770205E-02  0.61160676941E-02  0.13984478732E-01  0.00000000000E+00 0. -1.
     999901    1    3    3    0    0  0.10527049207E-01 -0.43140783444E-01  0.12067291689E+00  0.88934464570E+00  0.88000000000E+00 0. -1.
        -11    1    4    4    0    0 -0.24601867460E-01  0.19197287733E-01 -0.11695607067E+00  0.12104863207E+00  0.51100000000E-03 0.  1.
         11    1    4    4    0    0  0.40043105622E-02  0.16410618691E-01 -0.98329139160E-02  0.19552243502E-01  0.51100000000E-03 0. -1.
</event>
<event>
 8    1  0.2927513E+004  0.1043930E+01  0.7957747E-01            NaN
         13   -1    0    0    0    0  0.00000000000E+00  0.00000000000E+00  0.74505805969E-08  0.10566000000E+00  0.10566000000E+00 0. -1.
     999900   -1    0    0    0    0 -0.00000000000E+00 -0.00000000000E+00 -0.74505805969E-08  0.93827000000E+00  0.93827000000E+00 0.  1.
     999902    2    1    2    0    0  0.10386412261E-01 -0.59201695429E-02 -0.69943245587E-02  0.10300791320E+01  0.10299860056E+01 0.  0.
     999903    2    3    3    0    0 -0.78386049472E-01  0.10548485867E+00 -0.11422130867E-01  0.13861335270E+00  0.42564871831E-01 0.  0.
         14    1    1    2    0    0 -0.10386412261E-01  0.59201695429E-02  0.69943245587E-02  0.13850867955E-01  0.00000000000E+00 0. -1.
     999901    1    3    3    0    0  0.88772461733E-01 -0.11140502821E+00  0.44278063088E-02  0.89146577934E+00  0.88000000000E+00 0. -1.
        -11    1    4    4    0    0 -0.39431383021E-01  0.61601394117E-01 -0.26888262705E-01  0.77928207450E-01  0.51100000000E-03 0. -1.
         11    1    4    4    0    0 -0.38954666450E-01  0.43883464549E-01  0.15466131838E-01  0.60685145251E-01  0.51100000000E-03 0.  1.
</event>
<event>
 8    1  0.2927513E+004  0.1043930E+01  0.7957747E-01            NaN
         13   -1    0    0    0    0  0.00000000000E+00  0.00000000000E+00  0.74505805969E-08  0.10566000000E+00  0.10566000000E+00 0. -1.
     999900   -1    0    0    0    0 -0.00000000000E+00 -0.00000000000E+00 -0.74505805969E-08  0.93827000000E+00  0.93827000000E+00 0. -1.
     999902    2    1    2    0    0 -0.58638336971E-02  0.62111958757E-02 -0.12482373075E-01  0.10288047517E+01  0.10286935617E+01 0.  0.
     999903    2    3    3    0    0  0.23124771535E-01  0.59325340586E-01 -0.11703763860E+00  0.14055182870E+00  0.44752168728E-01 0.  0.
         14    1    1    2    0    0  0.58638336971E-02 -0.62111958757E-02  0.12482373075E-01  0.15125248342E-01  0.00000000000E+00 0. -1.
     999901    1    3    3    0    0 -0.28988605232E-01 -0.53114144710E-01  0.10455526553E+00  0.88825292296E+00  0.88000000000E+00 0.  1.
        -11    1    4    4    0    0 -0.44667569338E-02  0.22249766850E-02 -0.42023602877E-01  0.42321941810E-01  0.51100000000E-03 0.  1.
         11    1    4    4    0    0  0.27591528469E-01  0.57100363901E-01 -0.75014035725E-01  0.98229886886E-01  0.51100000000E-03 0. -1.
</event>
<event>
 8    1  0.2927513E+004  0.1043930E+01  0.7957747E-01            NaN
         13   -1    0    0    0    0  0.00000000000E+00  0.00000000000E+00  0.74505805969E-08  0.10566000000E+00  0.10566000000E+00 0. -1.
     999900   -1    0    0    0    0 -0.00000000000E+00 -0.00000000000E+00 -0.74505805969E-08  0.93827000000E+00  0.93827000000E+00 0. -1.
     999902    2    1    2    0    0 -0.13351700661E-01  0.11163258943E-02  0.92668771149E-04  0.10305313926E+01  0.10304442869E+01 0.  0.
     999903    2    3    3    0    0  0.28563668104E-01  0.12116969983E+00  0.46462916303E-01  0.14018319629E+00  0.44660347491E-01 0.  0.
         14    1    1    2    0    0  0.13351700661E-01 -0.11163258943E-02 -0.92668771149E-04  0.13398607448E-01  0.00000000000E+00 0.  1.
     999901    1    3    3    0    0 -0.41915368765E-01 -0.12005337394E+00 -0.46370247531E-01  0.89034819626E+00  0.88000000000E+00 0. -1.
        -11    1    4    4    0    0  0.10704120026E-02  0.72559249537E-01  0.42718426218E-01  0.84208761627E-01  0.51100000000E-03 0.  1.
         11    1    4    4    0    0  0.27493256102E-01  0.48610450293E-01  0.37444900849E-02  0.55974434662E-01  0.51100000000E-03 0. -1.
</event>
<event>
 8    1  0.2927513E+004  0.1043930E+01  0.7957747E-01            NaN
         13   -1    0    0    0    0  0.00000000000E+00  0.00000000000E+00  0.74505805969E-08  0.10566000000E+00  0.10566000000E+00 0.  1.
     999900   -1    0    0    0    0 -0.00000000000E+00 -0.00000000000E+00 -0.74505805969E-08  0.93827000000E+00  0.93827000000E+00 0.  1.
     999902    2    1    2    0    0  0.11288640694E-01 -0.77192884931E-02 -0.17160723170E-03  0.10302533676E+01  0.10301625849E+01 0.  0.
     999903    2    3    3    0    0  0.50464740542E-01 -0.18774120015E-01 -0.12126156178E+00  0.14102912529E+00  0.47808892421E-01 0.  0.
         14    1    1    2    0    0 -0.11288640694E-01  0.77192884931E-02  0.17160723170E-03  0.13676632356E-01  0.00000000000E+00 0.  1.
     999901    1    3    3    0    0 -0.39176099847E-01  0.11054831522E-01  0.12108995455E+00  0.88922424235E+00  0.88000000000E+00 0. -1.
        -11    1    4    4    0    0  0.21944157981E-01 -0.22401281412E-01 -0.23678193667E-01  0.39297346663E-01  0.51100000000E-03 0.  1.
         11    1    4    4    0    0  0.28520582560E-01  0.36271613971E-02 -0.97583368112E-01  0.10173177863E+00  0.51100000000E-03 0. -1.
</event>
<event>
 8    1  0.2927513E+004  0.1043930E+01  0.7957747E-01            NaN
         13   -1    0    0    0    0  0.00000000000E+00  0.00000000000E+00  0.74505805969E-08  0.10566000000E+00  0.10566000000E+00 0. -1.
     999900   -1    0    0    0    0 -0.00000000000E+00 -0.00000000000E+00 -0.74505805969E-08  0.93827000000E+00  0.93827000000E+00 0.  1.
     999902    2    1    2    0    0  0.20642972480E-02 -0.69221608847E-02 -0.49164744614E-02  0.10351921882E+01  0.10351553106E+01 0.  0.
     999903    2    3    3    0    0 -0.10235634740E+00 -0.87966418958E-01  0.23754514785E-01  0.14485861674E+00  0.46955608317E-01 0.  0.
         14    1    1    2    0    0 -0.20642972480E-02  0.69221608847E-02  0.49164744614E-02  0.87378118297E-02  0.00000000000E+00 0. -1.
     999901    1    3    3    0    0  0.10442064465E+00  0.81044258073E-01 -0.28670989246E-01  0.89033357143E+00  0.88000000000E+00 0.  1.
        -11    1    4    4    0    0 -0.94771800350E-01 -0.62032365459E-01  0.29887609902E-01  0.11714622850E+00  0.51100000000E-03 0.  1.
         11    1    4    4    0    0 -0.75845470525E-02 -0.25934053498E-01 -0.61330951173E-02  0.27712388233E-01  0.51100000000E-03 0. -1.
</event>
<event>
 8    1  0.2927513E+004  0.1043930E+01  0.7957747E-01            NaN
         13   -1    0    0    0    0  0.00000000000E+00  0.00000000000E+00  0.74505805969E-08  0.10566000000E+00  0.10566000000E+00 0.  1.
     999900   -1    0    0    0    0 -0.00000000000E+00 -0.00000000000E+00 -0.74505805969E-08  0.93827000000E+00  0.93827000000E+00 0. -1.
     999902    2    1    2    0    0 -0.10425434042E-02  0.12761421174E-01 -0.48304003809E-02  0.10302452079E+01  0.10301543160E+01 0.  0.
     999903    2    3    3    0    0  0.43062975662E-01  0.11553901164E+00  0.52297307025E-01  0.14132895488E+00  0.45112992399E-01 0.  0.
         14    1    1    2    0    0  0.10425434042E-02 -0.12761421174E-01  0.48304003809E-02  0.13684792106E-01  0.00000000000E+00 0.  1.
     999901    1    3    3    0    0 -0.44105519066E-01 -0.10277759046E+00 -0.57127707406E-01  0.88891625301E+00  0.88000000000E+00 0.  1.
        -11    1    4    4    0    0 -0.61022952147E-02  0.18935069317E-02  0.69666103585E-02  0.94666866576E-02  0.51100000000E-03 0.  1.
         11    1    4    4    0    0  0.49165270876E-01  0.11364550471E+00  0.45330696667E-01  0.13186226823E+00  0.51100000000E-03 0. -1.
</event>
<event>
 8    1  0.2927513E+004  0.1043930E+01  0.7957747E-01            NaN
         13   -1    0    0    0    0  0.00000000000E+00  0.00000000000E+00  0.74505805969E-08  0.10566000000E+00  0.10566000000E+00 0. -1.
     999900   -1    0    0    0    0 -0.00000000000E+00 -0.00000000000E+00 -0.74505805969E-08  0.93827000000E+00  0.93827000000E+00 0.  1.
     999902    2    1    2    0    0  0.88556071361E-02  0.22984715683E-02 -0.10497667264E-01  0.10300049949E+01  0.10299108620E+01 0.  0.
     999903    2    3    3    0    0  0.12702859841E+00 -0.37864215199E-01 -0.18138806146E-01  0.14116514189E+00  0.45040175285E-01 0.  0.
         14    1    1    2    0    0 -0.88556071361E-02 -0.22984715683E-02  0.10497667264E-01  0.13925005109E-01  0.00000000000E+00 0. -1.
     999901    1    3    3    0    0 -0.11817299128E+00  0.40162686767E-01  0.76411388816E-02  0.88883985300E+00  0.88000000000E+00 0.  1.
        -11    1    4    4    0    0  0.28943565674E-01 -0.18339363729E-01  0.12640149894E-01  0.36525289407E-01  0.51100000000E-03 0. -1.
         11    1    4    4    0    0  0.98085032738E-01 -0.19524851470E-01 -0.30778956040E-01  0.10463985249E+00  0.51100000000E-03 0.  1.
</event>
<event>
 8    1  0.2927513E+004  0.1043930E+01  0.7957747E-01            NaN
         13   -1    0    0    0    0  0.00000000000E+00  0.00000000000E+00  0.74505805969E-08  0.10566000000E+00  0.10566000000E+00 0. -1.
     999900   -1    0    0    0    0 -0.00000000000E+00 -0.00000000000E+00 -0.74505805969E-08  0.93827000000E+00  0.93827000000E+00 0. -1.
     999902    2    1    2    0    0  0.14604882684E-01 -0.92868556349E-03 -0.48376068535E-02  0.10285167753E+01  0.10284012785E+01 0.  0.
     999903    2    3    3    0    0 -0.16841763769E-01 -0.89974878099E-01 -0.93533447129E-01  0.13903093054E+00  0.46925155501E-01 0.  0.
         14    1    1    2    0    0 -0.14604882684E-01  0.92868556349E-03  0.48376068535E-02  0.15413224684E-01  0.00000000000E+00 0.  1.
     999901    1    3    3    0    0  0.31446646453E-01  0.89046192535E-01  0.88695840275E-01  0.88948584478E+00  0.88000000000E+00 0.  1.
        -11    1    4    4    0    0 -0.73586332380E-02 -0.87293028922E-01 -0.65710047539E-01  0.10950933225E+00  0.51100000000E-03 0. -1.
         11    1    4    4    0    0 -0.94831305313E-02 -0.26818491763E-02 -0.27823399590E-01  0.29521598287E-01  0.51100000000E-03 0.  1.
</event>
<event>
 8    1  0.2927513E+004  0.1043930E+01  0.7957747E-01            NaN
         13   -1    0    0    0    0  0.00000000000E+00  0.00000000000E+00  0.74505805969E-08  0.10566000000E+00  0.10566000000E+00 0.  1.
     999900   -1    0    0    0    0 -0.00000000000E+00 -0.00000000000E+00 -0.74505805969E-08  0.93827000000E+00  0.93827000000E+00 0. -1.
     999902    2    1    2    0    0  0.79269004931E-02 -0.10922115413E-01 -0.45497247635E-02  0.10296882181E+01  0.10295897232E+01 0.  0.
     999903    2    3    3    0    0 -0.11858182817E-01  0.10420330342E+00  0.77861283091E-01  0.13815196768E+00  0.44996020112E-01 0.  0.
         14    1    1    2    0    0 -0.79269004931E-02  0.10922115413E-01  0.45497247635E-02  0.14241781909E-01  0.00000000000E+00 0. -1.
     999901    1    3    3    0    0  0.19785083310E-01 -0.11512541883E+00 -0.82411007855E-01  0.89153625041E+00  0.88000000000E+00 0. -1.
        -11    1    4    4    0    0 -0.28893069668E-01  0.56582563430E-01  0.42550280136E-01  0.76466877927E-01  0.51100000000E-03 0.  1.
         11    1    4    4    0    0  0.17034886851E-01  0.47620739988E-01  0.35311002955E-01  0.61685089752E-01  0.51100000000E-03 0. -1.
</event>
<event>
 8    1  0.2927513E+004  0.1043930E+01  0.7957747E-01            NaN
         13   -1    0    0    0    0  0.00000000000E+00  0.00000000000E+00  0.74505805969E-08  0.10566000000E+00  0.10566000000E+00 0. -1.
     999900   -1    0    0    0    0 -0.00000000000E+00 -0.00000000000E+00 -0.74505805969E-08  0.93827000000E+00  0.93827000000E+00 0.  1.
     999902    2    1    2    0    0  0.24043011658E-02  0.11358390327E-01 -0.70469884854E-03  0.10322985643E+01  0.10322330336E+01 0.  0.
     999903    2    3    3    0    0 -0.64005730843E-01 -0.78452333964E-01 -0.87314123400E-01  0.14102001587E+00  0.44848483208E-01 0.  0.
         14    1    1    2    0    0 -0.24043011658E-02 -0.11358390327E-01  0.70469884854E-03  0.11631435655E-01  0.00000000000E+00 0.  1.
     999901    1    3    3    0    0  0.66410032009E-01  0.89810724291E-01  0.86609424552E-01  0.89127854847E+00  0.88000000000E+00 0. -1.
        -11    1    4    4    0    0  0.62755155226E-03 -0.13150314178E-01 -0.29904594320E-01  0.32678287384E-01  0.51100000000E-03 0.  1.
         11    1    4    4    0    0 -0.64633282395E-01 -0.65302019786E-01 -0.57409529080E-01  0.10834172849E+00  0.51100000000E-03 0. -1.
</event>
<event>
 8    1  0.2927513E+004  0.1043930E+01  0.7957747E-01            NaN
         13   -1    0    0    0    0  0.00000000000E+00  0.00000000000E+00  0.74505805969E-08  0.10566000000E+00  0.10566000000E+00 0. -1.
     999900   -1    0    0    0    0 -0.00000000000E+00 -0.00000000000E+00 -0.74505805969E-08  0.93827000000E+00  0.93827000000E+00 0.  1.
     999902    2    1    2    0    0  0.69200049537E-02  0.50413285415E-03  0.11833603988E-01  0.10302123179E+01  0.10301209857E+01 0.  0.
     999903    2    3    3    0    0 -0.85946086154E-01 -0.76174439353E-01 -0.63849238805E-01  0.13879120138E+00  0.44687776267E-01 0.  0.
         14    1    1    2    0    0 -0.69200049537E-02 -0.50413285415E-03 -0.11833603988E-01  0.13717682087E-01  0.00000000000E+00 0.  1.
     999901    1    3    3    0    0  0.92866091107E-01  0.76678572207E-01  0.75682842793E-01  0.89142111654E+00  0.88000000000E+00 0. -1.
        -11    1    4    4    0    0 -0.81824083209E-01 -0.67278670939E-01 -0.40410409375E-01  0.11337928586E+00  0.51100000000E-03 0. -1.
         11    1    4    4    0    0 -0.41220029448E-02 -0.88957684146E-02 -0.23438829430E-01  0.25411915512E-01  0.51100000000E-03 0.  1.
</event>
<event>
 7    1  0.2927513E+004  0.1043930E+01  0.7957747E-01            NaN
         13   -1    0    0    0    0  0.00000000000E+00  0.00000000000E+00  0.74505805969E-08  0.10566000000E+00  0.10566000000E+00 0. -1.
     999900   -1    0    0    0    0 -0.00000000000E+00 -0.00000000000E+00 -0.74505805969E-08  0.93827000000E+00  0.93827000000E+00 0.  1.
     999902    2    1    2    0    0 -0.11119052502E-01  0.18977305895E-03  0.72368966916E-02  0.10306619174E+01  0.10305765114E+01 0.  0.
         14    1    1    2    0    0  0.11119052502E-01 -0.18977305895E-03 -0.72368966916E-02  0.13268082608E-01  0.00000000000E+00 0.  1.
     999901    1    3    3    0    0 -0.88833737722E-01 -0.10777651973E+00  0.41563006430E-01  0.89198357309E+00  0.88000000000E+00 0. -1.
        -11    1    3    3    0    0  0.47132529439E-01  0.79994591051E-01 -0.25736274616E-01  0.96349503792E-01  0.51100000000E-03 0. -1.
         11    1    3    3    0    0  0.30582155781E-01  0.27971701738E-01 -0.85898351225E-02  0.42328840508E-01  0.51100000000E-03 0.  1.
</event>
<event>
 8    1  0.2927513E+004  0.1043930E+01  0.7957747E-01            NaN
         13   -1    0    0    0    0  0.00000000000E+00  0.00000000000E+00  0.74505805969E-08  0.10566000000E+00  0.10566000000E+00 0.  1.
     999900   -1    0    0    0    0 -0.00000000000E+00 -0.00000000000E+00 -0.74505805969E-08  0.93827000000E+00  0.93827000000E+00 0.  1.
     999902    2    1    2    0    0  0.11200319907E-01  0.58034002820E-02 -0.80575029162E-02  0.10289617010E+01  0.10288528234E+01 0.  0.
     999903    2    3    3    0    0 -0.73390594662E-01 -0.53657550360E-01 -0.94523347711E-01  0.13869906012E+00  0.45138164791E-01 0.  0.
         14    1    1    2    0    0 -0.11200319907E-01 -0.58034002820E-02  0.80575029162E-02  0.14968298971E-01  0.00000000000E+00 0.  1.
     999901    1    3    3    0    0  0.84590914569E-01  0.59460950642E-01  0.86465844795E-01  0.89026264091E+00  0.88000000000E+00 0. -1.
        -11    1    4    4    0    0 -0.38400280951E-01 -0.28214118736E-01 -0.18289066803E-01  0.51042816915E-01  0.51100000000E-03 0. -1.
         11    1    4    4    0    0 -0.34990313711E-01 -0.25443431624E-01 -0.76234280908E-01  0.87656243206E-01  0.51100000000E-03 0.  1.
</event>
<event>
 8    1  0.2927513E+004  0.1043930E+01  0.7957747E-01            NaN
         13   -1    0    0    0    0  0.00000000000E+00  0.00000000000E+00  0.74505805969E-08  0.10566000000E+00  0.10566000000E+00 0. -1.
     999900   -1    0    0    0    0 -0.00000000000E+00 -0.00000000000E+00 -0.74505805969E-08  0.93827000000E+00  0.93827000000E+00 0. -1.
     999902    2    1    2    0    0 -0.57400220356E-02  0.11532304257E-01 -0.46461879314E-02  0.10302358788E+01  0.10301448621E+01 0.  0.
     999903    2    3    3    0    0 -0.25722165164E-01 -0.12700354651E+00 -0.22635078188E-01  0.13899232721E+00  0.44888636109E-01 0.  0.
         14    1    1    2    0    0  0.57400220356E-02 -0.11532304257E-01  0.46461879314E-02  0.13694121248E-01  0.00000000000E+00 0. -1.
     999901    1    3    3    0    0  0.19982143129E-01  0.13853585077E+00  0.17988890256E-01  0.89124355154E+00  0.88000000000E+00 0. -1.
        -11    1    4    4    0    0  0.11572690402E-01 -0.50718986887E-01 -0.12223682095E-01  0.53441765680E-01  0.51100000000E-03 0.  1.
         11    1    4    4    0    0 -0.37294855566E-01 -0.76284559624E-01 -0.10411396092E-01  0.85550561531E-01  0.51100000000E-03 0. -1.
</event>
<event>
 8    1  0.2927513E+004  0.1043930E+01  0.7957747E-01            NaN
         13   -1    0    0    0    0  0.00000000000E+00  0.00000000000E+00  0.74505805969E-08  0.10566000000E+00  0.10566000000E+00 0.  1.
     999900   -1    0    0    0    0 -0.00000000000E+00 -0.00000000000E+00 -0.74505805969E-08  0.93827000000E+00  0.93827000000E+00 0.  1.
     999902    2    1    2    0    0 -0.89901967472E-02  0.33220192710E-02  0.10166780259E-01  0.10299577822E+01  0.10298630056E+01 0.  0.
     999903    2    3    3    0    0 -0.12645811543E+00 -0.38458490052E-01 -0.19990444172E-01  0.14065818079E+00  0.43753806117E-01 0.  0.
         14    1    1    2    0    0  0.89901967472E-02 -0.33220192710E-02 -0.10166780259E-01  0.13972217807E-01  0.00000000000E+00 0. -1.
     999901    1    3    3    0    0  0.11746791868E+00  0.41780509323E-01  0.30157224431E-01  0.88929960141E+00  0.88000000000E+00 0.  1.
        -11    1    4    4    0    0 -0.32998746341E-01  0.60282410178E-02  0.56503909553E-02  0.34021243199E-01  0.51100000000E-03 0.  1.
         11    1    4    4    0    0 -0.93459369085E-01 -0.44486731069E-01 -0.25640835127E-01  0.10663693759E+00  0.51100000000E-03 0. -1.
</event>
<event>
 8    1  0.2927513E+004  0.1043930E+01  0.7957747E-01            NaN
         13   -1    0    0    0    0  0.00000000000E+00  0.00000000000E+00  0.74505805969E-08  0.10566000000E+00  0.10566000000E+00 0. -1.
     999900   -1    0    0    0    0 -0.00000000000E+00 -0.00000000000E+00 -0.74505805969E-08  0.93827000000E+00  0.93827000000E+00 0.  1.
     999902    2    1    2    0    0 -0.17788275200E-01 -0.94757846994E-03 -0.41975613966E-02  0.10256286295E+01  0.10254653312E+01 0.  0.
     999903    2    3    3    0    0 -0.10976150136E-01  0.93362103020E-01  0.87120692952E-01  0.13586475936E+00  0.45080589440E-01 0.  0.
         14    1    1    2    0    0  0.17788275200E-01  0.94757846994E-03  0.41975613966E-02  0.18301370474E-01  0.00000000000E+00 0. -1.
     999901    1    3    3    0    0 -0.68121250636E-02 -0.94309681490E-01 -0.91318254349E-01  0.88976387016E+00  0.88000000000E+00 0.  1.
        -11    1    4    4    0    0 -0.19489177677E-01  0.72015285465E-01  0.42992892696E-01  0.86108532274E-01  0.51100000000E-03 0. -1.
         11    1    4    4    0    0  0.85130275409E-02  0.21346817555E-01  0.44127800256E-01  0.49756227088E-01  0.51100000000E-03 0.  1.
</event>
<event>
 8    1  0.2927513E+004  0.1043930E+01  0.7957747E-01            NaN
         13   -1    0    0    0    0  0.00000000000E+00  0.00000000000E+00  0.74505805969E-08  0.10566000000E+00  0.10566000000E+00 0. -1.
     999900   -1    0    0    0    0 -0.00000000000E+00 -0.00000000000E+00 -0.74505805969E-08  0.93827000000E+00  0.93827000000E+00 0.  1.
     999902    2    1    2    0    0  0.13787577167E-01 -0.26678023691E-02 -0.12444581015E-02  0.10298316622E+01  0.10297351549E+01 0.  0.
     999903    2    3    3    0    0 -0.71390810030E-01 -0.16462972036E-01 -0.10951424610E+00  0.13900731846E+00  0.44294325619E-01 0.  0.
         14    1    1    2    0    0 -0.13787577167E-01  0.26678023691E-02  0.12444581015E-02  0.14098337831E-01  0.00000000000E+00 0. -1.
     999901    1    3    3    0    0  0.85178387197E-01  0.13795169667E-01  0.10826978800E+00  0.89082434371E+00  0.88000000000E+00 0. -1.
        -11    1    4    4    0    0 -0.14133948259E-01 -0.23719456814E-01 -0.30306508677E-01  0.41001545266E-01  0.51100000000E-03 0.  1.
         11    1    4    4    0    0 -0.57256861771E-01  0.72564847784E-02 -0.79207737421E-01  0.98005773194E-01  0.51100000000E-03 0. -1.
</event>
<event>
 8    1  0.2927513E+004  0.1043930E+01  0.7957747E-01            NaN
         13   -1    0    0    0    0  0.00000000000E+00  0.00000000000E+00  0.74505805969E-08  0.10566000000E+00  0.10566000000E+00 0. -1.
     999900   -1    0    0    0    0 -0.00000000000E+00 -0.00000000000E+00 -0.74505805969E-08  0.93827000000E+00  0.93827000000E+00 0. -1.
     999902    2    1    2    0    0  0.14215422144E-01 -0.15117041734E-02 -0.61107950670E-02  0.10283831260E+01  0.10282656021E+01 0.  0.
     999903    2    3    3    0    0 -0.10355372185E+00 -0.37745809691E-01  0.67373014009E-01  0.13676529758E+00  0.44916635525E-01 0.  0.
         14    1    1    2    0    0 -0.14215422144E-01  0.15117041734E-02  0.61107950670E-02  0.15546874046E-01  0.00000000000E+00 0. -1.
     999901    1    3    3    0    0  0.11776914399E+00  0.36234105518E-01 -0.73483809076E-01  0.89161782838E+00  0.88000000000E+00 0. -1.
        -11    1    4    4    0    0 -0.10540929777E+00 -0.29523852220E-01  0.57090890204E-01  0.12346015054E+00  0.51100000000E-03 0. -1.
         11    1    4    4    0    0  0.18555759240E-02 -0.82219574711E-02  0.10282123805E-01  0.13305147035E-01  0.51100000000E-03 0.  1.
</event>
<event>
 8    1  0.2927513E+004  0.1043930E+01  0.7957747E-01            NaN
         13   -1    0    0    0    0  0.00000000000E+00  0.00000000000E+00  0.74505805969E-08  0.10566000000E+00  0.10566000000E+00 0.  1.
     999900   -1    0    0    0    0 -0.00000000000E+00 -0.00000000000E+00 -0.74505805969E-08  0.93827000000E+00  0.93827000000E+00 0. -1.
     999902    2    1    2    0    0 -0.26766187799E-02 -0.18341810191E-02 -0.13288279959E-01  0.10302512979E+01  0.10301604874E+01 0.  0.
     999903    2    3    3    0    0  0.34545143396E-01 -0.12652311402E+00  0.10471802074E-01  0.14036516408E+00  0.48900463531E-01 0.  0.
         14    1    1    2    0    0  0.26766187799E-02  0.18341810191E-02  0.13288279959E-01  0.13678702146E-01  0.00000000000E+00 0.  1.
     999901    1    3    3    0    0 -0.37221762176E-01  0.12468893300E+00 -0.23760082033E-01  0.88988613378E+00  0.88000000000E+00 0.  1.
        -11    1    4    4    0    0  0.10899073325E-01 -0.32231906366E-01 -0.18754457951E-01  0.38854554448E-01  0.51100000000E-03 0.  1.
         11    1    4    4    0    0  0.23646070071E-01 -0.94291207656E-01  0.29226260025E-01  0.10151060963E+00  0.51100000000E-03 0. -1.
</event>
<event>
 8    1  0.2927513E+004  0.1043930E+01  0.7957747E-01            NaN
         13   -1    0    0    0    0  0.00000000000E+00  0.00000000000E+00  0.74505805969E-08  0.10566000000E+00  0.10566000000E+00 0.  1.
     999900   -1    0    0    0    0 -0.00000000000E+00 -0.00000000000E+00 -0.74505805969E-08  0.93827000000E+00  0.93827000000E+00 0. -1.
     999902    2    1    2    0    0 -0.10859117874E-03 -0.10563429785E-02 -0.13311247195E-01  0.10305764628E+01  0.10304899460E+01 0.  0.
     999903    2    3    3    0    0  0.10086359927E+00 -0.67581252887E-01  0.48198148503E-01  0.14018084705E+00  0.50861743577E-01 0.  0.
         14    1    1    2    0    0  0.10859117874E-03  0.10563429785E-02  0.13311247195E-01  0.13353537151E-01  0.00000000000E+00 0.  1.
     999901    1    3    3    0    0 -0.10097219045E+00  0.66524909908E-01 -0.61509395699E-01  0.89039561580E+00  0.88000000000E+00 0. -1.
        -11    1    4    4    0    0  0.83328855244E-01 -0.58423209054E-01  0.58999809912E-01  0.11763591358E+00  0.51100000000E-03 0.  1.
         11    1    4    4    0    0  0.17534744027E-01 -0.91580438324E-02 -0.10801661408E-01  0.22544933469E-01  0.51100000000E-03 0. -1.
</event>
<event>
 8    1  0.2927513E+004  0.1043930E+01  0.7957747E-01            NaN
         13   -1    0    0    0    0  0.00000000000E+00  0.00000000000E+00  0.74505805969E-08  0.10566000000E+00  0.10566000000E+00 0.  1.
     999900   -1    0    0    0    0 -0.00000000000E+00 -0.00000000000E+00 -0.74505805969E-08  0.93827000000E+00  0.93827000000E+00 0.  1.
     999902    2    1    2    0    0 -0.10158269803E-01 -0.14873794970E-02 -0.85496936593E-02  0.10305696106E+01  0.10304830044E+01 0.  0.
     999903    2    3    3    0    0 -0.66953821171E-01 -0.47093987400E-01  0.10509211046E+00  0.14027743554E+00  0.43963046097E-01 0.  0.
         14    1    1    2    0    0  0.10158269803E-01  0.14873794970E-02  0.85496936593E-02  0.13360389397E-01  0.00000000000E+00 0.  1.
     999901    1    3    3    0    0  0.56795551368E-01  0.45606607903E-01 -0.11364180412E+00  0.89029217507E+00  0.88000000000E+00 0.  1.
        -11    1    4    4    0    0 -0.89930829753E-02 -0.23002470734E-01  0.10703029027E-01  0.26922205567E-01  0.51100000000E-03 0. -1.
         11    1    4    4    0    0 -0.57960738196E-01 -0.24091516667E-01  0.94389081430E-01  0.11335522997E+00  0.51100000000E-03 0.  1.
</event>
<event>
 7    1  0.2927513E+004  0.1043930E+01  0.7957747E-01            NaN
         13   -1    0    0    0    0  0.00000000000E+00  0.00000000000E+00  0.74505805969E-08  0.10566000000E+00  0.10566000000E+00 0.  1.
     999900   -1    0    0    0    0 -0.00000000000E+00 -0.00000000000E+00 -0.74505805969E-08  0.93827000000E+00  0.93827000000E+00 0. -1.
     999903    2    1    2    0    0 -0.98064356517E-01  0.21670971487E-01  0.28056727390E-01  0.11399451495E+00  0.46057794796E-01 0.  0.
         14    1    1    2    0    0 -0.38241852834E-01 -0.29929397879E-02  0.46868735751E-02  0.38644065271E-01  0.00000000000E+00 0.  1.
     999901    1    1    2    0    0  0.13630620935E+00 -0.18678031699E-01 -0.32743600965E-01  0.89129141978E+00  0.88000000000E+00 0.  1.
        -11    1    3    3    0    0 -0.45024062459E-02  0.57540038930E-02  0.16918286900E-01  0.18435557367E-01  0.51100000000E-03 0.  1.
         11    1    3    3    0    0 -0.93561950271E-01  0.15916967594E-01  0.11138440490E-01  0.95558957579E-01  0.51100000000E-03 0. -1.
</event>
<event>
 8    1  0.2927513E+004  0.1043930E+01  0.7957747E-01            NaN
         13   -1    0    0    0    0  0.00000000000E+00  0.00000000000E+00  0.74505805969E-08  0.10566000000E+00  0.10566000000E+00 0.  1.
     999900   -1    0    0    0    0 -0.00000000000E+00 -0.00000000000E+00 -0.74505805969E-08  0.93827000000E+00  0.93827000000E+00 0.  1.
     999902    2    1    2    0    0 -0.91001803913E-02  0.17532365110E-02  0.99577106626E-02  0.10303269443E+01  0.10302371422E+01 0.  0.
     999903    2    3    3    0    0 -0.72024514156E-01  0.56642272958E-01 -0.96120129109E-01  0.14003216946E+00  0.44430299780E-01 0.  0.
         14    1    1    2    0    0  0.91001803913E-02 -0.17532365110E-02 -0.99577106626E-02  0.13603055652E-01  0.00000000000E+00 0. -1.
     999901    1    3    3    0    0  0.62924333765E-01 -0.54889036447E-01  0.10607783977E+00  0.89029477489E+00  0.88000000000E+00 0. -1.
        -11    1    4    4    0    0 -0.34513881240E-01  0.12446061395E-01 -0.63961240494E-01  0.73738821858E-01  0.51100000000E-03 0. -1.
         11    1    4    4    0    0 -0.37510632916E-01  0.44196211564E-01 -0.32158888615E-01  0.66293347602E-01  0.51100000000E-03 0.  1.
</event>
<event>
 8    1  0.2927513E+004  0.1043930E+01  0.7957747E-01            NaN
         13   -1    0    0    0    0  0.00000000000E+00  0.00000000000E+00  0.74505805969E-08  0.10566000000E+00  0.10566000000E+00 0.  1.
     999900   -1    0    0    0    0 -0.00000000000E+00 -0.00000000000E+00 -0.74505805969E-08  0.93827000000E+00  0.93827000000E+00 0. -1.
     999902    2    1    2    0    0 -0.99177821811E-02  0.68290336009E-02 -0.57438712652E-02  0.10305887047E+01  0.10305023474E+01 0.  0.
     999903    2    3    3    0    0 -0.76450599271E-01 -0.32783618325E-01 -0.10526861727E+00  0.14159997979E+00  0.45272648849E-01 0.  0.
         14    1    1    2    0    0  0.99177821811E-02 -0.68290336009E-02  0.57438712652E-02  0.13341295305E-01  0.00000000000E+00 0. -1.
     999901    1    3    3    0    0  0.66532817089E-01  0.39612651926E-01  0.99524746009E-01  0.88898872491E+00  0.88000000000E+00 0.  1.
        -11    1    4    4    0    0 -0.78724182165E-02 -0.23495169391E-01 -0.20464853227E-01  0.32141395301E-01  0.51100000000E-03 0.  1.
         11    1    4    4    0    0 -0.68578181054E-01 -0.92884489337E-02 -0.84803764047E-01  0.10945858449E+00  0.51100000000E-03 0. -1.
</event>
<event>
 8    1  0.2927513E+004  0.1043930E+01  0.7957747E-01            NaN
         13   -1    0    0    0    0  0.00000000000E+00  0.00000000000E+00  0.74505805969E-08  0.10566000000E+00  0.10566000000E+00 0.  1.
     999900   -1    0    0    0    0 -0.00000000000E+00 -0.00000000000E+00 -0.74505805969E-08  0.93827000000E+00  0.93827000000E+00 0. -1.
     999902    2    1    2    0    0  0.31649917487E-02  0.73832901739E-02 -0.10678308392E-01  0.10305674996E+01  0.10304808658E+01 0.  0.
     999903    2    3    3    0    0 -0.65865206960E-01  0.11643118950E+00  0.41783203490E-02  0.14102979265E+00  0.44469053039E-01 0.  0.
         14    1    1    2    0    0 -0.31649917487E-02 -0.73832901739E-02  0.10678308392E-01  0.13362500390E-01  0.00000000000E+00 0.  1.
     999901    1    3    3    0    0  0.69030198708E-01 -0.10904789933E+00 -0.14856628741E-01  0.88953770696E+00  0.88000000000E+00 0.  1.
        -11    1    4    4    0    0 -0.20450670231E-01  0.74056024467E-01  0.14140429151E-01  0.78120020036E-01  0.51100000000E-03 0. -1.
         11    1    4    4    0    0 -0.45414536729E-01  0.42375165034E-01 -0.99621088025E-02  0.62909772617E-01  0.51100000000E-03 0.  1.
</event>
<event>
 8    1  0.2927513E+004  0.1043930E+01  0.7957747E-01            NaN
         13   -1    0    0    0    0  0.00000000000E+00  0.00000000000E+00  0.74505805969E-08  0.10566000000E+00  0.10566000000E+00 0.  1.
     999900   -1    0    0    0    0 -0.00000000000E+00 -0.00000000000E+00 -0.74505805969E-08  0.93827000000E+00  0.93827000000E+00 0. -1.
     999902    2    1    2    0    0 -0.10354013589E-01  0.63207043549E-02 -0.54800537720E-02  0.10306188058E+01  0.10305328403E+01 0.  0.
     999903    2    3    3    0    0  0.10786276793E+00  0.28013269320E-01  0.66505018852E-01  0.13953652821E+00  0.51267974498E-01 0.  0.
         14    1    1    2    0    0  0.10354013589E-01 -0.63207043549E-02  0.54800537720E-02  0.13311194172E-01  0.00000000000E+00 0. -1.
     999901    1    3    3    0    0 -0.11821678152E+00 -0.21692564965E-01 -0.71985072624E-01  0.89108227762E+00  0.88000000000E+00 0. -1.
        -11    1    4    4    0    0  0.36492707216E-01 -0.21894996965E-02 -0.12673763657E-02  0.36583861916E-01  0.51100000000E-03 0.  1.
         11    1    4    4    0    0  0.71370060711E-01  0.30202769017E-01  0.67772395217E-01  0.10295266629E+00  0.51100000000E-03 0. -1.
</event>
<event>
 7    1  0.2927513E+004  0.1043930E+01  0.7957747E-01            NaN
         13   -1    0    0    0    0  0.00000000000E+00  0.00000000000E+00  0.74505805969E-08  0.10566000000E+00  0.10566000000E+00 0. -1.
     999900   -1    0    0    0    0 -0.00000000000E+00 -0.00000000000E+00 -0.74505805969E-08  0.93827000000E+00  0.93827000000E+00 0. -1.
     999902    2    1    2    0    0 -0.60381408024E-02  0.12603967891E-01  0.55770572949E-02  0.10288826508E+01  0.10287726116E+01 0.  0.
         14    1    1    2    0    0  0.60381408024E-02 -0.12603967891E-01 -0.55770572949E-02  0.15047349236E-01  0.00000000000E+00 0.  1.
     999901    1    3    3    0    0  0.57848559518E-01 -0.85863822871E-01  0.78177647600E-01  0.88951154939E+00  0.88000000000E+00 0.  1.
        -11    1    3    3    0    0 -0.54832838308E-01  0.75905875341E-01 -0.64641903242E-01  0.11378567064E+00  0.51100000000E-03 0.  1.
         11    1    3    3    0    0 -0.90538620117E-02  0.22561915422E-01 -0.79586870633E-02  0.25585430729E-01  0.51100000000E-03 0. -1.
</event>
<event>
 8    1  0.2927513E+004  0.1043930E+01  0.7957747E-01            NaN
         13   -1    0    0    0    0  0.00000000000E+00  0.00000000000E+00  0.74505805969E-08  0.10566000000E+00  0.10566000000E+00 0.  1.
     999900   -1    0    0    0    0 -0.00000000000E+00 -0.00000000000E+00 -0.74505805969E-08  0.93827000000E+00  0.93827000000E+00 0.  1.
     999902    2    1    2    0    0 -0.24108819602E-03  0.51432072085E-02  0.12484442488E-01  0.10304254819E+01  0.10303369846E+01 0.  0.
     999903    2    3    3    0    0 -0.78835494990E-01  0.47027394861E-01 -0.94858109370E-01  0.13944075177E+00  0.44933853636E-01 0.  0.
         14    1    1    2    0    0  0.24108819602E-03 -0.51432072085E-02 -0.12484442488E-01  0.13504518064E-01  0.00000000000E+00 0. -1.
     999901    1    3    3    0    0  0.78594406794E-01 -0.41884187652E-01  0.10734255186E+00  0.89098473017E+00  0.88000000000E+00 0. -1.
        -11    1    4    4    0    0 -0.75966888327E-01  0.37091557814E-01 -0.61583224635E-01  0.10459209559E+00  0.51100000000E-03 0.  1.
         11    1    4    4    0    0 -0.28686066629E-02  0.99358370471E-02 -0.33274884736E-01  0.34848656175E-01  0.51100000000E-03 0. -1.
</event>
<event>
 8    1  0.2927513E+004  0.1043930E+01  0.7957747E-01            NaN
         13   -1    0    0    0    0  0.00000000000E+00  0.00000000000E+00  0.74505805969E-08  0.10566000000E+00  0.10566000000E+00 0.  1.
     999900   -1    0    0    0    0 -0.00000000000E+00 -0.00000000000E+00 -0.74505805969E-08  0.93827000000E+00  0.93827000000E+00 0. -1.
     999902    2    1    2    0    0  0.65434520603E-02  0.12979021466E-01 -0.95163524431E-03  0.10293636905E+01  0.10292606229E+01 0.  0.
     999903    2    3    3    0    0 -0.29440293180E-01 -0.12376915949E+00 -0.26790415594E-01  0.13770089689E+00  0.45368215011E-01 0.  0.
         14    1    1    2    0    0 -0.65434520603E-02 -0.12979021466E-01  0.95163524431E-03  0.14566309509E-01  0.00000000000E+00 0. -1.
     999901    1    3    3    0    0  0.35983745240E-01  0.13674818096E+00  0.25838780350E-01  0.89166279360E+00  0.88000000000E+00 0. -1.
        -11    1    4    4    0    0 -0.10775869443E-01 -0.87827300582E-01 -0.37031864851E-01  0.95923793842E-01  0.51100000000E-03 0.  1.
         11    1    4    4    0    0 -0.18664423737E-01 -0.35941858911E-01  0.10241449257E-01  0.41777103051E-01  0.51100000000E-03 0. -1.
</event>
<event>
 8    1  0.2927513E+004  0.1043930E+01  0.7957747E-01            NaN
         13   -1    0    0    0    0  0.00000000000E+00  0.00000000000E+00  0.74505805969E-08  0.10566000000E+00  0.10566000000E+00 0.  1.
     999900   -1    0    0    0    0 -0.00000000000E+00 -0.00000000000E+00 -0.74505805969E-08  0.93827000000E+00  0.93827000000E+00 0.  1.
     999902    2    1    2    0    0  0.55800509656E-02 -0.74530239480E-02 -0.95612044768E-02  0.10305845451E+01  0.10304981337E+01 0.  0.
     999903    2    3    3    0    0  0.93902208799E-01 -0.76453161281E-01 -0.59288101454E-01  0.14208323010E+00  0.44831402108E-01 0.  0.
         14    1    1    2    0    0 -0.55800509656E-02  0.74530239480E-02  0.95612044768E-02  0.13345454874E-01  0.00000000000E+00 0. -1.
     999901    1    3    3    0    0 -0.88322157833E-01  0.69000137333E-01  0.49726896978E-01  0.88850131502E+00  0.88000000000E+00 0. -1.
        -11    1    4    4    0    0  0.26951952701E-01 -0.50385310875E-01 -0.29451121341E-01  0.64286211396E-01  0.51100000000E-03 0.  1.
         11    1    4    4    0    0  0.66950256097E-01 -0.26067850406E-01 -0.29836980113E-01  0.77797018706E-01  0.51100000000E-03 0. -1.
</event>
<event>
 8    1  0.2927513E+004  0.1043930E+01  0.7957747E-01            NaN
         13   -1    0    0    0    0  0.00000000000E+00  0.00000000000E+00  0.74505805969E-08  0.10566000000E+00  0.10566000000E+00 0. -1.
     999900   -1    0    0    0    0 -0.00000000000E+00 -0.00000000000E+00 -0.74505805969E-08  0.93827000000E+00  0.93827000000E+00 0.  1.
     999902    2    1    2    0    0 -0.12433425448E-02 -0.12619988882E-01 -0.66631669128E-02  0.10296049236E+01  0.10295052651E+01 0.  0.
     999903    2    3    3    0    0  0.16026804005E-02  0.51221117583E-01 -0.12144542164E+00  0.13985284988E+00  0.46729623496E-01 0.  0.
         14    1    1    2    0    0  0.12433425448E-02  0.12619988882E-01  0.66631669128E-02  0.14325076383E-01  0.00000000000E+00 0. -1.
     999901    1    3    3    0    0 -0.28460229454E-02 -0.63841106465E-01  0.11478225472E+00  0.88975207374E+00  0.88000000000E+00 0. -1.
        -11    1    4    4    0    0 -0.93156199638E-03  0.45666048839E-01 -0.48401526653E-01  0.66552420900E-01  0.51100000000E-03 0. -1.
         11    1    4    4    0    0  0.25342423969E-02  0.55550687442E-02 -0.73043894983E-01  0.73300428979E-01  0.51100000000E-03 0.  1.
</event>
<event>
 8    1  0.2927513E+004  0.1043930E+01  0.7957747E-01            NaN
         13   -1    0    0    0    0  0.00000000000E+00  0.00000000000E+00  0.74505805969E-08  0.10566000000E+00  0.10566000000E+00 0.  1.
     999900   -1    0    0    0    0 -0.00000000000E+00 -0.00000000000E+00 -0.74505805969E-08  0.93827000000E+00  0.93827000000E+00 0. -1.
     999902    2    1    2    0    0 -0.10029096165E-01  0.76940725752E-02 -0.49029341202E-02  0.10303719660E+01  0.10302827612E+01 0.  0.
     999903    2    3    3    0    0 -0.12063540723E+00  0.23174970739E-01  0.53514659600E-01  0.14139163467E+00  0.45141940754E-01 0.  0.
         14    1    1    2    0    0  0.10029096165E-01 -0.76940725752E-02  0.49029341202E-02  0.13558033990E-01  0.00000000000E+00 0.  1.
     999901    1    3    3    0    0  0.11060631107E+00 -0.15480898164E-01 -0.58417593720E-01  0.88898033134E+00  0.88000000000E+00 0.  1.
        -11    1    4    4    0    0 -0.10294100089E+00  0.17017343128E-02  0.39986961714E-01  0.11044891938E+00  0.51100000000E-03 0.  1.
         11    1    4    4    0    0 -0.17694406346E-01  0.21473236426E-01  0.13527697886E-01  0.30942715292E-01  0.51100000000E-03 0. -1.
</event>
<event>
 8    1  0.2927513E+004  0.1043930E+01  0.7957747E-01            NaN
         13   -1    0    0    0    0  0.00000000000E+00  0.00000000000E+00  0.74505805969E-08  0.10566000000E+00  0.10566000000E+00 0. -1.
     999900   -1    0    0    0    0 -0.00000000000E+00 -0.00000000000E+00 -0.74505805969E-08  0.93827000000E+00  0.93827000000E+00 0.  1.
     999902    2    1    2    0    0 -0.81246779864E-02  0.11237686228E-01  0.14356575853E-01  0.10239698584E+01  0.10237752994E+01 0.  0.
     999903    2    3    3    0    0 -0.35129861224E-01  0.82754580708E-01 -0.90195344343E-01  0.13448964490E+00  0.43241608044E-01 0.  0.
         14    1    1    2    0    0  0.81246779864E-02 -0.11237686228E-01 -0.14356575853E-01  0.19960141642E-01  0.00000000000E+00 0.  1.
     999901    1    3    3    0    0  0.27005183237E-01 -0.71516894480E-01  0.10455192020E+00  0.88948021346E+00  0.88000000000E+00 0. -1.
        -11    1    4    4    0    0  0.17733430367E-02  0.31039980453E-01 -0.51322555629E-01  0.60007424285E-01  0.51100000000E-03 0.  1.
         11    1    4    4    0    0 -0.36903204260E-01  0.51714600255E-01 -0.38872788714E-01  0.74482220614E-01  0.51100000000E-03 0. -1.
</event>
<event>
 8    1  0.2927513E+004  0.1043930E+01  0.7957747E-01            NaN
         13   -1    0    0    0    0  0.00000000000E+00  0.00000000000E+00  0.74505805969E-08  0.10566000000E+00  0.10566000000E+00 0. -1.
     999900   -1    0    0    0    0 -0.00000000000E+00 -0.00000000000E+00 -0.74505805969E-08  0.93827000000E+00  0.93827000000E+00 0. -1.
     999902    2    1    2    0    0  0.10135903027E-01  0.88900372688E-02  0.23393990503E-02  0.10302463572E+01  0.10301554807E+01 0.  0.
     999903    2    3    3    0    0  0.41302573860E-01  0.69838964579E-01  0.10708027197E+00  0.14139497277E+00  0.44079134505E-01 0.  0.
         14    1    1    2    0    0 -0.10135903027E-01 -0.88900372688E-02 -0.23393990503E-02  0.13683642816E-01  0.00000000000E+00 0. -1.
     999901    1    3    3    0    0 -0.31166670833E-01 -0.60948927311E-01 -0.10474087292E+00  0.88885138441E+00  0.88000000000E+00 0. -1.
        -11    1    4    4    0    0  0.30657079156E-01  0.74206684692E-01  0.98229155128E-01  0.12686889530E+00  0.51100000000E-03 0. -1.
         11    1    4    4    0    0  0.10645494704E-01 -0.43677201127E-02  0.88511168432E-02  0.14526077476E-01  0.51100000000E-03 0.  1.
</event>
<event>
 8    1  0.2927513E+004  0.1043930E+01  0.7957747E-01            NaN
         13   -1    0    0    0    0  0.00000000000E+00  0.00000000000E+00  0.74505805969E-08  0.10566000000E+00  0.10566000000E+00 0. -1.
     999900   -1    0    0    0    0 -0.00000000000E+00 -0.00000000000E+00 -0.74505805969E-08  0.93827000000E+00  0.93827000000E+00 0.  1.
     999902    2    1    2    0    0  0.13517679573E-01 -0.31982581174E-02  0.23574579454E-02  0.10298404960E+01  0.10297441104E+01 0.  0.
     999903    2    3    3    0    0 -0.29952835721E-02  0.13180027583E+00 -0.61661485274E-02  0.13935190312E+00  0.44728593575E-01 0.  0.
         14    1    1    2    0    0 -0.13517679573E-01  0.31982581174E-02 -0.23574579454E-02  0.14089504036E-01  0.00000000000E+00 0. -1.
     999901    1    3    3    0    0  0.16512963145E-01 -0.13499853395E+00  0.85236064728E-02  0.89048859284E+00  0.88000000000E+00 0. -1.
        -11    1    4    4    0    0 -0.17438804361E-01  0.34988595526E-01 -0.13071160582E-01  0.41224144314E-01  0.51100000000E-03 0.  1.
         11    1    4    4    0    0  0.14443520789E-01  0.96811680302E-01  0.69050120547E-02  0.98127758805E-01  0.51100000000E-03 0. -1.
</event>
<event>
 8    1  0.2927513E+004  0.1043930E+01  0.7957747E-01            NaN
         13   -1    0    0    0    0  0.00000000000E+00  0.00000000000E+00  0.74505805969E-08  0.10566000000E+00  0.10566000000E+00 0. -1.
     999900   -1    0    0    0    0 -0.00000000000E+00 -0.00000000000E+00 -0.74505805969E-08  0.93827000000E+00  0.93827000000E+00 0.  1.
     999902    2    1    2    0    0  0.13436796605E-01  0.12425132145E-02 -0.56497871218E-03  0.10304240553E+01  0.10303355391E+01 0.  0.
     999903    2    3    3    0    0 -0.19638473349E-01 -0.11850942970E+00  0.52332126195E-01  0.14012488925E+00  0.49660634226E-01 0.  0.
         14    1    1    2    0    0 -0.13436796605E-01 -0.12425132145E-02  0.56497871218E-03  0.13505944729E-01  0.00000000000E+00 0. -1.
     999901    1    3    3    0    0  0.33075269953E-01  0.11975194291E+00 -0.52897104907E-01  0.89029916602E+00  0.88000000000E+00 0.  1.
        -11    1    4    4    0    0  0.10610979889E-01 -0.37868903145E-02  0.33324031554E-02  0.11760079262E-01  0.51100000000E-03 0.  1.
         11    1    4    4    0    0 -0.30249453237E-01 -0.11472253938E+00  0.48999723040E-01  0.12836480999E+00  0.51100000000E-03 0. -1.
</event>
<event>
 8    1  0.2927513E+004  0.1043930E+01  0.7957747E-01            NaN
         13   -1    0    0    0    0  0.00000000000E+00  0.00000000000E+00  0.74505805969E-08  0.10566000000E+00  0.10566000000E+00 0. -1.
     999900   -1    0    0    0    0 -0.00000000000E+00 -0.00000000000E+00 -0.74505805969E-08  0.93827000000E+00  0.93827000000E+00 0.  1.
     999902    2    1    2    0    0 -0.13820891617E-01 -0.74642813435E-03  0.14039019019E-02  0.10300179498E+01  0.10299239932E+01 0.  0.
     999903    2    3    3    0    0 -0.94535429099E-01  0.54673133654E-01 -0.77447343328E-01  0.14108393467E+00  0.44502659866E-01 0.  0.
         14    1    1    2    0    0  0.13820891617E-01  0.74642813435E-03 -0.14039019019E-02  0.13912050194E-01  0.00000000000E+00 0.  1.
     999901    1    3    3    0    0  0.80714537482E-01 -0.55419561789E-01  0.78851245230E-01  0.88893401514E+00  0.88000000000E+00 0. -1.
        -11    1    4    4    0    0 -0.23470650599E-01  0.17929090237E-01  0.27826029100E-03  0.29540857571E-01  0.51100000000E-03 0. -1.
         11    1    4    4    0    0 -0.71064778500E-01  0.36744043417E-01 -0.77725603619E-01  0.11154307710E+00  0.51100000000E-03 0.  1.
</event>
<event>
 8    1  0.2927513E+004  0.1043930E+01  0.7957747E-01            NaN
         13   -1    0    0    0    0  0.00000000000E+00  0.00000000000E+00  0.74505805969E-08  0.10566000000E+00  0.10566000000E+00 0.  1.
     999900   -1    0    0    0    0 -0.00000000000E+00 -0.00000000000E+00 -0.74505805969E-08  0.93827000000E+00  0.93827000000E+00 0. -1.
     999902    2    1    2    0    0 -0.60483546785E-02  0.60228319121E-02 -0.10768757238E-01  0.10301887034E+01  0.10300970544E+01 0.  0.
     999903    2    3    3    0    0 -0.44241761170E-02  0.12153354110E+00 -0.58017325229E-01  0.14138175643E+00  0.42811401247E-01 0.  0.
         14    1    1    2    0    0  0.60483546785E-02 -0.60228319121E-02  0.10768757238E-01  0.13741296555E-01  0.00000000000E+00 0.  1.
     999901    1    3    3    0    0 -0.16241785615E-02 -0.11551070919E+00  0.47248567991E-01  0.88880694702E+00  0.88000000000E+00 0.  1.
        -11    1    4    4    0    0  0.15107034096E-01  0.52012008820E-01 -0.11173673986E-01  0.55304463220E-01  0.51100000000E-03 0.  1.
         11    1    4    4    0    0 -0.19531210213E-01  0.69521532279E-01 -0.46843651243E-01  0.86077293206E-01  0.51100000000E-03 0. -1.
</event>
<event>
 8    1  0.2927513E+004  0.1043930E+01  0.7957747E-01            NaN
         13   -1    0    0    0    0  0.00000000000E+00  0.00000000000E+00  0.74505805969E-08  0.10566000000E+00  0.10566000000E+00 0. -1.
     999900   -1    0    0    0    0 -0.00000000000E+00 -0.00000000000E+00 -0.74505805969E-08  0.93827000000E+00  0.93827000000E+00 0. -1.
     999902    2    1    2    0    0  0.10663812374E-01 -0.58838704282E-02 -0.55959580531E-02  0.10305265836E+01  0.10304394149E+01 0.  0.
     999903    2    3    3    0    0 -0.14011814029E-01  0.10547847285E+00 -0.79220057283E-01  0.14011602319E+00  0.45107020659E-01 0.  0.
         14    1    1    2    0    0 -0.10663812374E-01  0.58838704282E-02  0.55959580531E-02  0.13403416434E-01  0.00000000000E+00 0. -1.
     999901    1    3    3    0    0  0.24675626404E-01 -0.11136234328E+00  0.73624099229E-01  0.89041056037E+00  0.88000000000E+00 0.  1.
        -11    1    4    4    0    0  0.67745550019E-03  0.99762910028E-01 -0.69561380498E-01  0.12162295812E+00  0.51100000000E-03 0.  1.
         11    1    4    4    0    0 -0.14689269530E-01  0.57155628188E-02 -0.96586767848E-02  0.18493065075E-01  0.51100000000E-03 0. -1.
</event>
<event>
 8    1  0.2927513E+004  0.1043930E+01  0.7957747E-01            NaN
         13   -1    0    0    0    0  0.00000000000E+00  0.00000000000E+00  0.74505805969E-08  0.10566000000E+00  0.10566000000E+00 0.  1.
     999900   -1    0    0    0    0 -0.00000000000E+00 -0.00000000000E+00 -0.74505805969E-08  0.93827000000E+00  0.93827000000E+00 0.  1.
     999902    2    1    2    0    0  0.11034166214E-01 -0.65729644124E-02 -0.58002217532E-02  0.10298374751E+01  0.10297410480E+01 0.  0.
     999903    2    3    3    0    0 -0.11169416432E+00 -0.42889956396E-01  0.55113041582E-01  0.13849489638E+00  0.42758090068E-01 0.  0.
         14    1    1    2    0    0 -0.11034166214E-01  0.65729644124E-02  0.58002217532E-02  0.14092524884E-01  0.00000000000E+00 0.  1.
     999901    1    3    3    0    0  0.12272833054E+00  0.36316991984E-01 -0.60913263335E-01  0.89134257874E+00  0.88000000000E+00 0. -1.
        -11    1    4    4    0    0 -0.47702700423E-01  0.35903259892E-02  0.17820121512E-01  0.51051502623E-01  0.51100000000E-03 0. -1.
         11    1    4    4    0    0 -0.63991463902E-01 -0.46480282385E-01  0.37292920070E-01  0.87443393754E-01  0.51100000000E-03 0.  1.
</event>
<event>
 8    1  0.2927513E+004  0.1043930E+01  0.7957747E-01            NaN
         13   -1    0    0    0    0  0.00000000000E+00  0.00000000000E+00  0.74505805969E-08  0.10566000000E+00  0.10566000000E+00 0.  1.
     999900   -1    0    0    0    0 -0.00000000000E+00 -0.00000000000E+00 -0.74505805969E-08  0.93827000000E+00  0.93827000000E+00 0. -1.
     999902    2    1    2    0    0 -0.24634623476E-02  0.38141109352E-02  0.12928788103E-01  0.10302270933E+01  0.10301359591E+01 0.  0.
     999903    2    3    3    0    0  0.10167932706E+00  0.59977915589E-01 -0.61159131253E-01  0.13922254042E+00  0.41309085135E-01 0.  0.
         14    1    1    2    0    0  0.24634623476E-02 -0.38141109352E-02 -0.12928788103E-01  0.13702906654E-01  0.00000000000E+00 0. -1.
     999901    1    3    3    0    0 -0.10414278941E+00 -0.56163804654E-01  0.74087919356E-01  0.89100455293E+00  0.88000000000E+00 0.  1.
        -11    1    4    4    0    0  0.12675442551E-01  0.27298674319E-01 -0.17718614858E-01  0.34929856812E-01  0.51100000000E-03 0.  1.
         11    1    4    4    0    0  0.89003884514E-01  0.32679241270E-01 -0.43440516396E-01  0.10429268361E+00  0.51100000000E-03 0. -1.
</event>
<event>
 8    1  0.2927513E+004  0.1043930E+01  0.7957747E-01            NaN
         13   -1    0    0    0    0  0.00000000000E+00  0.00000000000E+00  0.74505805969E-08  0.10566000000E+00  0.10566000000E+00 0. -1.
     999900   -1    0    0    0    0 -0.00000000000E+00 -0.00000000000E+00 -0.74505805969E-08  0.93827000000E+00  0.93827000000E+00 0.  1.
     999902    2    1    2    0    0  0.13830374104E-01  0.22774349751E-02 -0.45928003335E-02  0.10291800924E+01  0.10290743913E+01 0.  0.
     999903    2    3    3    0    0 -0.82798191830E-01  0.37399997675E-01 -0.94809279112E-01  0.13861303309E+00  0.44390011721E-01 0.  0.
         14    1    1    2    0    0 -0.13830374104E-01 -0.22774349751E-02  0.45928003335E-02  0.14749907553E-01  0.00000000000E+00 0. -1.
     999901    1    3    3    0    0  0.96628565935E-01 -0.35122562700E-01  0.90216478779E-01  0.89056705936E+00  0.88000000000E+00 0. -1.
        -11    1    4    4    0    0 -0.54539259039E-01  0.72315704188E-03 -0.46236451363E-01  0.71506113643E-01  0.51100000000E-03 0.  1.
         11    1    4    4    0    0 -0.28258932791E-01  0.36676840633E-01 -0.48572827750E-01  0.67106919449E-01  0.51100000000E-03 0. -1.
</event>
<event>
 8    1  0.2927513E+004  0.1043930E+01  0.7957747E-01            NaN
         13   -1    0    0    0    0  0.00000000000E+00  0.00000000000E+00  0.74505805969E-08  0.10566000000E+00  0.10566000000E+00 0.  1.
     999900   -1    0    0    0    0 -0.00000000000E+00 -0.00000000000E+00 -0.74505805969E-08  0.93827000000E+00  0.93827000000E+00 0. -1.
     999902    2    1    2    0    0  0.59152558481E-03  0.97872174674E-02 -0.10060299107E-01  0.10298818988E+01  0.10297860828E+01 0.  0.
     999903    2    3    3    0    0 -0.13180451984E+00  0.14805803526E-01 -0.70153197612E-02  0.13995877241E+00  0.44131621235E-01 0.  0.
         14    1    1    2    0    0 -0.59152558481E-03 -0.97872174674E-02  0.10060299107E-01  0.14048101167E-01  0.00000000000E+00 0.  1.
     999901    1    3    3    0    0  0.13239604543E+00 -0.50185860583E-02 -0.30449793459E-02  0.88992312643E+00  0.88000000000E+00 0. -1.
        -11    1    4    4    0    0 -0.63807271684E-01  0.16770914607E-01  0.16452806657E-01  0.67996966583E-01  0.51100000000E-03 0.  1.
         11    1    4    4    0    0 -0.67997248159E-01 -0.19651110813E-02 -0.23468126418E-01  0.71961805823E-01  0.51100000000E-03 0. -1.
</event>
<event>
 8    1  0.2927513E+004  0.1043930E+01  0.7957747E-01            NaN
         13   -1    0    0    0    0  0.00000000000E+00  0.00000000000E+00  0.74505805969E-08  0.10566000000E+00  0.10566000000E+00 0.  1.
     999900   -1    0    0    0    0 -0.00000000000E+00 -0.00000000000E+00 -0.74505805969E-08  0.93827000000E+00  0.93827000000E+00 0.  1.
     999902    2    1    2    0    0 -0.56212442749E-02  0.10910451003E-01  0.27092856598E-02  0.10313611275E+01  0.10312845382E+01 0.  0.
     999903    2    3    3    0    0 -0.64258788517E-01  0.11958318067E+00 -0.41302307203E-02  0.14271333291E+00  0.43825878017E-01 0.  0.
         14    1    1    2    0    0  0.56212442749E-02 -0.10910451003E-01 -0.27092856598E-02  0.12568872546E-01  0.00000000000E+00 0. -1.
     999901    1    3    3    0    0  0.58637544242E-01 -0.10867272966E+00  0.68395163801E-02  0.88864779455E+00  0.88000000000E+00 0. -1.
        -11    1    4    4    0    0 -0.92887142886E-02  0.62613737772E-01 -0.54465713403E-02  0.63534924500E-01  0.51100000000E-03 0. -1.
         11    1    4    4    0    0 -0.54970074228E-01  0.56969442895E-01  0.13163406200E-02  0.79178408408E-01  0.51100000000E-03 0.  1.
</event>
<event>
 8    1  0.2927513E+004  0.1043930E+01  0.7957747E-01            NaN
         13   -1    0    0    0    0  0.00000000000E+00  0.00000000000E+00  0.74505805969E-08  0.10566000000E+00  0.10566000000E+00 0.  1.
     999900   -1    0    0    0    0 -0.00000000000E+00 -0.00000000000E+00 -0.74505805969E-08  0.93827000000E+00  0.93827000000E+00 0.  1.
     999902    2    1    2    0    0  0.13722654830E-01  0.61716749741E-03 -0.24470404525E-02  0.10299772168E+01  0.10298827055E+01 0.  0.
     999903    2    3    3    0    0 -0.52862230092E-01  0.16363349346E-01 -0.11892451085E+00  0.13966912956E+00  0.47981787154E-01 0.  0.
         14    1    1    2    0    0 -0.13722654830E-01 -0.61716749741E-03  0.24470404525E-02  0.13952783173E-01  0.00000000000E+00 0.  1.
     999901    1    3    3    0    0  0.66584884921E-01 -0.15746181849E-01  0.11647747040E+00  0.89030808727E+00  0.88000000000E+00 0. -1.
        -11    1    4    4    0    0 -0.80700767859E-02  0.24090333464E-01 -0.26751996191E-01  0.36897164213E-01  0.51100000000E-03 0.  1.
         11    1    4    4    0    0 -0.44792153306E-01 -0.77269841180E-02 -0.92172514661E-01  0.10277196535E+00  0.51100000000E-03 0. -1.
</event>
<event>
 8    1  0.2927513E+004  0.1043930E+01  0.7957747E-01            NaN
         13   -1    0    0    0    0  0.00000000000E+00  0.00000000000E+00  0.74505805969E-08  0.10566000000E+00  0.10566000000E+00 0. -1.
     999900   -1    0    0    0    0 -0.00000000000E+00 -0.00000000000E+00 -0.74505805969E-08  0.93827000000E+00  0.93827000000E+00 0. -1.
     999902    2    1    2    0    0  0.11762257586E-01 -0.47508799737E-03  0.82863309343E-02  0.10295341780E+01  0.10294335257E+01 0.  0.
     999903    2    3    3    0    0 -0.70716187243E-01  0.90589435099E-01  0.61100474075E-01  0.13943037786E+00  0.50003374357E-01 0.  0.
         14    1    1    2    0    0 -0.11762257586E-01  0.47508799737E-03 -0.82863309343E-02  0.14395822049E-01  0.00000000000E+00 0.  1.
     999901    1    3    3    0    0  0.82478444829E-01 -0.91064523097E-01 -0.52814143140E-01  0.89010380010E+00  0.88000000000E+00 0. -1.
        -11    1    4    4    0    0 -0.75666253191E-01  0.66515703216E-01  0.49105143360E-01  0.11207719158E+00  0.51100000000E-03 0.  1.
         11    1    4    4    0    0  0.49500659478E-02  0.24073731883E-01  0.11995330714E-01  0.27353186279E-01  0.51100000000E-03 0. -1.
</event>
<event>
 8    1  0.2927513E+004  0.1043930E+01  0.7957747E-01            NaN
         13   -1    0    0    0    0  0.00000000000E+00  0.00000000000E+00  0.74505805969E-08  0.10566000000E+00  0.10566000000E+00 0. -1.
     999900   -1    0    0    0    0 -0.00000000000E+00 -0.00000000000E+00 -0.74505805969E-08  0.93827000000E+00  0.93827000000E+00 0. -1.
     999902    2    1    2    0    0 -0.93351085892E-02  0.37319386976E-02 -0.97582383534E-02  0.10299194742E+01  0.10298241735E+01 0.  0.
     999903    2    3    3    0    0  0.28684878720E-01 -0.46848953990E-02 -0.13019811256E+00  0.14086259980E+00  0.45232211919E-01 0.  0.
         14    1    1    2    0    0  0.93351085892E-02 -0.37319386976E-02  0.97582383534E-02  0.14010525849E-01  0.00000000000E+00 0. -1.
     999901    1    3    3    0    0 -0.38019987310E-01  0.84168340966E-02  0.12043987421E+00  0.88905687435E+00  0.88000000000E+00 0.  1.
        -11    1    4    4    0    0  0.12336686186E-01  0.19098565343E-01 -0.38356392860E-01  0.44591737109E-01  0.51100000000E-03 0.  1.
         11    1    4    4    0    0  0.16348192534E-01 -0.23783460742E-01 -0.91841719704E-01  0.96270862690E-01  0.51100000000E-03 0. -1.
</event>
<event>
 8    1  0.2927513E+004  0.1043930E+01  0.7957747E-01            NaN
         13   -1    0    0    0    0  0.00000000000E+00  0.00000000000E+00  0.74505805969E-08  0.10566000000E+00  0.10566000000E+00 0.  1.
     999900   -1    0    0    0    0 -0.00000000000E+00 -0.00000000000E+00 -0.74505805969E-08  0.93827000000E+00  0.93827000000E+00 0. -1.
     999902    2    1    2    0    0  0.66412594706E-02 -0.61285524360E-02 -0.10668693345E-01  0.10299483513E+01  0.10298534458E+01 0.  0.
     999903    2    3    3    0    0 -0.11658772495E+00  0.49912099037E-01  0.34805134204E-01  0.13843626154E+00  0.43235239151E-01 0.  0.
         14    1    1    2    0    0 -0.66412594706E-02  0.61285524360E-02  0.10668693345E-01  0.13981648687E-01  0.00000000000E+00 0.  1.
     999901    1    3    3    0    0  0.12322898442E+00 -0.56040651473E-01 -0.45473827548E-01  0.89151208977E+00  0.88000000000E+00 0.  1.
        -11    1    4    4    0    0  0.30277866431E-03  0.10642951982E-01  0.33974406997E-02  0.11187842782E-01  0.51100000000E-03 0. -1.
         11    1    4    4    0    0 -0.11689050361E+00  0.39269147055E-01  0.31407693504E-01  0.12724841876E+00  0.51100000000E-03 0.  1.
</event>
<event>
 8    1  0.2927513E+004  0.1043930E+01  0.7957747E-01            NaN
         13   -1    0    0    0    0  0.00000000000E+00  0.00000000000E+00  0.74505805969E-08  0.10566000000E+00  0.10566000000E+00 0.  1.
     999900   -1    0    0    0    0 -0.00000000000E+00 -0.00000000000E+00 -0.74505805969E-08  0.93827000000E+00  0.93827000000E+00 0. -1.
     999902    2    1    2    0    0  0.68880909466E-02 -0.49484092791E-02  0.12276053862E-01  0.10290090734E+01  0.10289008889E+01 0.  0.
     999903    2    3    3    0    0  0.43966673477E-01  0.11760696168E+00  0.41651849119E-01  0.13925766007E+00  0.43512682522E-01 0.  0.
         14    1    1    2    0    0 -0.68880909466E-02  0.49484092791E-02 -0.12276053862E-01  0.14920926570E-01  0.00000000000E+00 0. -1.
     999901    1    3    3    0    0 -0.37078582530E-01 -0.12255537096E+00 -0.29375795257E-01  0.88975141336E+00  0.88000000000E+00 0. -1.
        -11    1    4    4    0    0  0.26279291657E-01  0.85221626099E-01  0.48809379659E-01  0.10166584180E+00  0.51100000000E-03 0. -1.
         11    1    4    4    0    0  0.17687381820E-01  0.32385335581E-01 -0.71575305399E-02  0.37591818269E-01  0.51100000000E-03 0.  1.
</event>
<event>
 8    1  0.2927513E+004  0.1043930E+01  0.7957747E-01            NaN
         13   -1    0    0    0    0  0.00000000000E+00  0.00000000000E+00  0.74505805969E-08  0.10566000000E+00  0.10566000000E+00 0. -1.
     999900   -1    0    0    0    0 -0.00000000000E+00 -0.00000000000E+00 -0.74505805969E-08  0.93827000000E+00  0.93827000000E+00 0. -1.
     999902    2    1    2    0    0 -0.11896431883E-02 -0.89579353236E-02  0.17907746061E-01  0.10238714052E+01  0.10236749031E+01 0.  0.
     999903    2    3    3    0    0  0.58702439357E-01 -0.11340641581E+00 -0.23244458038E-01  0.13472009607E+00  0.36086118158E-01 0.  0.
         14    1    1    2    0    0  0.11896431883E-02  0.89579353236E-02 -0.17907746061E-01  0.20058594796E-01  0.00000000000E+00 0.  1.
     999901    1    3    3    0    0 -0.59892082546E-01  0.10444848048E+00  0.41152204099E-01  0.88915130913E+00  0.88000000000E+00 0.  1.
        -11    1    4    4    0    0  0.86948989970E-02 -0.54108184091E-01 -0.50007542239E-02  0.55032404254E-01  0.51100000000E-03 0.  1.
         11    1    4    4    0    0  0.50007540360E-01 -0.59298231716E-01 -0.18243703814E-01  0.79687691819E-01  0.51100000000E-03 0. -1.
</event>
<event>
 8    1  0.2927513E+004  0.1043930E+01  0.7957747E-01            NaN
         13   -1    0    0    0    0  0.00000000000E+00  0.00000000000E+00  0.74505805969E-08  0.10566000000E+00  0.10566000000E+00 0.  1.
     999900   -1    0    0    0    0 -0.00000000000E+00 -0.00000000000E+00 -0.74505805969E-08  0.93827000000E+00  0.93827000000E+00 0. -1.
     999902    2    1    2    0    0  0.80035384946E-02  0.10935117570E-01  0.25888167819E-02  0.10301337905E+01  0.10300414025E+01 0.  0.
     999903    2    3    3    0    0 -0.19303262759E-01 -0.70149971877E-01 -0.10942243122E+00  0.13891722151E+00  0.45067632196E-01 0.  0.
         14    1    1    2    0    0 -0.80035384946E-02 -0.10935117570E-01 -0.25888167819E-02  0.13796209517E-01  0.00000000000E+00 0. -1.
     999901    1    3    3    0    0  0.27306801253E-01  0.81085089447E-01  0.11201124800E+00  0.89121656897E+00  0.88000000000E+00 0.  1.
        -11    1    4    4    0    0 -0.37395307492E-02 -0.57548164775E-01 -0.50411061203E-01  0.76598378389E-01  0.51100000000E-03 0. -1.
         11    1    4    4    0    0 -0.15563732010E-01 -0.12601807103E-01 -0.59011370016E-01  0.62318843125E-01  0.51100000000E-03 0.  1.
</event>
<event>
 8    1  0.2927513E+004  0.1043930E+01  0.7957747E-01            NaN
         13   -1    0    0    0    0  0.00000000000E+00  0.00000000000E+00  0.74505805969E-08  0.10566000000E+00  0.10566000000E+00 0.  1.
     999900   -1    0    0    0    0 -0.00000000000E+00 -0.00000000000E+00 -0.74505805969E-08  0.93827000000E+00  0.93827000000E+00 0.  1.
     999902    2    1    2    0    0  0.12861409455E-01 -0.27820847820E-02 -0.35224372555E-02  0.10303078338E+01  0.10302177774E+01 0.  0.
     999903    2    3    3    0    0  0.11708826239E+00 -0.57573832830E-01  0.31915571724E-01  0.14175776482E+00  0.45301796343E-01 0.  0.
         14    1    1    2    0    0 -0.12861409455E-01  0.27820847820E-02  0.35224372555E-02  0.13622166242E-01  0.00000000000E+00 0. -1.
     999901    1    3    3    0    0 -0.10422685294E+00  0.54791748048E-01 -0.35438008980E-01  0.88855006894E+00  0.88000000000E+00 0.  1.
        -11    1    4    4    0    0  0.61123818885E-01 -0.11370250985E-01  0.30301536311E-01  0.69165367535E-01  0.51100000000E-03 0.  1.
         11    1    4    4    0    0  0.55964443508E-01 -0.46203581844E-01  0.16140354132E-02  0.72592397286E-01  0.51100000000E-03 0. -1.
</event>
<event>
 8    1  0.2927513E+004  0.1043930E+01  0.7957747E-01            NaN
         13   -1    0    0    0    0  0.00000000000E+00  0.00000000000E+00  0.74505805969E-08  0.10566000000E+00  0.10566000000E+00 0. -1.
     999900   -1    0    0    0    0 -0.00000000000E+00 -0.00000000000E+00 -0.74505805969E-08  0.93827000000E+00  0.93827000000E+00 0.  1.
     999902    2    1    2    0    0 -0.95029147624E-02  0.13940065176E-01 -0.26727380364E-02  0.10268485968E+01  0.10267065143E+01 0.  0.
     999903    2    3    3    0    0  0.12389370109E+00 -0.32184663495E-01  0.28513359799E-02  0.13558395424E+00  0.44602430389E-01 0.  0.
         14    1    1    2    0    0  0.95029147624E-02 -0.13940065176E-01  0.26727380364E-02  0.17081403183E-01  0.00000000000E+00 0. -1.
     999901    1    3    3    0    0 -0.13339661585E+00  0.46124728671E-01 -0.55240740162E-02  0.89126464258E+00  0.88000000000E+00 0.  1.
        -11    1    4    4    0    0  0.83731225238E-01 -0.16361915734E-02 -0.74533193327E-02  0.84079773386E-01  0.51100000000E-03 0. -1.
         11    1    4    4    0    0  0.40162475851E-01 -0.30548471922E-01  0.10304655313E-01  0.51504180853E-01  0.51100000000E-03 0.  1.
</event>
<event>
 8    1  0.2927513E+004  0.1043930E+01  0.7957747E-01            NaN
         13   -1    0    0    0    0  0.00000000000E+00  0.00000000000E+00  0.74505805969E-08  0.10566000000E+00  0.10566000000E+00 0.  1.
     999900   -1    0    0    0    0 -0.00000000000E+00 -0.00000000000E+00 -0.74505805969E-08  0.93827000000E+00  0.93827000000E+00 0. -1.
     999902    2    1    2    0    0  0.82667039634E-02 -0.99683206963E-02 -0.55362898396E-02  0.10298460972E+01  0.10297497889E+01 0.  0.
     999903    2    3    3    0    0 -0.12131383208E+00 -0.38144328603E-01 -0.35362991913E-01  0.13941101543E+00  0.44864845569E-01 0.  0.
         14    1    1    2    0    0 -0.82667039634E-02  0.99683206963E-02  0.55362898396E-02  0.14083902766E-01  0.00000000000E+00 0.  1.
     999901    1    3    3    0    0  0.12958053605E+00  0.28176007906E-01  0.29826702074E-01  0.89043508180E+00  0.88000000000E+00 0.  1.
        -11    1    4    4    0    0 -0.63279153272E-01 -0.37632864695E-01 -0.47142465099E-02  0.73776479891E-01  0.51100000000E-03 0. -1.
         11    1    4    4    0    0 -0.58034678812E-01 -0.51146390737E-03 -0.30648745404E-01  0.65634535543E-01  0.51100000000E-03 0.  1.
</event>
<event>
 8    1  0.2927513E+004  0.1043930E+01  0.7957747E-01            NaN
         13   -1    0    0    0    0  0.00000000000E+00  0.00000000000E+00  0.74505805969E-08  0.10566000000E+00  0.10566000000E+00 0.  1.
     999900   -1    0    0    0    0 -0.00000000000E+00 -0.00000000000E+00 -0.74505805969E-08  0.93827000000E+00  0.93827000000E+00 0.  1.
     999902    2    1    2    0    0 -0.10696752264E-01  0.63979613322E-02 -0.55496670872E-02  0.10302862020E+01  0.10301958575E+01 0.  0.
     999903    2    3    3    0    0 -0.11841152988E+00 -0.10963745855E-01  0.61305101002E-01  0.14103176026E+00  0.44611073295E-01 0.  0.
         14    1    1    2    0    0  0.10696752264E-01 -0.63979613322E-02  0.55496670872E-02  0.13643797968E-01  0.00000000000E+00 0. -1.
     999901    1    3    3    0    0  0.10771477762E+00  0.17361707187E-01 -0.66854768089E-01  0.88925444177E+00  0.88000000000E+00 0.  1.
        -11    1    4    4    0    0 -0.49327518924E-01  0.21321116922E-02  0.26227370879E-02  0.49445827876E-01  0.51100000000E-03 0.  1.
         11    1    4    4    0    0 -0.69084010961E-01 -0.13095857547E-01  0.58682363914E-01  0.91585932385E-01  0.51100000000E-03 0. -1.
</event>
<event>
 8    1  0.2927513E+004  0.1043930E+01  0.7957747E-01            NaN
         13   -1    0    0    0    0  0.00000000000E+00  0.00000000000E+00  0.74505805969E-08  0.10566000000E+00  0.10566000000E+00 0. -1.
     999900   -1    0    0    0    0 -0.00000000000E+00 -0.00000000000E+00 -0.74505805969E-08  0.93827000000E+00  0.93827000000E+00 0. -1.
     999902    2    1    2    0    0  0.10545818393E-02 -0.93891434880E-02  0.10335434589E-01  0.10299268087E+01  0.10298316085E+01 0.  0.
     999903    2    3    3    0    0  0.97792810181E-01  0.78885273111E-01 -0.44398572847E-01  0.13855344753E+00  0.37940802758E-01 0.  0.
         14    1    1    2    0    0 -0.10545818393E-02  0.93891434880E-02 -0.10335434589E-01  0.14003191295E-01  0.00000000000E+00 0.  1.
     999901    1    3    3    0    0 -0.96738228341E-01 -0.88274416599E-01  0.54734007436E-01  0.89137336118E+00  0.88000000000E+00 0. -1.
        -11    1    4    4    0    0  0.39714396417E-01  0.35851558154E-01  0.40812837075E-03  0.53506963983E-01  0.51100000000E-03 0. -1.
         11    1    4    4    0    0  0.58078413763E-01  0.43033714957E-01 -0.44806701217E-01  0.85046483544E-01  0.51100000000E-03 0.  1.
</event>
<event>
 8    1  0.2927513E+004  0.1043930E+01  0.7957747E-01            NaN
         13   -1    0    0    0    0  0.00000000000E+00  0.00000000000E+00  0.74505805969E-08  0.10566000000E+00  0.10566000000E+00 0. -1.
     999900   -1    0    0    0    0 -0.00000000000E+00 -0.00000000000E+00 -0.74505805969E-08  0.93827000000E+00  0.93827000000E+00 0. -1.
     999902    2    1    2    0    0 -0.18556005975E-02 -0.74796493143E-02 -0.11459799370E-01  0.10301200250E+01  0.10300274513E+01 0.  0.
     999903    2    3    3    0    0  0.53337904526E-01  0.43185538789E-02  0.11944297094E+00  0.13864873783E+00  0.45752237395E-01 0.  0.
         14    1    1    2    0    0  0.18556005975E-02  0.74796493143E-02  0.11459799370E-01  0.13809974983E-01  0.00000000000E+00 0. -1.
     999901    1    3    3    0    0 -0.55193505124E-01 -0.11798203193E-01 -0.13090277031E+00  0.89147128719E+00  0.88000000000E+00 0.  1.
        -11    1    4    4    0    0  0.54487302779E-01 -0.90370598592E-02  0.81931576539E-01  0.98810824155E-01  0.51100000000E-03 0. -1.
         11    1    4    4    0    0 -0.11493982524E-02  0.13355613738E-01  0.37511394404E-01  0.39837913673E-01  0.51100000000E-03 0.  1.
</event>
<event>
 8    1  0.2927513E+004  0.1043930E+01  0.7957747E-01            NaN
         13   -1    0    0    0    0  0.00000000000E+00  0.00000000000E+00  0.74505805969E-08  0.10566000000E+00  0.10566000000E+00 0. -1.
     999900   -1    0    0    0    0 -0.00000000000E+00 -0.00000000000E+00 -0.74505805969E-08  0.93827000000E+00  0.93827000000E+00 0.  1.
     999902    2    1    2    0    0  0.35639777394E-03  0.12913967868E-01 -0.85188100932E-02  0.10284552557E+01  0.10283388281E+01 0.  0.
     999903    2    3    3    0    0  0.87953010846E-01  0.22515479311E-01 -0.97529535431E-01  0.13958616250E+00  0.41588550753E-01 0.  0.
         14    1    1    2    0    0 -0.35639777394E-03 -0.12913967868E-01  0.85188100932E-02  0.15474744291E-01  0.00000000000E+00 0. -1.
     999901    1    3    3    0    0 -0.87596613072E-01 -0.96015114431E-02  0.89010725338E-01  0.88886909321E+00  0.88000000000E+00 0. -1.
        -11    1    4    4    0    0  0.22109477337E-01  0.22535282091E-01 -0.18030977661E-01  0.36359939541E-01  0.51100000000E-03 0.  1.
         11    1    4    4    0    0  0.65843533509E-01 -0.19802780012E-04 -0.79498557770E-01  0.10322622296E+00  0.51100000000E-03 0. -1.
</event>
<event>
 8    1  0.2927513E+004  0.1043930E+01  0.7957747E-01            NaN
         13   -1    0    0    0    0  0.00000000000E+00  0.00000000000E+00  0.74505805969E-08  0.10566000000E+00  0.10566000000E+00 0. -1.
     999900   -1    0    0    0    0 -0.00000000000E+00 -0.00000000000E+00 -0.74505805969E-08  0.93827000000E+00  0.93827000000E+00 0.  1.
     999902    2    1    2    0    0  0.37779593269E-02 -0.12775339147E-01  0.35079464522E-02  0.10301536451E+01  0.10300615246E+01 0.  0.
     999903    2    3    3    0    0 -0.27016338752E-01  0.12523068250E+00 -0.29678523180E-01  0.13824821702E+00  0.42651475630E-01 0.  0.
         14    1    1    2    0    0 -0.37779593269E-02  0.12775339147E-01 -0.35079464522E-02  0.13776354935E-01  0.00000000000E+00 0. -1.
     999901    1    3    3    0    0  0.30794298079E-01 -0.13800602164E+00  0.33186469632E-01  0.89190542804E+00  0.88000000000E+00 0. -1.
        -11    1    4    4    0    0  0.15820084474E-02  0.28431963822E-01 -0.23843173931E-01  0.37143470241E-01  0.51100000000E-03 0.  1.
         11    1    4    4    0    0 -0.28598347200E-01  0.96798718676E-01 -0.58353492494E-02  0.10110474678E+00  0.51100000000E-03 0. -1.
</event>
<event>
 8    1  0.2927513E+004  0.1043930E+01  0.7957747E-01            NaN
         13   -1    0    0    0    0  0.00000000000E+00  0.00000000000E+00  0.74505805969E-08  0.10566000000E+00  0.10566000000E+00 0. -1.
     999900   -1    0    0    0    0 -0.00000000000E+00 -0.00000000000E+00 -0.74505805969E-08  0.93827000000E+00  0.93827000000E+00 0.  1.
     999902    2    1    2    0    0  0.15557053286E-02 -0.75462250687E-02  0.11933688363E-01  0.10297251188E+01  0.10296271372E+01 0.  0.
     999903    2    3    3    0    0 -0.12959777819E+00 -0.64300229194E-02  0.23693934581E-01  0.13992694757E+00  0.46703520351E-01 0.  0.
         14    1    1    2    0    0 -0.15557053286E-02  0.75462250687E-02 -0.11933688363E-01  0.14204881196E-01  0.00000000000E+00 0.  1.
     999901    1    3    3    0    0  0.13115348352E+00 -0.11162021493E-02 -0.11760246218E-01  0.88979817124E+00  0.88000000000E+00 0. -1.
        -11    1    4    4    0    0 -0.79052862874E-01 -0.18516705860E-01  0.32042785975E-01  0.87288170897E-01  0.51100000000E-03 0. -1.
         11    1    4    4    0    0 -0.50544915314E-01  0.12086682941E-01 -0.83488513936E-02  0.52638776669E-01  0.51100000000E-03 0.  1.
</event>
<event>
 8    1  0.2927513E+004  0.1043930E+01  0.7957747E-01            NaN
         13   -1    0    0    0    0  0.00000000000E+00  0.00000000000E+00  0.74505805969E-08  0.10566000000E+00  0.10566000000E+00 0. -1.
     999900   -1    0    0    0    0 -0.00000000000E+00 -0.00000000000E+00 -0.74505805969E-08  0.93827000000E+00  0.93827000000E+00 0.  1.
     999902    2    1    2    0    0 -0.10917886190E-01 -0.16680855694E-02 -0.49636456580E-02  0.10318213037E+01  0.10317502519E+01 0.  0.
     999903    2    3    3    0    0  0.57933772018E-01 -0.18072376263E-01 -0.11907864614E+00  0.14163487100E+00  0.46880486286E-01 0.  0.
         14    1    1    2    0    0  0.10917886190E-01  0.16680855694E-02  0.49636456580E-02  0.12108696319E-01  0.00000000000E+00 0. -1.
     999901    1    3    3    0    0 -0.68851658208E-01  0.16404290694E-01  0.11411500048E+00  0.89018643268E+00  0.88000000000E+00 0. -1.
        -11    1    4    4    0    0  0.25632553279E-01  0.31664732563E-02 -0.13389335700E-01  0.29096215767E-01  0.51100000000E-03 0.  1.
         11    1    4    4    0    0  0.32301218739E-01 -0.21238849519E-01 -0.10568931044E+00  0.11253865524E+00  0.51100000000E-03 0. -1.
</event>
<event>
 8    1  0.2927513E+004  0.1043930E+01  0.7957747E-01            NaN
         13   -1    0    0    0    0  0.00000000000E+00  0.00000000000E+00  0.74505805969E-08  0.10566000000E+00  0.10566000000E+00 0.  1.
     999900   -1    0    0    0    0 -0.00000000000E+00 -0.00000000000E+00 -0.74505805969E-08  0.93827000000E+00  0.93827000000E+00 0.  1.
     999902    2    1    2    0    0  0.51748616393E-02  0.12067083597E-01  0.39201867764E-02  0.10302273884E+01  0.10301362581E+01 0.  0.
     999903    2    3    3    0    0 -0.55454794959E-03 -0.12721112700E+00 -0.31254988391E-01  0.13856122947E+00  0.45159292044E-01 0.  0.
         14    1    1    2    0    0 -0.51748616393E-02 -0.12067083597E-01 -0.39201867764E-02  0.13702611572E-01  0.00000000000E+00 0.  1.
     999901    1    3    3    0    0  0.57294095889E-02  0.13927821059E+00  0.35175175168E-01  0.89166615896E+00  0.88000000000E+00 0. -1.
        -11    1    4    4    0    0 -0.15534118677E-01 -0.63798390347E-01  0.13942996085E-02  0.65679134026E-01  0.51100000000E-03 0.  1.
         11    1    4    4    0    0  0.14979570728E-01 -0.63412736650E-01 -0.32649288000E-01  0.72882095446E-01  0.51100000000E-03 0. -1.
</event>
<event>
 8    1  0.2927513E+004  0.1043930E+01  0.7957747E-01            NaN
         13   -1    0    0    0    0  0.00000000000E+00  0.00000000000E+00  0.74505805969E-08  0.10566000000E+00  0.10566000000E+00 0.  1.
     999900   -1    0    0    0    0 -0.00000000000E+00 -0.00000000000E+00 -0.74505805969E-08  0.93827000000E+00  0.93827000000E+00 0. -1.
     999902    2    1    2    0    0  0.13848731904E-01  0.13003821371E-01 -0.91370991481E-02  0.10228498357E+01  0.10226325895E+01 0.  0.
     999903    2    3    3    0    0  0.14554858516E-01  0.29728706095E-01  0.12069861616E+00  0.13316588432E+00  0.45490185005E-01 0.  0.
         14    1    1    2    0    0 -0.13848731904E-01 -0.13003821371E-01  0.91370991481E-02  0.21080164289E-01  0.00000000000E+00 0. -1.
     999901    1    3    3    0    0 -0.70612661109E-03 -0.16724884724E-01 -0.12983571531E+00  0.88968395139E+00  0.88000000000E+00 0. -1.
        -11    1    4    4    0    0  0.17478526875E-02 -0.74463778853E-02  0.62253583732E-01  0.62723786087E-01  0.51100000000E-03 0.  1.
         11    1    4    4    0    0  0.12807005828E-01  0.37175083981E-01  0.58445032431E-01  0.70442098237E-01  0.51100000000E-03 0. -1.
</event>
<event>
 8    1  0.2927513E+004  0.1043930E+01  0.7957747E-01            NaN
         13   -1    0    0    0    0  0.00000000000E+00  0.00000000000E+00  0.74505805969E-08  0.10566000000E+00  0.10566000000E+00 0.  1.
     999900   -1    0    0    0    0 -0.00000000000E+00 -0.00000000000E+00 -0.74505805969E-08  0.93827000000E+00  0.93827000000E+00 0. -1.
     999902    2    1    2    0    0 -0.45002570505E-02 -0.75472563755E-02  0.10267357458E-01  0.10304158585E+01  0.10303272341E+01 0.  0.
     999903    2    3    3    0    0 -0.86425821543E-01  0.57664516076E-01  0.84195878405E-01  0.14112974050E+00  0.45100317857E-01 0.  0.
         14    1    1    2    0    0  0.45002570505E-02  0.75472563755E-02 -0.10267357458E-01  0.13514141538E-01  0.00000000000E+00 0. -1.
     999901    1    3    3    0    0  0.81925564492E-01 -0.65211772452E-01 -0.73928520947E-01  0.88928611796E+00  0.88000000000E+00 0. -1.
        -11    1    4    4    0    0 -0.14874600951E-01 -0.66684966435E-02  0.18268912053E-01  0.24489525711E-01  0.51100000000E-03 0.  1.
         11    1    4    4    0    0 -0.71551220591E-01  0.64333012720E-01  0.65926966352E-01  0.11664021479E+00  0.51100000000E-03 0. -1.
</event>
<event>
 7    1  0.2927513E+004  0.1043930E+01  0.7957747E-01            NaN
         13   -1    0    0    0    0  0.00000000000E+00  0.00000000000E+00  0.74505805969E-08  0.10566000000E+00  0.10566000000E+00 0. -1.
     999900   -1    0    0    0    0 -0.00000000000E+00 -0.00000000000E+00 -0.74505805969E-08  0.93827000000E+00  0.93827000000E+00 0. -1.
     999903    2    1    2    0    0 -0.16118311940E-01 -0.25591809869E-02 -0.11037742924E+00  0.12078635114E+00  0.46258149017E-01 0.  0.
         14    1    1    2    0    0 -0.76192022729E-02  0.14896305699E-01 -0.27317644523E-01  0.32034448162E-01  0.00000000000E+00 0.  1.
     999901    1    1    2    0    0  0.23737514212E-01 -0.12337124712E-01  0.13769507376E+00  0.89110920070E+00  0.88000000000E+00 0.  1.
        -11    1    3    3    0    0  0.29780145844E-02 -0.21756561564E-01 -0.50259187725E-01  0.54849463204E-01  0.51100000000E-03 0. -1.
         11    1    3    3    0    0 -0.19096326524E-01  0.19197380577E-01 -0.60118241510E-01  0.65936887938E-01  0.51100000000E-03 0.  1.
</event>
<event>
 8    1  0.2927513E+004  0.1043930E+01  0.7957747E-01            NaN
         13   -1    0    0    0    0  0.00000000000E+00  0.00000000000E+00  0.74505805969E-08  0.10566000000E+00  0.10566000000E+00 0. -1.
     999900   -1    0    0    0    0 -0.00000000000E+00 -0.00000000000E+00 -0.74505805969E-08  0.93827000000E+00  0.93827000000E+00 0.  1.
     999902    2    1    2    0    0 -0.61015453135E-02 -0.10334775825E-03 -0.12907905013E-01  0.10296522709E+01  0.10295532747E+01 0.  0.
     999903    2    3    3    0    0 -0.55825909901E-01  0.11777276460E+00 -0.26203189439E-01  0.14030191538E+00  0.44844888511E-01 0.  0.
         14    1    1    2    0    0  0.61015453135E-02  0.10334775825E-03  0.12907905013E-01  0.14277729084E-01  0.00000000000E+00 0. -1.
     999901    1    3    3    0    0  0.49724364588E-01 -0.11787611236E+00  0.13295284426E-01  0.88935035553E+00  0.88000000000E+00 0.  1.
        -11    1    4    4    0    0 -0.15551768451E-01  0.69252482329E-01 -0.30154501017E-01  0.77118861916E-01  0.51100000000E-03 0. -1.
         11    1    4    4    0    0 -0.40274141450E-01  0.48520282271E-01  0.39513115780E-02  0.63183053467E-01  0.51100000000E-03 0.  1.
</event>
<event>
 8    1  0.2927513E+004  0.1043930E+01  0.7957747E-01            NaN
         13   -1    0    0    0    0  0.00000000000E+00  0.00000000000E+00  0.74505805969E-08  0.10566000000E+00  0.10566000000E+00 0. -1.
     999900   -1    0    0    0    0 -0.00000000000E+00 -0.00000000000E+00 -0.74505805969E-08  0.93827000000E+00  0.93827000000E+00 0. -1.
     999902    2    1    2    0    0 -0.12807398569E-02  0.88880049831E-02 -0.79712977070E-02  0.10319225642E+01  0.10318527027E+01 0.  0.
     999903    2    3    3    0    0 -0.98644437031E-02 -0.25854605751E-01 -0.13235223468E+00  0.14245567531E+00  0.44841247900E-01 0.  0.
         14    1    1    2    0    0  0.12807398569E-02 -0.88880049831E-02  0.79712977070E-02  0.12007435792E-01  0.00000000000E+00 0.  1.
     999901    1    3    3    0    0  0.85837038462E-02  0.34742610734E-01  0.12438093697E+00  0.88946688890E+00  0.88000000000E+00 0.  1.
        -11    1    4    4    0    0  0.65290002632E-02 -0.15145318069E-01 -0.11533095249E+00  0.11650535708E+00  0.51100000000E-03 0.  1.
         11    1    4    4    0    0 -0.16393443966E-01 -0.10709287682E-01 -0.17021282187E-01  0.25950318226E-01  0.51100000000E-03 0. -1.
</event>
<event>
 8    1  0.2927513E+004  0.1043930E+01  0.7957747E-01            NaN
         13   -1    0    0    0    0  0.00000000000E+00  0.00000000000E+00  0.74505805969E-08  0.10566000000E+00  0.10566000000E+00 0. -1.
     999900   -1    0    0    0    0 -0.00000000000E+00 -0.00000000000E+00 -0.74505805969E-08  0.93827000000E+00  0.93827000000E+00 0. -1.
     999902    2    1    2    0    0 -0.45553356697E-02  0.12992872816E-01  0.62380040564E-02  0.10288144940E+01  0.10287034483E+01 0.  0.
     999903    2    3    3    0    0 -0.19057676874E-01 -0.12798656394E+00  0.11260865865E-01  0.13746116976E+00  0.45000116597E-01 0.  0.
         14    1    1    2    0    0  0.45553356697E-02 -0.12992872816E-01 -0.62380040564E-02  0.15115506002E-01  0.00000000000E+00 0. -1.
     999901    1    3    3    0    0  0.14502341204E-01  0.14097943676E+00 -0.50228618087E-02  0.89135332424E+00  0.88000000000E+00 0. -1.
        -11    1    4    4    0    0 -0.26070676690E-01 -0.38669268732E-01 -0.30164534706E-02  0.46737058528E-01  0.51100000000E-03 0.  1.
         11    1    4    4    0    0  0.70129998156E-02 -0.89317295212E-01  0.14277319336E-01  0.90724111232E-01  0.51100000000E-03 0. -1.
</event>
<event>
 8    1  0.2927513E+004  0.1043930E+01  0.7957747E-01            NaN
         13   -1    0    0    0    0  0.00000000000E+00  0.00000000000E+00  0.74505805969E-08  0.10566000000E+00  0.10566000000E+00 0.  1.
     999900   -1    0    0    0    0 -0.00000000000E+00 -0.00000000000E+00 -0.74505805969E-08  0.93827000000E+00  0.93827000000E+00 0. -1.
     999902    2    1    2    0    0  0.29827374177E-02  0.59347236610E-02  0.11820288835E-01  0.10303713535E+01  0.10302821406E+01 0.  0.
     999903    2    3    3    0    0  0.44538688738E-01 -0.92379843113E-01 -0.81764579676E-01  0.13899557484E+00  0.46006446574E-01 0.  0.
         14    1    1    2    0    0 -0.29827374177E-02 -0.59347236610E-02 -0.11820288835E-01  0.13558646525E-01  0.00000000000E+00 0. -1.
     999901    1    3    3    0    0 -0.41555951321E-01  0.98314566774E-01  0.93584868511E-01  0.89137577864E+00  0.88000000000E+00 0. -1.
        -11    1    4    4    0    0  0.47878516584E-01 -0.91564905365E-01 -0.65445526505E-01  0.12231051592E+00  0.51100000000E-03 0.  1.
         11    1    4    4    0    0 -0.33398278453E-02 -0.81493774819E-03 -0.16319053170E-01  0.16685058914E-01  0.51100000000E-03 0. -1.
</event>
<event>
 8    1  0.2927513E+004  0.1043930E+01  0.7957747E-01            NaN
         13   -1    0    0    0    0  0.00000000000E+00  0.00000000000E+00  0.74505805969E-08  0.10566000000E+00  0.10566000000E+00 0.  1.
     999900   -1    0    0    0    0 -0.00000000000E+00 -0.00000000000E+00 -0.74505805969E-08  0.93827000000E+00  0.93827000000E+00 0.  1.
     999902    2    1    2    0    0  0.11392446526E-01 -0.54262387481E-02  0.39084293071E-02  0.10307198628E+01  0.10306352060E+01 0.  0.
     999903    2    3    3    0    0 -0.35105279666E-01 -0.44461420313E-02  0.12890636760E+00  0.14067071602E+00  0.43809244434E-01 0.  0.
         14    1    1    2    0    0 -0.11392446526E-01  0.54262387481E-02 -0.39084293071E-02  0.13210137185E-01  0.00000000000E+00 0.  1.
     999901    1    3    3    0    0  0.46497726193E-01 -0.98009671681E-03 -0.12499793830E+00  0.89004914679E+00  0.88000000000E+00 0.  1.
        -11    1    4    4    0    0 -0.18615399523E-01  0.17675795264E-01  0.39577704079E-01  0.47176504944E-01  0.51100000000E-03 0. -1.
         11    1    4    4    0    0 -0.16489880143E-01 -0.22121937295E-01  0.89328663524E-01  0.93494211076E-01  0.51100000000E-03 0.  1.
</event>
<event>
 8    1  0.2927513E+004  0.1043930E+01  0.7957747E-01            NaN
         13   -1    0    0    0    0  0.00000000000E+00  0.00000000000E+00  0.74505805969E-08  0.10566000000E+00  0.10566000000E+00 0.  1.
     999900   -1    0    0    0    0 -0.00000000000E+00 -0.00000000000E+00 -0.74505805969E-08  0.93827000000E+00  0.93827000000E+00 0.  1.
     999902    2    1    2    0    0 -0.11212560726E-01  0.90870241876E-02  0.17098684026E-02  0.10293966185E+01  0.10292940197E+01 0.  0.
     999903    2    3    3    0    0  0.73931311267E-01 -0.76477116017E-01 -0.75167246384E-01  0.13783574468E+00  0.45099772974E-01 0.  0.
         14    1    1    2    0    0  0.11212560726E-01 -0.90870241876E-02 -0.17098684026E-02  0.14533381457E-01  0.00000000000E+00 0. -1.
     999901    1    3    3    0    0 -0.85143871993E-01  0.85564140205E-01  0.76877114787E-01  0.89156087386E+00  0.88000000000E+00 0. -1.
        -11    1    4    4    0    0  0.44155066374E-01 -0.24545793595E-01 -0.54960260037E-01  0.74652911357E-01  0.51100000000E-03 0.  1.
         11    1    4    4    0    0  0.29776244892E-01 -0.51931322422E-01 -0.20206986347E-01  0.63182833322E-01  0.51100000000E-03 0. -1.
</event>
<event>
 8    1  0.2927513E+004  0.1043930E+01  0.7957747E-01            NaN
         13   -1    0    0    0    0  0.00000000000E+00  0.00000000000E+00  0.74505805969E-08  0.10566000000E+00  0.10566000000E+00 0.  1.
     999900   -1    0    0    0    0 -0.00000000000E+00 -0.00000000000E+00 -0.74505805969E-08  0.93827000000E+00  0.93827000000E+00 0. -1.
     999902    2    1    2    0    0  0.36145665426E-02 -0.11616367198E-01 -0.66583680270E-02  0.10300613684E+01  0.10299680013E+01 0.  0.
     999903    2    3    3    0    0  0.20826269104E-01 -0.13024110184E+00  0.23508700888E-01  0.14142301538E+00  0.45291634663E-01 0.  0.
         14    1    1    2    0    0 -0.36145665426E-02  0.11616367198E-01  0.66583680270E-02  0.13868631618E-01  0.00000000000E+00 0. -1.
     999901    1    3    3    0    0 -0.17211702562E-01  0.11862473464E+00 -0.30167068915E-01  0.88863835300E+00  0.88000000000E+00 0.  1.
        -11    1    4    4    0    0 -0.12170754897E-01 -0.57157418511E-01  0.23447653188E-02  0.58488091190E-01  0.51100000000E-03 0. -1.
         11    1    4    4    0    0  0.32997024001E-01 -0.73083683325E-01  0.21163935569E-01  0.82934924194E-01  0.51100000000E-03 0.  1.
</event>
<event>
 7    1  0.2927513E+004  0.1043930E+01  0.7957747E-01            NaN
         13   -1    0    0    0    0  0.00000000000E+00  0.00000000000E+00  0.74505805969E-08  0.10566000000E+00  0.10566000000E+00 0.  1.
     999900   -1    0    0    0    0 -0.00000000000E+00 -0.00000000000E+00 -0.74505805969E-08  0.93827000000E+00  0.93827000000E+00 0. -1.
     999903    2    1    2    0    0 -0.10231122703E+00 -0.33176767124E-01  0.63113771906E-03  0.11432781615E+00  0.38757788337E-01 0.  0.
         14    1    1    2    0    0  0.45416066129E-01 -0.84002382737E-02 -0.73020910052E-02  0.46760064144E-01  0.00000000000E+00 0. -1.
     999901    1    1    2    0    0  0.56895160904E-01  0.41577005398E-01  0.66709532862E-02  0.88284211971E+00  0.88000000000E+00 0.  1.
        -11    1    3    3    0    0 -0.23332201810E-01 -0.26043566150E-01 -0.14208605824E-02  0.34999127773E-01  0.51100000000E-03 0.  1.
         11    1    3    3    0    0 -0.78979025223E-01 -0.71332009740E-02  0.20519983015E-02  0.79328688375E-01  0.51100000000E-03 0. -1.
</event>
<event>
 8    1  0.2927513E+004  0.1043930E+01  0.7957747E-01            NaN
         13   -1    0    0    0    0  0.00000000000E+00  0.00000000000E+00  0.74505805969E-08  0.10566000000E+00  0.10566000000E+00 0.  1.
     999900   -1    0    0    0    0 -0.00000000000E+00 -0.00000000000E+00 -0.74505805969E-08  0.93827000000E+00  0.93827000000E+00 0. -1.
     999902    2    1    2    0    0  0.85948757074E-03  0.22131906868E-02  0.13799488313E-01  0.10299277570E+01  0.10298325698E+01 0.  0.
     999903    2    3    3    0    0  0.36990947890E-01 -0.32296622908E-02  0.12935895563E+00  0.14162088570E+00  0.44090530963E-01 0.  0.
         14    1    1    2    0    0 -0.85948757074E-03 -0.22131906868E-02 -0.13799488313E-01  0.14002243020E-01  0.00000000000E+00 0. -1.
     999901    1    3    3    0    0 -0.36131460319E-01  0.54428529775E-02 -0.11555946732E+00  0.88830687128E+00  0.88000000000E+00 0. -1.
        -11    1    4    4    0    0  0.60614646032E-02  0.75479043160E-02  0.89522205649E-01  0.90045536468E-01  0.51100000000E-03 0. -1.
         11    1    4    4    0    0  0.30929483287E-01 -0.10777566607E-01  0.39836749983E-01  0.51575349233E-01  0.51100000000E-03 0.  1.
</event>
<event>
 8    1  0.2927513E+004  0.1043930E+01  0.7957747E-01            NaN
         13   -1    0    0    0    0  0.00000000000E+00  0.00000000000E+00  0.74505805969E-08  0.10566000000E+00  0.10566000000E+00 0. -1.
     999900   -1    0    0    0    0 -0.00000000000E+00 -0.00000000000E+00 -0.74505805969E-08  0.93827000000E+00  0.93827000000E+00 0.  1.
     999902    2    1    2    0    0 -0.14803374462E-03  0.14433842813E-01 -0.42187034151E-02  0.10288915429E+01  0.10287816347E+01 0.  0.
     999903    2    3    3    0    0 -0.21276025002E-01  0.91917736642E-01 -0.94405818975E-01  0.14064390763E+00  0.44347610392E-01 0.  0.
         14    1    1    2    0    0  0.14803374462E-03 -0.14433842813E-01  0.42187034151E-02  0.15038457063E-01  0.00000000000E+00 0.  1.
     999901    1    3    3    0    0  0.21127991257E-01 -0.77483893829E-01  0.90187115560E-01  0.88824763531E+00  0.88000000000E+00 0. -1.
        -11    1    4    4    0    0 -0.28999102987E-01  0.33099389473E-01 -0.49532663843E-01  0.66259063274E-01  0.51100000000E-03 0.  1.
         11    1    4    4    0    0  0.77230779845E-02  0.58818347169E-01 -0.44873155132E-01  0.74384844355E-01  0.51100000000E-03 0. -1.
</event>
<event>
 8    1  0.2927513E+004  0.1043930E+01  0.7957747E-01            NaN
         13   -1    0    0    0    0  0.00000000000E+00  0.00000000000E+00  0.74505805969E-08  0.10566000000E+00  0.10566000000E+00 0. -1.
     999900   -1    0    0    0    0 -0.00000000000E+00 -0.00000000000E+00 -0.74505805969E-08  0.93827000000E+00  0.93827000000E+00 0.  1.
     999902    2    1    2    0    0 -0.11596058254E-01  0.67644414880E-02 -0.41745172923E-02  0.10298710943E+01  0.10297751298E+01 0.  0.
     999903    2    3    3    0    0 -0.87726091167E-02  0.13195265178E+00 -0.18826298443E-01  0.14088586686E+00  0.44787687880E-01 0.  0.
         14    1    1    2    0    0  0.11596058254E-01 -0.67644414880E-02  0.41745172923E-02  0.14058905729E-01  0.00000000000E+00 0.  1.
     999901    1    3    3    0    0 -0.28234491374E-02 -0.12518821029E+00  0.14651781150E-01  0.88898522741E+00  0.88000000000E+00 0.  1.
        -11    1    4    4    0    0 -0.11603786076E-01  0.46254692445E-01 -0.26910647641E-01  0.54759369079E-01  0.51100000000E-03 0.  1.
         11    1    4    4    0    0  0.28311769594E-02  0.85697959335E-01  0.80843491988E-02  0.86126497782E-01  0.51100000000E-03 0. -1.
</event>
<event>
 8    1  0.2927513E+004  0.1043930E+01  0.7957747E-01            NaN
         13   -1    0    0    0    0  0.00000000000E+00  0.00000000000E+00  0.74505805969E-08  0.10566000000E+00  0.10566000000E+00 0. -1.
     999900   -1    0    0    0    0 -0.00000000000E+00 -0.00000000000E+00 -0.74505805969E-08  0.93827000000E+00  0.93827000000E+00 0.  1.
     999902    2    1    2    0    0 -0.92101307622E-02  0.58607319367E-02 -0.66266687504E-02  0.10311594312E+01  0.10310803486E+01 0.  0.
     999903    2    3    3    0    0 -0.13418347209E+00 -0.95404851760E-02  0.74844993185E-02  0.14208426086E+00  0.45118670373E-01 0.  0.
         14    1    1    2    0    0  0.92101307622E-02 -0.58607319367E-02  0.66266687504E-02  0.12770568751E-01  0.00000000000E+00 0. -1.
     999901    1    3    3    0    0  0.12497334133E+00  0.15401217113E-01 -0.14111168069E-01  0.88907517038E+00  0.88000000000E+00 0.  1.
        -11    1    4    4    0    0 -0.59147371220E-01 -0.82884123779E-02 -0.18720345705E-01  0.62592505672E-01  0.51100000000E-03 0. -1.
         11    1    4    4    0    0 -0.75036100868E-01 -0.12520727981E-02  0.26204845024E-01  0.79491755192E-01  0.51100000000E-03 0.  1.
</event>
<event>
 8    1  0.2927513E+004  0.1043930E+01  0.7957747E-01            NaN
         13   -1    0    0    0    0  0.00000000000E+00  0.00000000000E+00  0.74505805969E-08  0.10566000000E+00  0.10566000000E+00 0. -1.
     999900   -1    0    0    0    0 -0.00000000000E+00 -0.00000000000E+00 -0.74505805969E-08  0.93827000000E+00  0.93827000000E+00 0. -1.
     999902    2    1    2    0    0 -0.22914048675E-01 -0.11072983909E-02 -0.60098442486E-02  0.10202150687E+01  0.10199394043E+01 0.  0.
     999903    2    3    3    0    0 -0.75916403231E-01  0.62305605545E-01 -0.78421486741E-01  0.13338143613E+00  0.44669779042E-01 0.  0.
         14    1    1    2    0    0  0.22914048675E-01  0.11072983909E-02  0.60098442486E-02  0.23714931252E-01  0.00000000000E+00 0.  1.
     999901    1    3    3    0    0  0.53002354556E-01 -0.63412903936E-01  0.72411642492E-01  0.88683363262E+00  0.88000000000E+00 0.  1.
        -11    1    4    4    0    0 -0.67530602603E-01  0.61479062507E-01 -0.50809976316E-01  0.10450824000E+00  0.51100000000E-03 0.  1.
         11    1    4    4    0    0 -0.83858006273E-02  0.82654303872E-03 -0.27611510425E-01  0.28873196125E-01  0.51100000000E-03 0. -1.
</event>
<event>
 8    1  0.2927513E+004  0.1043930E+01  0.7957747E-01            NaN
         13   -1    0    0    0    0  0.00000000000E+00  0.00000000000E+00  0.74505805969E-08  0.10566000000E+00  0.10566000000E+00 0. -1.
     999900   -1    0    0    0    0 -0.00000000000E+00 -0.00000000000E+00 -0.74505805969E-08  0.93827000000E+00  0.93827000000E+00 0.  1.
     999902    2    1    2    0    0  0.57894757258E-02  0.10379679505E-01  0.46920592845E-02  0.10311522382E+01  0.10310730659E+01 0.  0.
     999903    2    3    3    0    0 -0.16365874279E-01 -0.48759973174E-01  0.12308306080E+00  0.14098102587E+00  0.45616148187E-01 0.  0.
         14    1    1    2    0    0 -0.57894757258E-02 -0.10379679505E-01 -0.46920592845E-02  0.12777761782E-01  0.00000000000E+00 0.  1.
     999901    1    3    3    0    0  0.22155350005E-01  0.59139652680E-01 -0.11839100151E+00  0.89017121235E+00  0.88000000000E+00 0.  1.
        -11    1    4    4    0    0  0.41429177824E-02 -0.27441345697E-01  0.99043429901E-01  0.10285938629E+00  0.51100000000E-03 0. -1.
         11    1    4    4    0    0 -0.20508792061E-01 -0.21318627477E-01  0.24039630897E-01  0.38121639576E-01  0.51100000000E-03 0.  1.
</event>
<event>
 8    1  0.2927513E+004  0.1043930E+01  0.7957747E-01            NaN
         13   -1    0    0    0    0  0.00000000000E+00  0.00000000000E+00  0.74505805969E-08  0.10566000000E+00  0.10566000000E+00 0.  1.
     999900   -1    0    0    0    0 -0.00000000000E+00 -0.00000000000E+00 -0.74505805969E-08  0.93827000000E+00  0.93827000000E+00 0.  1.
     999902    2    1    2    0    0 -0.10772424338E-01  0.14047725531E-03 -0.73718096515E-02  0.10308759417E+01  0.10307932862E+01 0.  0.
     999903    2    3    3    0    0 -0.77240518167E-01  0.53093674516E-01 -0.97591484120E-01  0.14219059906E+00  0.43692479543E-01 0.  0.
         14    1    1    2    0    0  0.10772424338E-01 -0.14047725531E-03  0.73718096515E-02  0.13054058278E-01  0.00000000000E+00 0.  1.
     999901    1    3    3    0    0  0.66468093829E-01 -0.52953197260E-01  0.90219674468E-01  0.88868534266E+00  0.88000000000E+00 0.  1.
        -11    1    4    4    0    0 -0.52828275003E-01  0.51682960404E-01 -0.51721039607E-01  0.90206884964E-01  0.51100000000E-03 0. -1.
         11    1    4    4    0    0 -0.24412243164E-01  0.14107141117E-02 -0.45870444513E-01  0.51983714098E-01  0.51100000000E-03 0.  1.
</event>
<event>
 8    1  0.2927513E+004  0.1043930E+01  0.7957747E-01            NaN
         13   -1    0    0    0    0  0.00000000000E+00  0.00000000000E+00  0.74505805969E-08  0.10566000000E+00  0.10566000000E+00 0.  1.
     999900   -1    0    0    0    0 -0.00000000000E+00 -0.00000000000E+00 -0.74505805969E-08  0.93827000000E+00  0.93827000000E+00 0.  1.
     999902    2    1    2    0    0  0.29993827478E-02  0.71456769402E-02 -0.11066854168E-01  0.10304195501E+01  0.10303309745E+01 0.  0.
     999903    2    3    3    0    0 -0.15135779441E-01  0.37881988388E-02  0.13051926068E+00  0.13891139831E+00  0.44918335926E-01 0.  0.
         14    1    1    2    0    0 -0.29993827478E-02 -0.71456769402E-02  0.11066854168E-01  0.13510449917E-01  0.00000000000E+00 0.  1.
     999901    1    3    3    0    0  0.18135162189E-01  0.33574781013E-02 -0.14158611484E+00  0.89150815178E+00  0.88000000000E+00 0.  1.
        -11    1    4    4    0    0 -0.14652452058E-01 -0.15127635428E-01  0.30198795734E-01  0.36820756235E-01  0.51100000000E-03 0.  1.
         11    1    4    4    0    0 -0.48332738301E-03  0.18915834267E-01  0.10032046494E+00  0.10209064207E+00  0.51100000000E-03 0. -1.
</event>
<event>
 7    1  0.2927513E+004  0.1043930E+01  0.7957747E-01            NaN
         13   -1    0    0    0    0  0.00000000000E+00  0.00000000000E+00  0.74505805969E-08  0.10566000000E+00  0.10566000000E+00 0. -1.
     999900   -1    0    0    0    0 -0.00000000000E+00 -0.00000000000E+00 -0.74505805969E-08  0.93827000000E+00  0.93827000000E+00 0. -1.
     999903    2    1    2    0    0  0.78623575332E-01 -0.42525219192E-01 -0.68529718918E-01  0.12092741359E+00  0.44011999705E-01 0.  0.
         14    1    1    2    0    0 -0.12618726913E-01 -0.32264599655E-01  0.60227191980E-02  0.35164041382E-01  0.00000000000E+00 0. -1.
     999901    1    1    2    0    0 -0.66004848418E-01  0.74789818847E-01  0.62506999720E-01  0.88783854502E+00  0.88000000000E+00 0. -1.
        -11    1    3    3    0    0  0.15420308855E-01 -0.19799753914E-02 -0.35759429080E-01  0.38996206442E-01  0.51100000000E-03 0.  1.
         11    1    3    3    0    0  0.63203266476E-01 -0.40545243801E-01 -0.32770289839E-01  0.81931207151E-01  0.51100000000E-03 0. -1.
</event>
<event>
 8    1  0.2927513E+004  0.1043930E+01  0.7957747E-01            NaN
         13   -1    0    0    0    0  0.00000000000E+00  0.00000000000E+00  0.74505805969E-08  0.10566000000E+00  0.10566000000E+00 0.  1.
     999900   -1    0    0    0    0 -0.00000000000E+00 -0.00000000000E+00 -0.74505805969E-08  0.93827000000E+00  0.93827000000E+00 0. -1.
     999902    2    1    2    0    0 -0.13559340612E-02 -0.95711651419E-02  0.10275471548E-01  0.10298221626E+01  0.10297255244E+01 0.  0.
     999903    2    3    3    0    0 -0.27924339381E-01  0.75964135705E-01  0.10525760404E+00  0.14019090569E+00  0.44988978520E-01 0.  0.
         14    1    1    2    0    0  0.13559340612E-02  0.95711651419E-02 -0.10275471548E-01  0.14107837357E-01  0.00000000000E+00 0. -1.
     999901    1    3    3    0    0  0.26568405320E-01 -0.85535300847E-01 -0.94982132487E-01  0.88963125695E+00  0.88000000000E+00 0. -1.
        -11    1    4    4    0    0 -0.22007963189E-01  0.14488062087E-01  0.13572119311E-01  0.29643176792E-01  0.51100000000E-03 0. -1.
         11    1    4    4    0    0 -0.59163761920E-02  0.61476073618E-01  0.91685484724E-01  0.11054772890E+00  0.51100000000E-03 0.  1.
</event>
<event>
 8    1  0.2927513E+004  0.1043930E+01  0.7957747E-01            NaN
         13   -1    0    0    0    0  0.00000000000E+00  0.00000000000E+00  0.74505805969E-08  0.10566000000E+00  0.10566000000E+00 0. -1.
     999900   -1    0    0    0    0 -0.00000000000E+00 -0.00000000000E+00 -0.74505805969E-08  0.93827000000E+00  0.93827000000E+00 0.  1.
     999902    2    1    2    0    0  0.64837086555E-02 -0.10580135430E-01 -0.52679145310E-02  0.10304493225E+01  0.10303611393E+01 0.  0.
     999903    2    3    3    0    0  0.88834527643E-01 -0.10102329785E+00 -0.64305205770E-03  0.14197703117E+00  0.45384841679E-01 0.  0.
         14    1    1    2    0    0 -0.64837086555E-02  0.10580135430E-01  0.52679145310E-02  0.13480677548E-01  0.00000000000E+00 0. -1.
     999901    1    3    3    0    0 -0.82350818988E-01  0.90443162423E-01 -0.46248624733E-02  0.88847229128E+00  0.88000000000E+00 0.  1.
        -11    1    4    4    0    0  0.58764343889E-01 -0.94035467996E-01  0.26992889646E-02  0.11092098375E+00  0.51100000000E-03 0. -1.
         11    1    4    4    0    0  0.30070183754E-01 -0.69878298571E-02 -0.33423410223E-02  0.31056047425E-01  0.51100000000E-03 0.  1.
</event>
<event>
 8    1  0.2927513E+004  0.1043930E+01  0.7957747E-01            NaN
         13   -1    0    0    0    0  0.00000000000E+00  0.00000000000E+00  0.74505805969E-08  0.10566000000E+00  0.10566000000E+00 0. -1.
     999900   -1    0    0    0    0 -0.00000000000E+00 -0.00000000000E+00 -0.74505805969E-08  0.93827000000E+00  0.93827000000E+00 0. -1.
     999902    2    1    2    0    0  0.18725178277E-02 -0.13404356296E-01 -0.46315677178E-02  0.10296249481E+01  0.10295255700E+01 0.  0.
     999903    2    3    3    0    0  0.11833008047E+00  0.18617957749E-01 -0.56742591900E-01  0.13984781232E+00  0.44598795739E-01 0.  0.
         14    1    1    2    0    0 -0.18725178277E-02  0.13404356296E-01  0.46315677178E-02  0.14305051914E-01  0.00000000000E+00 0.  1.
     999901    1    3    3    0    0 -0.11645756264E+00 -0.32022314045E-01  0.52111024182E-01  0.88977713577E+00  0.88000000000E+00 0.  1.
        -11    1    4    4    0    0  0.89396491856E-01 -0.54302909425E-02 -0.46178382607E-01  0.10076668575E+00  0.51100000000E-03 0.  1.
         11    1    4    4    0    0  0.28933588609E-01  0.24048248691E-01 -0.10564209293E-01  0.39081126569E-01  0.51100000000E-03 0. -1.
</event>
<event>
 8    1  0.2927513E+004  0.1043930E+01  0.7957747E-01            NaN
         13   -1    0    0    0    0  0.00000000000E+00  0.00000000000E+00  0.74505805969E-08  0.10566000000E+00  0.10566000000E+00 0. -1.
     999900   -1    0    0    0    0 -0.00000000000E+00 -0.00000000000E+00 -0.74505805969E-08  0.93827000000E+00  0.93827000000E+00 0.  1.
     999902    2    1    2    0    0 -0.80139122101E-02 -0.98120092989E-02  0.55293928324E-02  0.10301071023E+01  0.10300143541E+01 0.  0.
     999903    2    3    3    0    0 -0.11941483786E+00 -0.56273909182E-01  0.23904405418E-01  0.14167786176E+00  0.45547113615E-01 0.  0.
         14    1    1    2    0    0  0.80139122101E-02  0.98120092989E-02 -0.55293928324E-02  0.13822897688E-01  0.00000000000E+00 0. -1.
     999901    1    3    3    0    0  0.11140092565E+00  0.46461899883E-01 -0.18375012585E-01  0.88842924055E+00  0.88000000000E+00 0.  1.
        -11    1    4    4    0    0 -0.51417575382E-01 -0.94466082518E-02  0.27429661074E-01  0.59039418131E-01  0.51100000000E-03 0. -1.
         11    1    4    4    0    0 -0.67997262481E-01 -0.46827300930E-01 -0.35252556567E-02  0.82638443631E-01  0.51100000000E-03 0.  1.
</event>
<event>
 8    1  0.2927513E+004  0.1043930E+01  0.7957747E-01            NaN
         13   -1    0    0    0    0  0.00000000000E+00  0.00000000000E+00  0.74505805969E-08  0.10566000000E+00  0.10566000000E+00 0.  1.
     999900   -1    0    0    0    0 -0.00000000000E+00 -0.00000000000E+00 -0.74505805969E-08  0.93827000000E+00  0.93827000000E+00 0. -1.
     999902    2    1    2    0    0 -0.29778783594E-02  0.12576459056E-01  0.65839048306E-02  0.10294254185E+01  0.10293232288E+01 0.  0.
     999903    2    3    3    0    0 -0.37849133793E-01  0.78377099996E-01 -0.99863935826E-01  0.13988797039E+00  0.44947879227E-01 0.  0.
         14    1    1    2    0    0  0.29778783594E-02 -0.12576459056E-01 -0.65839048306E-02  0.14504581508E-01  0.00000000000E+00 0.  1.
     999901    1    3    3    0    0  0.34871255434E-01 -0.65800640940E-01  0.10644784066E+00  0.88953744811E+00  0.88000000000E+00 0.  1.
        -11    1    4    4    0    0 -0.10925962274E-01  0.48336424827E-01 -0.81898189265E-01  0.95725446683E-01  0.51100000000E-03 0. -1.
         11    1    4    4    0    0 -0.26923171519E-01  0.30040675169E-01 -0.17965746561E-01  0.44162523702E-01  0.51100000000E-03 0.  1.
</event>
<event>
 8    1  0.2927513E+004  0.1043930E+01  0.7957747E-01            NaN
         13   -1    0    0    0    0  0.00000000000E+00  0.00000000000E+00  0.74505805969E-08  0.10566000000E+00  0.10566000000E+00 0.  1.
     999900   -1    0    0    0    0 -0.00000000000E+00 -0.00000000000E+00 -0.74505805969E-08  0.93827000000E+00  0.93827000000E+00 0.  1.
     999902    2    1    2    0    0  0.93056385830E-02 -0.93392129144E-03 -0.12284710457E-01  0.10284904006E+01  0.10283745052E+01 0.  0.
     999903    2    3    3    0    0 -0.21191662445E-01  0.54375021670E-01 -0.11814507241E+00  0.13989849159E+00  0.46985106954E-01 0.  0.
         14    1    1    2    0    0 -0.93056385830E-02  0.93392129144E-03  0.12284710457E-01  0.15439599393E-01  0.00000000000E+00 0.  1.
     999901    1    3    3    0    0  0.30497301028E-01 -0.55308942962E-01  0.10586036195E+00  0.88859190902E+00  0.88000000000E+00 0. -1.
        -11    1    4    4    0    0  0.13306029093E-01  0.21792764102E-01 -0.57316382743E-01  0.62748735678E-01  0.51100000000E-03 0. -1.
         11    1    4    4    0    0 -0.34497691537E-01  0.32582257568E-01 -0.60828689664E-01  0.77149755910E-01  0.51100000000E-03 0.  1.
</event>
<event>
 8    1  0.2927513E+004  0.1043930E+01  0.7957747E-01            NaN
         13   -1    0    0    0    0  0.00000000000E+00  0.00000000000E+00  0.74505805969E-08  0.10566000000E+00  0.10566000000E+00 0.  1.
     999900   -1    0    0    0    0 -0.00000000000E+00 -0.00000000000E+00 -0.74505805969E-08  0.93827000000E+00  0.93827000000E+00 0. -1.
     999902    2    1    2    0    0 -0.10713281072E-01 -0.80570861600E-02 -0.42575531869E-02  0.10298652288E+01  0.10297691837E+01 0.  0.
     999903    2    3    3    0    0  0.12915138231E+00  0.20177539449E-01  0.30955109524E-02  0.13834215808E+00  0.45185814854E-01 0.  0.
         14    1    1    2    0    0  0.10713281072E-01  0.80570861600E-02  0.42575531869E-02  0.14064771162E-01  0.00000000000E+00 0. -1.
     999901    1    3    3    0    0 -0.13986466338E+00 -0.28234625609E-01 -0.73530641394E-02  0.89152307076E+00  0.88000000000E+00 0. -1.
        -11    1    4    4    0    0  0.81777250535E-01 -0.94277594649E-02 -0.99274784047E-03  0.82326472188E-01  0.51100000000E-03 0.  1.
         11    1    4    4    0    0  0.47374131770E-01  0.29605298914E-01  0.40882587929E-02  0.56015685890E-01  0.51100000000E-03 0. -1.
</event>
<event>
 8    1  0.2927513E+004  0.1043930E+01  0.7957747E-01            NaN
         13   -1    0    0    0    0  0.00000000000E+00  0.00000000000E+00  0.74505805969E-08  0.10566000000E+00  0.10566000000E+00 0.  1.
     999900   -1    0    0    0    0 -0.00000000000E+00 -0.00000000000E+00 -0.74505805969E-08  0.93827000000E+00  0.93827000000E+00 0. -1.
     999902    2    1    2    0    0  0.10009185917E-01  0.48678911934E-02  0.81143009669E-02  0.10301560373E+01  0.10300639491E+01 0.  0.
     999903    2    3    3    0    0  0.11842872195E+00 -0.10567082007E-01 -0.60150647908E-01  0.14074435682E+00  0.45319401214E-01 0.  0.
         14    1    1    2    0    0 -0.10009185917E-01 -0.48678911934E-02 -0.81143009669E-02  0.13773962668E-01  0.00000000000E+00 0. -1.
     999901    1    3    3    0    0 -0.10841953604E+00  0.15434973200E-01  0.68264948875E-01  0.88941168052E+00  0.88000000000E+00 0. -1.
        -11    1    4    4    0    0  0.82592455218E-01 -0.25207947452E-01 -0.29134834323E-01  0.91137555188E-01  0.51100000000E-03 0. -1.
         11    1    4    4    0    0  0.35836266736E-01  0.14640865445E-01 -0.31015813585E-01  0.49606801629E-01  0.51100000000E-03 0.  1.
</event>
<event>
 8    1  0.2927513E+004  0.1043930E+01  0.7957747E-01            NaN
         13   -1    0    0    0    0  0.00000000000E+00  0.00000000000E+00  0.74505805969E-08  0.10566000000E+00  0.10566000000E+00 0. -1.
     999900   -1    0    0    0    0 -0.00000000000E+00 -0.00000000000E+00 -0.74505805969E-08  0.93827000000E+00  0.93827000000E+00 0.  1.
     999902    2    1    2    0    0  0.94222776133E-02  0.65447563925E-02 -0.62368873603E-02  0.10308719789E+01  0.10307892728E+01 0.  0.
     999903    2    3    3    0    0 -0.99878849865E-01  0.56513861520E-01  0.66021202095E-01  0.13976879774E+00  0.44798621660E-01 0.  0.
         14    1    1    2    0    0 -0.94222776133E-02 -0.65447563925E-02  0.62368873603E-02  0.13058021121E-01  0.00000000000E+00 0. -1.
     999901    1    3    3    0    0  0.10930112748E+00 -0.49969105128E-01 -0.72258089455E-01  0.89110318113E+00  0.88000000000E+00 0.  1.
        -11    1    4    4    0    0 -0.38885272571E-01  0.33512753762E-01  0.69633619145E-02  0.51806549951E-01  0.51100000000E-03 0.  1.
         11    1    4    4    0    0 -0.60993577294E-01  0.23001107758E-01  0.59057840180E-01  0.87962247794E-01  0.51100000000E-03 0. -1.
</event>
<event>
 8    1  0.2927513E+004  0.1043930E+01  0.7957747E-01            NaN
         13   -1    0    0    0    0  0.00000000000E+00  0.00000000000E+00  0.74505805969E-08  0.10566000000E+00  0.10566000000E+00 0. -1.
     999900   -1    0    0    0    0 -0.00000000000E+00 -0.00000000000E+00 -0.74505805969E-08  0.93827000000E+00  0.93827000000E+00 0. -1.
     999902    2    1    2    0    0 -0.31156454389E-02 -0.86127415524E-02  0.19408575257E-01  0.10224688873E+01  0.10222436335E+01 0.  0.
     999903    2    3    3    0    0 -0.47473732917E-01  0.80468751530E-01 -0.82369152782E-01  0.13103080296E+00  0.40686837001E-01 0.  0.
         14    1    1    2    0    0  0.31156454389E-02  0.86127415524E-02 -0.19408575257E-01  0.21461112671E-01  0.00000000000E+00 0.  1.
     999901    1    3    3    0    0  0.44358087478E-01 -0.89081493082E-01  0.10177772804E+00  0.89143808437E+00  0.88000000000E+00 0. -1.
        -11    1    4    4    0    0 -0.29434054259E-01  0.14645496546E-01 -0.34541406466E-01  0.47688824696E-01  0.51100000000E-03 0. -1.
         11    1    4    4    0    0 -0.18039678657E-01  0.65823254984E-01 -0.47827746317E-01  0.83341978267E-01  0.51100000000E-03 0.  1.
</event>
<event>
 8    1  0.2927513E+004  0.1043930E+01  0.7957747E-01            NaN
         13   -1    0    0    0    0  0.00000000000E+00  0.00000000000E+00  0.74505805969E-08  0.10566000000E+00  0.10566000000E+00 0. -1.
     999900   -1    0    0    0    0 -0.00000000000E+00 -0.00000000000E+00 -0.74505805969E-08  0.93827000000E+00  0.93827000000E+00 0. -1.
     999902    2    1    2    0    0  0.11694871420E-01  0.42283095704E-02  0.50342655931E-02  0.10305138735E+01  0.10304265384E+01 0.  0.
     999903    2    3    3    0    0  0.21999611557E-01 -0.13017234441E+00  0.10055899436E-01  0.14023586062E+00  0.46218538855E-01 0.  0.
         14    1    1    2    0    0 -0.11694871420E-01 -0.42283095704E-02 -0.50342655931E-02  0.13416126468E-01  0.00000000000E+00 0.  1.
     999901    1    3    3    0    0 -0.10304740137E-01  0.13440065398E+00 -0.50216338434E-02  0.89027801291E+00  0.88000000000E+00 0.  1.
        -11    1    4    4    0    0  0.23094234072E-01 -0.11987984482E+00  0.22395069498E-01  0.12412220229E+00  0.51100000000E-03 0. -1.
         11    1    4    4    0    0 -0.10946225147E-02 -0.10292499589E-01 -0.12339170061E-01  0.16113658338E-01  0.51100000000E-03 0.  1.
</event>
<event>
 8    1  0.2927513E+004  0.1043930E+01  0.7957747E-01            NaN
         13   -1    0    0    0    0  0.00000000000E+00  0.00000000000E+00  0.74505805969E-08  0.10566000000E+00  0.10566000000E+00 0.  1.
     999900   -1    0    0    0    0 -0.00000000000E+00 -0.00000000000E+00 -0.74505805969E-08  0.93827000000E+00  0.93827000000E+00 0.  1.
     999902    2    1    2    0    0  0.13869726322E-02  0.10255690774E-01 -0.12650369399E-01  0.10275857431E+01  0.10274557532E+01 0.  0.
     999903    2    3    3    0    0 -0.96479613104E-01 -0.84998389124E-01  0.11553250473E-01  0.13672266525E+00  0.45017415489E-01 0.  0.
         14    1    1    2    0    0 -0.13869726322E-02 -0.10255690774E-01  0.12650369399E-01  0.16344256859E-01  0.00000000000E+00 0.  1.
     999901    1    3    3    0    0  0.97866585737E-01  0.95254079897E-01 -0.24203619872E-01  0.89086307789E+00  0.88000000000E+00 0. -1.
        -11    1    4    4    0    0 -0.42329009228E-01 -0.66027755870E-01  0.11974337954E-01  0.79341385530E-01  0.51100000000E-03 0.  1.
         11    1    4    4    0    0 -0.54150603876E-01 -0.18970633254E-01 -0.42108748053E-03  0.57381279716E-01  0.51100000000E-03 0. -1.
</event>
<event>
 8    1  0.2927513E+004  0.1043930E+01  0.7957747E-01            NaN
         13   -1    0    0    0    0  0.00000000000E+00  0.00000000000E+00  0.74505805969E-08  0.10566000000E+00  0.10566000000E+00 0. -1.
     999900   -1    0    0    0    0 -0.00000000000E+00 -0.00000000000E+00 -0.74505805969E-08  0.93827000000E+00  0.93827000000E+00 0. -1.
     999902    2    1    2    0    0  0.82962248119E-02  0.10129372416E-01 -0.40954457197E-02  0.10302112461E+01  0.10301198996E+01 0.  0.
     999903    2    3    3    0    0  0.12052093089E+00  0.24263401035E-01  0.52863724480E-01  0.14114516171E+00  0.44870657401E-01 0.  0.
         14    1    1    2    0    0 -0.82962248119E-02 -0.10129372416E-01  0.40954457197E-02  0.13718753854E-01  0.00000000000E+00 0. -1.
     999901    1    3    3    0    0 -0.11222470608E+00 -0.14134028619E-01 -0.56959170200E-01  0.88906608443E+00  0.88000000000E+00 0. -1.
        -11    1    4    4    0    0  0.30747472425E-01  0.26886940280E-01  0.12850643259E-01  0.42821895933E-01  0.51100000000E-03 0. -1.
         11    1    4    4    0    0  0.89773458469E-01 -0.26235392454E-02  0.40013081221E-01  0.98323265779E-01  0.51100000000E-03 0.  1.
</event>
<event>
 8    1  0.2927513E+004  0.1043930E+01  0.7957747E-01            NaN
         13   -1    0    0    0    0  0.00000000000E+00  0.00000000000E+00  0.74505805969E-08  0.10566000000E+00  0.10566000000E+00 0.  1.
     999900   -1    0    0    0    0 -0.00000000000E+00 -0.00000000000E+00 -0.74505805969E-08  0.93827000000E+00  0.93827000000E+00 0. -1.
     999902    2    1    2    0    0 -0.79842798286E-02  0.11689256640E-01  0.14814120658E-03  0.10297733976E+01  0.10296760855E+01 0.  0.
     999903    2    3    3    0    0 -0.68218552812E-01  0.11543022379E+00 -0.70149082112E-02  0.14160580916E+00  0.45000985989E-01 0.  0.
         14    1    1    2    0    0  0.79842798286E-02 -0.11689256640E-01 -0.14814120658E-03  0.14156602382E-01  0.00000000000E+00 0.  1.
     999901    1    3    3    0    0  0.60234272983E-01 -0.10374096715E+00  0.71630494178E-02  0.88816758846E+00  0.88000000000E+00 0. -1.
        -11    1    4    4    0    0 -0.44636275075E-01  0.89477637077E-01  0.13615977279E-01  0.10091729558E+00  0.51100000000E-03 0.  1.
         11    1    4    4    0    0 -0.23582277737E-01  0.25952586711E-01 -0.20630885491E-01  0.40688513580E-01  0.51100000000E-03 0. -1.
</event>
<event>
 8    1  0.2927513E+004  0.1043930E+01  0.7957747E-01            NaN
         13   -1    0    0    0    0  0.00000000000E+00  0.00000000000E+00  0.74505805969E-08  0.10566000000E+00  0.10566000000E+00 0.  1.
     999900   -1    0    0    0    0 -0.00000000000E+00 -0.00000000000E+00 -0.74505805969E-08  0.93827000000E+00  0.93827000000E+00 0. -1.
     999902    2    1    2    0    0 -0.12003606807E-01 -0.27805172394E-02 -0.38683050283E-02  0.10310156035E+01  0.10309347181E+01 0.  0.
     999903    2    3    3    0    0 -0.12669087594E+00  0.39529559503E-01 -0.24410034959E-01  0.14232821475E+00  0.45258223417E-01 0.  0.
         14    1    1    2    0    0  0.12003606807E-01  0.27805172394E-02  0.38683050283E-02  0.12914396474E-01  0.00000000000E+00 0. -1.
     999901    1    3    3    0    0  0.11468726913E+00 -0.42310076742E-01  0.20541729931E-01  0.88868738877E+00  0.88000000000E+00 0.  1.
        -11    1    4    4    0    0 -0.55670104259E-01  0.37573679152E-01  0.11310383594E-03  0.67165584838E-01  0.51100000000E-03 0. -1.
         11    1    4    4    0    0 -0.71020771683E-01  0.19558803507E-02 -0.24523138795E-01  0.75162629915E-01  0.51100000000E-03 0.  1.
</event>
<event>
 8    1  0.2927513E+004  0.1043930E+01  0.7957747E-01            NaN
         13   -1    0    0    0    0  0.00000000000E+00  0.00000000000E+00  0.74505805969E-08  0.10566000000E+00  0.10566000000E+00 0. -1.
     999900   -1    0    0    0    0 -0.00000000000E+00 -0.00000000000E+00 -0.74505805969E-08  0.93827000000E+00  0.93827000000E+00 0.  1.
     999902    2    1    2    0    0 -0.33927919015E-02 -0.13124183365E-01 -0.19447652792E-02  0.10302355727E+01  0.10301445520E+01 0.  0.
     999903    2    3    3    0    0  0.61067465701E-02 -0.23031505360E-01 -0.13116510096E+00  0.14069282986E+00  0.44971614067E-01 0.  0.
         14    1    1    2    0    0  0.33927919015E-02  0.13124183365E-01  0.19447652792E-02  0.13694427256E-01  0.00000000000E+00 0. -1.
     999901    1    3    3    0    0 -0.94995384715E-02  0.99073219951E-02  0.12922033568E+00  0.88954274288E+00  0.88000000000E+00 0. -1.
        -11    1    4    4    0    0  0.20662434990E-01 -0.27063959650E-01 -0.10602949114E+00  0.11136385519E+00  0.51100000000E-03 0.  1.
         11    1    4    4    0    0 -0.14555688420E-01  0.40324542892E-02 -0.25135609824E-01  0.29328974670E-01  0.51100000000E-03 0. -1.
</event>
<event>
 8    1  0.2927513E+004  0.1043930E+01  0.7957747E-01            NaN
         13   -1    0    0    0    0  0.00000000000E+00  0.00000000000E+00  0.74505805969E-08  0.10566000000E+00  0.10566000000E+00 0. -1.
     999900   -1    0    0    0    0 -0.00000000000E+00 -0.00000000000E+00 -0.74505805969E-08  0.93827000000E+00  0.93827000000E+00 0. -1.
     999902    2    1    2    0    0 -0.47623178217E-02  0.24603568137E-02 -0.10056277748E-01  0.10325343101E+01  0.10324714232E+01 0.  0.
     999903    2    3    3    0    0  0.28947625113E-01  0.13127643324E+00  0.61588728688E-02  0.14236978994E+00  0.46473201409E-01 0.  0.
         14    1    1    2    0    0  0.47623178217E-02 -0.24603568137E-02  0.10056277748E-01  0.11395689924E-01  0.00000000000E+00 0. -1.
     999901    1    3    3    0    0 -0.33709942935E-01 -0.12881607643E+00 -0.16215150617E-01  0.89016452014E+00  0.88000000000E+00 0. -1.
        -11    1    4    4    0    0  0.25761122438E-01  0.30049272697E-01 -0.71382955480E-02  0.40222016399E-01  0.51100000000E-03 0. -1.
         11    1    4    4    0    0  0.31865026751E-02  0.10122716054E+00  0.13297168417E-01  0.10214777354E+00  0.51100000000E-03 0.  1.
</event>
<event>
 8    1  0.2927513E+004  0.1043930E+01  0.7957747E-01            NaN
         13   -1    0    0    0    0  0.00000000000E+00  0.00000000000E+00  0.74505805969E-08  0.10566000000E+00  0.10566000000E+00 0.  1.
     999900   -1    0    0    0    0 -0.00000000000E+00 -0.00000000000E+00 -0.74505805969E-08  0.93827000000E+00  0.93827000000E+00 0.  1.
     999902    2    1    2    0    0  0.38934676812E-02  0.93614317073E-02  0.85571252963E-02  0.10306627513E+01  0.10305773562E+01 0.  0.
     999903    2    3    3    0    0 -0.10696449813E+00 -0.45264049296E-01  0.64479525895E-01  0.14026916046E+00  0.45028769670E-01 0.  0.
         14    1    1    2    0    0 -0.38934676812E-02 -0.93614317073E-02 -0.85571252963E-02  0.13267248680E-01  0.00000000000E+00 0. -1.
     999901    1    3    3    0    0  0.11085796581E+00  0.54625481003E-01 -0.55922400599E-01  0.89039359086E+00  0.88000000000E+00 0. -1.
        -11    1    4    4    0    0 -0.35422325571E-01 -0.39099080355E-01  0.27161338961E-01  0.59342048234E-01  0.51100000000E-03 0. -1.
         11    1    4    4    0    0 -0.71542172556E-01 -0.61649689417E-02  0.37318186934E-01  0.80927112225E-01  0.51100000000E-03 0.  1.
</event>
<event>
 8    1  0.2927513E+004  0.1043930E+01  0.7957747E-01            NaN
         13   -1    0    0    0    0  0.00000000000E+00  0.00000000000E+00  0.74505805969E-08  0.10566000000E+00  0.10566000000E+00 0.  1.
     999900   -1    0    0    0    0 -0.00000000000E+00 -0.00000000000E+00 -0.74505805969E-08  0.93827000000E+00  0.93827000000E+00 0. -1.
     999902    2    1    2    0    0 -0.13355971131E-01  0.39467629432E-02 -0.92104384188E-03  0.10299726641E+01  0.10298780907E+01 0.  0.
     999903    2    3    3    0    0  0.91875743373E-01  0.78724239035E-01  0.50546815778E-01  0.13906620146E+00  0.46322454290E-01 0.  0.
         14    1    1    2    0    0  0.13355971131E-01 -0.39467629432E-02  0.92104384188E-03  0.13957335861E-01  0.00000000000E+00 0.  1.
     999901    1    3    3    0    0 -0.10523171450E+00 -0.74777476092E-01 -0.51467859620E-01  0.89090646268E+00  0.88000000000E+00 0.  1.
        -11    1    4    4    0    0  0.54708952288E-01  0.57374536068E-01  0.97259225095E-02  0.79873409462E-01  0.51100000000E-03 0. -1.
         11    1    4    4    0    0  0.37166791085E-01  0.21349702967E-01  0.40820893268E-01  0.59192791998E-01  0.51100000000E-03 0.  1.
</event>
<event>
 8    1  0.2927513E+004  0.1043930E+01  0.7957747E-01            NaN
         13   -1    0    0    0    0  0.00000000000E+00  0.00000000000E+00  0.74505805969E-08  0.10566000000E+00  0.10566000000E+00 0.  1.
     999900   -1    0    0    0    0 -0.00000000000E+00 -0.00000000000E+00 -0.74505805969E-08  0.93827000000E+00  0.93827000000E+00 0. -1.
     999902    2    1    2    0    0  0.75567478374E-02 -0.67207600411E-02  0.93987354619E-02  0.10301238680E+01  0.10300313462E+01 0.  0.
     999903    2    3    3    0    0 -0.47475336820E-01  0.11496953078E+00 -0.43793137235E-01  0.13845889022E+00  0.42203374244E-01 0.  0.
         14    1    1    2    0    0 -0.75567478374E-02  0.67207600411E-02 -0.93987354619E-02  0.13806132032E-01  0.00000000000E+00 0. -1.
     999901    1    3    3    0    0  0.55032084658E-01 -0.12169029082E+00  0.53191872696E-01  0.89166497775E+00  0.88000000000E+00 0.  1.
        -11    1    4    4    0    0 -0.65455038949E-03  0.33816531792E-01 -0.26983080064E-01  0.43270474800E-01  0.51100000000E-03 0.  1.
         11    1    4    4    0    0 -0.46820786431E-01  0.81152998989E-01 -0.16810057171E-01  0.95188415420E-01  0.51100000000E-03 0. -1.
</event>
<event>
 8    1  0.2927513E+004  0.1043930E+01  0.7957747E-01            NaN
         13   -1    0    0    0    0  0.00000000000E+00  0.00000000000E+00  0.74505805969E-08  0.10566000000E+00  0.10566000000E+00 0.  1.
     999900   -1    0    0    0    0 -0.00000000000E+00 -0.00000000000E+00 -0.74505805969E-08  0.93827000000E+00  0.93827000000E+00 0. -1.
     999902    2    1    2    0    0 -0.12299112964E-01  0.52384167704E-02  0.27388290329E-02  0.10302841078E+01  0.10301937354E+01 0.  0.
     999903    2    3    3    0    0 -0.15724445019E-01 -0.13155318003E+00 -0.34039492001E-02  0.13968801101E+00  0.44132258095E-01 0.  0.
         14    1    1    2    0    0  0.12299112964E-01 -0.52384167704E-02 -0.27388290329E-02  0.13645892219E-01  0.00000000000E+00 0. -1.
     999901    1    3    3    0    0  0.34253320550E-02  0.13679159680E+00  0.61427782330E-02  0.89059609677E+00  0.88000000000E+00 0. -1.
        -11    1    4    4    0    0 -0.74991348772E-02 -0.55300084152E-01 -0.23260832338E-01  0.60462085419E-01  0.51100000000E-03 0.  1.
         11    1    4    4    0    0 -0.82253101423E-02 -0.76253095874E-01  0.19856883138E-01  0.79225925595E-01  0.51100000000E-03 0. -1.
</event>
<event>
 8    1  0.2927513E+004  0.1043930E+01  0.7957747E-01            NaN
         13   -1    0    0    0    0  0.00000000000E+00  0.00000000000E+00  0.74505805969E-08  0.10566000000E+00  0.10566000000E+00 0.  1.
     999900   -1    0    0    0    0 -0.00000000000E+00 -0.00000000000E+00 -0.74505805969E-08  0.93827000000E+00  0.93827000000E+00 0.  1.
     999902    2    1    2    0    0 -0.32999009822E-03  0.87368201632E-02  0.92497267627E-02  0.10312021422E+01  0.10311235909E+01 0.  0.
     999903    2    3    3    0    0 -0.11931652173E+00 -0.39329212036E-02 -0.57367371025E-01  0.14060899443E+00  0.47201417674E-01 0.  0.
         14    1    1    2    0    0  0.32999009822E-03 -0.87368201632E-02 -0.92497267627E-02  0.12727857841E-01  0.00000000000E+00 0. -1.
     999901    1    3    3    0    0  0.11898653163E+00  0.12669741367E-01  0.66617097788E-01  0.89059314772E+00  0.88000000000E+00 0. -1.
        -11    1    4    4    0    0 -0.10338970492E-01  0.13979781178E-01 -0.12409612787E-01  0.21367924633E-01  0.51100000000E-03 0. -1.
         11    1    4    4    0    0 -0.10897755124E+00 -0.17912702381E-01 -0.44957758238E-01  0.11924106980E+00  0.51100000000E-03 0.  1.
</event>
<event>
 8    1  0.2927513E+004  0.1043930E+01  0.7957747E-01            NaN
         13   -1    0    0    0    0  0.00000000000E+00  0.00000000000E+00  0.74505805969E-08  0.10566000000E+00  0.10566000000E+00 0.  1.
     999900   -1    0    0    0    0 -0.00000000000E+00 -0.00000000000E+00 -0.74505805969E-08  0.93827000000E+00  0.93827000000E+00 0. -1.
     999902    2    1    2    0    0  0.15126912553E-01 -0.18380773732E-02  0.53012566115E-02  0.10277960193E+01  0.10276693787E+01 0.  0.
     999903    2    3    3    0    0 -0.10866317624E+00  0.96481684678E-02  0.69402755501E-01  0.13674892621E+00  0.44528118362E-01 0.  0.
         14    1    1    2    0    0 -0.15126912553E-01  0.18380773732E-02 -0.53012566115E-02  0.16133980708E-01  0.00000000000E+00 0. -1.
     999901    1    3    3    0    0  0.12379008879E+00 -0.11486245841E-01 -0.64101498889E-01  0.89104709308E+00  0.88000000000E+00 0. -1.
        -11    1    4    4    0    0 -0.20706225469E-01  0.46941129953E-02  0.37417207073E-01  0.43024306806E-01  0.51100000000E-03 0.  1.
         11    1    4    4    0    0 -0.87956950766E-01  0.49540554725E-02  0.31985548428E-01  0.93724619407E-01  0.51100000000E-03 0. -1.
</event>
<event>
 8    1  0.2927513E+004  0.1043930E+01  0.7957747E-01            NaN
         13   -1    0    0    0    0  0.00000000000E+00  0.00000000000E+00  0.74505805969E-08  0.10566000000E+00  0.10566000000E+00 0. -1.
     999900   -1    0    0    0    0 -0.00000000000E+00 -0.00000000000E+00 -0.74505805969E-08  0.93827000000E+00  0.93827000000E+00 0. -1.
     999902    2    1    2    0    0 -0.61616324379E-02  0.12530101567E-01  0.18358793721E-02  0.10298466903E+01  0.10297503901E+01 0.  0.
     999903    2    3    3    0    0  0.10125625610E+00 -0.18788783071E-01 -0.81830433376E-01  0.13882507034E+00  0.44388428215E-01 0.  0.
         14    1    1    2    0    0  0.61616324379E-02 -0.12530101567E-01 -0.18358793721E-02  0.14083309719E-01  0.00000000000E+00 0.  1.
     999901    1    3    3    0    0 -0.10741788854E+00  0.31318884638E-01  0.83666312748E-01  0.89102161994E+00  0.88000000000E+00 0.  1.
        -11    1    4    4    0    0  0.18887454952E-01  0.12520839294E-01 -0.85822886991E-02  0.24236835014E-01  0.51100000000E-03 0.  1.
         11    1    4    4    0    0  0.82368801150E-01 -0.31309622365E-01 -0.73248144677E-01  0.11458823533E+00  0.51100000000E-03 0. -1.
</event>
<event>
 8    1  0.2927513E+004  0.1043930E+01  0.7957747E-01            NaN
         13   -1    0    0    0    0  0.00000000000E+00  0.00000000000E+00  0.74505805969E-08  0.10566000000E+00  0.10566000000E+00 0. -1.
     999900   -1    0    0    0    0 -0.00000000000E+00 -0.00000000000E+00 -0.74505805969E-08  0.93827000000E+00  0.93827000000E+00 0.  1.
     999902    2    1    2    0    0 -0.76510002925E-02 -0.97043843746E-02 -0.83597350620E-02  0.10290102798E+01  0.10289021128E+01 0.  0.
     999903    2    3    3    0    0  0.50526912938E-01 -0.87986234038E-01 -0.85831441670E-01  0.14023889021E+00  0.44781286668E-01 0.  0.
         14    1    1    2    0    0  0.76510002925E-02  0.97043843746E-02  0.83597350620E-02  0.14919720234E-01  0.00000000000E+00 0. -1.
     999901    1    3    3    0    0 -0.58177913231E-01  0.78281849664E-01  0.77471706608E-01  0.88877138956E+00  0.88000000000E+00 0. -1.
        -11    1    4    4    0    0  0.55008562661E-02 -0.54520632418E-01 -0.42841051106E-01  0.69558432701E-01  0.51100000000E-03 0.  1.
         11    1    4    4    0    0  0.45026056672E-01 -0.33465601620E-01 -0.42990390564E-01  0.70680457505E-01  0.51100000000E-03 0. -1.
</event>
<event>
 8    1  0.2927513E+004  0.1043930E+01  0.7957747E-01            NaN
         13   -1    0    0    0    0  0.00000000000E+00  0.00000000000E+00  0.74505805969E-08  0.10566000000E+00  0.10566000000E+00 0.  1.
     999900   -1    0    0    0    0 -0.00000000000E+00 -0.00000000000E+00 -0.74505805969E-08  0.93827000000E+00  0.93827000000E+00 0. -1.
     999902    2    1    2    0    0  0.99513869340E-02  0.37845737302E-02  0.85543570906E-02  0.10302723968E+01  0.10301818681E+01 0.  0.
     999903    2    3    3    0    0  0.21919481459E-01 -0.12669689516E+00 -0.31005395296E-01  0.13969189901E+00  0.44943577998E-01 0.  0.
         14    1    1    2    0    0 -0.99513869340E-02 -0.37845737302E-02 -0.85543570906E-02  0.13657603211E-01  0.00000000000E+00 0. -1.
     999901    1    3    3    0    0 -0.11968094525E-01  0.13048146889E+00  0.39559752387E-01  0.89058049778E+00  0.88000000000E+00 0. -1.
        -11    1    4    4    0    0  0.26337575447E-01 -0.41244893708E-01 -0.78906883161E-03  0.48945815838E-01  0.51100000000E-03 0. -1.
         11    1    4    4    0    0 -0.44180939879E-02 -0.85452001447E-01 -0.30216326464E-01  0.90746083176E-01  0.51100000000E-03 0.  1.
</event>
<event>
 8    1  0.2927513E+004  0.1043930E+01  0.7957747E-01            NaN
         13   -1    0    0    0    0  0.00000000000E+00  0.00000000000E+00  0.74505805969E-08  0.10566000000E+00  0.10566000000E+00 0.  1.
     999900   -1    0    0    0    0 -0.00000000000E+00 -0.00000000000E+00 -0.74505805969E-08  0.93827000000E+00  0.93827000000E+00 0.  1.
     999902    2    1    2    0    0  0.83078220279E-02 -0.11096864524E-01 -0.43172316236E-02  0.10294110883E+01  0.10293086951E+01 0.  0.
     999903    2    3    3    0    0  0.11119576434E-01 -0.48081986794E-01  0.12267648569E+00  0.13952165161E+00  0.44511219849E-01 0.  0.
         14    1    1    2    0    0 -0.83078220279E-02  0.11096864524E-01  0.43172316236E-02  0.14518911736E-01  0.00000000000E+00 0. -1.
     999901    1    3    3    0    0 -0.28117544064E-02  0.36985122270E-01 -0.12699371731E+00  0.88988943665E+00  0.88000000000E+00 0.  1.
        -11    1    4    4    0    0  0.19041476132E-01 -0.21529647549E-01  0.25353391798E-01  0.38329611706E-01  0.51100000000E-03 0. -1.
         11    1    4    4    0    0 -0.79218996973E-02 -0.26552339245E-01  0.97323093892E-01  0.10119203990E+00  0.51100000000E-03 0.  1.
</event>
<event>
 8    1  0.2927513E+004  0.1043930E+01  0.7957747E-01            NaN
         13   -1    0    0    0    0  0.00000000000E+00  0.00000000000E+00  0.74505805969E-08  0.10566000000E+00  0.10566000000E+00 0. -1.
     999900   -1    0    0    0    0 -0.00000000000E+00 -0.00000000000E+00 -0.74505805969E-08  0.93827000000E+00  0.93827000000E+00 0.  1.
     999902    2    1    2    0    0  0.11065108175E-01 -0.56014595719E-02  0.59169129928E-02  0.10301887181E+01  0.10300970693E+01 0.  0.
     999903    2    3    3    0    0  0.10847602473E+00  0.36593339861E-01  0.70004639588E-01  0.14149500009E+00  0.44878335791E-01 0.  0.
         14    1    1    2    0    0 -0.11065108175E-01  0.56014595719E-02 -0.59169129928E-02  0.13741281877E-01  0.00000000000E+00 0.  1.
     999901    1    3    3    0    0 -0.97410916560E-01 -0.42194799433E-01 -0.64087726595E-01  0.88869371803E+00  0.88000000000E+00 0.  1.
        -11    1    4    4    0    0  0.75572530676E-01  0.11517372839E-01  0.25160053248E-01  0.80480722353E-01  0.51100000000E-03 0.  1.
         11    1    4    4    0    0  0.32903494058E-01  0.25075967022E-01  0.44844586340E-01  0.61014277741E-01  0.51100000000E-03 0. -1.
</event>
<event>
 8    1  0.2927513E+004  0.1043930E+01  0.7957747E-01            NaN
         13   -1    0    0    0    0  0.00000000000E+00  0.00000000000E+00  0.74505805969E-08  0.10566000000E+00  0.10566000000E+00 0. -1.
     999900   -1    0    0    0    0 -0.00000000000E+00 -0.00000000000E+00 -0.74505805969E-08  0.93827000000E+00  0.93827000000E+00 0.  1.
     999902    2    1    2    0    0  0.49234455080E-02  0.10564353786E-01 -0.72619425670E-02  0.10301974949E+01  0.10301059639E+01 0.  0.
     999903    2    3    3    0    0 -0.50449359343E-01  0.39416946733E-01 -0.11788748997E+00  0.14107622568E+00  0.43660137564E-01 0.  0.
         14    1    1    2    0    0 -0.49234455080E-02 -0.10564353786E-01  0.72619425670E-02  0.13732505104E-01  0.00000000000E+00 0. -1.
     999901    1    3    3    0    0  0.55372804851E-01 -0.28852592947E-01  0.11062554740E+00  0.88912126922E+00  0.88000000000E+00 0. -1.
        -11    1    4    4    0    0 -0.41001767952E-01  0.40265636415E-01 -0.62603004835E-01  0.84981549683E-01  0.51100000000E-03 0. -1.
         11    1    4    4    0    0 -0.94475913914E-02 -0.84868968245E-03 -0.55284485137E-01  0.56094675996E-01  0.51100000000E-03 0.  1.
</event>
<event>
 8    1  0.2927513E+004  0.1043930E+01  0.7957747E-01            NaN
         13   -1    0    0    0    0  0.00000000000E+00  0.00000000000E+00  0.74505805969E-08  0.10566000000E+00  0.10566000000E+00 0. -1.
     999900   -1    0    0    0    0 -0.00000000000E+00 -0.00000000000E+00 -0.74505805969E-08  0.93827000000E+00  0.93827000000E+00 0.  1.
     999902    2    1    2    0    0  0.83105394754E-02  0.42220123032E-02 -0.99779939839E-02  0.10302753005E+01  0.10301848106E+01 0.  0.
     999903    2    3    3    0    0 -0.44068664370E-01  0.12006612327E+00  0.33008413515E-01  0.14010044675E+00  0.46697523255E-01 0.  0.
         14    1    1    2    0    0 -0.83105394754E-02 -0.42220123032E-02  0.99779939839E-02  0.13654699492E-01  0.00000000000E+00 0. -1.
     999901    1    3    3    0    0  0.52379203845E-01 -0.11584411097E+00 -0.42986407498E-01  0.89017485376E+00  0.88000000000E+00 0.  1.
        -11    1    4    4    0    0 -0.42699650076E-01  0.57756188009E-01  0.57023475199E-02  0.72054252187E-01  0.51100000000E-03 0. -1.
         11    1    4    4    0    0 -0.13690142941E-02  0.62309935265E-01  0.27306065995E-01  0.68046194559E-01  0.51100000000E-03 0.  1.
</event>
<event>
 8    1  0.2927513E+004  0.1043930E+01  0.7957747E-01            NaN
         13   -1    0    0    0    0  0.00000000000E+00  0.00000000000E+00  0.74505805969E-08  0.10566000000E+00  0.10566000000E+00 0.  1.
     999900   -1    0    0    0    0 -0.00000000000E+00 -0.00000000000E+00 -0.74505805969E-08  0.93827000000E+00  0.93827000000E+00 0.  1.
     999902    2    1    2    0    0 -0.95735011390E-02  0.73864633791E-02  0.68235250723E-02  0.10300457550E+01  0.10299521761E+01 0.  0.
     999903    2    3    3    0    0 -0.52013768283E-01 -0.11639863524E+00 -0.34151502277E-01  0.13942637512E+00  0.44936784426E-01 0.  0.
         14    1    1    2    0    0  0.95735011390E-02 -0.73864633791E-02 -0.68235250723E-02  0.13884245018E-01  0.00000000000E+00 0. -1.
     999901    1    3    3    0    0  0.42440267144E-01  0.12378509862E+00  0.40975027349E-01  0.89061937986E+00  0.88000000000E+00 0. -1.
        -11    1    4    4    0    0 -0.38796393870E-01 -0.73723470008E-01 -0.43194870213E-01  0.93842251364E-01  0.51100000000E-03 0.  1.
         11    1    4    4    0    0 -0.13217374413E-01 -0.42675165235E-01  0.90433679361E-02  0.45584123758E-01  0.51100000000E-03 0. -1.
</event>
<event>
 8    1  0.2927513E+004  0.1043930E+01  0.7957747E-01            NaN
         13   -1    0    0    0    0  0.00000000000E+00  0.00000000000E+00  0.74505805969E-08  0.10566000000E+00  0.10566000000E+00 0. -1.
     999900   -1    0    0    0    0 -0.00000000000E+00 -0.00000000000E+00 -0.74505805969E-08  0.93827000000E+00  0.93827000000E+00 0.  1.
     999902    2    1    2    0    0  0.13396928485E-01 -0.15617651769E-02  0.62651993843E-02  0.10290582305E+01  0.10289507628E+01 0.  0.
     999903    2    3    3    0    0 -0.10487000701E+00 -0.51145962971E-01  0.58451251580E-01  0.13823330681E+00  0.45588051085E-01 0.  0.
         14    1    1    2    0    0 -0.13396928485E-01  0.15617651769E-02 -0.62651993843E-02  0.14871769452E-01  0.00000000000E+00 0.  1.
     999901    1    3    3    0    0  0.11826693550E+00  0.49584197794E-01 -0.52186052196E-01  0.89082492373E+00  0.88000000000E+00 0.  1.
        -11    1    4    4    0    0 -0.55763823128E-01 -0.26970947535E-01  0.56879711380E-02  0.62206511857E-01  0.51100000000E-03 0. -1.
         11    1    4    4    0    0 -0.49106183886E-01 -0.24175015436E-01  0.52763280443E-01  0.76026794956E-01  0.51100000000E-03 0.  1.
</event>
<event>
 8    1  0.2927513E+004  0.1043930E+01  0.7957747E-01            NaN
         13   -1    0    0    0    0  0.00000000000E+00  0.00000000000E+00  0.74505805969E-08  0.10566000000E+00  0.10566000000E+00 0. -1.
     999900   -1    0    0    0    0 -0.00000000000E+00 -0.00000000000E+00 -0.74505805969E-08  0.93827000000E+00  0.93827000000E+00 0.  1.
     999902    2    1    2    0    0  0.52254065688E-02 -0.87418687351E-02  0.13387537948E-01  0.10271088432E+01  0.10269710924E+01 0.  0.
     999903    2    3    3    0    0  0.20655235437E-01 -0.12711885937E+00 -0.26140577080E-01  0.13816921457E+00  0.42679724982E-01 0.  0.
         14    1    1    2    0    0 -0.52254065688E-02  0.87418687351E-02 -0.13387537948E-01  0.16821156770E-01  0.00000000000E+00 0.  1.
     999901    1    3    3    0    0 -0.15429828868E-01  0.11837699064E+00  0.39528115028E-01  0.88893962866E+00  0.88000000000E+00 0. -1.
        -11    1    4    4    0    0  0.31784432558E-01 -0.96503271274E-01 -0.28437477828E-01  0.10550868583E+00  0.51100000000E-03 0.  1.
         11    1    4    4    0    0 -0.11129197121E-01 -0.30615588099E-01  0.22969007480E-02  0.32660528735E-01  0.51100000000E-03 0. -1.
</event>
<event>
 8    1  0.2927513E+004  0.1043930E+01  0.7957747E-01            NaN
         13   -1    0    0    0    0  0.00000000000E+00  0.00000000000E+00  0.74505805969E-08  0.10566000000E+00  0.10566000000E+00 0.  1.
     999900   -1    0    0    0    0 -0.00000000000E+00 -0.00000000000E+00 -0.74505805969E-08  0.93827000000E+00  0.93827000000E+00 0. -1.
     999902    2    1    2    0    0 -0.71243163551E-02  0.12326362305E-01  0.58558021219E-02  0.10285356663E+01  0.10284204546E+01 0.  0.
     999903    2    3    3    0    0 -0.72814934977E-01  0.11345005131E+00  0.21078624685E-01  0.14018157465E+00  0.32150218560E-01 0.  0.
         14    1    1    2    0    0  0.71243163551E-02 -0.12326362305E-01 -0.58558021219E-02  0.15394333688E-01  0.00000000000E+00 0.  1.
     999901    1    3    3    0    0  0.65690618621E-01 -0.10112368901E+00 -0.15222822563E-01  0.88835409167E+00  0.88000000000E+00 0.  1.
        -11    1    4    4    0    0 -0.55706875056E-02  0.12701667943E-01  0.12617739543E-01  0.18757222609E-01  0.51100000000E-03 0. -1.
         11    1    4    4    0    0 -0.67244247471E-01  0.10074838337E+00  0.84608851415E-02  0.12142435204E+00  0.51100000000E-03 0.  1.
</event>
<event>
 8    1  0.2927513E+004  0.1043930E+01  0.7957747E-01            NaN
         13   -1    0    0    0    0  0.00000000000E+00  0.00000000000E+00  0.74505805969E-08  0.10566000000E+00  0.10566000000E+00 0.  1.
     999900   -1    0    0    0    0 -0.00000000000E+00 -0.00000000000E+00 -0.74505805969E-08  0.93827000000E+00  0.93827000000E+00 0.  1.
     999902    2    1    2    0    0 -0.79780637930E-03 -0.13912960482E-01  0.29602130010E-02  0.10296832521E+01  0.10295846880E+01 0.  0.
     999903    2    3    3    0    0 -0.12444323362E+00  0.42948281315E-01  0.13829223082E-01  0.13915558389E+00  0.42922672952E-01 0.  0.
         14    1    1    2    0    0  0.79780637930E-03  0.13912960482E-01 -0.29602130010E-02  0.14246747888E-01  0.00000000000E+00 0. -1.
     999901    1    3    3    0    0  0.12364542724E+00 -0.56861241796E-01 -0.10869010081E-01  0.89052766823E+00  0.88000000000E+00 0.  1.
        -11    1    4    4    0    0 -0.61826980044E-01  0.37472811114E-01 -0.77147312783E-02  0.72708769992E-01  0.51100000000E-03 0.  1.
         11    1    4    4    0    0 -0.62616253578E-01  0.54754702009E-02  0.21543954361E-01  0.66446813893E-01  0.51100000000E-03 0. -1.
</event>
<event>
 8    1  0.2927513E+004  0.1043930E+01  0.7957747E-01            NaN
         13   -1    0    0    0    0  0.00000000000E+00  0.00000000000E+00  0.74505805969E-08  0.10566000000E+00  0.10566000000E+00 0.  1.
     999900   -1    0    0    0    0 -0.00000000000E+00 -0.00000000000E+00 -0.74505805969E-08  0.93827000000E+00  0.93827000000E+00 0. -1.
     999902    2    1    2    0    0 -0.10323077693E-01 -0.61963224239E-02 -0.32048920754E-02  0.10314707995E+01  0.10313955490E+01 0.  0.
     999903    2    3    3    0    0  0.97505211247E-01 -0.81101113556E-01  0.40255708660E-01  0.14066976027E+00  0.45637731465E-01 0.  0.
         14    1    1    2    0    0  0.10323077693E-01  0.61963224239E-02  0.32048920754E-02  0.12459200530E-01  0.00000000000E+00 0.  1.
     999901    1    3    3    0    0 -0.10782828894E+00  0.74904791132E-01 -0.43460600735E-01  0.89080103920E+00  0.88000000000E+00 0. -1.
        -11    1    4    4    0    0  0.26675414160E-01 -0.18440514631E-01 -0.95187095259E-02  0.33800846920E-01  0.51100000000E-03 0.  1.
         11    1    4    4    0    0  0.70829797086E-01 -0.62660598926E-01  0.49774418186E-01  0.10686891335E+00  0.51100000000E-03 0. -1.
</event>
<event>
 7    1  0.2927513E+004  0.1043930E+01  0.7957747E-01            NaN
         13   -1    0    0    0    0  0.00000000000E+00  0.00000000000E+00  0.74505805969E-08  0.10566000000E+00  0.10566000000E+00 0. -1.
     999900   -1    0    0    0    0 -0.00000000000E+00 -0.00000000000E+00 -0.74505805969E-08  0.93827000000E+00  0.93827000000E+00 0.  1.
     999903    2    1    2    0    0  0.79236991257E-01 -0.28379431485E-01  0.96400813768E-02  0.95682894032E-01  0.44479120118E-01 0.  0.
         14    1    1    2    0    0 -0.35494355162E-01 -0.52010947242E-01  0.69088849873E-02  0.63346038339E-01  0.00000000000E+00 0.  1.
     999901    1    1    2    0    0 -0.43742636095E-01  0.80390378727E-01 -0.16548966364E-01  0.88490106763E+00  0.88000000000E+00 0.  1.
        -11    1    3    3    0    0  0.46172789544E-01 -0.39011057839E-01  0.53875561797E-02  0.60688351523E-01  0.51100000000E-03 0.  1.
         11    1    3    3    0    0  0.33064201713E-01  0.10631626354E-01  0.42525251971E-02  0.34994542509E-01  0.51100000000E-03 0. -1.
</event>
<event>
 8    1  0.2927513E+004  0.1043930E+01  0.7957747E-01            NaN
         13   -1    0    0    0    0  0.00000000000E+00  0.00000000000E+00  0.74505805969E-08  0.10566000000E+00  0.10566000000E+00 0. -1.
     999900   -1    0    0    0    0 -0.00000000000E+00 -0.00000000000E+00 -0.74505805969E-08  0.93827000000E+00  0.93827000000E+00 0.  1.
     999902    2    1    2    0    0  0.69934417188E-02  0.87134315227E-02  0.11256849504E-01  0.10280697107E+01  0.10279473631E+01 0.  0.
     999903    2    3    3    0    0 -0.12065614719E+00  0.30500436379E-01  0.39822285006E-01  0.13813427752E+00  0.44800466166E-01 0.  0.
         14    1    1    2    0    0 -0.69934417188E-02 -0.87134315227E-02 -0.11256849504E-01  0.15860289301E-01  0.00000000000E+00 0.  1.
     999901    1    3    3    0    0  0.12764958890E+00 -0.21787004856E-01 -0.28565435502E-01  0.88993543318E+00  0.88000000000E+00 0.  1.
        -11    1    4    4    0    0 -0.89884953381E-02 -0.20039286214E-02 -0.81667351986E-02  0.12319312609E-01  0.51100000000E-03 0.  1.
         11    1    4    4    0    0 -0.11166765185E+00  0.32504365000E-01  0.47989020205E-01  0.12581496491E+00  0.51100000000E-03 0. -1.
</event>
<event>
 8    1  0.2927513E+004  0.1043930E+01  0.7957747E-01            NaN
         13   -1    0    0    0    0  0.00000000000E+00  0.00000000000E+00  0.74505805969E-08  0.10566000000E+00  0.10566000000E+00 0.  1.
     999900   -1    0    0    0    0 -0.00000000000E+00 -0.00000000000E+00 -0.74505805969E-08  0.93827000000E+00  0.93827000000E+00 0.  1.
     999902    2    1    2    0    0 -0.73485522928E-02  0.10787087499E-01 -0.66852746481E-02  0.10292652336E+01  0.10291607579E+01 0.  0.
     999903    2    3    3    0    0  0.61648616484E-01 -0.10203650715E-01 -0.11643118596E+00  0.13952067166E+00  0.44778681899E-01 0.  0.
         14    1    1    2    0    0  0.73485522928E-02 -0.10787087499E-01  0.66852746481E-02  0.14664766436E-01  0.00000000000E+00 0.  1.
     999901    1    3    3    0    0 -0.68997168777E-01  0.20990738214E-01  0.10974591132E+00  0.88974456191E+00  0.88000000000E+00 0. -1.
        -11    1    4    4    0    0  0.17884119283E-01  0.62523389136E-02 -0.73970108068E-01  0.76359488428E-01  0.51100000000E-03 0.  1.
         11    1    4    4    0    0  0.43764497201E-01 -0.16455989629E-01 -0.42461077896E-01  0.63161183230E-01  0.51100000000E-03 0. -1.
</event>
<event>
 8    1  0.2927513E+004  0.1043930E+01  0.7957747E-01            NaN
         13   -1    0    0    0    0  0.00000000000E+00  0.00000000000E+00  0.74505805969E-08  0.10566000000E+00  0.10566000000E+00 0. -1.
     999900   -1    0    0    0    0 -0.00000000000E+00 -0.00000000000E+00 -0.74505805969E-08  0.93827000000E+00  0.93827000000E+00 0. -1.
     999902    2    1    2    0    0 -0.80829718523E-02  0.10011815146E-01 -0.28432891935E-02  0.10307521713E+01  0.10306679307E+01 0.  0.
     999903    2    3    3    0    0  0.20892688435E-01 -0.45902174556E-01 -0.12309303989E+00  0.14034441880E+00  0.44734163226E-01 0.  0.
         14    1    1    2    0    0  0.80829718523E-02 -0.10011815146E-01  0.28432891935E-02  0.13177828725E-01  0.00000000000E+00 0. -1.
     999901    1    3    3    0    0 -0.28975660287E-01  0.55913989702E-01  0.12024975069E+00  0.89040775248E+00  0.88000000000E+00 0.  1.
        -11    1    4    4    0    0  0.32066064706E-01 -0.39186796721E-01 -0.74856287157E-01  0.90374567169E-01  0.51100000000E-03 0.  1.
         11    1    4    4    0    0 -0.11173376270E-01 -0.67153778346E-02 -0.48236752729E-01  0.49969851627E-01  0.51100000000E-03 0. -1.
</event>
<event>
 8    1  0.2927513E+004  0.1043930E+01  0.7957747E-01            NaN
         13   -1    0    0    0    0  0.00000000000E+00  0.00000000000E+00  0.74505805969E-08  0.10566000000E+00  0.10566000000E+00 0.  1.
     999900   -1    0    0    0    0 -0.00000000000E+00 -0.00000000000E+00 -0.74505805969E-08  0.93827000000E+00  0.93827000000E+00 0.  1.
     999902    2    1    2    0    0 -0.91361067462E-03  0.65299917619E-02  0.12194753858E-01  0.10300668294E+01  0.10299735363E+01 0.  0.
     999903    2    3    3    0    0  0.99109047586E-01 -0.47512655548E-01 -0.71737255667E-01  0.13879261678E+00  0.45134253861E-01 0.  0.
         14    1    1    2    0    0  0.91361067462E-03 -0.65299917619E-02 -0.12194753858E-01  0.13863170580E-01  0.00000000000E+00 0. -1.
     999901    1    3    3    0    0 -0.10002265826E+00  0.54042647310E-01  0.83932009524E-01  0.89127421264E+00  0.88000000000E+00 0. -1.
        -11    1    4    4    0    0  0.91370600171E-02 -0.10895089396E-01  0.49138913743E-02  0.15053115562E-01  0.51100000000E-03 0. -1.
         11    1    4    4    0    0  0.89971987569E-01 -0.36617566152E-01 -0.76651147041E-01  0.12373950122E+00  0.51100000000E-03 0.  1.
</event>
<event>
 8    1  0.2927513E+004  0.1043930E+01  0.7957747E-01            NaN
         13   -1    0    0    0    0  0.00000000000E+00  0.00000000000E+00  0.74505805969E-08  0.10566000000E+00  0.10566000000E+00 0.  1.
     999900   -1    0    0    0    0 -0.00000000000E+00 -0.00000000000E+00 -0.74505805969E-08  0.93827000000E+00  0.93827000000E+00 0. -1.
     999902    2    1    2    0    0 -0.85553281452E-02  0.10589997652E-01 -0.18337982985E-03  0.10303147395E+01  0.10302247751E+01 0.  0.
     999903    2    3    3    0    0  0.13021898599E+00 -0.60832347891E-03 -0.27858512046E-03  0.13936933057E+00  0.49662645143E-01 0.  0.
         14    1    1    2    0    0  0.85553281452E-02 -0.10589997652E-01  0.18337982985E-03  0.13615260486E-01  0.00000000000E+00 0.  1.
     999901    1    3    3    0    0 -0.13877431414E+00  0.11198321131E-01  0.95205290605E-04  0.89094540895E+00  0.88000000000E+00 0.  1.
        -11    1    4    4    0    0  0.76294129083E-01  0.55611731435E-02  0.23620373191E-01  0.80061875634E-01  0.51100000000E-03 0.  1.
         11    1    4    4    0    0  0.53924856909E-01 -0.61694966224E-02 -0.23898958311E-01  0.59307454933E-01  0.51100000000E-03 0. -1.
</event>
<event>
 8    1  0.2927513E+004  0.1043930E+01  0.7957747E-01            NaN
         13   -1    0    0    0    0  0.00000000000E+00  0.00000000000E+00  0.74505805969E-08  0.10566000000E+00  0.10566000000E+00 0. -1.
     999900   -1    0    0    0    0 -0.00000000000E+00 -0.00000000000E+00 -0.74505805969E-08  0.93827000000E+00  0.93827000000E+00 0. -1.
     999902    2    1    2    0    0 -0.10873755885E-01  0.81056271762E-02 -0.12173858413E-02  0.10303130331E+01  0.10302230460E+01 0.  0.
     999903    2    3    3    0    0 -0.95979155681E-01 -0.68252706890E-01 -0.63080205978E-01  0.14076228539E+00  0.44322435390E-01 0.  0.
         14    1    1    2    0    0  0.10873755885E-01 -0.81056271762E-02  0.12173858413E-02  0.13616966889E-01  0.00000000000E+00 0. -1.
     999901    1    3    3    0    0  0.85105399796E-01  0.76358334066E-01  0.61862820137E-01  0.88955074772E+00  0.88000000000E+00 0.  1.
        -11    1    4    4    0    0 -0.51119003454E-01 -0.11678955753E-01 -0.17076494756E-01  0.55149055439E-01  0.51100000000E-03 0.  1.
         11    1    4    4    0    0 -0.44860152227E-01 -0.56573751137E-01 -0.46003711222E-01  0.85613229951E-01  0.51100000000E-03 0. -1.
</event>
<event>
 8    1  0.2927513E+004  0.1043930E+01  0.7957747E-01            NaN
         13   -1    0    0    0    0  0.00000000000E+00  0.00000000000E+00  0.74505805969E-08  0.10566000000E+00  0.10566000000E+00 0. -1.
     999900   -1    0    0    0    0 -0.00000000000E+00 -0.00000000000E+00 -0.74505805969E-08  0.93827000000E+00  0.93827000000E+00 0.  1.
     999902    2    1    2    0    0 -0.12591911546E-01 -0.26441125488E-02 -0.83628278429E-02  0.10285844972E+01  0.10284700206E+01 0.  0.
     999903    2    3    3    0    0  0.51234237373E-01 -0.93778334948E-01  0.74849566846E-01  0.13768409510E+00  0.43990103455E-01 0.  0.
         14    1    1    2    0    0  0.12591911546E-01  0.26441125488E-02  0.83628278429E-02  0.15345502829E-01  0.00000000000E+00 0. -1.
     999901    1    3    3    0    0 -0.63826148918E-01  0.91134222400E-01 -0.83212394689E-01  0.89090040207E+00  0.88000000000E+00 0.  1.
        -11    1    4    4    0    0  0.17795274960E-01 -0.30901815909E-01  0.18670846284E-02  0.35711919066E-01  0.51100000000E-03 0.  1.
         11    1    4    4    0    0  0.33438962412E-01 -0.62876519040E-01  0.72982482217E-01  0.10197217604E+00  0.51100000000E-03 0. -1.
</event>
<event>
 8    1  0.2927513E+004  0.1043930E+01  0.7957747E-01            NaN
         13   -1    0    0    0    0  0.00000000000E+00  0.00000000000E+00  0.74505805969E-08  0.10566000000E+00  0.10566000000E+00 0.  1.
     999900   -1    0    0    0    0 -0.00000000000E+00 -0.00000000000E+00 -0.74505805969E-08  0.93827000000E+00  0.93827000000E+00 0. -1.
     999902    2    1    2    0    0  0.52417808847E-02  0.13746885646E-01 -0.16687403795E-02  0.10291233182E+01  0.10290167959E+01 0.  0.
     999903    2    3    3    0    0  0.46344750232E-01 -0.99741736217E-01  0.70919519343E-01  0.13792290480E+00  0.43553411187E-01 0.  0.
         14    1    1    2    0    0 -0.52417808847E-02 -0.13746885646E-01  0.16687403795E-02  0.14806681811E-01  0.00000000000E+00 0.  1.
     999901    1    3    3    0    0 -0.41102969347E-01  0.11348862186E+00 -0.72588259722E-01  0.89120041339E+00  0.88000000000E+00 0. -1.
        -11    1    4    4    0    0  0.39825725954E-01 -0.49958199669E-01  0.21346818163E-01  0.67363624669E-01  0.51100000000E-03 0. -1.
         11    1    4    4    0    0  0.65190242780E-02 -0.49783536548E-01  0.49572701180E-01  0.70559280127E-01  0.51100000000E-03 0.  1.
</event>
<event>
 8    1  0.2927513E+004  0.1043930E+01  0.7957747E-01            NaN
         13   -1    0    0    0    0  0.00000000000E+00  0.00000000000E+00  0.74505805969E-08  0.10566000000E+00  0.10566000000E+00 0.  1.
     999900   -1    0    0    0    0 -0.00000000000E+00 -0.00000000000E+00 -0.74505805969E-08  0.93827000000E+00  0.93827000000E+00 0.  1.
     999902    2    1    2    0    0 -0.12466991769E-01 -0.57317993996E-02  0.24278521033E-02  0.10299953714E+01  0.10299011075E+01 0.  0.
     999903    2    3    3    0    0 -0.49982760289E-01 -0.12198261076E+00 -0.21152145873E-01  0.14124473128E+00  0.46093678353E-01 0.  0.
         14    1    1    2    0    0  0.12466991769E-01  0.57317993996E-02 -0.24278521033E-02  0.13934628591E-01  0.00000000000E+00 0.  1.
     999901    1    3    3    0    0  0.37515768520E-01  0.11625081136E+00  0.23579997976E-01  0.88875064013E+00  0.88000000000E+00 0.  1.
        -11    1    4    4    0    0 -0.52249673697E-01 -0.70413950292E-01 -0.18109332404E-01  0.89534137838E-01  0.51100000000E-03 0. -1.
         11    1    4    4    0    0  0.22669134086E-02 -0.51568660470E-01 -0.30428134686E-02  0.51710593440E-01  0.51100000000E-03 0.  1.
</event>
<event>
 8    1  0.2927513E+004  0.1043930E+01  0.7957747E-01            NaN
         13   -1    0    0    0    0  0.00000000000E+00  0.00000000000E+00  0.74505805969E-08  0.10566000000E+00  0.10566000000E+00 0.  1.
     999900   -1    0    0    0    0 -0.00000000000E+00 -0.00000000000E+00 -0.74505805969E-08  0.93827000000E+00  0.93827000000E+00 0. -1.
     999902    2    1    2    0    0 -0.21846353230E-02  0.32103824347E-02  0.83118680706E-02  0.10347557786E+01  0.10347151082E+01 0.  0.
     999903    2    3    3    0    0 -0.74576252078E-01  0.28694846473E-01 -0.11004775278E+00  0.14352123939E+00  0.45856588141E-01 0.  0.
         14    1    1    2    0    0  0.21846353230E-02 -0.32103824347E-02 -0.83118680706E-02  0.91742213672E-02  0.00000000000E+00 0. -1.
     999901    1    3    3    0    0  0.72391616755E-01 -0.25484464038E-01  0.11835962086E+00  0.89123453924E+00  0.88000000000E+00 0.  1.
        -11    1    4    4    0    0 -0.68275651104E-01  0.91662900366E-02 -0.68344807958E-01  0.97040503412E-01  0.51100000000E-03 0. -1.
         11    1    4    4    0    0 -0.63006009741E-02  0.19528556437E-01 -0.41702944827E-01  0.46480735981E-01  0.51100000000E-03 0.  1.
</event>
<event>
 8    1  0.2927513E+004  0.1043930E+01  0.7957747E-01            NaN
         13   -1    0    0    0    0  0.00000000000E+00  0.00000000000E+00  0.74505805969E-08  0.10566000000E+00  0.10566000000E+00 0.  1.
     999900   -1    0    0    0    0 -0.00000000000E+00 -0.00000000000E+00 -0.74505805969E-08  0.93827000000E+00  0.93827000000E+00 0. -1.
     999902    2    1    2    0    0  0.10343438292E-01 -0.68091450790E-02 -0.86828466030E-02  0.10288057480E+01  0.10286945728E+01 0.  0.
     999903    2    3    3    0    0  0.60538389316E-01 -0.12502650288E-01 -0.11628997272E+00  0.14081293123E+00  0.49836843804E-01 0.  0.
         14    1    1    2    0    0 -0.10343438292E-01  0.68091450790E-02  0.86828466030E-02  0.15124251966E-01  0.00000000000E+00 0.  1.
     999901    1    3    3    0    0 -0.50194951024E-01  0.56935052086E-02  0.10760712612E+00  0.88799281681E+00  0.88000000000E+00 0. -1.
        -11    1    4    4    0    0  0.52770995865E-01 -0.49916087240E-03 -0.48989863704E-01  0.72008992722E-01  0.51100000000E-03 0.  1.
         11    1    4    4    0    0  0.77673934511E-02 -0.12003489415E-01 -0.67300109016E-01  0.68803938504E-01  0.51100000000E-03 0. -1.
</event>
<event>
 8    1  0.2927513E+004  0.1043930E+01  0.7957747E-01            NaN
         13   -1    0    0    0    0  0.00000000000E+00  0.00000000000E+00  0.74505805969E-08  0.10566000000E+00  0.10566000000E+00 0.  1.
     999900   -1    0    0    0    0 -0.00000000000E+00 -0.00000000000E+00 -0.74505805969E-08  0.93827000000E+00  0.93827000000E+00 0.  1.
     999902    2    1    2    0    0  0.69355642737E-02  0.47960137975E-02  0.97624163440E-02  0.10310300553E+01  0.10309493520E+01 0.  0.
     999903    2    3    3    0    0  0.52010313309E-01 -0.37086398794E-01 -0.11602673827E+00  0.13995835174E+00  0.45229001334E-01 0.  0.
         14    1    1    2    0    0 -0.69355642737E-02 -0.47960137975E-02 -0.97624163440E-02  0.12899944690E-01  0.00000000000E+00 0.  1.
     999901    1    3    3    0    0 -0.45074749035E-01  0.41882412592E-01  0.12578915462E+00  0.89107170357E+00  0.88000000000E+00 0. -1.
        -11    1    4    4    0    0  0.57307602945E-01 -0.35843960015E-01 -0.85734000476E-01  0.10917660365E+00  0.51100000000E-03 0.  1.
         11    1    4    4    0    0 -0.52972896354E-02 -0.12424387787E-02 -0.30292737795E-01  0.30781748094E-01  0.51100000000E-03 0. -1.
</event>
<event>
 8    1  0.2927513E+004  0.1043930E+01  0.7957747E-01            NaN
         13   -1    0    0    0    0  0.00000000000E+00  0.00000000000E+00  0.74505805969E-08  0.10566000000E+00  0.10566000000E+00 0. -1.
     999900   -1    0    0    0    0 -0.00000000000E+00 -0.00000000000E+00 -0.74505805969E-08  0.93827000000E+00  0.93827000000E+00 0.  1.
     999902    2    1    2    0    0  0.19333096134E-02  0.15518561235E-01  0.22543396238E-02  0.10281298267E+01  0.10280084120E+01 0.  0.
     999903    2    3    3    0    0 -0.11478928995E+00 -0.96848156757E-02  0.61390865660E-01  0.13809808336E+00  0.45076218774E-01 0.  0.
         14    1    1    2    0    0 -0.19333096134E-02 -0.15518561235E-01 -0.22543396238E-02  0.15800173290E-01  0.00000000000E+00 0. -1.
     999901    1    3    3    0    0  0.11672259957E+00  0.25203376911E-01 -0.59136526036E-01  0.89003174335E+00  0.88000000000E+00 0.  1.
        -11    1    4    4    0    0 -0.95800812831E-01  0.52924973817E-02  0.34584495098E-01  0.10199095396E+00  0.51100000000E-03 0. -1.
         11    1    4    4    0    0 -0.18988477121E-01 -0.14977313057E-01  0.26806370562E-01  0.36107129400E-01  0.51100000000E-03 0.  1.
</event>
<event>
 8    1  0.2927513E+004  0.1043930E+01  0.7957747E-01            NaN
         13   -1    0    0    0    0  0.00000000000E+00  0.00000000000E+00  0.74505805969E-08  0.10566000000E+00  0.10566000000E+00 0. -1.
     999900   -1    0    0    0    0 -0.00000000000E+00 -0.00000000000E+00 -0.74505805969E-08  0.93827000000E+00  0.93827000000E+00 0.  1.
     999902    2    1    2    0    0 -0.11985674574E-01  0.96136009697E-03 -0.15315056682E-01  0.10244586988E+01  0.10242736422E+01 0.  0.
     999903    2    3    3    0    0  0.10828634288E+00  0.36623657260E-01 -0.55219206767E-01  0.13466686990E+00  0.44930843837E-01 0.  0.
         14    1    1    2    0    0  0.11985674574E-01 -0.96136009697E-03  0.15315056682E-01  0.19471301174E-01  0.00000000000E+00 0.  1.
     999901    1    3    3    0    0 -0.12027201746E+00 -0.35662297163E-01  0.39904150085E-01  0.88979182892E+00  0.88000000000E+00 0. -1.
        -11    1    4    4    0    0  0.20855066540E-01  0.27199034221E-01 -0.21625038653E-01  0.40529306442E-01  0.51100000000E-03 0. -1.
         11    1    4    4    0    0  0.87431276343E-01  0.94246230393E-02 -0.33594168114E-01  0.94137563462E-01  0.51100000000E-03 0.  1.
</event>
<event>
 8    1  0.2927513E+004  0.1043930E+01  0.7957747E-01            NaN
         13   -1    0    0    0    0  0.00000000000E+00  0.00000000000E+00  0.74505805969E-08  0.10566000000E+00  0.10566000000E+00 0.  1.
     999900   -1    0    0    0    0 -0.00000000000E+00 -0.00000000000E+00 -0.74505805969E-08  0.93827000000E+00  0.93827000000E+00 0.  1.
     999902    2    1    2    0    0  0.12540225425E-01 -0.53212866825E-02 -0.18251149076E-02  0.10301857507E+01  0.10300940619E+01 0.  0.
     999903    2    3    3    0    0 -0.98169799232E-01  0.13975883338E-01 -0.86262125709E-01  0.13902992863E+00  0.45337974448E-01 0.  0.
         14    1    1    2    0    0 -0.12540225425E-01  0.53212866825E-02  0.18251149076E-02  0.13744249346E-01  0.00000000000E+00 0.  1.
     999901    1    3    3    0    0  0.11071002466E+00 -0.19297170021E-01  0.84437010801E-01  0.89115582202E+00  0.88000000000E+00 0. -1.
        -11    1    4    4    0    0 -0.64780276731E-01 -0.39143347609E-02 -0.30734133388E-01  0.71809848531E-01  0.51100000000E-03 0. -1.
         11    1    4    4    0    0 -0.33389522501E-01  0.17890218099E-01 -0.55527992321E-01  0.67220080101E-01  0.51100000000E-03 0.  1.
</event>
<event>
 8    1  0.2927513E+004  0.1043930E+01  0.7957747E-01            NaN
         13   -1    0    0    0    0  0.00000000000E+00  0.00000000000E+00  0.74505805969E-08  0.10566000000E+00  0.10566000000E+00 0. -1.
     999900   -1    0    0    0    0 -0.00000000000E+00 -0.00000000000E+00 -0.74505805969E-08  0.93827000000E+00  0.93827000000E+00 0.  1.
     999902    2    1    2    0    0 -0.11042093869E-01 -0.42917593054E-02  0.72462115073E-02  0.10300427895E+01  0.10299491704E+01 0.  0.
     999903    2    3    3    0    0 -0.56918068939E-01  0.11880979281E+00  0.16941414959E-01  0.14023798268E+00  0.44991630407E-01 0.  0.
         14    1    1    2    0    0  0.11042093869E-01  0.42917593054E-02 -0.72462115073E-02  0.13887210525E-01  0.00000000000E+00 0.  1.
     999901    1    3    3    0    0  0.45875975070E-01 -0.12310155212E+00 -0.96952034519E-02  0.88980480679E+00  0.88000000000E+00 0.  1.
        -11    1    4    4    0    0 -0.19444428103E-01  0.59296476986E-01  0.29113030399E-01  0.68862091365E-01  0.51100000000E-03 0. -1.
         11    1    4    4    0    0 -0.37473640836E-01  0.59513315824E-01 -0.12171615439E-01  0.71375891317E-01  0.51100000000E-03 0.  1.
</event>
<event>
 8    1  0.2927513E+004  0.1043930E+01  0.7957747E-01            NaN
         13   -1    0    0    0    0  0.00000000000E+00  0.00000000000E+00  0.74505805969E-08  0.10566000000E+00  0.10566000000E+00 0. -1.
     999900   -1    0    0    0    0 -0.00000000000E+00 -0.00000000000E+00 -0.74505805969E-08  0.93827000000E+00  0.93827000000E+00 0.  1.
     999902    2    1    2    0    0 -0.34060546912E-02 -0.89895709422E-02  0.10254319641E-01  0.10298742302E+01  0.10297783088E+01 0.  0.
     999903    2    3    3    0    0  0.71499296778E-01  0.61580047200E-01  0.93288033124E-01  0.13999475504E+00  0.44627599764E-01 0.  0.
         14    1    1    2    0    0  0.34060546912E-02  0.89895709422E-02 -0.10254319641E-01  0.14055769833E-01  0.00000000000E+00 0.  1.
     999901    1    3    3    0    0 -0.74905351469E-01 -0.70569618143E-01 -0.83033713483E-01  0.88987947513E+00  0.88000000000E+00 0.  1.
        -11    1    4    4    0    0  0.59590478356E-01  0.67390517527E-01  0.87602990402E-01  0.12556692244E+00  0.51100000000E-03 0. -1.
         11    1    4    4    0    0  0.11908818423E-01 -0.58104703265E-02  0.56850427223E-02  0.14427832595E-01  0.51100000000E-03 0.  1.
</event>
<event>
 8    1  0.2927513E+004  0.1043930E+01  0.7957747E-01            NaN
         13   -1    0    0    0    0  0.00000000000E+00  0.00000000000E+00  0.74505805969E-08  0.10566000000E+00  0.10566000000E+00 0.  1.
     999900   -1    0    0    0    0 -0.00000000000E+00 -0.00000000000E+00 -0.74505805969E-08  0.93827000000E+00  0.93827000000E+00 0. -1.
     999902    2    1    2    0    0  0.52484100302E-02 -0.42472631877E-02 -0.12937031628E-01  0.10293371305E+01  0.10292336841E+01 0.  0.
     999903    2    3    3    0    0 -0.12361825753E+00 -0.31224709233E-01 -0.35190395912E-01  0.13926431730E+00  0.43585892773E-01 0.  0.
         14    1    1    2    0    0 -0.52484100302E-02  0.42472631877E-02  0.12937031628E-01  0.14592869484E-01  0.00000000000E+00 0.  1.
     999901    1    3    3    0    0  0.12886666756E+00  0.26977446045E-01  0.22253364284E-01  0.89007281321E+00  0.88000000000E+00 0.  1.
        -11    1    4    4    0    0 -0.67897024350E-01 -0.28839098504E-01 -0.38841363661E-01  0.83370331474E-01  0.51100000000E-03 0. -1.
         11    1    4    4    0    0 -0.55721233176E-01 -0.23856107288E-02  0.36509677494E-02  0.55893985827E-01  0.51100000000E-03 0.  1.
</event>
<event>
 8    1  0.2927513E+004  0.1043930E+01  0.7957747E-01            NaN
         13   -1    0    0    0    0  0.00000000000E+00  0.00000000000E+00  0.74505805969E-08  0.10566000000E+00  0.10566000000E+00 0.  1.
     999900   -1    0    0    0    0 -0.00000000000E+00 -0.00000000000E+00 -0.74505805969E-08  0.93827000000E+00  0.93827000000E+00 0. -1.
     999902    2    1    2    0    0 -0.12922272402E-01 -0.96628135957E-03 -0.12098861626E-02  0.10309152911E+01  0.10308331362E+01 0.  0.
     999903    2    3    3    0    0  0.69900617014E-01 -0.10462019008E+00 -0.43404909287E-01  0.13996962283E+00  0.43313147339E-01 0.  0.
         14    1    1    2    0    0  0.12922272402E-01  0.96628135957E-03  0.12098861626E-02  0.13014708918E-01  0.00000000000E+00 0.  1.
     999901    1    3    3    0    0 -0.82822889416E-01  0.10365390872E+00  0.42195023125E-01  0.89094566825E+00  0.88000000000E+00 0. -1.
        -11    1    4    4    0    0  0.42213925127E-01 -0.46768862461E-01 -0.87177359709E-03  0.63010817172E-01  0.51100000000E-03 0. -1.
         11    1    4    4    0    0  0.27686691887E-01 -0.57851327622E-01 -0.42533135690E-01  0.76958805656E-01  0.51100000000E-03 0.  1.
</event>
<event>
 8    1  0.2927513E+004  0.1043930E+01  0.7957747E-01            NaN
         13   -1    0    0    0    0  0.00000000000E+00  0.00000000000E+00  0.74505805969E-08  0.10566000000E+00  0.10566000000E+00 0.  1.
     999900   -1    0    0    0    0 -0.00000000000E+00 -0.00000000000E+00 -0.74505805969E-08  0.93827000000E+00  0.93827000000E+00 0. -1.
     999902    2    1    2    0    0  0.10636413405E-01 -0.85312126758E-02 -0.26523475995E-02  0.10300393619E+01  0.10299456962E+01 0.  0.
     999903    2    3    3    0    0  0.72482571036E-01 -0.64378275342E-01 -0.92107451860E-01  0.14158786781E+00  0.46530164224E-01 0.  0.
         14    1    1    2    0    0 -0.10636413405E-01  0.85312126758E-02  0.26523475995E-02  0.13890638129E-01  0.00000000000E+00 0. -1.
     999901    1    3    3    0    0 -0.61846157631E-01  0.55847062666E-01  0.89455104261E-01  0.88845149406E+00  0.88000000000E+00 0.  1.
        -11    1    4    4    0    0  0.64522290813E-01 -0.68675775771E-01 -0.69076830773E-01  0.11683902542E+00  0.51100000000E-03 0. -1.
         11    1    4    4    0    0  0.79602802229E-02  0.42975004290E-02 -0.23030621088E-01  0.24748842394E-01  0.51100000000E-03 0.  1.
</event>
<event>
 8    1  0.2927513E+004  0.1043930E+01  0.7957747E-01            NaN
         13   -1    0    0    0    0  0.00000000000E+00  0.00000000000E+00  0.74505805969E-08  0.10566000000E+00  0.10566000000E+00 0.  1.
     999900   -1    0    0    0    0 -0.00000000000E+00 -0.00000000000E+00 -0.74505805969E-08  0.93827000000E+00  0.93827000000E+00 0. -1.
     999902    2    1    2    0    0 -0.80157086286E-02 -0.40453474135E-02 -0.95387570003E-02  0.10308302173E+01  0.10307469780E+01 0.  0.
     999903    2    3    3    0    0 -0.80109091191E-02 -0.29808361577E-01 -0.13127492019E+00  0.14207635583E+00  0.44719941088E-01 0.  0.
         14    1    1    2    0    0  0.80157086286E-02  0.40453474135E-02  0.95387570003E-02  0.13099782656E-01  0.00000000000E+00 0.  1.
     999901    1    3    3    0    0 -0.47995094318E-05  0.25763014164E-01  0.12173616319E+00  0.88875386151E+00  0.88000000000E+00 0.  1.
        -11    1    4    4    0    0  0.13353281622E-01 -0.20389001172E-01 -0.32783117307E-01  0.40853584913E-01  0.51100000000E-03 0.  1.
         11    1    4    4    0    0 -0.21364190742E-01 -0.94193604052E-02 -0.98491802884E-01  0.10122277092E+00  0.51100000000E-03 0. -1.
</event>
<event>
 8    1  0.2927513E+004  0.1043930E+01  0.7957747E-01            NaN
         13   -1    0    0    0    0  0.00000000000E+00  0.00000000000E+00  0.74505805969E-08  0.10566000000E+00  0.10566000000E+00 0. -1.
     999900   -1    0    0    0    0 -0.00000000000E+00 -0.00000000000E+00 -0.74505805969E-08  0.93827000000E+00  0.93827000000E+00 0.  1.
     999902    2    1    2    0    0  0.21581970400E-02  0.12342071632E-01  0.52725663489E-02  0.10303364536E+01  0.10302467778E+01 0.  0.
     999903    2    3    3    0    0 -0.64891539455E-01 -0.11308698314E+00 -0.13650947059E-01  0.13871645931E+00  0.45346775824E-01 0.  0.
         14    1    1    2    0    0 -0.21581970400E-02 -0.12342071632E-01 -0.52725663489E-02  0.13593546356E-01  0.00000000000E+00 0.  1.
     999901    1    3    3    0    0  0.67049736495E-01  0.12542905477E+00  0.18923513408E-01  0.89161999434E+00  0.88000000000E+00 0. -1.
        -11    1    4    4    0    0 -0.22681577241E-01 -0.16809687684E-01 -0.18027681610E-01  0.33500417482E-01  0.51100000000E-03 0. -1.
         11    1    4    4    0    0 -0.42209962214E-01 -0.96277295457E-01  0.43767345518E-02  0.10521604182E+00  0.51100000000E-03 0.  1.
</event>
<event>
 8    1  0.2927513E+004  0.1043930E+01  0.7957747E-01            NaN
         13   -1    0    0    0    0  0.00000000000E+00  0.00000000000E+00  0.74505805969E-08  0.10566000000E+00  0.10566000000E+00 0. -1.
     999900   -1    0    0    0    0 -0.00000000000E+00 -0.00000000000E+00 -0.74505805969E-08  0.93827000000E+00  0.93827000000E+00 0.  1.
     999902    2    1    2    0    0 -0.55307087579E-02  0.97813510780E-02  0.89622509210E-02  0.10295569172E+01  0.10294565849E+01 0.  0.
     999903    2    3    3    0    0  0.36022080068E-01 -0.31551092640E-01 -0.12109439735E+00  0.13806954378E+00  0.45894271430E-01 0.  0.
         14    1    1    2    0    0  0.55307087579E-02 -0.97813510780E-02 -0.89622509210E-02  0.14373082823E-01  0.00000000000E+00 0.  1.
     999901    1    3    3    0    0 -0.41552788826E-01  0.41332443718E-01  0.13005664828E+00  0.89148737340E+00  0.88000000000E+00 0. -1.
        -11    1    4    4    0    0  0.17705212716E-01 -0.37982285720E-01 -0.54795714769E-01  0.68985216271E-01  0.51100000000E-03 0.  1.
         11    1    4    4    0    0  0.18316867352E-01  0.64311930802E-02 -0.66298682585E-01  0.69084327510E-01  0.51100000000E-03 0. -1.
</event>
<event>
 8    1  0.2927513E+004  0.1043930E+01  0.7957747E-01            NaN
         13   -1    0    0    0    0  0.00000000000E+00  0.00000000000E+00  0.74505805969E-08  0.10566000000E+00  0.10566000000E+00 0.  1.
     999900   -1    0    0    0    0 -0.00000000000E+00 -0.00000000000E+00 -0.74505805969E-08  0.93827000000E+00  0.93827000000E+00 0.  1.
     999902    2    1    2    0    0  0.77984859826E-02 -0.54195216563E-02  0.11280365067E-01  0.10291843486E+01  0.10290787089E+01 0.  0.
     999903    2    3    3    0    0  0.10709121657E+00 -0.70657433610E-01  0.23686909669E-01  0.14111399451E+00  0.53768840106E-01 0.  0.
         14    1    1    2    0    0 -0.77984859826E-02  0.54195216563E-02 -0.11280365067E-01  0.14745651381E-01  0.00000000000E+00 0. -1.
     999901    1    3    3    0    0 -0.99292730583E-01  0.65237911953E-01 -0.12406544602E-01  0.88807035411E+00  0.88000000000E+00 0. -1.
        -11    1    4    4    0    0  0.85910494048E-01 -0.56503746583E-01 -0.47430935274E-02  0.10293708964E+00  0.51100000000E-03 0.  1.
         11    1    4    4    0    0  0.21180722518E-01 -0.14153687027E-01  0.28430003196E-01  0.38176904871E-01  0.51100000000E-03 0. -1.
</event>
<event>
 8    1  0.2927513E+004  0.1043930E+01  0.7957747E-01            NaN
         13   -1    0    0    0    0  0.00000000000E+00  0.00000000000E+00  0.74505805969E-08  0.10566000000E+00  0.10566000000E+00 0. -1.
     999900   -1    0    0    0    0 -0.00000000000E+00 -0.00000000000E+00 -0.74505805969E-08  0.93827000000E+00  0.93827000000E+00 0.  1.
     999902    2    1    2    0    0  0.27175860340E-03  0.13861678685E-01 -0.26696157961E-02  0.10298109761E+01  0.10297141834E+01 0.  0.
     999903    2    3    3    0    0  0.29083294003E-01 -0.63987278403E-01  0.11127306433E+00  0.13859074567E+00  0.43422231073E-01 0.  0.
         14    1    1    2    0    0 -0.27175860340E-03 -0.13861678685E-01  0.26696157961E-02  0.14119023947E-01  0.00000000000E+00 0. -1.
     999901    1    3    3    0    0 -0.28811535400E-01  0.77848957089E-01 -0.11394268013E+00  0.89122023038E+00  0.88000000000E+00 0.  1.
        -11    1    4    4    0    0  0.33907231532E-01 -0.30314758231E-01  0.81724150678E-01  0.93529582710E-01  0.51100000000E-03 0.  1.
         11    1    4    4    0    0 -0.48239375290E-02 -0.33672520172E-01  0.29548913655E-01  0.45061162959E-01  0.51100000000E-03 0. -1.
</event>
<event>
 8    1  0.2927513E+004  0.1043930E+01  0.7957747E-01            NaN
         13   -1    0    0    0    0  0.00000000000E+00  0.00000000000E+00  0.74505805969E-08  0.10566000000E+00  0.10566000000E+00 0.  1.
     999900   -1    0    0    0    0 -0.00000000000E+00 -0.00000000000E+00 -0.74505805969E-08  0.93827000000E+00  0.93827000000E+00 0. -1.
     999902    2    1    2    0    0 -0.56947606623E-02 -0.11980287600E-01 -0.47130216058E-02  0.10298527076E+01  0.10297564902E+01 0.  0.
     999903    2    3    3    0    0 -0.11516947039E-01 -0.95467091960E-01  0.92066510243E-01  0.14060008757E+00  0.45227608834E-01 0.  0.
         14    1    1    2    0    0  0.56947606623E-02  0.11980287600E-01  0.47130216058E-02  0.14077292447E-01  0.00000000000E+00 0.  1.
     999901    1    3    3    0    0  0.58221863762E-02  0.83486804360E-01 -0.96779531849E-01  0.88925261998E+00  0.88000000000E+00 0. -1.
        -11    1    4    4    0    0 -0.22675305089E-01 -0.78388096684E-01  0.55383980014E-01  0.98623067919E-01  0.51100000000E-03 0. -1.
         11    1    4    4    0    0  0.11158358050E-01 -0.17078995276E-01  0.36682530229E-01  0.41977019654E-01  0.51100000000E-03 0.  1.
</event>
<event>
 8    1  0.2927513E+004  0.1043930E+01  0.7957747E-01            NaN
         13   -1    0    0    0    0  0.00000000000E+00  0.00000000000E+00  0.74505805969E-08  0.10566000000E+00  0.10566000000E+00 0.  1.
     999900   -1    0    0    0    0 -0.00000000000E+00 -0.00000000000E+00 -0.74505805969E-08  0.93827000000E+00  0.93827000000E+00 0. -1.
     999902    2    1    2    0    0  0.46962704930E-02  0.89724771116E-02 -0.98922037972E-02  0.10297731643E+01  0.10296758489E+01 0.  0.
     999903    2    3    3    0    0 -0.97987005706E-01 -0.17448253459E-01 -0.87589444321E-01  0.14000984102E+00  0.44999444316E-01 0.  0.
         14    1    1    2    0    0 -0.46962704930E-02 -0.89724771116E-02  0.98922037972E-02  0.14156835735E-01  0.00000000000E+00 0.  1.
     999901    1    3    3    0    0  0.10268327620E+00  0.26420730571E-01  0.77697240524E-01  0.88976332325E+00  0.88000000000E+00 0.  1.
        -11    1    4    4    0    0 -0.77255900931E-02  0.96958128062E-02 -0.21734945598E-01  0.25027235353E-01  0.51100000000E-03 0. -1.
         11    1    4    4    0    0 -0.90261415613E-01 -0.27144066265E-01 -0.65854498723E-01  0.11498260566E+00  0.51100000000E-03 0.  1.
</event>
<event>
 8    1  0.2927513E+004  0.1043930E+01  0.7957747E-01            NaN
         13   -1    0    0    0    0  0.00000000000E+00  0.00000000000E+00  0.74505805969E-08  0.10566000000E+00  0.10566000000E+00 0.  1.
     999900   -1    0    0    0    0 -0.00000000000E+00 -0.00000000000E+00 -0.74505805969E-08  0.93827000000E+00  0.93827000000E+00 0.  1.
     999902    2    1    2    0    0  0.17121382903E-02 -0.29342084742E-02  0.13235832904E-01  0.10302651447E+01  0.10301745193E+01 0.  0.
     999903    2    3    3    0    0 -0.80178811161E-02 -0.66936468342E-01 -0.11237476734E+00  0.13899134536E+00  0.46322009232E-01 0.  0.
         14    1    1    2    0    0 -0.17121382903E-02  0.29342084742E-02 -0.13235832904E-01  0.13664855271E-01  0.00000000000E+00 0.  1.
     999901    1    3    3    0    0  0.97300194064E-02  0.64002259868E-01  0.12561060024E+00  0.89127379937E+00  0.88000000000E+00 0. -1.
        -11    1    4    4    0    0 -0.14983177785E-01 -0.43032434756E-02 -0.40502990920E-01  0.43402383753E-01  0.51100000000E-03 0.  1.
         11    1    4    4    0    0  0.69652966693E-02 -0.62633224867E-01 -0.71871776418E-01  0.95588961609E-01  0.51100000000E-03 0. -1.
</event>
<event>
 8    1  0.2927513E+004  0.1043930E+01  0.7957747E-01            NaN
         13   -1    0    0    0    0  0.00000000000E+00  0.00000000000E+00  0.74505805969E-08  0.10566000000E+00  0.10566000000E+00 0.  1.
     999900   -1    0    0    0    0 -0.00000000000E+00 -0.00000000000E+00 -0.74505805969E-08  0.93827000000E+00  0.93827000000E+00 0.  1.
     999902    2    1    2    0    0  0.19808389414E-01  0.14844428218E-02  0.10825434762E-01  0.10213077565E+01  0.10210571814E+01 0.  0.
     999903    2    3    3    0    0  0.89341339807E-01 -0.40107729522E-01 -0.77992566662E-01  0.13313357465E+00  0.45290211727E-01 0.  0.
         14    1    1    2    0    0 -0.19808389414E-01 -0.14844428218E-02 -0.10825434762E-01  0.22622243467E-01  0.00000000000E+00 0.  1.
     999901    1    3    3    0    0 -0.69532950392E-01  0.41592172344E-01  0.88818001424E-01  0.88817418189E+00  0.88000000000E+00 0. -1.
        -11    1    4    4    0    0  0.31576570871E-01 -0.41677238277E-02 -0.31818147966E-02  0.32013041347E-01  0.51100000000E-03 0.  1.
         11    1    4    4    0    0  0.57764768936E-01 -0.35940005694E-01 -0.74810751865E-01  0.10112053330E+00  0.51100000000E-03 0. -1.
</event>
<event>
 8    1  0.2927513E+004  0.1043930E+01  0.7957747E-01            NaN
         13   -1    0    0    0    0  0.00000000000E+00  0.00000000000E+00  0.74505805969E-08  0.10566000000E+00  0.10566000000E+00 0.  1.
     999900   -1    0    0    0    0 -0.00000000000E+00 -0.00000000000E+00 -0.74505805969E-08  0.93827000000E+00  0.93827000000E+00 0.  1.
     999902    2    1    2    0    0  0.11213623128E-01  0.78989124181E-02  0.82912943796E-03  0.10301886166E+01  0.10300969664E+01 0.  0.
     999903    2    3    3    0    0  0.79103910644E-01  0.10823495760E+00  0.11125622592E-01  0.14182921253E+00  0.44938973308E-01 0.  0.
         14    1    1    2    0    0 -0.11213623128E-01 -0.78989124181E-02 -0.82912943796E-03  0.13741383361E-01  0.00000000000E+00 0. -1.
     999901    1    3    3    0    0 -0.67890287516E-01 -0.10033604518E+00 -0.10296493154E-01  0.88835940411E+00  0.88000000000E+00 0.  1.
        -11    1    4    4    0    0  0.64634627764E-01  0.97414471493E-01 -0.58203972931E-02  0.11705277659E+00  0.51100000000E-03 0.  1.
         11    1    4    4    0    0  0.14469282880E-01  0.10820486109E-01  0.16946019885E-01  0.24776435935E-01  0.51100000000E-03 0. -1.
</event>
<event>
 7    1  0.2927513E+004  0.1043930E+01  0.7957747E-01            NaN
         13   -1    0    0    0    0  0.00000000000E+00  0.00000000000E+00  0.74505805969E-08  0.10566000000E+00  0.10566000000E+00 0.  1.
     999900   -1    0    0    0    0 -0.00000000000E+00 -0.00000000000E+00 -0.74505805969E-08  0.93827000000E+00  0.93827000000E+00 0. -1.
     999903    2    1    2    0    0  0.64806563537E-01 -0.52605317969E-01 -0.63065441023E-03  0.95169899014E-01  0.45713256252E-01 0.  0.
         14    1    1    2    0    0 -0.24996673333E-01 -0.35708636604E-01  0.44587424705E-01  0.62353659456E-01  0.00000000000E+00 0.  1.
     999901    1    1    2    0    0 -0.39809890204E-01  0.88313954573E-01 -0.43956770294E-01  0.88640644153E+00  0.88000000000E+00 0.  1.
        -11    1    3    3    0    0  0.61785718672E-01 -0.23836510247E-01 -0.10760177257E-02  0.66234984620E-01  0.51100000000E-03 0.  1.
         11    1    3    3    0    0  0.30208448658E-02 -0.28768807723E-01  0.44536331548E-03  0.28934914394E-01  0.51100000000E-03 0. -1.
</event>
<event>
 8    1  0.2927513E+004  0.1043930E+01  0.7957747E-01            NaN
         13   -1    0    0    0    0  0.00000000000E+00  0.00000000000E+00  0.74505805969E-08  0.10566000000E+00  0.10566000000E+00 0. -1.
     999900   -1    0    0    0    0 -0.00000000000E+00 -0.00000000000E+00 -0.74505805969E-08  0.93827000000E+00  0.93827000000E+00 0.  1.
     999902    2    1    2    0    0  0.10423400882E-01 -0.53496980615E-02 -0.26510336113E-02  0.10319177340E+01  0.10318478159E+01 0.  0.
     999903    2    3    3    0    0 -0.11330991037E+00 -0.60619768222E-01 -0.37471886572E-01  0.14086374867E+00  0.43869822417E-01 0.  0.
         14    1    1    2    0    0 -0.10423400882E-01  0.53496980615E-02  0.26510336113E-02  0.12012266003E-01  0.00000000000E+00 0.  1.
     999901    1    3    3    0    0  0.12373331125E+00  0.55270070160E-01  0.34820852960E-01  0.89105398533E+00  0.88000000000E+00 0. -1.
        -11    1    4    4    0    0 -0.27976067720E-01  0.41783472860E-02 -0.37794408274E-02  0.28542323751E-01  0.51100000000E-03 0. -1.
         11    1    4    4    0    0 -0.85333842648E-01 -0.64798115508E-01 -0.33692445744E-01  0.11232142492E+00  0.51100000000E-03 0.  1.
</event>
<event>
 8    1  0.2927513E+004  0.1043930E+01  0.7957747E-01            NaN
         13   -1    0    0    0    0  0.00000000000E+00  0.00000000000E+00  0.74505805969E-08  0.10566000000E+00  0.10566000000E+00 0.  1.
     999900   -1    0    0    0    0 -0.00000000000E+00 -0.00000000000E+00 -0.74505805969E-08  0.93827000000E+00  0.93827000000E+00 0. -1.
     999902    2    1    2    0    0  0.10321830114E-01  0.53829680312E-02  0.72447833567E-02  0.10302185665E+01  0.10301273181E+01 0.  0.
     999903    2    3    3    0    0 -0.11770118877E+00  0.14685127512E-01  0.58194818816E-01  0.13944792847E+00  0.44607902969E-01 0.  0.
         14    1    1    2    0    0 -0.10321830114E-01 -0.53829680312E-02 -0.72447833567E-02  0.13711433463E-01  0.00000000000E+00 0. -1.
     999901    1    3    3    0    0  0.12802301889E+00 -0.93021594804E-02 -0.50950035460E-01  0.89077063807E+00  0.88000000000E+00 0.  1.
        -11    1    4    4    0    0 -0.95750471282E-01 -0.29864569151E-02  0.32087107415E-01  0.10102927922E+00  0.51100000000E-03 0. -1.
         11    1    4    4    0    0 -0.21950717493E-01  0.17671584427E-01  0.26107711401E-01  0.38418649250E-01  0.51100000000E-03 0.  1.
</event>
<event>
 8    1  0.2927513E+004  0.1043930E+01  0.7957747E-01            NaN
         13   -1    0    0    0    0  0.00000000000E+00  0.00000000000E+00  0.74505805969E-08  0.10566000000E+00  0.10566000000E+00 0.  1.
     999900   -1    0    0    0    0 -0.00000000000E+00 -0.00000000000E+00 -0.74505805969E-08  0.93827000000E+00  0.93827000000E+00 0. -1.
     999902    2    1    2    0    0  0.75415062868E-02 -0.27422207148E-02 -0.14854301103E-01  0.10270467434E+01  0.10269079651E+01 0.  0.
     999903    2    3    3    0    0  0.68664818762E-02  0.12851051555E+00 -0.17647255684E-01  0.13730771593E+00  0.44495865432E-01 0.  0.
         14    1    1    2    0    0 -0.75415062868E-02  0.27422207148E-02  0.14854301103E-01  0.16883256581E-01  0.00000000000E+00 0.  1.
     999901    1    3    3    0    0  0.67502441056E-03 -0.13125273627E+00  0.27929545816E-02  0.88973902749E+00  0.88000000000E+00 0. -1.
        -11    1    4    4    0    0  0.17990202740E-01  0.10243719743E+00 -0.17827952339E-03  0.10400634459E+00  0.51100000000E-03 0. -1.
         11    1    4    4    0    0 -0.11123720864E-01  0.26073318128E-01 -0.17468976161E-01  0.33301371341E-01  0.51100000000E-03 0.  1.
</event>
<event>
 8    1  0.2927513E+004  0.1043930E+01  0.7957747E-01            NaN
         13   -1    0    0    0    0  0.00000000000E+00  0.00000000000E+00  0.74505805969E-08  0.10566000000E+00  0.10566000000E+00 0.  1.
     999900   -1    0    0    0    0 -0.00000000000E+00 -0.00000000000E+00 -0.74505805969E-08  0.93827000000E+00  0.93827000000E+00 0. -1.
     999902    2    1    2    0    0 -0.11788909621E-01  0.12226289932E-02  0.12905309323E-01  0.10264080075E+01  0.10262584361E+01 0.  0.
     999903    2    3    3    0    0 -0.44501876476E-01  0.10135726659E+00  0.69494144075E-01  0.13832052305E+00  0.45270504043E-01 0.  0.
         14    1    1    2    0    0  0.11788909621E-01 -0.12226289932E-02 -0.12905309323E-01  0.17521992479E-01  0.00000000000E+00 0. -1.
     999901    1    3    3    0    0  0.32712966855E-01 -0.10013463760E+00 -0.56588834752E-01  0.88808748447E+00  0.88000000000E+00 0.  1.
        -11    1    4    4    0    0 -0.43109779019E-03  0.50119955304E-01  0.17650902197E-01  0.53141426725E-01  0.51100000000E-03 0.  1.
         11    1    4    4    0    0 -0.44070778686E-01  0.51237311288E-01  0.51843241879E-01  0.85179096330E-01  0.51100000000E-03 0. -1.
</event>
<event>
 8    1  0.2927513E+004  0.1043930E+01  0.7957747E-01            NaN
         13   -1    0    0    0    0  0.00000000000E+00  0.00000000000E+00  0.74505805969E-08  0.10566000000E+00  0.10566000000E+00 0.  1.
     999900   -1    0    0    0    0 -0.00000000000E+00 -0.00000000000E+00 -0.74505805969E-08  0.93827000000E+00  0.93827000000E+00 0. -1.
     999902    2    1    2    0    0  0.70362779961E-02  0.33145989299E-02 -0.88143154188E-02  0.10321746637E+01  0.10321077214E+01 0.  0.
     999903    2    3    3    0    0  0.11550151453E+00  0.60934254532E-01 -0.37509486618E-01  0.14318189376E+00  0.45172003258E-01 0.  0.
         14    1    1    2    0    0 -0.70362779961E-02 -0.33145989299E-02  0.88143154188E-02  0.11755336252E-01  0.00000000000E+00 0.  1.
     999901    1    3    3    0    0 -0.10846523654E+00 -0.57619655602E-01  0.28695171200E-01  0.88899276999E+00  0.88000000000E+00 0. -1.
        -11    1    4    4    0    0  0.91630758884E-01  0.44931532285E-01 -0.47743971610E-01  0.11267114321E+00  0.51100000000E-03 0.  1.
         11    1    4    4    0    0  0.23870755648E-01  0.16002722246E-01  0.10234484991E-01  0.30510750541E-01  0.51100000000E-03 0. -1.
</event>
<event>
 8    1  0.2927513E+004  0.1043930E+01  0.7957747E-01            NaN
         13   -1    0    0    0    0  0.00000000000E+00  0.00000000000E+00  0.74505805969E-08  0.10566000000E+00  0.10566000000E+00 0.  1.
     999900   -1    0    0    0    0 -0.00000000000E+00 -0.00000000000E+00 -0.74505805969E-08  0.93827000000E+00  0.93827000000E+00 0. -1.
     999902    2    1    2    0    0  0.85799609238E-02 -0.94151241696E-02 -0.47028888531E-02  0.10303514339E+01  0.10302619570E+01 0.  0.
     999903    2    3    3    0    0 -0.11711215910E+00 -0.33515898365E-01  0.51074624968E-01  0.13934610994E+00  0.44386346866E-01 0.  0.
         14    1    1    2    0    0 -0.85799609238E-02  0.94151241696E-02  0.47028888531E-02  0.13578566056E-01  0.00000000000E+00 0. -1.
     999901    1    3    3    0    0  0.12569212002E+00  0.24100774196E-01 -0.55777513821E-01  0.89100532400E+00  0.88000000000E+00 0. -1.
        -11    1    4    4    0    0 -0.57079118746E-01 -0.31447794601E-01  0.44504505384E-01  0.78917055841E-01  0.51100000000E-03 0. -1.
         11    1    4    4    0    0 -0.60033040352E-01 -0.20681037646E-02  0.65701195840E-02  0.60429054101E-01  0.51100000000E-03 0.  1.
</event>
<event>
 8    1  0.2927513E+004  0.1043930E+01  0.7957747E-01            NaN
         13   -1    0    0    0    0  0.00000000000E+00  0.00000000000E+00  0.74505805969E-08  0.10566000000E+00  0.10566000000E+00 0. -1.
     999900   -1    0    0    0    0 -0.00000000000E+00 -0.00000000000E+00 -0.74505805969E-08  0.93827000000E+00  0.93827000000E+00 0.  1.
     999902    2    1    2    0    0 -0.48618450830E-03 -0.14327328552E-01  0.35954113726E-02  0.10291504296E+01  0.10290442998E+01 0.  0.
     999903    2    3    3    0    0 -0.74040201193E-01 -0.10387954539E+00  0.39641581741E-01  0.14082103161E+00  0.44566765606E-01 0.  0.
         14    1    1    2    0    0  0.48618450830E-03  0.14327328552E-01 -0.35954113726E-02  0.14779570419E-01  0.00000000000E+00 0.  1.
     999901    1    3    3    0    0  0.73554016684E-01  0.89552216836E-01 -0.36046170368E-01  0.88832939798E+00  0.88000000000E+00 0.  1.
        -11    1    4    4    0    0 -0.15201530280E-01 -0.22352271010E-02 -0.33830464349E-02  0.15741311484E-01  0.51100000000E-03 0.  1.
         11    1    4    4    0    0 -0.58838670913E-01 -0.10164431829E+00  0.43024628176E-01  0.12507972012E+00  0.51100000000E-03 0. -1.
</event>
<event>
 8    1  0.2927513E+004  0.1043930E+01  0.7957747E-01            NaN
         13   -1    0    0    0    0  0.00000000000E+00  0.00000000000E+00  0.74505805969E-08  0.10566000000E+00  0.10566000000E+00 0.  1.
     999900   -1    0    0    0    0 -0.00000000000E+00 -0.00000000000E+00 -0.74505805969E-08  0.93827000000E+00  0.93827000000E+00 0. -1.
     999902    2    1    2    0    0 -0.38571743485E-02 -0.12774675060E-01 -0.37285839322E-02  0.10300745875E+01  0.10299813995E+01 0.  0.
     999903    2    3    3    0    0  0.42348430248E-01 -0.61533801010E-01 -0.11023483171E+00  0.14111115122E+00  0.46699471792E-01 0.  0.
         14    1    1    2    0    0  0.38571743485E-02  0.12774675060E-01  0.37285839322E-02  0.13855412480E-01  0.00000000000E+00 0. -1.
     999901    1    3    3    0    0 -0.46205604596E-01  0.48759125949E-01  0.10650624778E+00  0.88896343630E+00  0.88000000000E+00 0.  1.
        -11    1    4    4    0    0  0.29520569087E-01 -0.61570912209E-01 -0.65684228921E-01  0.94747666353E-01  0.51100000000E-03 0. -1.
         11    1    4    4    0    0  0.12827861161E-01  0.37111198991E-04 -0.44550602790E-01  0.46363484868E-01  0.51100000000E-03 0.  1.
</event>
<event>
 8    1  0.2927513E+004  0.1043930E+01  0.7957747E-01            NaN
         13   -1    0    0    0    0  0.00000000000E+00  0.00000000000E+00  0.74505805969E-08  0.10566000000E+00  0.10566000000E+00 0. -1.
     999900   -1    0    0    0    0 -0.00000000000E+00 -0.00000000000E+00 -0.74505805969E-08  0.93827000000E+00  0.93827000000E+00 0.  1.
     999902    2    1    2    0    0  0.15412085860E-02  0.99961634236E-02  0.91818978858E-02  0.10302696246E+01  0.10301790590E+01 0.  0.
     999903    2    3    3    0    0 -0.36691659071E-01  0.48250500420E-01  0.11955415094E+00  0.14172745863E+00  0.46033562615E-01 0.  0.
         14    1    1    2    0    0 -0.15412085860E-02 -0.99961634236E-02 -0.91818978858E-02  0.13660375393E-01  0.00000000000E+00 0.  1.
     999901    1    3    3    0    0  0.38232867657E-01 -0.38254336997E-01 -0.11037225306E+00  0.88854216597E+00  0.88000000000E+00 0.  1.
        -11    1    4    4    0    0 -0.75543794734E-02  0.45981262477E-01  0.67409201680E-01  0.81948805606E-01  0.51100000000E-03 0.  1.
         11    1    4    4    0    0 -0.29137279597E-01  0.22692379439E-02  0.52144949262E-01  0.59778653027E-01  0.51100000000E-03 0. -1.
</event>
<event>
 8    1  0.2927513E+004  0.1043930E+01  0.7957747E-01            NaN
         13   -1    0    0    0    0  0.00000000000E+00  0.00000000000E+00  0.74505805969E-08  0.10566000000E+00  0.10566000000E+00 0.  1.
     999900   -1    0    0    0    0 -0.00000000000E+00 -0.00000000000E+00 -0.74505805969E-08  0.93827000000E+00  0.93827000000E+00 0. -1.
     999902    2    1    2    0    0  0.12803917774E-01 -0.32518581727E-02  0.14680633531E-02  0.10306382694E+01  0.10305525568E+01 0.  0.
     999903    2    3    3    0    0 -0.61080516861E-01  0.85465647961E-01 -0.81837577638E-01  0.13919587902E+00  0.40532667080E-01 0.  0.
         14    1    1    2    0    0 -0.12803917774E-01  0.32518581727E-02 -0.14680633531E-02  0.13291730585E-01  0.00000000000E+00 0.  1.
     999901    1    3    3    0    0  0.73884434635E-01 -0.88717506134E-01  0.83305640991E-01  0.89144239040E+00  0.88000000000E+00 0.  1.
        -11    1    4    4    0    0 -0.57774008769E-01  0.67735147848E-01 -0.82164796009E-01  0.12114949925E+00  0.51100000000E-03 0.  1.
         11    1    4    4    0    0 -0.33065080918E-02  0.17730500113E-01  0.32721837176E-03  0.18046379772E-01  0.51100000000E-03 0. -1.
</event>
<event>
 8    1  0.2927513E+004  0.1043930E+01  0.7957747E-01            NaN
         13   -1    0    0    0    0  0.00000000000E+00  0.00000000000E+00  0.74505805969E-08  0.10566000000E+00  0.10566000000E+00 0.  1.
     999900   -1    0    0    0    0 -0.00000000000E+00 -0.00000000000E+00 -0.74505805969E-08  0.93827000000E+00  0.93827000000E+00 0.  1.
     999902    2    1    2    0    0 -0.36247282723E-02  0.76004313554E-02 -0.11886763839E-01  0.10293629012E+01  0.10292598224E+01 0.  0.
     999903    2    3    3    0    0  0.17288186268E-01  0.26511133290E-01 -0.12973728188E+00  0.14105906288E+00  0.45433196416E-01 0.  0.
         14    1    1    2    0    0  0.36247282723E-02 -0.76004313554E-02  0.11886763839E-01  0.14567098764E-01  0.00000000000E+00 0.  1.
     999901    1    3    3    0    0 -0.20912914540E-01 -0.18910701934E-01  0.11785051804E+00  0.88830383836E+00  0.88000000000E+00 0. -1.
        -11    1    4    4    0    0 -0.11038124761E-01 -0.49721217120E-02 -0.19412597702E-01  0.22883886538E-01  0.51100000000E-03 0.  1.
         11    1    4    4    0    0  0.28326311029E-01  0.31483255002E-01 -0.11032468418E+00  0.11817517634E+00  0.51100000000E-03 0. -1.
</event>
<event>
 8    1  0.2927513E+004  0.1043930E+01  0.7957747E-01            NaN
         13   -1    0    0    0    0  0.00000000000E+00  0.00000000000E+00  0.74505805969E-08  0.10566000000E+00  0.10566000000E+00 0. -1.
     999900   -1    0    0    0    0 -0.00000000000E+00 -0.00000000000E+00 -0.74505805969E-08  0.93827000000E+00  0.93827000000E+00 0.  1.
     999902    2    1    2    0    0 -0.38793371309E-04  0.13201506612E-01 -0.51740344145E-02  0.10297507224E+01  0.10296530961E+01 0.  0.
     999903    2    3    3    0    0  0.16036102535E-01 -0.29806971862E-01  0.12699436845E+00  0.13869706618E+00  0.44313591521E-01 0.  0.
         14    1    1    2    0    0  0.38793371309E-04 -0.13201506612E-01  0.51740344145E-02  0.14179277622E-01  0.00000000000E+00 0. -1.
     999901    1    3    3    0    0 -0.16074895906E-01  0.43008478474E-01 -0.13216840287E+00  0.89105365619E+00  0.88000000000E+00 0.  1.
        -11    1    4    4    0    0 -0.10552359893E-01 -0.57474419957E-02  0.72304309425E-01  0.73297746700E-01  0.51100000000E-03 0. -1.
         11    1    4    4    0    0  0.26588462428E-01 -0.24059529866E-01  0.54690059027E-01  0.65399319485E-01  0.51100000000E-03 0.  1.
</event>
<event>
 8    1  0.2927513E+004  0.1043930E+01  0.7957747E-01            NaN
         13   -1    0    0    0    0  0.00000000000E+00  0.00000000000E+00  0.74505805969E-08  0.10566000000E+00  0.10566000000E+00 0.  1.
     999900   -1    0    0    0    0 -0.00000000000E+00 -0.00000000000E+00 -0.74505805969E-08  0.93827000000E+00  0.93827000000E+00 0.  1.
     999902    2    1    2    0    0 -0.62156277304E-03  0.27648040511E-02 -0.12141770146E-01  0.10314619182E+01  0.10313865597E+01 0.  0.
     999903    2    3    3    0    0 -0.33364454244E-01  0.68643606735E-01  0.10790658111E+00  0.14026961558E+00  0.46974495821E-01 0.  0.
         14    1    1    2    0    0  0.62156277304E-03 -0.27648040511E-02  0.12141770146E-01  0.12468081809E-01  0.00000000000E+00 0.  1.
     999901    1    3    3    0    0  0.32742891471E-01 -0.65878802684E-01 -0.12004835125E+00  0.89119230261E+00  0.88000000000E+00 0.  1.
        -11    1    4    4    0    0 -0.35021827599E-01  0.71598836164E-01  0.82800853487E-01  0.11493112811E+00  0.51100000000E-03 0.  1.
         11    1    4    4    0    0  0.16573733551E-02 -0.29552294298E-02  0.25105727619E-01  0.25338487479E-01  0.51100000000E-03 0. -1.
</event>
<event>
 8    1  0.2927513E+004  0.1043930E+01  0.7957747E-01            NaN
         13   -1    0    0    0    0  0.00000000000E+00  0.00000000000E+00  0.74505805969E-08  0.10566000000E+00  0.10566000000E+00 0. -1.
     999900   -1    0    0    0    0 -0.00000000000E+00 -0.00000000000E+00 -0.74505805969E-08  0.93827000000E+00  0.93827000000E+00 0.  1.
     999902    2    1    2    0    0  0.52848871929E-02  0.11968142373E-01  0.78292368122E-02  0.10286832491E+01  0.10285702521E+01 0.  0.
     999903    2    3    3    0    0  0.21533654414E-02 -0.12375264820E+00 -0.37145209374E-01  0.13713816316E+00  0.45910285287E-01 0.  0.
         14    1    1    2    0    0 -0.52848871929E-02 -0.11968142373E-01 -0.78292368122E-02  0.15246750918E-01  0.00000000000E+00 0.  1.
     999901    1    3    3    0    0  0.31315217515E-02  0.13572079058E+00  0.44974446186E-01  0.89154508592E+00  0.88000000000E+00 0. -1.
        -11    1    4    4    0    0 -0.18781056132E-01 -0.35847652181E-01 -0.31673656111E-02  0.40596496921E-01  0.51100000000E-03 0.  1.
         11    1    4    4    0    0  0.20934421573E-01 -0.87904996023E-01 -0.33977843763E-01  0.96541666239E-01  0.51100000000E-03 0. -1.
</event>
<event>
 8    1  0.2927513E+004  0.1043930E+01  0.7957747E-01            NaN
         13   -1    0    0    0    0  0.00000000000E+00  0.00000000000E+00  0.74505805969E-08  0.10566000000E+00  0.10566000000E+00 0.  1.
     999900   -1    0    0    0    0 -0.00000000000E+00 -0.00000000000E+00 -0.74505805969E-08  0.93827000000E+00  0.93827000000E+00 0. -1.
     999902    2    1    2    0    0  0.34361659376E-02 -0.24156883285E-02  0.13446872890E-01  0.10298423750E+01  0.10297460154E+01 0.  0.
     999903    2    3    3    0    0 -0.11489296912E+00  0.61953054504E-01 -0.15981511670E-01  0.13910607901E+00  0.45348838858E-01 0.  0.
         14    1    1    2    0    0 -0.34361659376E-02  0.24156883285E-02 -0.13446872890E-01  0.14087624958E-01  0.00000000000E+00 0. -1.
     999901    1    3    3    0    0  0.11832913506E+00 -0.64368742832E-01  0.29428384560E-01  0.89073629604E+00  0.88000000000E+00 0. -1.
        -11    1    4    4    0    0 -0.30204243258E-01  0.32062301974E-01 -0.21714749713E-01  0.49112920853E-01  0.51100000000E-03 0. -1.
         11    1    4    4    0    0 -0.84688725862E-01  0.29890752530E-01  0.57332380429E-02  0.89993158153E-01  0.51100000000E-03 0.  1.
</event>
<event>
 8    1  0.2927513E+004  0.1043930E+01  0.7957747E-01            NaN
         13   -1    0    0    0    0  0.00000000000E+00  0.00000000000E+00  0.74505805969E-08  0.10566000000E+00  0.10566000000E+00 0.  1.
     999900   -1    0    0    0    0 -0.00000000000E+00 -0.00000000000E+00 -0.74505805969E-08  0.93827000000E+00  0.93827000000E+00 0.  1.
     999902    2    1    2    0    0 -0.22725492918E-02 -0.10609841571E-01 -0.68663202236E-02  0.10310894559E+01  0.10310094988E+01 0.  0.
     999903    2    3    3    0    0 -0.61320417168E-01 -0.11994191609E+00  0.48915550422E-02  0.14228216476E+00  0.45541522823E-01 0.  0.
         14    1    1    2    0    0  0.22725492918E-02  0.10609841571E-01  0.68663202236E-02  0.12840544064E-01  0.00000000000E+00 0. -1.
     999901    1    3    3    0    0  0.59047867876E-01  0.10933207452E+00 -0.11757875266E-01  0.88880729118E+00  0.88000000000E+00 0. -1.
        -11    1    4    4    0    0 -0.49984690936E-01 -0.47975248608E-01  0.44102995557E-02  0.69424820274E-01  0.51100000000E-03 0. -1.
         11    1    4    4    0    0 -0.11335726232E-01 -0.71966667481E-01  0.48125548651E-03  0.72857344485E-01  0.51100000000E-03 0.  1.
</event>
<event>
 8    1  0.2927513E+004  0.1043930E+01  0.7957747E-01            NaN
         13   -1    0    0    0    0  0.00000000000E+00  0.00000000000E+00  0.74505805969E-08  0.10566000000E+00  0.10566000000E+00 0.  1.
     999900   -1    0    0    0    0 -0.00000000000E+00 -0.00000000000E+00 -0.74505805969E-08  0.93827000000E+00  0.93827000000E+00 0. -1.
     999902    2    1    2    0    0  0.79460436189E-02 -0.98368518894E-02  0.58782675727E-02  0.10299852055E+01  0.10298908031E+01 0.  0.
     999903    2    3    3    0    0  0.11553795182E+00  0.64820683615E-01  0.21371583266E-02  0.14028651368E+00  0.46097712943E-01 0.  0.
         14    1    1    2    0    0 -0.79460436189E-02  0.98368518894E-02 -0.58782675727E-02  0.13944794511E-01  0.00000000000E+00 0. -1.
     999901    1    3    3    0    0 -0.10759190820E+00 -0.74657535505E-01  0.37411092461E-02  0.88969869181E+00  0.88000000000E+00 0. -1.
        -11    1    4    4    0    0  0.30945709147E-01  0.75358057136E-03 -0.12058844730E-01  0.33224714529E-01  0.51100000000E-03 0.  1.
         11    1    4    4    0    0  0.84592242672E-01  0.64067103044E-01  0.14196003057E-01  0.10706179915E+00  0.51100000000E-03 0. -1.
</event>
<event>
 8    1  0.2927513E+004  0.1043930E+01  0.7957747E-01            NaN
         13   -1    0    0    0    0  0.00000000000E+00  0.00000000000E+00  0.74505805969E-08  0.10566000000E+00  0.10566000000E+00 0.  1.
     999900   -1    0    0    0    0 -0.00000000000E+00 -0.00000000000E+00 -0.74505805969E-08  0.93827000000E+00  0.93827000000E+00 0.  1.
     999902    2    1    2    0    0  0.31979420184E-02  0.11039089568E-01  0.84223754005E-02  0.10296813250E+01  0.10295827341E+01 0.  0.
     999903    2    3    3    0    0  0.56226450032E-01 -0.11513025304E+00 -0.26507112223E-01  0.13841773056E+00  0.45171365785E-01 0.  0.
         14    1    1    2    0    0 -0.31979420184E-02 -0.11039089568E-01 -0.84223754005E-02  0.14248674992E-01  0.00000000000E+00 0. -1.
     999901    1    3    3    0    0 -0.53028508013E-01  0.12616934261E+00  0.34929487623E-01  0.89126359444E+00  0.88000000000E+00 0.  1.
        -11    1    4    4    0    0  0.39615603251E-01 -0.10492908814E+00 -0.34496397065E-01  0.11734467218E+00  0.51100000000E-03 0.  1.
         11    1    4    4    0    0  0.16610846781E-01 -0.10201164906E-01  0.79892848424E-02  0.21073058381E-01  0.51100000000E-03 0. -1.
</event>
<event>
 8    1  0.2927513E+004  0.1043930E+01  0.7957747E-01            NaN
         13   -1    0    0    0    0  0.00000000000E+00  0.00000000000E+00  0.74505805969E-08  0.10566000000E+00  0.10566000000E+00 0. -1.
     999900   -1    0    0    0    0 -0.00000000000E+00 -0.00000000000E+00 -0.74505805969E-08  0.93827000000E+00  0.93827000000E+00 0. -1.
     999902    2    1    2    0    0  0.12404812932E-01 -0.44733323971E-02 -0.32050022310E-02  0.10303593653E+01  0.10302699935E+01 0.  0.
     999903    2    3    3    0    0 -0.48559790332E-01 -0.59351208728E-01 -0.10796231552E+00  0.14035804011E+00  0.46517723904E-01 0.  0.
         14    1    1    2    0    0 -0.12404812932E-01  0.44733323971E-02  0.32050022310E-02  0.13570634691E-01  0.00000000000E+00 0. -1.
     999901    1    3    3    0    0  0.60964603264E-01  0.54877876330E-01  0.10475731329E+00  0.89000132520E+00  0.88000000000E+00 0.  1.
        -11    1    4    4    0    0 -0.30735241498E-01 -0.53615713406E-02 -0.51581316405E-01  0.60285112924E-01  0.51100000000E-03 0. -1.
         11    1    4    4    0    0 -0.17824548834E-01 -0.53989637387E-01 -0.56380999117E-01  0.80072927190E-01  0.51100000000E-03 0.  1.
</event>
<event>
 8    1  0.2927513E+004  0.1043930E+01  0.7957747E-01            NaN
         13   -1    0    0    0    0  0.00000000000E+00  0.00000000000E+00  0.74505805969E-08  0.10566000000E+00  0.10566000000E+00 0.  1.
     999900   -1    0    0    0    0 -0.00000000000E+00 -0.00000000000E+00 -0.74505805969E-08  0.93827000000E+00  0.93827000000E+00 0. -1.
     999902    2    1    2    0    0  0.97765784375E-02 -0.90828656672E-02  0.34817739732E-02  0.10301386011E+01  0.10300462779E+01 0.  0.
     999903    2    3    3    0    0  0.98206365506E-01 -0.60967469527E-01  0.69067384720E-01  0.14176181630E+00  0.44323654673E-01 0.  0.
         14    1    1    2    0    0 -0.97765784375E-02  0.90828656672E-02 -0.34817739732E-02  0.13791398938E-01  0.00000000000E+00 0. -1.
     999901    1    3    3    0    0 -0.88429787068E-01  0.51884603860E-01 -0.65585610747E-01  0.88837678476E+00  0.88000000000E+00 0. -1.
        -11    1    4    4    0    0  0.34831849163E-01 -0.39365170514E-01  0.49000831056E-01  0.71862486256E-01  0.51100000000E-03 0. -1.
         11    1    4    4    0    0  0.63374516343E-01 -0.21602299013E-01  0.20066553664E-01  0.69899330049E-01  0.51100000000E-03 0.  1.
</event>
<event>
 8    1  0.2927513E+004  0.1043930E+01  0.7957747E-01            NaN
         13   -1    0    0    0    0  0.00000000000E+00  0.00000000000E+00  0.74505805969E-08  0.10566000000E+00  0.10566000000E+00 0. -1.
     999900   -1    0    0    0    0 -0.00000000000E+00 -0.00000000000E+00 -0.74505805969E-08  0.93827000000E+00  0.93827000000E+00 0.  1.
     999902    2    1    2    0    0  0.38874381000E-02 -0.13264216995E-01  0.17913719348E-02  0.10299922584E+01  0.10298979521E+01 0.  0.
     999903    2    3    3    0    0  0.51021783564E-03  0.30061637671E-01 -0.12975533449E+00  0.13915384922E+00  0.40291246459E-01 0.  0.
         14    1    1    2    0    0 -0.38874381000E-02  0.13264216995E-01 -0.17913719348E-02  0.13937741599E-01  0.00000000000E+00 0. -1.
     999901    1    3    3    0    0  0.33772202644E-02 -0.43325854666E-01  0.13154670643E+00  0.89083840918E+00  0.88000000000E+00 0. -1.
        -11    1    4    4    0    0  0.59161144472E-02  0.38286682152E-01 -0.86353079015E-01  0.94646636584E-01  0.51100000000E-03 0. -1.
         11    1    4    4    0    0 -0.54058966115E-02 -0.82250444807E-02 -0.43402255480E-01  0.44507212636E-01  0.51100000000E-03 0.  1.
</event>
<event>
 8    1  0.2927513E+004  0.1043930E+01  0.7957747E-01            NaN
         13   -1    0    0    0    0  0.00000000000E+00  0.00000000000E+00  0.74505805969E-08  0.10566000000E+00  0.10566000000E+00 0. -1.
     999900   -1    0    0    0    0 -0.00000000000E+00 -0.00000000000E+00 -0.74505805969E-08  0.93827000000E+00  0.93827000000E+00 0.  1.
     999902    2    1    2    0    0 -0.92719987215E-02 -0.11149819511E-01  0.16564428985E-01  0.10219148065E+01  0.10216776415E+01 0.  0.
     999903    2    3    3    0    0  0.12242140648E+00  0.25501553236E-02  0.19373794782E-01  0.13200540957E+00  0.45349533358E-01 0.  0.
         14    1    1    2    0    0  0.92719987215E-02  0.11149819511E-01 -0.16564428985E-01  0.22015193459E-01  0.00000000000E+00 0.  1.
     999901    1    3    3    0    0 -0.13169340520E+00 -0.13699974835E-01 -0.28093657975E-02  0.88990939697E+00  0.88000000000E+00 0. -1.
        -11    1    4    4    0    0  0.63658413460E-01  0.15580747363E-01  0.27864589712E-01  0.71216920556E-01  0.51100000000E-03 0. -1.
         11    1    4    4    0    0  0.58762993015E-01 -0.13030592040E-01 -0.84907949297E-02  0.60788489013E-01  0.51100000000E-03 0.  1.
</event>
<event>
 8    1  0.2927513E+004  0.1043930E+01  0.7957747E-01            NaN
         13   -1    0    0    0    0  0.00000000000E+00  0.00000000000E+00  0.74505805969E-08  0.10566000000E+00  0.10566000000E+00 0.  1.
     999900   -1    0    0    0    0 -0.00000000000E+00 -0.00000000000E+00 -0.74505805969E-08  0.93827000000E+00  0.93827000000E+00 0.  1.
     999902    2    1    2    0    0 -0.11319159418E-02 -0.66813355451E-03 -0.13192043820E-01  0.10306726377E+01  0.10305873706E+01 0.  0.
     999903    2    3    3    0    0  0.84147014181E-01  0.95334710636E-01 -0.40158542153E-01  0.14094445779E+00  0.45642136524E-01 0.  0.
         14    1    1    2    0    0  0.11319159418E-02  0.66813355451E-03  0.13192043820E-01  0.13257362343E-01  0.00000000000E+00 0.  1.
     999901    1    3    3    0    0 -0.85278930122E-01 -0.96002844191E-01  0.26966498333E-01  0.88972817987E+00  0.88000000000E+00 0. -1.
        -11    1    4    4    0    0 -0.26452220006E-02  0.19733240410E-01 -0.41898989712E-02  0.20352256654E-01  0.51100000000E-03 0. -1.
         11    1    4    4    0    0  0.86792236181E-01  0.75601470226E-01 -0.35968643182E-01  0.12059220114E+00  0.51100000000E-03 0.  1.
</event>
<event>
 8    1  0.2927513E+004  0.1043930E+01  0.7957747E-01            NaN
         13   -1    0    0    0    0  0.00000000000E+00  0.00000000000E+00  0.74505805969E-08  0.10566000000E+00  0.10566000000E+00 0.  1.
     999900   -1    0    0    0    0 -0.00000000000E+00 -0.00000000000E+00 -0.74505805969E-08  0.93827000000E+00  0.93827000000E+00 0. -1.
     999902    2    1    2    0    0  0.47631703761E-02  0.70703357094E-02 -0.10483143077E-01  0.10304180154E+01  0.10303294195E+01 0.  0.
     999903    2    3    3    0    0  0.16011621645E-01 -0.13109707352E+00  0.53525585134E-02  0.13942557431E+00  0.44362441064E-01 0.  0.
         14    1    1    2    0    0 -0.47631703761E-02 -0.70703357094E-02  0.10483143077E-01  0.13511984601E-01  0.00000000000E+00 0. -1.
     999901    1    3    3    0    0 -0.11248451269E-01  0.13816740923E+00 -0.15835701591E-01  0.89099244109E+00  0.88000000000E+00 0. -1.
        -11    1    4    4    0    0 -0.13037537973E-01 -0.64281051470E-01  0.10312196418E-01  0.66397541298E-01  0.51100000000E-03 0.  1.
         11    1    4    4    0    0  0.29049159618E-01 -0.66816022048E-01 -0.49596379049E-02  0.73028033014E-01  0.51100000000E-03 0. -1.
</event>
<event>
 8    1  0.2927513E+004  0.1043930E+01  0.7957747E-01            NaN
         13   -1    0    0    0    0  0.00000000000E+00  0.00000000000E+00  0.74505805969E-08  0.10566000000E+00  0.10566000000E+00 0.  1.
     999900   -1    0    0    0    0 -0.00000000000E+00 -0.00000000000E+00 -0.74505805969E-08  0.93827000000E+00  0.93827000000E+00 0.  1.
     999902    2    1    2    0    0 -0.71848742442E-03  0.69092478625E-02 -0.11282746775E-01  0.10306803092E+01  0.10305951414E+01 0.  0.
     999903    2    3    3    0    0  0.13208896952E+00 -0.28285355853E-02 -0.13070794337E-01  0.14066017343E+00  0.46464419105E-01 0.  0.
         14    1    1    2    0    0  0.71848742442E-03 -0.69092478625E-02  0.11282746775E-01  0.13249690751E-01  0.00000000000E+00 0.  1.
     999901    1    3    3    0    0 -0.13280745694E+00  0.97377834479E-02  0.17880475620E-02  0.89002013582E+00  0.88000000000E+00 0. -1.
        -11    1    4    4    0    0  0.58990474262E-01  0.15083688080E-01 -0.22274212851E-01  0.64836682356E-01  0.51100000000E-03 0. -1.
         11    1    4    4    0    0  0.73098495258E-01 -0.17912223665E-01  0.92034185137E-02  0.75823491076E-01  0.51100000000E-03 0.  1.
</event>
<event>
 8    1  0.2927513E+004  0.1043930E+01  0.7957747E-01            NaN
         13   -1    0    0    0    0  0.00000000000E+00  0.00000000000E+00  0.74505805969E-08  0.10566000000E+00  0.10566000000E+00 0. -1.
     999900   -1    0    0    0    0 -0.00000000000E+00 -0.00000000000E+00 -0.74505805969E-08  0.93827000000E+00  0.93827000000E+00 0.  1.
     999902    2    1    2    0    0  0.48999926858E-02  0.11974995546E-01 -0.41111251707E-02  0.10303538519E+01  0.10302644070E+01 0.  0.
     999903    2    3    3    0    0  0.43162223229E-01  0.62404251788E-01  0.10943228484E+00  0.14080384538E+00  0.45749642102E-01 0.  0.
         14    1    1    2    0    0 -0.48999926858E-02 -0.11974995546E-01  0.41111251707E-02  0.13576148085E-01  0.00000000000E+00 0. -1.
     999901    1    3    3    0    0 -0.38262230543E-01 -0.50429256242E-01 -0.11354341001E+00  0.88955000654E+00  0.88000000000E+00 0.  1.
        -11    1    4    4    0    0  0.36929558136E-01  0.69125747234E-01  0.10368300485E+00  0.12997148845E+00  0.51100000000E-03 0.  1.
         11    1    4    4    0    0  0.62326650924E-02 -0.67214954461E-02  0.57492799975E-02  0.10832356931E-01  0.51100000000E-03 0. -1.
</event>
<event>
 8    1  0.2927513E+004  0.1043930E+01  0.7957747E-01            NaN
         13   -1    0    0    0    0  0.00000000000E+00  0.00000000000E+00  0.74505805969E-08  0.10566000000E+00  0.10566000000E+00 0.  1.
     999900   -1    0    0    0    0 -0.00000000000E+00 -0.00000000000E+00 -0.74505805969E-08  0.93827000000E+00  0.93827000000E+00 0.  1.
     999902    2    1    2    0    0 -0.10562687907E-01 -0.15336660357E-02 -0.84497015472E-02  0.10303167725E+01  0.10302268351E+01 0.  0.
     999903    2    3    3    0    0 -0.35243417216E-01 -0.10568035163E+00  0.72039012669E-01  0.14018526330E+00  0.45297389801E-01 0.  0.
         14    1    1    2    0    0  0.10562687907E-01  0.15336660357E-02  0.84497015472E-02  0.13613227522E-01  0.00000000000E+00 0. -1.
     999901    1    3    3    0    0  0.24680729310E-01  0.10414668559E+00 -0.80488714216E-01  0.89013150918E+00  0.88000000000E+00 0.  1.
        -11    1    4    4    0    0 -0.42241360986E-01 -0.57159261661E-01  0.46141887924E-01  0.84739888563E-01  0.51100000000E-03 0. -1.
         11    1    4    4    0    0  0.69979437694E-02 -0.48521089966E-01  0.25897124745E-01  0.55445374735E-01  0.51100000000E-03 0.  1.
</event>
<event>
 8    1  0.2927513E+004  0.1043930E+01  0.7957747E-01            NaN
         13   -1    0    0    0    0  0.00000000000E+00  0.00000000000E+00  0.74505805969E-08  0.10566000000E+00  0.10566000000E+00 0.  1.
     999900   -1    0    0    0    0 -0.00000000000E+00 -0.00000000000E+00 -0.74505805969E-08  0.93827000000E+00  0.93827000000E+00 0.  1.
     999902    2    1    2    0    0 -0.73384499156E-02 -0.74287434491E-03 -0.11462716592E-01  0.10302992047E+01  0.10302090334E+01 0.  0.
     999903    2    3    3    0    0 -0.19768736316E-01  0.12607902113E+00  0.36150000731E-01  0.13984691733E+00  0.44312698285E-01 0.  0.
         14    1    1    2    0    0  0.73384499156E-02  0.74287434491E-03  0.11462716592E-01  0.13630795322E-01  0.00000000000E+00 0.  1.
     999901    1    3    3    0    0  0.12430286400E-01 -0.12682189547E+00 -0.47612717322E-01  0.89045228735E+00  0.88000000000E+00 0. -1.
        -11    1    4    4    0    0 -0.21112713702E-01  0.83866289592E-01  0.36647355838E-02  0.86562073784E-01  0.51100000000E-03 0. -1.
         11    1    4    4    0    0  0.13439773865E-02  0.42212731538E-01  0.32485265147E-01  0.53284843546E-01  0.51100000000E-03 0.  1.
</event>
<event>
 8    1  0.2927513E+004  0.1043930E+01  0.7957747E-01            NaN
         13   -1    0    0    0    0  0.00000000000E+00  0.00000000000E+00  0.74505805969E-08  0.10566000000E+00  0.10566000000E+00 0. -1.
     999900   -1    0    0    0    0 -0.00000000000E+00 -0.00000000000E+00 -0.74505805969E-08  0.93827000000E+00  0.93827000000E+00 0.  1.
     999902    2    1    2    0    0  0.27658479834E-02 -0.89813320103E-03 -0.89439351088E-02  0.10345251856E+01  0.10344824354E+01 0.  0.
     999903    2    3    3    0    0 -0.92046916436E-01 -0.56070546346E-01  0.81903099326E-01  0.14307320198E+00  0.46317193919E-01 0.  0.
         14    1    1    2    0    0 -0.27658479834E-02  0.89813320103E-03  0.89439351088E-02  0.94048143812E-02  0.00000000000E+00 0. -1.
     999901    1    3    3    0    0  0.94812764419E-01  0.55172413145E-01 -0.90847034435E-01  0.89145198364E+00  0.88000000000E+00 0.  1.
        -11    1    4    4    0    0 -0.19017421619E-01 -0.17360681049E-02  0.36850413609E-01  0.41507714484E-01  0.51100000000E-03 0. -1.
         11    1    4    4    0    0 -0.73029494817E-01 -0.54334478241E-01  0.45052685717E-01  0.10156548750E+00  0.51100000000E-03 0.  1.
</event>
<event>
 8    1  0.2927513E+004  0.1043930E+01  0.7957747E-01            NaN
         13   -1    0    0    0    0  0.00000000000E+00  0.00000000000E+00  0.74505805969E-08  0.10566000000E+00  0.10566000000E+00 0.  1.
     999900   -1    0    0    0    0 -0.00000000000E+00 -0.00000000000E+00 -0.74505805969E-08  0.93827000000E+00  0.93827000000E+00 0.  1.
     999902    2    1    2    0    0 -0.85950544402E-03  0.25354195889E-02  0.13236190355E-01  0.10304257845E+01  0.10303372911E+01 0.  0.
     999903    2    3    3    0    0  0.76552238534E-01 -0.10288433889E+00  0.32745443836E-01  0.14054572819E+00  0.47280071997E-01 0.  0.
         14    1    1    2    0    0  0.85950544402E-03 -0.25354195889E-02 -0.13236190355E-01  0.13504215535E-01  0.00000000000E+00 0. -1.
     999901    1    3    3    0    0 -0.77411743978E-01  0.10541975848E+00 -0.19509253480E-01  0.88988005627E+00  0.88000000000E+00 0. -1.
        -11    1    4    4    0    0  0.47674310383E-01 -0.43724566700E-01  0.37088871344E-01  0.74568915120E-01  0.51100000000E-03 0. -1.
         11    1    4    4    0    0  0.28877928151E-01 -0.59159772187E-01 -0.43434275088E-02  0.65976813071E-01  0.51100000000E-03 0.  1.
</event>
<event>
 8    1  0.2927513E+004  0.1043930E+01  0.7957747E-01            NaN
         13   -1    0    0    0    0  0.00000000000E+00  0.00000000000E+00  0.74505805969E-08  0.10566000000E+00  0.10566000000E+00 0. -1.
     999900   -1    0    0    0    0 -0.00000000000E+00 -0.00000000000E+00 -0.74505805969E-08  0.93827000000E+00  0.93827000000E+00 0.  1.
     999902    2    1    2    0    0  0.12244249341E-01  0.57907980444E-02  0.14673810653E-02  0.10303061903E+01  0.10302161121E+01 0.  0.
     999903    2    3    3    0    0 -0.69484156801E-01  0.11296057395E+00  0.84436299926E-03  0.14004483462E+00  0.44985591500E-01 0.  0.
         14    1    1    2    0    0 -0.12244249341E-01 -0.57907980444E-02 -0.14673810653E-02  0.13623809713E-01  0.00000000000E+00 0.  1.
     999901    1    3    3    0    0  0.81728406142E-01 -0.10716977590E+00  0.62301806602E-03  0.89026135566E+00  0.88000000000E+00 0. -1.
        -11    1    4    4    0    0 -0.50852218700E-01  0.59693604956E-01 -0.18165059083E-01  0.80495373233E-01  0.51100000000E-03 0.  1.
         11    1    4    4    0    0 -0.18631938101E-01  0.53266968991E-01  0.19009422082E-01  0.59549461389E-01  0.51100000000E-03 0. -1.
</event>
<event>
 8    1  0.2927513E+004  0.1043930E+01  0.7957747E-01            NaN
         13   -1    0    0    0    0  0.00000000000E+00  0.00000000000E+00  0.74505805969E-08  0.10566000000E+00  0.10566000000E+00 0.  1.
     999900   -1    0    0    0    0 -0.00000000000E+00 -0.00000000000E+00 -0.74505805969E-08  0.93827000000E+00  0.93827000000E+00 0.  1.
     999902    2    1    2    0    0  0.50545566442E-02 -0.10799044002E-01  0.60800237104E-02  0.10305458832E+01  0.10304589671E+01 0.  0.
     999903    2    3    3    0    0  0.52514097550E-01 -0.88192159315E-01  0.86779459736E-01  0.14220219898E+00  0.46424167800E-01 0.  0.
         14    1    1    2    0    0 -0.50545566442E-02  0.10799044002E-01 -0.60800237104E-02  0.13384116801E-01  0.00000000000E+00 0.  1.
     999901    1    3    3    0    0 -0.47459540906E-01  0.77393115314E-01 -0.80699436025E-01  0.88834368422E+00  0.88000000000E+00 0.  1.
        -11    1    4    4    0    0  0.47309721101E-01 -0.65111478662E-01  0.40225148538E-01  0.89977986531E-01  0.51100000000E-03 0. -1.
         11    1    4    4    0    0  0.52043764491E-02 -0.23080680653E-01  0.46554311198E-01  0.52224212447E-01  0.51100000000E-03 0.  1.
</event>
<event>
 8    1  0.2927513E+004  0.1043930E+01  0.7957747E-01            NaN
         13   -1    0    0    0    0  0.00000000000E+00  0.00000000000E+00  0.74505805969E-08  0.10566000000E+00  0.10566000000E+00 0.  1.
     999900   -1    0    0    0    0 -0.00000000000E+00 -0.00000000000E+00 -0.74505805969E-08  0.93827000000E+00  0.93827000000E+00 0. -1.
     999902    2    1    2    0    0 -0.14088226610E-02  0.13624353886E-01  0.27783793565E-02  0.10299540495E+01  0.10298592219E+01 0.  0.
     999903    2    3    3    0    0  0.16011476656E-01  0.56083912376E-01  0.12013583238E+00  0.14097764223E+00  0.45169732951E-01 0.  0.
         14    1    1    2    0    0  0.14088226610E-02 -0.13624353886E-01 -0.27783793565E-02  0.13975950485E-01  0.00000000000E+00 0. -1.
     999901    1    3    3    0    0 -0.17420299317E-01 -0.42459558490E-01 -0.11735745302E+00  0.88897640729E+00  0.88000000000E+00 0. -1.
        -11    1    4    4    0    0 -0.10676525024E-01  0.36385594322E-02  0.39951101041E-01  0.41516007716E-01  0.51100000000E-03 0.  1.
         11    1    4    4    0    0  0.26688001680E-01  0.52445352944E-01  0.80184731336E-01  0.99461634511E-01  0.51100000000E-03 0. -1.
</event>
<event>
 8    1  0.2927513E+004  0.1043930E+01  0.7957747E-01            NaN
         13   -1    0    0    0    0  0.00000000000E+00  0.00000000000E+00  0.74505805969E-08  0.10566000000E+00  0.10566000000E+00 0. -1.
     999900   -1    0    0    0    0 -0.00000000000E+00 -0.00000000000E+00 -0.74505805969E-08  0.93827000000E+00  0.93827000000E+00 0.  1.
     999902    2    1    2    0    0  0.57613865148E-02  0.74851487582E-02 -0.95503462937E-02  0.10304975713E+01  0.10304100224E+01 0.  0.
     999903    2    3    3    0    0  0.72071784334E-01  0.81100255709E-01 -0.79847711734E-01  0.14215193337E+00  0.45386358298E-01 0.  0.
         14    1    1    2    0    0 -0.57613865148E-02 -0.74851487582E-02  0.95503462937E-02  0.13432428702E-01  0.00000000000E+00 0. -1.
     999901    1    3    3    0    0 -0.66310397819E-01 -0.73615106951E-01  0.70297365441E-01  0.88834563792E+00  0.88000000000E+00 0. -1.
        -11    1    4    4    0    0  0.24146480309E-01  0.51212590538E-01 -0.59446681437E-01  0.82097204555E-01  0.51100000000E-03 0.  1.
         11    1    4    4    0    0  0.47925304025E-01  0.29887665171E-01 -0.20401030297E-01  0.60054728819E-01  0.51100000000E-03 0. -1.
</event>
<event>
 8    1  0.2927513E+004  0.1043930E+01  0.7957747E-01            NaN
         13   -1    0    0    0    0  0.00000000000E+00  0.00000000000E+00  0.74505805969E-08  0.10566000000E+00  0.10566000000E+00 0. -1.
     999900   -1    0    0    0    0 -0.00000000000E+00 -0.00000000000E+00 -0.74505805969E-08  0.93827000000E+00  0.93827000000E+00 0.  1.
     999902    2    1    2    0    0 -0.55640000579E-03 -0.13350203743E-01 -0.52436476556E-02  0.10295761377E+01  0.10294760755E+01 0.  0.
     999903    2    3    3    0    0  0.11360428768E+00 -0.78183090666E-02  0.66256777644E-01  0.13930900070E+00  0.45276671225E-01 0.  0.
         14    1    1    2    0    0  0.55640000579E-03  0.13350203743E-01  0.52436476556E-02  0.14353862257E-01  0.00000000000E+00 0.  1.
     999901    1    3    3    0    0 -0.11416068769E+00 -0.55318946767E-02 -0.71500425299E-01  0.89026713704E+00  0.88000000000E+00 0.  1.
        -11    1    4    4    0    0  0.80970409261E-01 -0.25632565422E-01  0.40630762845E-01  0.94150706829E-01  0.51100000000E-03 0.  1.
         11    1    4    4    0    0  0.32633878421E-01  0.17814256356E-01  0.25626014799E-01  0.45158293876E-01  0.51100000000E-03 0. -1.
</event>
<event>
 8    1  0.2927513E+004  0.1043930E+01  0.7957747E-01            NaN
         13   -1    0    0    0    0  0.00000000000E+00  0.00000000000E+00  0.74505805969E-08  0.10566000000E+00  0.10566000000E+00 0. -1.
     999900   -1    0    0    0    0 -0.00000000000E+00 -0.00000000000E+00 -0.74505805969E-08  0.93827000000E+00  0.93827000000E+00 0. -1.
     999902    2    1    2    0    0 -0.93276699826E-02 -0.85242618097E-03 -0.22285119230E-01  0.10197564898E+01  0.10194699308E+01 0.  0.
     999903    2    3    3    0    0 -0.79165447111E-01  0.81261032307E-01 -0.51069036495E-01  0.13271170563E+00  0.46193364617E-01 0.  0.
         14    1    1    2    0    0  0.93276699826E-02  0.85242618097E-03  0.22285119230E-01  0.24173510229E-01  0.00000000000E+00 0. -1.
     999901    1    3    3    0    0  0.69837777128E-01 -0.82113458488E-01  0.28783917265E-01  0.88704478414E+00  0.88000000000E+00 0.  1.
        -11    1    4    4    0    0 -0.20447664591E-01  0.26951501428E-01 -0.39312762646E-01  0.51867570257E-01  0.51100000000E-03 0. -1.
         11    1    4    4    0    0 -0.58717782520E-01  0.54309530879E-01 -0.11756273849E-01  0.80844135373E-01  0.51100000000E-03 0.  1.
</event>
<event>
 8    1  0.2927513E+004  0.1043930E+01  0.7957747E-01            NaN
         13   -1    0    0    0    0  0.00000000000E+00  0.00000000000E+00  0.74505805969E-08  0.10566000000E+00  0.10566000000E+00 0. -1.
     999900   -1    0    0    0    0 -0.00000000000E+00 -0.00000000000E+00 -0.74505805969E-08  0.93827000000E+00  0.93827000000E+00 0. -1.
     999902    2    1    2    0    0  0.68632214913E-02  0.31163163115E-02 -0.99286840043E-02  0.10314642869E+01  0.10313889573E+01 0.  0.
     999903    2    3    3    0    0 -0.83710968572E-01 -0.98977547511E-01  0.28950334369E-01  0.14009544126E+00  0.44548059798E-01 0.  0.
         14    1    1    2    0    0 -0.68632214913E-02 -0.31163163115E-02  0.99286840043E-02  0.12465713082E-01  0.00000000000E+00 0. -1.
     999901    1    3    3    0    0  0.90574190064E-01  0.10209386382E+00 -0.38879018373E-01  0.89136884566E+00  0.88000000000E+00 0. -1.
        -11    1    4    4    0    0  0.12645725581E-02 -0.22758425857E-01  0.70329047023E-02  0.23859336973E-01  0.51100000000E-03 0. -1.
         11    1    4    4    0    0 -0.84975541131E-01 -0.76219121654E-01  0.21917429667E-01  0.11623610429E+00  0.51100000000E-03 0.  1.
</event>
<event>
 8    1  0.2927513E+004  0.1043930E+01  0.7957747E-01            NaN
         13   -1    0    0    0    0  0.00000000000E+00  0.00000000000E+00  0.74505805969E-08  0.10566000000E+00  0.10566000000E+00 0.  1.
     999900   -1    0    0    0    0 -0.00000000000E+00 -0.00000000000E+00 -0.74505805969E-08  0.93827000000E+00  0.93827000000E+00 0.  1.
     999902    2    1    2    0    0  0.90839904860E-02 -0.81188345763E-02 -0.53641459529E-02  0.10306180347E+01  0.10305320592E+01 0.  0.
     999903    2    3    3    0    0 -0.38841315036E-01 -0.10494972366E+00 -0.73488730528E-01  0.14139701887E+00  0.45491001087E-01 0.  0.
         14    1    1    2    0    0 -0.90839904860E-02  0.81188345763E-02  0.53641459529E-02  0.13311965288E-01  0.00000000000E+00 0. -1.
     999901    1    3    3    0    0  0.47925305522E-01  0.96830889088E-01  0.68124584575E-01  0.88922101584E+00  0.88000000000E+00 0. -1.
        -11    1    4    4    0    0 -0.26220052152E-01 -0.77432568923E-01 -0.75188502569E-01  0.11107144505E+00  0.51100000000E-03 0.  1.
         11    1    4    4    0    0 -0.12621262884E-01 -0.27517154741E-01  0.16997720410E-02  0.30325573825E-01  0.51100000000E-03 0. -1.
</event>
<event>
 7    1  0.2927513E+004  0.1043930E+01  0.7957747E-01            NaN
         13   -1    0    0    0    0  0.00000000000E+00  0.00000000000E+00  0.74505805969E-08  0.10566000000E+00  0.10566000000E+00 0. -1.
     999900   -1    0    0    0    0 -0.00000000000E+00 -0.00000000000E+00 -0.74505805969E-08  0.93827000000E+00  0.93827000000E+00 0.  1.
     999903    2    1    2    0    0  0.47500030476E-01  0.69065020379E-01 -0.80707996023E-01  0.12367144389E+00  0.41888130502E-01 0.  0.
         14    1    1    2    0    0 -0.24876400216E-01  0.16723839061E-01 -0.89026272436E-02  0.31269455583E-01  0.00000000000E+00 0. -1.
     999901    1    1    2    0    0 -0.22623630260E-01 -0.85788859440E-01  0.89610623267E-01  0.88898910053E+00  0.88000000000E+00 0.  1.
        -11    1    3    3    0    0  0.34174941355E-01  0.46845688450E-01 -0.26849439054E-01  0.63903040941E-01  0.51100000000E-03 0. -1.
         11    1    3    3    0    0  0.13325089121E-01  0.22219331929E-01 -0.53858556969E-01  0.59768402951E-01  0.51100000000E-03 0.  1.
</event>
<event>
 8    1  0.2927513E+004  0.1043930E+01  0.7957747E-01            NaN
         13   -1    0    0    0    0  0.00000000000E+00  0.00000000000E+00  0.74505805969E-08  0.10566000000E+00  0.10566000000E+00 0.  1.
     999900   -1    0    0    0    0 -0.00000000000E+00 -0.00000000000E+00 -0.74505805969E-08  0.93827000000E+00  0.93827000000E+00 0. -1.
     999902    2    1    2    0    0 -0.13539663096E-01  0.17553428280E-02  0.13049569636E-02  0.10302148034E+01  0.10301235045E+01 0.  0.
     999903    2    3    3    0    0  0.82974008903E-02  0.12445938339E+00  0.45880603966E-01  0.14031586125E+00  0.44994734387E-01 0.  0.
         14    1    1    2    0    0  0.13539663096E-01 -0.17553428280E-02 -0.13049569636E-02  0.13715196604E-01  0.00000000000E+00 0. -1.
     999901    1    3    3    0    0 -0.21837063986E-01 -0.12270404056E+00 -0.44575647002E-01  0.88989894215E+00  0.88000000000E+00 0.  1.
        -11    1    4    4    0    0  0.13961297291E-01  0.11156174431E+00  0.53254832992E-01  0.12440771267E+00  0.51100000000E-03 0. -1.
         11    1    4    4    0    0 -0.56638964005E-02  0.12897639081E-01 -0.73742290262E-02  0.15908148573E-01  0.51100000000E-03 0.  1.
</event>
<event>
 8    1  0.2927513E+004  0.1043930E+01  0.7957747E-01            NaN
         13   -1    0    0    0    0  0.00000000000E+00  0.00000000000E+00  0.74505805969E-08  0.10566000000E+00  0.10566000000E+00 0.  1.
     999900   -1    0    0    0    0 -0.00000000000E+00 -0.00000000000E+00 -0.74505805969E-08  0.93827000000E+00  0.93827000000E+00 0. -1.
     999902    2    1    2    0    0  0.64902901882E-02  0.11298029087E-01 -0.72999425775E-02  0.10289948572E+01  0.10288864649E+01 0.  0.
     999903    2    3    3    0    0  0.10602074262E+00  0.56000698727E-01 -0.61194516809E-01  0.14062035018E+00  0.40655108854E-01 0.  0.
         14    1    1    2    0    0 -0.64902901882E-02 -0.11298029087E-01  0.72999425775E-02  0.14935142771E-01  0.00000000000E+00 0.  1.
     999901    1    3    3    0    0 -0.99530452428E-01 -0.44702669641E-01  0.53894574231E-01  0.88837450704E+00  0.88000000000E+00 0. -1.
        -11    1    4    4    0    0  0.21588819206E-01  0.32368734338E-01 -0.17732788590E-01  0.42761255706E-01  0.51100000000E-03 0. -1.
         11    1    4    4    0    0  0.84431923409E-01  0.23631964389E-01 -0.43461728219E-01  0.97859094479E-01  0.51100000000E-03 0.  1.
</event>
<event>
 8    1  0.2927513E+004  0.1043930E+01  0.7957747E-01            NaN
         13   -1    0    0    0    0  0.00000000000E+00  0.00000000000E+00  0.74505805969E-08  0.10566000000E+00  0.10566000000E+00 0. -1.
     999900   -1    0    0    0    0 -0.00000000000E+00 -0.00000000000E+00 -0.74505805969E-08  0.93827000000E+00  0.93827000000E+00 0.  1.
     999902    2    1    2    0    0  0.15200787004E-01 -0.37267660784E-02  0.12270171842E-02  0.10282310102E+01  0.10281111574E+01 0.  0.
     999903    2    3    3    0    0  0.55939123740E-01  0.27970730815E-01 -0.11579090274E+00  0.13898552269E+00  0.44697818880E-01 0.  0.
         14    1    1    2    0    0 -0.15200787004E-01  0.37267660784E-02 -0.12270171842E-02  0.15698989844E-01  0.00000000000E+00 0.  1.
     999901    1    3    3    0    0 -0.40738336736E-01 -0.31697496893E-01  0.11701791993E+00  0.88924548746E+00  0.88000000000E+00 0. -1.
        -11    1    4    4    0    0  0.21192737661E-01 -0.97085645065E-02 -0.21765941879E-01  0.31896797665E-01  0.51100000000E-03 0.  1.
         11    1    4    4    0    0  0.34746386078E-01  0.37679295322E-01 -0.94024960865E-01  0.10708872503E+00  0.51100000000E-03 0. -1.
</event>
<event>
 8    1  0.2927513E+004  0.1043930E+01  0.7957747E-01            NaN
         13   -1    0    0    0    0  0.00000000000E+00  0.00000000000E+00  0.74505805969E-08  0.10566000000E+00  0.10566000000E+00 0. -1.
     999900   -1    0    0    0    0 -0.00000000000E+00 -0.00000000000E+00 -0.74505805969E-08  0.93827000000E+00  0.93827000000E+00 0. -1.
     999902    2    1    2    0    0 -0.94535178057E-02 -0.64692442528E-02 -0.13535713370E-01  0.10261976664E+01  0.10260444507E+01 0.  0.
     999903    2    3    3    0    0  0.31052330181E-01 -0.93473493859E-01  0.81797954152E-01  0.13586122919E+00  0.45451369957E-01 0.  0.
         14    1    1    2    0    0  0.94535178057E-02  0.64692442528E-02  0.13535713370E-01  0.17732333646E-01  0.00000000000E+00 0. -1.
     999901    1    3    3    0    0 -0.40505847987E-01  0.87004249606E-01 -0.95333667521E-01  0.89033643716E+00  0.88000000000E+00 0. -1.
        -11    1    4    4    0    0 -0.76180982046E-02 -0.39635449400E-01  0.43336392155E-01  0.59222531822E-01  0.51100000000E-03 0.  1.
         11    1    4    4    0    0  0.38670428386E-01 -0.53838044460E-01  0.38461561997E-01  0.76638697373E-01  0.51100000000E-03 0. -1.
</event>
<event>
 8    1  0.2927513E+004  0.1043930E+01  0.7957747E-01            NaN
         13   -1    0    0    0    0  0.00000000000E+00  0.00000000000E+00  0.74505805969E-08  0.10566000000E+00  0.10566000000E+00 0. -1.
     999900   -1    0    0    0    0 -0.00000000000E+00 -0.00000000000E+00 -0.74505805969E-08  0.93827000000E+00  0.93827000000E+00 0. -1.
     999902    2    1    2    0    0 -0.12530905874E-01 -0.47471495077E-02 -0.36223566997E-02  0.10300490599E+01  0.10299555259E+01 0.  0.
     999903    2    3    3    0    0 -0.12395948954E+00 -0.50657349109E-01  0.86979532681E-02  0.14174963642E+00  0.45663803709E-01 0.  0.
         14    1    1    2    0    0  0.12530905874E-01  0.47471495077E-02  0.36223566997E-02  0.13880940117E-01  0.00000000000E+00 0.  1.
     999901    1    3    3    0    0  0.11142858366E+00  0.45910199601E-01 -0.12320309968E-01  0.88829942346E+00  0.88000000000E+00 0. -1.
        -11    1    4    4    0    0 -0.61783675380E-01 -0.47757995475E-01  0.13775620294E-01  0.79297399143E-01  0.51100000000E-03 0.  1.
         11    1    4    4    0    0 -0.62175814158E-01 -0.28993536339E-02 -0.50776670257E-02  0.62452237279E-01  0.51100000000E-03 0. -1.
</event>
<event>
 7    1  0.2927513E+004  0.1043930E+01  0.7957747E-01            NaN
         13   -1    0    0    0    0  0.00000000000E+00  0.00000000000E+00  0.74505805969E-08  0.10566000000E+00  0.10566000000E+00 0.  1.
     999900   -1    0    0    0    0 -0.00000000000E+00 -0.00000000000E+00 -0.74505805969E-08  0.93827000000E+00  0.93827000000E+00 0. -1.
     999902    2    1    2    0    0 -0.77097950377E-02  0.51273476274E-02 -0.82416489895E-02  0.10315342180E+01  0.10314597362E+01 0.  0.
         14    1    1    2    0    0  0.77097950377E-02 -0.51273476274E-02  0.82416489895E-02  0.12395781996E-01  0.00000000000E+00 0.  1.
     999901    1    3    3    0    0  0.49331611467E-01  0.74675574045E-02  0.12000793008E+00  0.88954554441E+00  0.88000000000E+00 0.  1.
        -11    1    3    3    0    0 -0.12642095445E-01 -0.14825619034E-02 -0.53902571891E-01  0.55387443925E-01  0.51100000000E-03 0.  1.
         11    1    3    3    0    0 -0.44399311060E-01 -0.85764787371E-03 -0.74347007177E-01  0.86601229666E-01  0.51100000000E-03 0. -1.
</event>
<event>
 8    1  0.2927513E+004  0.1043930E+01  0.7957747E-01            NaN
         13   -1    0    0    0    0  0.00000000000E+00  0.00000000000E+00  0.74505805969E-08  0.10566000000E+00  0.10566000000E+00 0.  1.
     999900   -1    0    0    0    0 -0.00000000000E+00 -0.00000000000E+00 -0.74505805969E-08  0.93827000000E+00  0.93827000000E+00 0. -1.
     999902    2    1    2    0    0 -0.14146417603E-01  0.37710129856E-02  0.11688194647E-02  0.10292430055E+01  0.10291382106E+01 0.  0.
     999903    2    3    3    0    0  0.85378541927E-01  0.62295506310E-01 -0.76335587969E-01  0.13832366732E+00  0.46217847435E-01 0.  0.
         14    1    1    2    0    0  0.14146417603E-01 -0.37710129856E-02 -0.11688194647E-02  0.14686994549E-01  0.00000000000E+00 0.  1.
     999901    1    3    3    0    0 -0.99524959530E-01 -0.58524493325E-01  0.77504407433E-01  0.89091933813E+00  0.88000000000E+00 0.  1.
        -11    1    4    4    0    0  0.29285965475E-01 -0.27980022772E-02 -0.19364384886E-01  0.35224098477E-01  0.51100000000E-03 0. -1.
         11    1    4    4    0    0  0.56092576452E-01  0.65093508588E-01 -0.56971203083E-01  0.10309956884E+00  0.51100000000E-03 0.  1.
</event>
<event>
 8    1  0.2927513E+004  0.1043930E+01  0.7957747E-01            NaN
         13   -1    0    0    0    0  0.00000000000E+00  0.00000000000E+00  0.74505805969E-08  0.10566000000E+00  0.10566000000E+00 0.  1.
     999900   -1    0    0    0    0 -0.00000000000E+00 -0.00000000000E+00 -0.74505805969E-08  0.93827000000E+00  0.93827000000E+00 0.  1.
     999902    2    1    2    0    0 -0.29167474438E-03 -0.10759178488E-01 -0.10216780804E-01  0.10290899324E+01  0.10289829257E+01 0.  0.
     999903    2    3    3    0    0 -0.10274558893E+00 -0.56561774219E-01 -0.62466606874E-01  0.14042535754E+00  0.45401692915E-01 0.  0.
         14    1    1    2    0    0  0.29167474438E-03  0.10759178488E-01  0.10216780804E-01  0.14840067584E-01  0.00000000000E+00 0.  1.
     999901    1    3    3    0    0  0.10245391419E+00  0.45802595730E-01  0.52249826071E-01  0.88866457487E+00  0.88000000000E+00 0. -1.
        -11    1    4    4    0    0 -0.86076919226E-01 -0.39837825433E-01 -0.67322444792E-01  0.11631363227E+00  0.51100000000E-03 0. -1.
         11    1    4    4    0    0 -0.16668669705E-01 -0.16723948785E-01  0.48558379174E-02  0.24111725272E-01  0.51100000000E-03 0.  1.
</event>
<event>
 8    1  0.2927513E+004  0.1043930E+01  0.7957747E-01            NaN
         13   -1    0    0    0    0  0.00000000000E+00  0.00000000000E+00  0.74505805969E-08  0.10566000000E+00  0.10566000000E+00 0. -1.
     999900   -1    0    0    0    0 -0.00000000000E+00 -0.00000000000E+00 -0.74505805969E-08  0.93827000000E+00  0.93827000000E+00 0.  1.
     999902    2    1    2    0    0 -0.12495686672E-01  0.61730234400E-03  0.64341942467E-02  0.10298615209E+01  0.10297654248E+01 0.  0.
     999903    2    3    3    0    0 -0.73042061732E-01  0.11057964990E+00 -0.14689592968E-01  0.14070248240E+00  0.44926636398E-01 0.  0.
         14    1    1    2    0    0  0.12495686672E-01 -0.61730234400E-03 -0.64341942467E-02  0.14068479065E-01  0.00000000000E+00 0. -1.
     999901    1    3    3    0    0  0.60546375060E-01 -0.10996234756E+00  0.21123787214E-01  0.88915903853E+00  0.88000000000E+00 0. -1.
        -11    1    4    4    0    0 -0.50387415383E-01  0.92083902913E-01  0.55762173998E-02  0.10511751579E+00  0.51100000000E-03 0. -1.
         11    1    4    4    0    0 -0.22654646350E-01  0.18495746992E-01 -0.20265810367E-01  0.35584966613E-01  0.51100000000E-03 0.  1.
</event>
<event>
 8    1  0.2927513E+004  0.1043930E+01  0.7957747E-01            NaN
         13   -1    0    0    0    0  0.00000000000E+00  0.00000000000E+00  0.74505805969E-08  0.10566000000E+00  0.10566000000E+00 0. -1.
     999900   -1    0    0    0    0 -0.00000000000E+00 -0.00000000000E+00 -0.74505805969E-08  0.93827000000E+00  0.93827000000E+00 0. -1.
     999902    2    1    2    0    0 -0.65664083833E-02  0.67803711517E-02 -0.10035893309E-01  0.10301528339E+01  0.10300607025E+01 0.  0.
     999903    2    3    3    0    0 -0.25324318352E-01  0.55840623175E-01  0.11684055714E+00  0.13950340722E+00  0.45276799087E-01 0.  0.
         14    1    1    2    0    0  0.65664083833E-02 -0.67803711517E-02  0.10035893309E-01  0.13777166128E-01  0.00000000000E+00 0. -1.
     999901    1    3    3    0    0  0.18757909968E-01 -0.49060252023E-01 -0.12687645045E+00  0.89064942665E+00  0.88000000000E+00 0. -1.
        -11    1    4    4    0    0  0.10838319337E-01  0.95649883274E-02  0.41671307264E-01  0.44110283811E-01  0.51100000000E-03 0.  1.
         11    1    4    4    0    0 -0.36162637689E-01  0.46275634848E-01  0.75169249881E-01  0.95393123410E-01  0.51100000000E-03 0. -1.
</event>
<event>
 8    1  0.2927513E+004  0.1043930E+01  0.7957747E-01            NaN
         13   -1    0    0    0    0  0.00000000000E+00  0.00000000000E+00  0.74505805969E-08  0.10566000000E+00  0.10566000000E+00 0. -1.
     999900   -1    0    0    0    0 -0.00000000000E+00 -0.00000000000E+00 -0.74505805969E-08  0.93827000000E+00  0.93827000000E+00 0.  1.
     999902    2    1    2    0    0  0.95677354695E-02  0.27913094881E-02 -0.96496131851E-02  0.10300574370E+01  0.10299640166E+01 0.  0.
     999903    2    3    3    0    0  0.12186738451E+00 -0.49283696003E-01 -0.22258270328E-01  0.14130438037E+00  0.46807640542E-01 0.  0.
         14    1    1    2    0    0 -0.95677354695E-02 -0.27913094881E-02  0.96496131851E-02  0.13872563040E-01  0.00000000000E+00 0. -1.
     999901    1    3    3    0    0 -0.11229964904E+00  0.52075005491E-01  0.12608657143E-01  0.88875305659E+00  0.88000000000E+00 0. -1.
        -11    1    4    4    0    0  0.10225945741E+00 -0.54861799133E-01 -0.29371610326E-01  0.11970700167E+00  0.51100000000E-03 0. -1.
         11    1    4    4    0    0  0.19607927097E-01  0.55781031303E-02  0.71133399977E-02  0.21597378695E-01  0.51100000000E-03 0.  1.
</event>
<event>
 8    1  0.2927513E+004  0.1043930E+01  0.7957747E-01            NaN
         13   -1    0    0    0    0  0.00000000000E+00  0.00000000000E+00  0.74505805969E-08  0.10566000000E+00  0.10566000000E+00 0.  1.
     999900   -1    0    0    0    0 -0.00000000000E+00 -0.00000000000E+00 -0.74505805969E-08  0.93827000000E+00  0.93827000000E+00 0.  1.
     999902    2    1    2    0    0  0.11885255781E-01 -0.68680471439E-02  0.31480884706E-02  0.10298466823E+01  0.10297503820E+01 0.  0.
     999903    2    3    3    0    0  0.64197758505E-01 -0.11576700637E+00  0.21344612716E-01  0.14140608509E+00  0.44908088903E-01 0.  0.
         14    1    1    2    0    0 -0.11885255781E-01  0.68680471439E-02 -0.31480884706E-02  0.14083317705E-01  0.00000000000E+00 0. -1.
     999901    1    3    3    0    0 -0.52312502723E-01  0.10889895922E+00 -0.18196524246E-01  0.88844059720E+00  0.88000000000E+00 0.  1.
        -11    1    4    4    0    0  0.46342301653E-01 -0.41444102913E-01  0.49775862519E-03  0.62175006823E-01  0.51100000000E-03 0. -1.
         11    1    4    4    0    0  0.17855456851E-01 -0.74322903455E-01  0.20846854091E-01  0.79231078270E-01  0.51100000000E-03 0.  1.
</event>
<event>
 8    1  0.2927513E+004  0.1043930E+01  0.7957747E-01            NaN
         13   -1    0    0    0    0  0.00000000000E+00  0.00000000000E+00  0.74505805969E-08  0.10566000000E+00  0.10566000000E+00 0. -1.
     999900   -1    0    0    0    0 -0.00000000000E+00 -0.00000000000E+00 -0.74505805969E-08  0.93827000000E+00  0.93827000000E+00 0.  1.
     999902    2    1    2    0    0  0.10725473325E-01  0.82466718749E-02 -0.71528053601E-02  0.10286262096E+01  0.10285123593E+01 0.  0.
     999903    2    3    3    0    0  0.25850144622E-01 -0.78580137464E-01 -0.10242537373E+00  0.13910695027E+00  0.44907888471E-01 0.  0.
         14    1    1    2    0    0 -0.10725473325E-01 -0.82466718749E-02  0.71528053601E-02  0.15303790366E-01  0.00000000000E+00 0. -1.
     999901    1    3    3    0    0 -0.15124671297E-01  0.86826809339E-01  0.95272568374E-01  0.88951925937E+00  0.88000000000E+00 0. -1.
        -11    1    4    4    0    0 -0.10126081680E-02 -0.46460057901E-01 -0.29598105398E-01  0.55098741543E-01  0.51100000000E-03 0.  1.
         11    1    4    4    0    0  0.26862752790E-01 -0.32120079563E-01 -0.72827268336E-01  0.84008208723E-01  0.51100000000E-03 0. -1.
</event>
<event>
 8    1  0.2927513E+004  0.1043930E+01  0.7957747E-01            NaN
         13   -1    0    0    0    0  0.00000000000E+00  0.00000000000E+00  0.74505805969E-08  0.10566000000E+00  0.10566000000E+00 0.  1.
     999900   -1    0    0    0    0 -0.00000000000E+00 -0.00000000000E+00 -0.74505805969E-08  0.93827000000E+00  0.93827000000E+00 0. -1.
     999902    2    1    2    0    0  0.82978237092E-02 -0.97642951687E-02  0.31724469582E-02  0.10307292516E+01  0.10306447159E+01 0.  0.
     999903    2    3    3    0    0 -0.10389545584E+00  0.34880753128E-01  0.73807256870E-01  0.13967942770E+00  0.45297888175E-01 0.  0.
         14    1    1    2    0    0 -0.82978237092E-02  0.97642951687E-02 -0.31724469582E-02  0.13200748394E-01  0.00000000000E+00 0. -1.
     999901    1    3    3    0    0  0.11219327955E+00 -0.44645048297E-01 -0.70634809912E-01  0.89104982391E+00  0.88000000000E+00 0. -1.
        -11    1    4    4    0    0 -0.55966387292E-01  0.27975542070E-01  0.65431105447E-01  0.90533740349E-01  0.51100000000E-03 0.  1.
         11    1    4    4    0    0 -0.47929068546E-01  0.69052110578E-02  0.83761514239E-02  0.49145687351E-01  0.51100000000E-03 0. -1.
</event>
<event>
 8    1  0.2927513E+004  0.1043930E+01  0.7957747E-01            NaN
         13   -1    0    0    0    0  0.00000000000E+00  0.00000000000E+00  0.74505805969E-08  0.10566000000E+00  0.10566000000E+00 0. -1.
     999900   -1    0    0    0    0 -0.00000000000E+00 -0.00000000000E+00 -0.74505805969E-08  0.93827000000E+00  0.93827000000E+00 0. -1.
     999902    2    1    2    0    0 -0.87157052075E-02  0.97549251496E-02  0.51279353766E-02  0.10298794554E+01  0.10297836059E+01 0.  0.
     999903    2    3    3    0    0 -0.52138751293E-01 -0.90888835951E-01 -0.79894013151E-01  0.13901276544E+00  0.44297468664E-01 0.  0.
         14    1    1    2    0    0  0.87157052075E-02 -0.97549251496E-02 -0.51279353766E-02  0.14050544586E-01  0.00000000000E+00 0.  1.
     999901    1    3    3    0    0  0.43423046086E-01  0.10064376110E+00  0.85021948528E-01  0.89086668998E+00  0.88000000000E+00 0.  1.
        -11    1    4    4    0    0 -0.44670070049E-01 -0.61151164190E-01 -0.32157903200E-01  0.82275585073E-01  0.51100000000E-03 0.  1.
         11    1    4    4    0    0 -0.74686812445E-02 -0.29737671761E-01 -0.47736109952E-01  0.56737180364E-01  0.51100000000E-03 0. -1.
</event>
<event>
 8    1  0.2927513E+004  0.1043930E+01  0.7957747E-01            NaN
         13   -1    0    0    0    0  0.00000000000E+00  0.00000000000E+00  0.74505805969E-08  0.10566000000E+00  0.10566000000E+00 0. -1.
     999900   -1    0    0    0    0 -0.00000000000E+00 -0.00000000000E+00 -0.74505805969E-08  0.93827000000E+00  0.93827000000E+00 0. -1.
     999902    2    1    2    0    0 -0.20852159983E-02 -0.40271216643E-02 -0.13739041728E-01  0.10294618591E+01  0.10293601858E+01 0.  0.
     999903    2    3    3    0    0  0.41938081153E-01 -0.80728876601E-01  0.94204944877E-01  0.13846628435E+00  0.44970947236E-01 0.  0.
         14    1    1    2    0    0  0.20852159983E-02  0.40271216643E-02  0.13739041728E-01  0.14468140940E-01  0.00000000000E+00 0. -1.
     999901    1    3    3    0    0 -0.44023297151E-01  0.76701754937E-01 -0.10794398661E+00  0.89099557471E+00  0.88000000000E+00 0. -1.
        -11    1    4    4    0    0  0.15692648451E-01 -0.56743568425E-01  0.81844708351E-01  0.10082117426E+00  0.51100000000E-03 0.  1.
         11    1    4    4    0    0  0.26245432701E-01 -0.23985308176E-01  0.12360236526E-01  0.37645110094E-01  0.51100000000E-03 0. -1.
</event>
<event>
 8    1  0.2927513E+004  0.1043930E+01  0.7957747E-01            NaN
         13   -1    0    0    0    0  0.00000000000E+00  0.00000000000E+00  0.74505805969E-08  0.10566000000E+00  0.10566000000E+00 0. -1.
     999900   -1    0    0    0    0 -0.00000000000E+00 -0.00000000000E+00 -0.74505805969E-08  0.93827000000E+00  0.93827000000E+00 0.  1.
     999902    2    1    2    0    0 -0.10934095699E-01  0.73764255217E-02 -0.12820338468E-02  0.10306782185E+01  0.10305930236E+01 0.  0.
     999903    2    3    3    0    0  0.75634923157E-01 -0.62942594367E-01 -0.87674698070E-01  0.13944163261E+00  0.45548923564E-01 0.  0.
         14    1    1    2    0    0  0.10934095699E-01 -0.73764255217E-02  0.12820338468E-02  0.13251781503E-01  0.00000000000E+00 0.  1.
     999901    1    3    3    0    0 -0.86569018855E-01  0.70319019888E-01  0.86392664224E-01  0.89123658588E+00  0.88000000000E+00 0. -1.
        -11    1    4    4    0    0  0.48972028369E-01 -0.35810106240E-01 -0.23953886971E-01  0.65227855197E-01  0.51100000000E-03 0. -1.
         11    1    4    4    0    0  0.26662894787E-01 -0.27132488126E-01 -0.63720811100E-01  0.74213777418E-01  0.51100000000E-03 0.  1.
</event>
<event>
 8    1  0.2927513E+004  0.1043930E+01  0.7957747E-01            NaN
         13   -1    0    0    0    0  0.00000000000E+00  0.00000000000E+00  0.74505805969E-08  0.10566000000E+00  0.10566000000E+00 0.  1.
     999900   -1    0    0    0    0 -0.00000000000E+00 -0.00000000000E+00 -0.74505805969E-08  0.93827000000E+00  0.93827000000E+00 0. -1.
     999902    2    1    2    0    0  0.39703576989E-02 -0.12608303159E-01 -0.32599036935E-02  0.10303153013E+01  0.10302253443E+01 0.  0.
     999903    2    3    3    0    0 -0.11613159943E+00 -0.22409549242E-02  0.62935006437E-01  0.13963369256E+00  0.45223697286E-01 0.  0.
         14    1    1    2    0    0 -0.39703576989E-02  0.12608303159E-01  0.32599036935E-02  0.13614698707E-01  0.00000000000E+00 0.  1.
     999901    1    3    3    0    0  0.12010195713E+00 -0.10367348235E-01 -0.66194910131E-01  0.89068160874E+00  0.88000000000E+00 0. -1.
        -11    1    4    4    0    0 -0.84212830464E-01  0.18774733949E-01  0.46695510243E-01  0.98107202832E-01  0.51100000000E-03 0. -1.
         11    1    4    4    0    0 -0.31918768966E-01 -0.21015688873E-01  0.16239496194E-01  0.41526489723E-01  0.51100000000E-03 0.  1.
</event>
<event>
 8    1  0.2927513E+004  0.1043930E+01  0.7957747E-01            NaN
         13   -1    0    0    0    0  0.00000000000E+00  0.00000000000E+00  0.74505805969E-08  0.10566000000E+00  0.10566000000E+00 0.  1.
     999900   -1    0    0    0    0 -0.00000000000E+00 -0.00000000000E+00 -0.74505805969E-08  0.93827000000E+00  0.93827000000E+00 0. -1.
     999902    2    1    2    0    0 -0.21969555550E-01  0.22815109037E-02 -0.11723397215E-01  0.10189239066E+01  0.10186170148E+01 0.  0.
     999903    2    3    3    0    0 -0.11863139986E+00  0.28041039554E-01 -0.27913108615E-01  0.13310836590E+00  0.45595904488E-01 0.  0.
         14    1    1    2    0    0  0.21969555550E-01 -0.22815109037E-02  0.11723397215E-01  0.25006093364E-01  0.00000000000E+00 0. -1.
     999901    1    3    3    0    0  0.96661844314E-01 -0.25759528650E-01  0.16189711400E-01  0.88581554074E+00  0.88000000000E+00 0. -1.
        -11    1    4    4    0    0 -0.36685066764E-01 -0.12067463487E-01 -0.12386147684E-01  0.40559777785E-01  0.51100000000E-03 0. -1.
         11    1    4    4    0    0 -0.81946333099E-01  0.40108503041E-01 -0.15526960932E-01  0.92548588111E-01  0.51100000000E-03 0.  1.
</event>
<event>
 8    1  0.2927513E+004  0.1043930E+01  0.7957747E-01            NaN
         13   -1    0    0    0    0  0.00000000000E+00  0.00000000000E+00  0.74505805969E-08  0.10566000000E+00  0.10566000000E+00 0.  1.
     999900   -1    0    0    0    0 -0.00000000000E+00 -0.00000000000E+00 -0.74505805969E-08  0.93827000000E+00  0.93827000000E+00 0.  1.
     999902    2    1    2    0    0 -0.82400290787E-03  0.12809129533E-01 -0.29715198389E-02  0.10307549209E+01  0.10306707157E+01 0.  0.
     999903    2    3    3    0    0  0.10483032888E+00  0.65738343668E-01 -0.52332244542E-01  0.14148509641E+00  0.44367116280E-01 0.  0.
         14    1    1    2    0    0  0.82400290787E-03 -0.12809129533E-01  0.29715198389E-02  0.13175079140E-01  0.00000000000E+00 0. -1.
     999901    1    3    3    0    0 -0.10565433178E+00 -0.52929214135E-01  0.49360724703E-01  0.88926982445E+00  0.88000000000E+00 0.  1.
        -11    1    4    4    0    0  0.38482064652E-01  0.19192043277E-01 -0.41414058817E-01  0.59704180872E-01  0.51100000000E-03 0. -1.
         11    1    4    4    0    0  0.66348264224E-01  0.46546300391E-01 -0.10918185726E-01  0.81780915538E-01  0.51100000000E-03 0.  1.
</event>
<event>
 8    1  0.2927513E+004  0.1043930E+01  0.7957747E-01            NaN
         13   -1    0    0    0    0  0.00000000000E+00  0.00000000000E+00  0.74505805969E-08  0.10566000000E+00  0.10566000000E+00 0.  1.
     999900   -1    0    0    0    0 -0.00000000000E+00 -0.00000000000E+00 -0.74505805969E-08  0.93827000000E+00  0.93827000000E+00 0.  1.
     999902    2    1    2    0    0 -0.13516932753E-01 -0.55673582499E-02 -0.49613106639E-02  0.10284924629E+01  0.10283765986E+01 0.  0.
     999903    2    3    3    0    0 -0.47151648468E-01 -0.15994428082E-02 -0.12373102631E+00  0.13986808565E+00  0.45031970188E-01 0.  0.
         14    1    1    2    0    0  0.13516932753E-01  0.55673582499E-02  0.49613106639E-02  0.15437537123E-01  0.00000000000E+00 0.  1.
     999901    1    3    3    0    0  0.33634715716E-01 -0.39679154417E-02  0.11876971565E+00  0.88862437723E+00  0.88000000000E+00 0. -1.
        -11    1    4    4    0    0 -0.80604308436E-02  0.17639579101E-01 -0.56633277804E-01  0.59864134271E-01  0.51100000000E-03 0. -1.
         11    1    4    4    0    0 -0.39091217625E-01 -0.19239021910E-01 -0.67097748510E-01  0.80003951374E-01  0.51100000000E-03 0.  1.
</event>
<event>
 8    1  0.2927513E+004  0.1043930E+01  0.7957747E-01            NaN
         13   -1    0    0    0    0  0.00000000000E+00  0.00000000000E+00  0.74505805969E-08  0.10566000000E+00  0.10566000000E+00 0.  1.
     999900   -1    0    0    0    0 -0.00000000000E+00 -0.00000000000E+00 -0.74505805969E-08  0.93827000000E+00  0.93827000000E+00 0. -1.
     999902    2    1    2    0    0 -0.40708657704E-02  0.11568021019E-01 -0.63963671457E-02  0.10300987104E+01  0.10300058489E+01 0.  0.
     999903    2    3    3    0    0 -0.41025904978E-01 -0.12472381940E+00 -0.37158611057E-02  0.13883650109E+00  0.44973441123E-01 0.  0.
         14    1    1    2    0    0  0.40708657704E-02 -0.11568021019E-01  0.63963671457E-02  0.13831289567E-01  0.00000000000E+00 0.  1.
     999901    1    3    3    0    0  0.36955039208E-01  0.13629184042E+00 -0.26805060401E-02  0.89126220934E+00  0.88000000000E+00 0. -1.
        -11    1    4    4    0    0 -0.22707917366E-01 -0.90969182354E-01 -0.21984754548E-01  0.96304891894E-01  0.51100000000E-03 0.  1.
         11    1    4    4    0    0 -0.18317987612E-01 -0.33754637047E-01  0.18268893442E-01  0.42531609197E-01  0.51100000000E-03 0. -1.
</event>
<event>
 8    1  0.2927513E+004  0.1043930E+01  0.7957747E-01            NaN
         13   -1    0    0    0    0  0.00000000000E+00  0.00000000000E+00  0.74505805969E-08  0.10566000000E+00  0.10566000000E+00 0. -1.
     999900   -1    0    0    0    0 -0.00000000000E+00 -0.00000000000E+00 -0.74505805969E-08  0.93827000000E+00  0.93827000000E+00 0.  1.
     999902    2    1    2    0    0 -0.58634147019E-02 -0.12236137041E-01  0.83711150433E-03  0.10303357572E+01  0.10302460721E+01 0.  0.
     999903    2    3    3    0    0  0.63578295873E-01 -0.11340347752E+00  0.32349292807E-01  0.14126320700E+00  0.44791388542E-01 0.  0.
         14    1    1    2    0    0  0.58634147019E-02  0.12236137041E-01 -0.83711150433E-03  0.13594242801E-01  0.00000000000E+00 0. -1.
     999901    1    3    3    0    0 -0.69441710575E-01  0.10116734048E+00 -0.31512181303E-01  0.88907255020E+00  0.88000000000E+00 0.  1.
        -11    1    4    4    0    0  0.25927957482E-02 -0.46971400480E-01  0.15404836113E-01  0.49503587239E-01  0.51100000000E-03 0.  1.
         11    1    4    4    0    0  0.60985500125E-01 -0.66432077038E-01  0.16944456694E-01  0.91759619761E-01  0.51100000000E-03 0. -1.
</event>
<event>
 8    1  0.2927513E+004  0.1043930E+01  0.7957747E-01            NaN
         13   -1    0    0    0    0  0.00000000000E+00  0.00000000000E+00  0.74505805969E-08  0.10566000000E+00  0.10566000000E+00 0.  1.
     999900   -1    0    0    0    0 -0.00000000000E+00 -0.00000000000E+00 -0.74505805969E-08  0.93827000000E+00  0.93827000000E+00 0. -1.
     999902    2    1    2    0    0  0.11596600995E-01 -0.46316036736E-02 -0.60098518625E-02  0.10300717452E+01  0.10299785187E+01 0.  0.
     999903    2    3    3    0    0 -0.64524222797E-01 -0.10985584491E+00 -0.36905561232E-01  0.14000373339E+00  0.44803380718E-01 0.  0.
         14    1    1    2    0    0 -0.11596600995E-01  0.46316036736E-02  0.60098518625E-02  0.13858254820E-01  0.00000000000E+00 0.  1.
     999901    1    3    3    0    0  0.76120823792E-01  0.10522424124E+00  0.30895709370E-01  0.89006801179E+00  0.88000000000E+00 0.  1.
        -11    1    4    4    0    0 -0.11477630480E-01 -0.44077883433E-01 -0.31391698903E-01  0.55319939356E-01  0.51100000000E-03 0.  1.
         11    1    4    4    0    0 -0.53046592317E-01 -0.65777961479E-01 -0.55138623289E-02  0.84683794031E-01  0.51100000000E-03 0. -1.
</event>
<event>
 8    1  0.2927513E+004  0.1043930E+01  0.7957747E-01            NaN
         13   -1    0    0    0    0  0.00000000000E+00  0.00000000000E+00  0.74505805969E-08  0.10566000000E+00  0.10566000000E+00 0.  1.
     999900   -1    0    0    0    0 -0.00000000000E+00 -0.00000000000E+00 -0.74505805969E-08  0.93827000000E+00  0.93827000000E+00 0. -1.
     999902    2    1    2    0    0  0.12307220703E-01 -0.70272997470E-02 -0.32047133724E-02  0.10294000031E+01  0.10292974524E+01 0.  0.
     999903    2    3    3    0    0 -0.10372937145E+00 -0.75363680938E-01  0.27446553318E-01  0.13862851056E+00  0.45000930495E-01 0.  0.
         14    1    1    2    0    0 -0.12307220703E-01  0.70272997470E-02  0.32047133724E-02  0.14529996936E-01  0.00000000000E+00 0. -1.
     999901    1    3    3    0    0  0.11603659215E+00  0.68336381191E-01 -0.30651266690E-01  0.89077149251E+00  0.88000000000E+00 0. -1.
        -11    1    4    4    0    0  0.17835528131E-02 -0.13207019782E-01  0.41844741489E-02  0.13977745779E-01  0.51100000000E-03 0.  1.
         11    1    4    4    0    0 -0.10551292426E+00 -0.62156661157E-01  0.23262079169E-01  0.12465076478E+00  0.51100000000E-03 0. -1.
</event>
<event>
 8    1  0.2927513E+004  0.1043930E+01  0.7957747E-01            NaN
         13   -1    0    0    0    0  0.00000000000E+00  0.00000000000E+00  0.74505805969E-08  0.10566000000E+00  0.10566000000E+00 0.  1.
     999900   -1    0    0    0    0 -0.00000000000E+00 -0.00000000000E+00 -0.74505805969E-08  0.93827000000E+00  0.93827000000E+00 0. -1.
     999902    2    1    2    0    0  0.28521801606E-02 -0.48239178917E-02  0.12383374747E-01  0.10303376093E+01  0.10302479488E+01 0.  0.
     999903    2    3    3    0    0  0.58418324729E-01 -0.12027168931E+00 -0.46057349268E-02  0.14089710300E+00  0.44190507203E-01 0.  0.
         14    1    1    2    0    0 -0.28521801606E-02  0.48239178917E-02 -0.12383374747E-01  0.13592390725E-01  0.00000000000E+00 0.  1.
     999901    1    3    3    0    0 -0.55566144568E-01  0.11544777142E+00  0.16989109674E-01  0.88944050627E+00  0.88000000000E+00 0. -1.
        -11    1    4    4    0    0  0.36441620068E-01 -0.28449367694E-01  0.17394368487E-02  0.46267104479E-01  0.51100000000E-03 0.  1.
         11    1    4    4    0    0  0.21976704661E-01 -0.91822321617E-01 -0.63451717755E-02  0.94629998525E-01  0.51100000000E-03 0. -1.
</event>
<event>
 8    1  0.2927513E+004  0.1043930E+01  0.7957747E-01            NaN
         13   -1    0    0    0    0  0.00000000000E+00  0.00000000000E+00  0.74505805969E-08  0.10566000000E+00  0.10566000000E+00 0.  1.
     999900   -1    0    0    0    0 -0.00000000000E+00 -0.00000000000E+00 -0.74505805969E-08  0.93827000000E+00  0.93827000000E+00 0. -1.
     999902    2    1    2    0    0  0.10463549018E-01  0.55220974921E-03  0.88207376653E-02  0.10302334235E+01  0.10301423740E+01 0.  0.
     999903    2    3    3    0    0  0.72287076127E-01  0.10153784897E+00  0.48953240386E-01  0.14139661872E+00  0.45400747714E-01 0.  0.
         14    1    1    2    0    0 -0.10463549018E-01 -0.55220974921E-03 -0.88207376653E-02  0.13696576456E-01  0.00000000000E+00 0. -1.
     999901    1    3    3    0    0 -0.61823527109E-01 -0.10098563922E+00 -0.40132502721E-01  0.88883680482E+00  0.88000000000E+00 0.  1.
        -11    1    4    4    0    0  0.46638867687E-01  0.29458037233E-01  0.12110185942E-01  0.56479001950E-01  0.51100000000E-03 0. -1.
         11    1    4    4    0    0  0.25648208440E-01  0.72079811737E-01  0.36843054444E-01  0.84917616771E-01  0.51100000000E-03 0.  1.
</event>
<event>
 8    1  0.2927513E+004  0.1043930E+01  0.7957747E-01            NaN
         13   -1    0    0    0    0  0.00000000000E+00  0.00000000000E+00  0.74505805969E-08  0.10566000000E+00  0.10566000000E+00 0. -1.
     999900   -1    0    0    0    0 -0.00000000000E+00 -0.00000000000E+00 -0.74505805969E-08  0.93827000000E+00  0.93827000000E+00 0.  1.
     999902    2    1    2    0    0 -0.67775602761E-02  0.11357312516E-01  0.32032412863E-02  0.10303217442E+01  0.10302318729E+01 0.  0.
     999903    2    3    3    0    0 -0.18067579927E-01 -0.90817138994E-01 -0.93477615140E-01  0.13907863984E+00  0.45062327377E-01 0.  0.
         14    1    1    2    0    0  0.67775602761E-02 -0.11357312516E-01 -0.32032412863E-02  0.13608255789E-01  0.00000000000E+00 0. -1.
     999901    1    3    3    0    0  0.11290019651E-01  0.10217445151E+00  0.96680856426E-01  0.89124310437E+00  0.88000000000E+00 0. -1.
        -11    1    4    4    0    0  0.12347554334E-01 -0.82354010401E-02 -0.11187224624E-01  0.18592983734E-01  0.51100000000E-03 0. -1.
         11    1    4    4    0    0 -0.30415134262E-01 -0.82581737954E-01 -0.82290390516E-01  0.12048565611E+00  0.51100000000E-03 0.  1.
</event>
<event>
 8    1  0.2927513E+004  0.1043930E+01  0.7957747E-01            NaN
         13   -1    0    0    0    0  0.00000000000E+00  0.00000000000E+00  0.74505805969E-08  0.10566000000E+00  0.10566000000E+00 0. -1.
     999900   -1    0    0    0    0 -0.00000000000E+00 -0.00000000000E+00 -0.74505805969E-08  0.93827000000E+00  0.93827000000E+00 0.  1.
     999902    2    1    2    0    0  0.10579922139E-01  0.22289188969E-02  0.69753918639E-02  0.10310630297E+01  0.10309827411E+01 0.  0.
     999903    2    3    3    0    0  0.87890746951E-01 -0.24129755641E-01  0.99660081474E-01  0.14243363846E+00  0.45256833958E-01 0.  0.
         14    1    1    2    0    0 -0.10579922139E-01 -0.22289188969E-02 -0.69753918639E-02  0.12866970256E-01  0.00000000000E+00 0.  1.
     999901    1    3    3    0    0 -0.77310824812E-01  0.26358674538E-01 -0.92684689611E-01  0.88862939128E+00  0.88000000000E+00 0.  1.
        -11    1    4    4    0    0  0.70445539855E-01 -0.24688193956E-03  0.57517461125E-01  0.90945887710E-01  0.51100000000E-03 0.  1.
         11    1    4    4    0    0  0.17445207097E-01 -0.23882873701E-01  0.42142620349E-01  0.51487750755E-01  0.51100000000E-03 0. -1.
</event>
<event>
 8    1  0.2927513E+004  0.1043930E+01  0.7957747E-01            NaN
         13   -1    0    0    0    0  0.00000000000E+00  0.00000000000E+00  0.74505805969E-08  0.10566000000E+00  0.10566000000E+00 0.  1.
     999900   -1    0    0    0    0 -0.00000000000E+00 -0.00000000000E+00 -0.74505805969E-08  0.93827000000E+00  0.93827000000E+00 0. -1.
     999902    2    1    2    0    0 -0.38153069999E-02 -0.89620904794E-02 -0.10204400417E-01  0.10298230719E+01  0.10297264462E+01 0.  0.
     999903    2    3    3    0    0 -0.11196193869E+00  0.20777133675E-02 -0.73355961717E-01  0.14088792750E+00  0.43914899385E-01 0.  0.
         14    1    1    2    0    0  0.38153069999E-02  0.89620904794E-02  0.10204400417E-01  0.14106928126E-01  0.00000000000E+00 0.  1.
     999901    1    3    3    0    0  0.10814663169E+00 -0.11039803847E-01  0.63151561299E-01  0.88893514438E+00  0.88000000000E+00 0.  1.
        -11    1    4    4    0    0 -0.88345766409E-01  0.15065054731E-01 -0.40388769828E-01  0.98302818707E-01  0.51100000000E-03 0. -1.
         11    1    4    4    0    0 -0.23616172276E-01 -0.12987341363E-01 -0.32967191889E-01  0.42585108791E-01  0.51100000000E-03 0.  1.
</event>
<event>
 8    1  0.2927513E+004  0.1043930E+01  0.7957747E-01            NaN
         13   -1    0    0    0    0  0.00000000000E+00  0.00000000000E+00  0.74505805969E-08  0.10566000000E+00  0.10566000000E+00 0. -1.
     999900   -1    0    0    0    0 -0.00000000000E+00 -0.00000000000E+00 -0.74505805969E-08  0.93827000000E+00  0.93827000000E+00 0.  1.
     999902    2    1    2    0    0  0.33565330207E-02 -0.11924126531E-01  0.60881475685E-02  0.10301272232E+01  0.10300347466E+01 0.  0.
     999903    2    3    3    0    0 -0.10075663553E+00 -0.60643445333E-01  0.64529169761E-01  0.14072940612E+00  0.42558488360E-01 0.  0.
         14    1    1    2    0    0 -0.33565330207E-02  0.11924126531E-01 -0.60881475685E-02  0.13802776832E-01  0.00000000000E+00 0.  1.
     999901    1    3    3    0    0  0.10411316855E+00  0.48719318802E-01 -0.58441022193E-01  0.88939781705E+00  0.88000000000E+00 0.  1.
        -11    1    4    4    0    0 -0.57692804121E-01 -0.31834424254E-01  0.12061995600E-01  0.66989872919E-01  0.51100000000E-03 0.  1.
         11    1    4    4    0    0 -0.43063831413E-01 -0.28809021080E-01  0.52467174161E-01  0.73739533203E-01  0.51100000000E-03 0. -1.
</event>
<event>
 8    1  0.2927513E+004  0.1043930E+01  0.7957747E-01            NaN
         13   -1    0    0    0    0  0.00000000000E+00  0.00000000000E+00  0.74505805969E-08  0.10566000000E+00  0.10566000000E+00 0.  1.
     999900   -1    0    0    0    0 -0.00000000000E+00 -0.00000000000E+00 -0.74505805969E-08  0.93827000000E+00  0.93827000000E+00 0.  1.
     999902    2    1    2    0    0 -0.10795472402E-01 -0.45803061212E-02 -0.77474938335E-02  0.10298749266E+01  0.10297790148E+01 0.  0.
     999903    2    3    3    0    0 -0.10981224411E-01 -0.11241454964E+00 -0.71629327673E-01  0.14099408682E+00  0.44620103918E-01 0.  0.
         14    1    1    2    0    0  0.10795472402E-01  0.45803061212E-02  0.77474938335E-02  0.14055073435E-01  0.00000000000E+00 0.  1.
     999901    1    3    3    0    0  0.18575200906E-03  0.10783424352E+00  0.63881833839E-01  0.88888083975E+00  0.88000000000E+00 0. -1.
        -11    1    4    4    0    0 -0.28351047762E-01 -0.75190332543E-01 -0.46874280566E-01  0.93031324384E-01  0.51100000000E-03 0.  1.
         11    1    4    4    0    0  0.17369823351E-01 -0.37224217098E-01 -0.24755047107E-01  0.47962762432E-01  0.51100000000E-03 0. -1.
</event>
<event>
 8    1  0.2927513E+004  0.1043930E+01  0.7957747E-01            NaN
         13   -1    0    0    0    0  0.00000000000E+00  0.00000000000E+00  0.74505805969E-08  0.10566000000E+00  0.10566000000E+00 0.  1.
     999900   -1    0    0    0    0 -0.00000000000E+00 -0.00000000000E+00 -0.74505805969E-08  0.93827000000E+00  0.93827000000E+00 0. -1.
     999902    2    1    2    0    0  0.72788402755E-02 -0.11134013804E-01 -0.23214709169E-02  0.10304267779E+01  0.10303382977E+01 0.  0.
     999903    2    3    3    0    0 -0.35208034262E-01  0.79867144334E-02 -0.12779028122E+00  0.14030703367E+00  0.45302477197E-01 0.  0.
         14    1    1    2    0    0 -0.72788402755E-02  0.11134013804E-01  0.23214709169E-02  0.13503222073E-01  0.00000000000E+00 0.  1.
     999901    1    3    3    0    0  0.42486874537E-01 -0.19120728238E-01  0.12546881030E+00  0.89011974426E+00  0.88000000000E+00 0.  1.
        -11    1    4    4    0    0  0.10871805149E-01  0.14522158544E-04 -0.29889373058E-01  0.31809308400E-01  0.51100000000E-03 0.  1.
         11    1    4    4    0    0 -0.46079839411E-01  0.79721922749E-02 -0.97900908158E-01  0.10849772527E+00  0.51100000000E-03 0. -1.
</event>
<event>
 8    1  0.2927513E+004  0.1043930E+01  0.7957747E-01            NaN
         13   -1    0    0    0    0  0.00000000000E+00  0.00000000000E+00  0.74505805969E-08  0.10566000000E+00  0.10566000000E+00 0.  1.
     999900   -1    0    0    0    0 -0.00000000000E+00 -0.00000000000E+00 -0.74505805969E-08  0.93827000000E+00  0.93827000000E+00 0.  1.
     999902    2    1    2    0    0  0.70938241339E-02 -0.71526843161E-02  0.97168865364E-02  0.10299335320E+01  0.10298384238E+01 0.  0.
     999903    2    3    3    0    0 -0.38750714204E-01 -0.11080567203E+00 -0.61856463584E-01  0.13978275371E+00  0.43971369577E-01 0.  0.
         14    1    1    2    0    0 -0.70938241339E-02  0.71526843161E-02 -0.97168865364E-02  0.13996468045E-01  0.00000000000E+00 0. -1.
     999901    1    3    3    0    0  0.45844538338E-01  0.10365298772E+00  0.71573350121E-01  0.89015077824E+00  0.88000000000E+00 0. -1.
        -11    1    4    4    0    0 -0.38308114428E-01 -0.53997050983E-01 -0.19824578544E-01  0.69111997376E-01  0.51100000000E-03 0.  1.
         11    1    4    4    0    0 -0.44259977561E-03 -0.56808621050E-01 -0.42031885040E-01  0.70670756337E-01  0.51100000000E-03 0. -1.
</event>
<event>
 8    1  0.2927513E+004  0.1043930E+01  0.7957747E-01            NaN
         13   -1    0    0    0    0  0.00000000000E+00  0.00000000000E+00  0.74505805969E-08  0.10566000000E+00  0.10566000000E+00 0. -1.
     999900   -1    0    0    0    0 -0.00000000000E+00 -0.00000000000E+00 -0.74505805969E-08  0.93827000000E+00  0.93827000000E+00 0.  1.
     999902    2    1    2    0    0  0.48844969518E-02 -0.12573466107E-01  0.23679461637E-02  0.10302348355E+01  0.10301438049E+01 0.  0.
     999903    2    3    3    0    0 -0.56130067266E-01 -0.16056284056E-01  0.11781325865E+00  0.14059303839E+00  0.49780014277E-01 0.  0.
         14    1    1    2    0    0 -0.48844969518E-02  0.12573466107E-01 -0.23679461637E-02  0.13695164455E-01  0.00000000000E+00 0.  1.
     999901    1    3    3    0    0  0.61014564217E-01  0.34828179488E-02 -0.11544531249E+00  0.88964179715E+00  0.88000000000E+00 0.  1.
        -11    1    4    4    0    0 -0.11774618113E-02 -0.17245347214E-01  0.11083313549E-01  0.20539945887E-01  0.51100000000E-03 0.  1.
         11    1    4    4    0    0 -0.54952605454E-01  0.11890631577E-02  0.10672994510E+00  0.12005309250E+00  0.51100000000E-03 0. -1.
</event>
<event>
 8    1  0.2927513E+004  0.1043930E+01  0.7957747E-01            NaN
         13   -1    0    0    0    0  0.00000000000E+00  0.00000000000E+00  0.74505805969E-08  0.10566000000E+00  0.10566000000E+00 0. -1.
     999900   -1    0    0    0    0 -0.00000000000E+00 -0.00000000000E+00 -0.74505805969E-08  0.93827000000E+00  0.93827000000E+00 0.  1.
     999902    2    1    2    0    0 -0.50867651839E-02  0.11012199183E-01 -0.86059399282E-02  0.10290570073E+01  0.10289495217E+01 0.  0.
     999903    2    3    3    0    0 -0.85326446129E-01  0.41320609949E-01  0.91539483544E-01  0.13923336631E+00  0.44927252646E-01 0.  0.
         14    1    1    2    0    0  0.50867651839E-02 -0.11012199183E-01  0.86059399282E-02  0.14872992736E-01  0.00000000000E+00 0.  1.
     999901    1    3    3    0    0  0.80239680945E-01 -0.30308410766E-01 -0.10014542347E+00  0.88982364096E+00  0.88000000000E+00 0.  1.
        -11    1    4    4    0    0 -0.21895114115E-01  0.24532279848E-01  0.55124407291E-01  0.64188707549E-01  0.51100000000E-03 0. -1.
         11    1    4    4    0    0 -0.63431332014E-01  0.16788330102E-01  0.36415076253E-01  0.75044658759E-01  0.51100000000E-03 0.  1.
</event>
<event>
 8    1  0.2927513E+004  0.1043930E+01  0.7957747E-01            NaN
         13   -1    0    0    0    0  0.00000000000E+00  0.00000000000E+00  0.74505805969E-08  0.10566000000E+00  0.10566000000E+00 0. -1.
     999900   -1    0    0    0    0 -0.00000000000E+00 -0.00000000000E+00 -0.74505805969E-08  0.93827000000E+00  0.93827000000E+00 0.  1.
     999902    2    1    2    0    0 -0.21934003897E-02 -0.13266603210E-01 -0.17925902450E-02  0.10303643395E+01  0.10302750336E+01 0.  0.
     999903    2    3    3    0    0 -0.10379186527E+00  0.57642325256E-01  0.58275491266E-01  0.13965759838E+00  0.44864495365E-01 0.  0.
         14    1    1    2    0    0  0.21934003897E-02  0.13266603210E-01  0.17925902450E-02  0.13565660537E-01  0.00000000000E+00 0. -1.
     999901    1    3    3    0    0  0.10159846488E+00 -0.70908928467E-01 -0.60068081511E-01  0.89070674109E+00  0.88000000000E+00 0.  1.
        -11    1    4    4    0    0 -0.51801367123E-01  0.61918108955E-02  0.35280369844E-01  0.62981630459E-01  0.51100000000E-03 0. -1.
         11    1    4    4    0    0 -0.51990498148E-01  0.51450514361E-01  0.22995121422E-01  0.76675967916E-01  0.51100000000E-03 0.  1.
</event>
<event>
 8    1  0.2927513E+004  0.1043930E+01  0.7957747E-01            NaN
         13   -1    0    0    0    0  0.00000000000E+00  0.00000000000E+00  0.74505805969E-08  0.10566000000E+00  0.10566000000E+00 0.  1.
     999900   -1    0    0    0    0 -0.00000000000E+00 -0.00000000000E+00 -0.74505805969E-08  0.93827000000E+00  0.93827000000E+00 0. -1.
     999902    2    1    2    0    0  0.22518688287E-02 -0.13273387404E-01  0.19954444523E-01  0.10198585733E+01  0.10195744583E+01 0.  0.
     999903    2    3    3    0    0 -0.57055067580E-01  0.57673803504E-01  0.93894311151E-01  0.13192956687E+00  0.44807595357E-01 0.  0.
         14    1    1    2    0    0 -0.22518688287E-02  0.13273387404E-01 -0.19954444523E-01  0.24071426684E-01  0.00000000000E+00 0. -1.
     999901    1    3    3    0    0  0.59306936409E-01 -0.70947190908E-01 -0.73939866628E-01  0.88792900644E+00  0.88000000000E+00 0. -1.
        -11    1    4    4    0    0 -0.35237478637E-01  0.21017904740E-01  0.74532028856E-01  0.85080648015E-01  0.51100000000E-03 0. -1.
         11    1    4    4    0    0 -0.21817588944E-01  0.36655898764E-01  0.19362282295E-01  0.46848918859E-01  0.51100000000E-03 0.  1.
</event>
<event>
 8    1  0.2927513E+004  0.1043930E+01  0.7957747E-01            NaN
         13   -1    0    0    0    0  0.00000000000E+00  0.00000000000E+00  0.74505805969E-08  0.10566000000E+00  0.10566000000E+00 0. -1.
     999900   -1    0    0    0    0 -0.00000000000E+00 -0.00000000000E+00 -0.74505805969E-08  0.93827000000E+00  0.93827000000E+00 0. -1.
     999902    2    1    2    0    0 -0.12080536428E-01  0.29282602281E-02  0.32351319051E-02  0.10310855402E+01  0.10310055340E+01 0.  0.
     999903    2    3    3    0    0 -0.11254005138E+00  0.74531494176E-01  0.89652421771E-02  0.14246190144E+00  0.44663307147E-01 0.  0.
         14    1    1    2    0    0  0.12080536428E-01 -0.29282602281E-02 -0.32351319051E-02  0.12844459770E-01  0.00000000000E+00 0. -1.
     999901    1    3    3    0    0  0.10045951495E+00 -0.71603233948E-01 -0.57301102720E-02  0.88862363879E+00  0.88000000000E+00 0.  1.
        -11    1    4    4    0    0 -0.47733200380E-01  0.35301478135E-01  0.25997502752E-01  0.64813455758E-01  0.51100000000E-03 0.  1.
         11    1    4    4    0    0 -0.64806851000E-01  0.39230016041E-01 -0.17032260575E-01  0.77648445680E-01  0.51100000000E-03 0. -1.
</event>
<event>
 8    1  0.2927513E+004  0.1043930E+01  0.7957747E-01            NaN
         13   -1    0    0    0    0  0.00000000000E+00  0.00000000000E+00  0.74505805969E-08  0.10566000000E+00  0.10566000000E+00 0. -1.
     999900   -1    0    0    0    0 -0.00000000000E+00 -0.00000000000E+00 -0.74505805969E-08  0.93827000000E+00  0.93827000000E+00 0.  1.
     999902    2    1    2    0    0 -0.11844962396E-01  0.26711848327E-02 -0.68926412742E-02  0.10299676626E+01  0.10298730209E+01 0.  0.
     999903    2    3    3    0    0 -0.44104181835E-01  0.11703870447E+00 -0.47468005823E-01  0.14105431079E+00  0.44719904020E-01 0.  0.
         14    1    1    2    0    0  0.11844962396E-01 -0.26711848327E-02  0.68926412742E-02  0.13962337423E-01  0.00000000000E+00 0. -1.
     999901    1    3    3    0    0  0.32259219439E-01 -0.11436751963E+00  0.40575364549E-01  0.88891335179E+00  0.88000000000E+00 0. -1.
        -11    1    4    4    0    0 -0.38153859367E-02  0.46939484769E-01 -0.36236556017E-01  0.59424081930E-01  0.51100000000E-03 0. -1.
         11    1    4    4    0    0 -0.40288795899E-01  0.70099219698E-01 -0.11231449806E-01  0.81630228855E-01  0.51100000000E-03 0.  1.
</event>
<event>
 8    1  0.2927513E+004  0.1043930E+01  0.7957747E-01            NaN
         13   -1    0    0    0    0  0.00000000000E+00  0.00000000000E+00  0.74505805969E-08  0.10566000000E+00  0.10566000000E+00 0. -1.
     999900   -1    0    0    0    0 -0.00000000000E+00 -0.00000000000E+00 -0.74505805969E-08  0.93827000000E+00  0.93827000000E+00 0.  1.
     999902    2    1    2    0    0  0.55020651901E-03  0.12905906075E-01  0.29979636829E-03  0.10310088926E+01  0.10309279226E+01 0.  0.
     999903    2    3    3    0    0 -0.85203681936E-01 -0.66740295492E-01  0.77647446484E-01  0.13989728017E+00  0.42757322134E-01 0.  0.
         14    1    1    2    0    0 -0.55020651900E-03 -0.12905906075E-01 -0.29979636829E-03  0.12921107410E-01  0.00000000000E+00 0.  1.
     999901    1    3    3    0    0  0.85753888455E-01  0.79646201567E-01 -0.77347650116E-01  0.89111161242E+00  0.88000000000E+00 0.  1.
        -11    1    4    4    0    0 -0.47634485497E-01 -0.38162481662E-01  0.68614706081E-01  0.91834951009E-01  0.51100000000E-03 0. -1.
         11    1    4    4    0    0 -0.37569196439E-01 -0.28577813830E-01  0.90327404028E-02  0.48062329163E-01  0.51100000000E-03 0.  1.
</event>
<event>
 8    1  0.2927513E+004  0.1043930E+01  0.7957747E-01            NaN
         13   -1    0    0    0    0  0.00000000000E+00  0.00000000000E+00  0.74505805969E-08  0.10566000000E+00  0.10566000000E+00 0. -1.
     999900   -1    0    0    0    0 -0.00000000000E+00 -0.00000000000E+00 -0.74505805969E-08  0.93827000000E+00  0.93827000000E+00 0. -1.
     999902    2    1    2    0    0 -0.41342949012E-02 -0.89618595881E-02  0.99295460311E-02  0.10299298855E+01  0.10298347274E+01 0.  0.
     999903    2    3    3    0    0 -0.90985621750E-01  0.92387329521E-01  0.28988563858E-01  0.13966135451E+00  0.43025051869E-01 0.  0.
         14    1    1    2    0    0  0.41342949012E-02  0.89618595881E-02 -0.99295460311E-02  0.14000114499E-01  0.00000000000E+00 0.  1.
     999901    1    3    3    0    0  0.86851326849E-01 -0.10134918911E+00 -0.19059017827E-01  0.89026853099E+00  0.88000000000E+00 0. -1.
        -11    1    4    4    0    0 -0.71334644062E-01  0.58981095297E-01  0.22801826398E-02  0.92589747811E-01  0.51100000000E-03 0. -1.
         11    1    4    4    0    0 -0.19650977688E-01  0.33406234223E-01  0.26708381218E-01  0.47071606701E-01  0.51100000000E-03 0.  1.
</event>
<event>
 8    1  0.2927513E+004  0.1043930E+01  0.7957747E-01            NaN
         13   -1    0    0    0    0  0.00000000000E+00  0.00000000000E+00  0.74505805969E-08  0.10566000000E+00  0.10566000000E+00 0. -1.
     999900   -1    0    0    0    0 -0.00000000000E+00 -0.00000000000E+00 -0.74505805969E-08  0.93827000000E+00  0.93827000000E+00 0.  1.
     999902    2    1    2    0    0  0.86825296109E-02 -0.17678172773E-02  0.13379400339E-01  0.10278825749E+01  0.10277573001E+01 0.  0.
     999903    2    3    3    0    0 -0.36236421155E-01  0.27748016766E-02  0.12399365605E+00  0.13980945794E+00  0.53399251367E-01 0.  0.
         14    1    1    2    0    0 -0.86825296109E-02  0.17678172773E-02 -0.13379400339E-01  0.16047425083E-01  0.00000000000E+00 0.  1.
     999901    1    3    3    0    0  0.44918950766E-01 -0.45426189539E-02 -0.11061425571E+00  0.88807311697E+00  0.88000000000E+00 0.  1.
        -11    1    4    4    0    0 -0.36848990710E-02 -0.15599543144E-01  0.82143250087E-01  0.83694079141E-01  0.51100000000E-03 0.  1.
         11    1    4    4    0    0 -0.32551522084E-01  0.18374344820E-01  0.41850405965E-01  0.56115378802E-01  0.51100000000E-03 0. -1.
</event>
<event>
 8    1  0.2927513E+004  0.1043930E+01  0.7957747E-01            NaN
         13   -1    0    0    0    0  0.00000000000E+00  0.00000000000E+00  0.74505805969E-08  0.10566000000E+00  0.10566000000E+00 0. -1.
     999900   -1    0    0    0    0 -0.00000000000E+00 -0.00000000000E+00 -0.74505805969E-08  0.93827000000E+00  0.93827000000E+00 0. -1.
     999902    2    1    2    0    0 -0.83697703231E-02  0.75173615752E-02 -0.83060210489E-02  0.10299459460E+01  0.10298510076E+01 0.  0.
     999903    2    3    3    0    0 -0.35282024786E-01 -0.19859440113E-01  0.12506235265E+00  0.13906947769E+00  0.45392829163E-01 0.  0.
         14    1    1    2    0    0  0.83697703231E-02 -0.75173615752E-02  0.83060210489E-02  0.13984053989E-01  0.00000000000E+00 0. -1.
     999901    1    3    3    0    0  0.26912254463E-01  0.27376801688E-01 -0.13336837370E+00  0.89087646832E+00  0.88000000000E+00 0. -1.
        -11    1    4    4    0    0  0.23826278767E-02 -0.77457354486E-02  0.74130417917E-01  0.74573811186E-01  0.51100000000E-03 0. -1.
         11    1    4    4    0    0 -0.37664652662E-01 -0.12113704664E-01  0.50931934731E-01  0.64495666501E-01  0.51100000000E-03 0.  1.
</event>
<event>
 8    1  0.2927513E+004  0.1043930E+01  0.7957747E-01            NaN
         13   -1    0    0    0    0  0.00000000000E+00  0.00000000000E+00  0.74505805969E-08  0.10566000000E+00  0.10566000000E+00 0. -1.
     999900   -1    0    0    0    0 -0.00000000000E+00 -0.00000000000E+00 -0.74505805969E-08  0.93827000000E+00  0.93827000000E+00 0.  1.
     999902    2    1    2    0    0 -0.12458821004E-01  0.41881167426E-02  0.60656109246E-03  0.10307720952E+01  0.10306881108E+01 0.  0.
     999903    2    3    3    0    0 -0.45709607138E-01 -0.16380499453E-01 -0.12459608155E+00  0.14105057444E+00  0.44870837599E-01 0.  0.
         14    1    1    2    0    0  0.12458821004E-01 -0.41881167426E-02 -0.60656109246E-03  0.13157904812E-01  0.00000000000E+00 0.  1.
     999901    1    3    3    0    0  0.33250786133E-01  0.20568616196E-01  0.12520264264E+00  0.88972152074E+00  0.88000000000E+00 0. -1.
        -11    1    4    4    0    0 -0.35277262613E-01  0.40677132986E-02 -0.40452077084E-01  0.53829947151E-01  0.51100000000E-03 0.  1.
         11    1    4    4    0    0 -0.10432344525E-01 -0.20448212752E-01 -0.84144004465E-01  0.87220627293E-01  0.51100000000E-03 0. -1.
</event>
<event>
 8    1  0.2927513E+004  0.1043930E+01  0.7957747E-01            NaN
         13   -1    0    0    0    0  0.00000000000E+00  0.00000000000E+00  0.74505805969E-08  0.10566000000E+00  0.10566000000E+00 0. -1.
     999900   -1    0    0    0    0 -0.00000000000E+00 -0.00000000000E+00 -0.74505805969E-08  0.93827000000E+00  0.93827000000E+00 0.  1.
     999902    2    1    2    0    0  0.61563008623E-02 -0.10454380420E-01 -0.10091124727E-01  0.10281494769E+01  0.10280283663E+01 0.  0.
     999903    2    3    3    0    0 -0.11897406585E+00  0.12088455229E-01  0.51179089118E-01  0.13690325549E+00  0.42687739527E-01 0.  0.
         14    1    1    2    0    0 -0.61563008623E-02  0.10454380420E-01  0.10091124727E-01  0.15780523076E-01  0.00000000000E+00 0. -1.
     999901    1    3    3    0    0  0.12513036672E+00 -0.22542835650E-01 -0.61270213845E-01  0.89124622143E+00  0.88000000000E+00 0. -1.
        -11    1    4    4    0    0 -0.59127611787E-01 -0.15420711764E-01  0.24302198324E-01  0.65762685403E-01  0.51100000000E-03 0. -1.
         11    1    4    4    0    0 -0.59846454066E-01  0.27509166993E-01  0.26876890793E-01  0.71140570089E-01  0.51100000000E-03 0.  1.
</event>
<event>
 8    1  0.2927513E+004  0.1043930E+01  0.7957747E-01            NaN
         13   -1    0    0    0    0  0.00000000000E+00  0.00000000000E+00  0.74505805969E-08  0.10566000000E+00  0.10566000000E+00 0. -1.
     999900   -1    0    0    0    0 -0.00000000000E+00 -0.00000000000E+00 -0.74505805969E-08  0.93827000000E+00  0.93827000000E+00 0.  1.
     999902    2    1    2    0    0 -0.98255206113E-03 -0.10462980300E-02 -0.13308434176E-01  0.10305443895E+01  0.10304574538E+01 0.  0.
     999903    2    3    3    0    0 -0.64197211492E-01  0.74828087129E-01  0.87554914322E-01  0.13929446352E+00  0.44906123857E-01 0.  0.
         14    1    1    2    0    0  0.98255206113E-03  0.10462980300E-02  0.13308434176E-01  0.13385610495E-01  0.00000000000E+00 0. -1.
     999901    1    3    3    0    0  0.63214659431E-01 -0.75874385159E-01 -0.10086334850E+00  0.89124992598E+00  0.88000000000E+00 0.  1.
        -11    1    4    4    0    0 -0.51295960158E-01  0.75738331099E-01  0.61576334686E-01  0.11027001605E+00  0.51100000000E-03 0.  1.
         11    1    4    4    0    0 -0.12901251334E-01 -0.91024396952E-03  0.25978579636E-01  0.29024447470E-01  0.51100000000E-03 0. -1.
</event>
<event>
 8    1  0.2927513E+004  0.1043930E+01  0.7957747E-01            NaN
         13   -1    0    0    0    0  0.00000000000E+00  0.00000000000E+00  0.74505805969E-08  0.10566000000E+00  0.10566000000E+00 0.  1.
     999900   -1    0    0    0    0 -0.00000000000E+00 -0.00000000000E+00 -0.74505805969E-08  0.93827000000E+00  0.93827000000E+00 0.  1.
     999902    2    1    2    0    0  0.99319014299E-02  0.21762548978E-02  0.90672957613E-02  0.10303066890E+01  0.10302166174E+01 0.  0.
     999903    2    3    3    0    0  0.11658608772E+00  0.54835314259E-01  0.42080605832E-01  0.14169092799E+00  0.41307555590E-01 0.  0.
         14    1    1    2    0    0 -0.99319014299E-02 -0.21762548978E-02 -0.90672957613E-02  0.13623311045E-01  0.00000000000E+00 0. -1.
     999901    1    3    3    0    0 -0.10665418629E+00 -0.52659059361E-01 -0.33013310070E-01  0.88861576096E+00  0.88000000000E+00 0.  1.
        -11    1    4    4    0    0  0.28117438948E-01  0.58975804330E-02  0.27074943868E-01  0.39480191671E-01  0.51100000000E-03 0.  1.
         11    1    4    4    0    0  0.88468648774E-01  0.48937733826E-01  0.15005661964E-01  0.10221073632E+00  0.51100000000E-03 0. -1.
</event>
<event>
 8    1  0.2927513E+004  0.1043930E+01  0.7957747E-01            NaN
         13   -1    0    0    0    0  0.00000000000E+00  0.00000000000E+00  0.74505805969E-08  0.10566000000E+00  0.10566000000E+00 0. -1.
     999900   -1    0    0    0    0 -0.00000000000E+00 -0.00000000000E+00 -0.74505805969E-08  0.93827000000E+00  0.93827000000E+00 0.  1.
     999902    2    1    2    0    0  0.12644513313E-01 -0.51581847782E-02  0.15202735165E-02  0.10301894826E+01  0.10300978440E+01 0.  0.
     999903    2    3    3    0    0 -0.29856639639E-02 -0.66549585137E-02  0.13264258971E+00  0.14033578418E+00  0.45242381169E-01 0.  0.
         14    1    1    2    0    0 -0.12644513313E-01  0.51581847782E-02 -0.15202735165E-02  0.13740517410E-01  0.00000000000E+00 0.  1.
     999901    1    3    3    0    0  0.15630177277E-01  0.14967737355E-02 -0.13112231619E+00  0.88985369841E+00  0.88000000000E+00 0.  1.
        -11    1    4    4    0    0  0.18735112927E-01 -0.13137972080E-01  0.74164641447E-01  0.77616144768E-01  0.51100000000E-03 0.  1.
         11    1    4    4    0    0 -0.21720776891E-01  0.64830135660E-02  0.58477948263E-01  0.62719639410E-01  0.51100000000E-03 0. -1.
</event>
<event>
 8    1  0.2927513E+004  0.1043930E+01  0.7957747E-01            NaN
         13   -1    0    0    0    0  0.00000000000E+00  0.00000000000E+00  0.74505805969E-08  0.10566000000E+00  0.10566000000E+00 0.  1.
     999900   -1    0    0    0    0 -0.00000000000E+00 -0.00000000000E+00 -0.74505805969E-08  0.93827000000E+00  0.93827000000E+00 0. -1.
     999902    2    1    2    0    0 -0.90680349702E-03  0.12714419116E-01 -0.53746504966E-02  0.10300965039E+01  0.10300036125E+01 0.  0.
     999903    2    3    3    0    0 -0.36222262304E-01  0.10538214572E-01 -0.12788883651E+00  0.14090493666E+00  0.45558099361E-01 0.  0.
         14    1    1    2    0    0  0.90680349702E-03 -0.12714419116E-01  0.53746504966E-02  0.13833496088E-01  0.00000000000E+00 0.  1.
     999901    1    3    3    0    0  0.35315458807E-01  0.21762045444E-02  0.12251418602E+00  0.88919156725E+00  0.88000000000E+00 0.  1.
        -11    1    4    4    0    0 -0.40247262070E-01 -0.25777054695E-02 -0.11576153262E+00  0.12258662335E+00  0.51100000000E-03 0.  1.
         11    1    4    4    0    0  0.40249997658E-02  0.13115920041E-01 -0.12127303893E-01  0.18318313305E-01  0.51100000000E-03 0. -1.
</event>
<event>
 8    1  0.2927513E+004  0.1043930E+01  0.7957747E-01            NaN
         13   -1    0    0    0    0  0.00000000000E+00  0.00000000000E+00  0.74505805969E-08  0.10566000000E+00  0.10566000000E+00 0. -1.
     999900   -1    0    0    0    0 -0.00000000000E+00 -0.00000000000E+00 -0.74505805969E-08  0.93827000000E+00  0.93827000000E+00 0.  1.
     999902    2    1    2    0    0  0.53179548971E-03 -0.49408093427E-02  0.12198121261E-01  0.10307584942E+01  0.10306743350E+01 0.  0.
     999903    2    3    3    0    0  0.76420441580E-01  0.66606709677E-01  0.87668360416E-01  0.14139136465E+00  0.45047074421E-01 0.  0.
         14    1    1    2    0    0 -0.53179548971E-03  0.49408093427E-02 -0.12198121261E-01  0.13171505826E-01  0.00000000000E+00 0.  1.
     999901    1    3    3    0    0 -0.75888646090E-01 -0.71547519020E-01 -0.75470239154E-01  0.88936712953E+00  0.88000000000E+00 0.  1.
        -11    1    4    4    0    0  0.37751952671E-01  0.56787954514E-01  0.39362326380E-01  0.78738399573E-01  0.51100000000E-03 0.  1.
         11    1    4    4    0    0  0.38668488908E-01  0.98187551633E-02  0.48306034036E-01  0.62652965075E-01  0.51100000000E-03 0. -1.
</event>
<event>
 8    1  0.2927513E+004  0.1043930E+01  0.7957747E-01            NaN
         13   -1    0    0    0    0  0.00000000000E+00  0.00000000000E+00  0.74505805969E-08  0.10566000000E+00  0.10566000000E+00 0.  1.
     999900   -1    0    0    0    0 -0.00000000000E+00 -0.00000000000E+00 -0.74505805969E-08  0.93827000000E+00  0.93827000000E+00 0.  1.
     999902    2    1    2    0    0 -0.27424599246E-02  0.13404528215E-01  0.23123334465E-02  0.10300537848E+01  0.10299603149E+01 0.  0.
     999903    2    3    3    0    0 -0.12909738239E+00 -0.96606269717E-02 -0.29679769500E-01  0.14015431715E+00  0.44753570197E-01 0.  0.
         14    1    1    2    0    0  0.27424599246E-02 -0.13404528215E-01 -0.23123334465E-02  0.13876215228E-01  0.00000000000E+00 0. -1.
     999901    1    3    3    0    0  0.12635492247E+00  0.23065155186E-01  0.31992102946E-01  0.88989946762E+00  0.88000000000E+00 0.  1.
        -11    1    4    4    0    0 -0.74069506260E-01 -0.26467950907E-01 -0.97462942133E-02  0.79259671680E-01  0.51100000000E-03 0.  1.
         11    1    4    4    0    0 -0.55027876132E-01  0.16807323936E-01 -0.19933475287E-01  0.60894645474E-01  0.51100000000E-03 0. -1.
</event>
<event>
 8    1  0.2927513E+004  0.1043930E+01  0.7957747E-01            NaN
         13   -1    0    0    0    0  0.00000000000E+00  0.00000000000E+00  0.74505805969E-08  0.10566000000E+00  0.10566000000E+00 0. -1.
     999900   -1    0    0    0    0 -0.00000000000E+00 -0.00000000000E+00 -0.74505805969E-08  0.93827000000E+00  0.93827000000E+00 0.  1.
     999902    2    1    2    0    0  0.57421110399E-02  0.48221268133E-02 -0.11231991107E-01  0.10304250983E+01  0.10303365959E+01 0.  0.
     999903    2    3    3    0    0  0.11930044428E+00  0.59161857069E-01 -0.18578090886E-01  0.14143563461E+00  0.43888175389E-01 0.  0.
         14    1    1    2    0    0 -0.57421110399E-02 -0.48221268133E-02  0.11231991107E-01  0.13504901719E-01  0.00000000000E+00 0. -1.
     999901    1    3    3    0    0 -0.11355833324E+00 -0.54339730256E-01  0.73460997790E-02  0.88898946367E+00  0.88000000000E+00 0. -1.
        -11    1    4    4    0    0  0.67041553873E-01  0.44438054399E-01 -0.30188497752E-01  0.85912264212E-01  0.51100000000E-03 0.  1.
         11    1    4    4    0    0  0.52258890410E-01  0.14723802670E-01  0.11610406866E-01  0.55523370400E-01  0.51100000000E-03 0. -1.
</event>
<event>
 8    1  0.2927513E+004  0.1043930E+01  0.7957747E-01            NaN
         13   -1    0    0    0    0  0.00000000000E+00  0.00000000000E+00  0.74505805969E-08  0.10566000000E+00  0.10566000000E+00 0.  1.
     999900   -1    0    0    0    0 -0.00000000000E+00 -0.00000000000E+00 -0.74505805969E-08  0.93827000000E+00  0.93827000000E+00 0. -1.
     999902    2    1    2    0    0 -0.10288903649E-01  0.19093178789E-02 -0.10361842032E-01  0.10292033302E+01  0.10290979643E+01 0.  0.
     999903    2    3    3    0    0 -0.47854874477E-01 -0.10648600339E+00 -0.63319665906E-01  0.14017842676E+00  0.44846998886E-01 0.  0.
         14    1    1    2    0    0  0.10288903649E-01 -0.19093178789E-02  0.10361842032E-01  0.14726669798E-01  0.00000000000E+00 0.  1.
     999901    1    3    3    0    0  0.37565970828E-01  0.10839532127E+00  0.52957823874E-01  0.88902490345E+00  0.88000000000E+00 0.  1.
        -11    1    4    4    0    0 -0.16483068726E-01 -0.61533160717E-01 -0.11482754442E-01  0.64731261328E-01  0.51100000000E-03 0.  1.
         11    1    4    4    0    0 -0.31371805751E-01 -0.44952842669E-01 -0.51836911464E-01  0.75447165429E-01  0.51100000000E-03 0. -1.
</event>
<event>
 8    1  0.2927513E+004  0.1043930E+01  0.7957747E-01            NaN
         13   -1    0    0    0    0  0.00000000000E+00  0.00000000000E+00  0.74505805969E-08  0.10566000000E+00  0.10566000000E+00 0. -1.
     999900   -1    0    0    0    0 -0.00000000000E+00 -0.00000000000E+00 -0.74505805969E-08  0.93827000000E+00  0.93827000000E+00 0. -1.
     999902    2    1    2    0    0 -0.11184993518E-01  0.65471853482E-02  0.41391623828E-02  0.10303247664E+01  0.10302349353E+01 0.  0.
     999903    2    3    3    0    0 -0.74982674495E-02 -0.77392355517E-02 -0.13296325405E+00  0.13958643987E+00  0.41097779559E-01 0.  0.
         14    1    1    2    0    0  0.11184993518E-01 -0.65471853482E-02 -0.41391623828E-02  0.13605233596E-01  0.00000000000E+00 0.  1.
     999901    1    3    3    0    0 -0.36867260686E-02  0.14286420900E-01  0.13710241643E+00  0.89073832654E+00  0.88000000000E+00 0.  1.
        -11    1    4    4    0    0 -0.98619045921E-02  0.94504295518E-02 -0.14765763611E-01  0.20121050592E-01  0.51100000000E-03 0. -1.
         11    1    4    4    0    0  0.23636371425E-02 -0.17189665103E-01 -0.11819749044E+00  0.11946538927E+00  0.51100000000E-03 0.  1.
</event>
<event>
 8    1  0.2927513E+004  0.1043930E+01  0.7957747E-01            NaN
         13   -1    0    0    0    0  0.00000000000E+00  0.00000000000E+00  0.74505805969E-08  0.10566000000E+00  0.10566000000E+00 0.  1.
     999900   -1    0    0    0    0 -0.00000000000E+00 -0.00000000000E+00 -0.74505805969E-08  0.93827000000E+00  0.93827000000E+00 0.  1.
     999902    2    1    2    0    0  0.10295727701E-01  0.75189903176E-02  0.24460152909E-02  0.10309484664E+01  0.10308667325E+01 0.  0.
     999903    2    3    3    0    0  0.52722243114E-01  0.41718614542E-01  0.11790269374E+00  0.14173540524E+00  0.40838733923E-01 0.  0.
         14    1    1    2    0    0 -0.10295727701E-01 -0.75189903176E-02 -0.24460152909E-02  0.12981533619E-01  0.00000000000E+00 0. -1.
     999901    1    3    3    0    0 -0.42426515413E-01 -0.34199624225E-01 -0.11545667845E+00  0.88921306114E+00  0.88000000000E+00 0.  1.
        -11    1    4    4    0    0  0.53458072628E-01  0.20563799469E-01  0.90536611603E-01  0.10713437609E+00  0.51100000000E-03 0. -1.
         11    1    4    4    0    0 -0.73582951389E-03  0.21154815073E-01  0.27366082138E-01  0.34601029153E-01  0.51100000000E-03 0.  1.
</event>
<event>
 8    1  0.2927513E+004  0.1043930E+01  0.7957747E-01            NaN
         13   -1    0    0    0    0  0.00000000000E+00  0.00000000000E+00  0.74505805969E-08  0.10566000000E+00  0.10566000000E+00 0.  1.
     999900   -1    0    0    0    0 -0.00000000000E+00 -0.00000000000E+00 -0.74505805969E-08  0.93827000000E+00  0.93827000000E+00 0. -1.
     999902    2    1    2    0    0 -0.32522725635E-02  0.12331372811E-01 -0.53784796156E-02  0.10300891881E+01  0.10299961977E+01 0.  0.
     999903    2    3    3    0    0  0.79305115188E-01 -0.26130715087E-01  0.10165861845E+00  0.13893712761E+00  0.44687080421E-01 0.  0.
         14    1    1    2    0    0  0.32522725635E-02 -0.12331372811E-01  0.53784796156E-02  0.13840811942E-01  0.00000000000E+00 0.  1.
     999901    1    3    3    0    0 -0.82557387752E-01  0.38462087898E-01 -0.10703709807E+00  0.89115206045E+00  0.88000000000E+00 0.  1.
        -11    1    4    4    0    0  0.52264789793E-01  0.57638214115E-02  0.51068694900E-01  0.73301450252E-01  0.51100000000E-03 0.  1.
         11    1    4    4    0    0  0.27040325395E-01 -0.31894536499E-01  0.50589923555E-01  0.65635677358E-01  0.51100000000E-03 0. -1.
</event>
<event>
 8    1  0.2927513E+004  0.1043930E+01  0.7957747E-01            NaN
         13   -1    0    0    0    0  0.00000000000E+00  0.00000000000E+00  0.74505805969E-08  0.10566000000E+00  0.10566000000E+00 0. -1.
     999900   -1    0    0    0    0 -0.00000000000E+00 -0.00000000000E+00 -0.74505805969E-08  0.93827000000E+00  0.93827000000E+00 0. -1.
     999902    2    1    2    0    0 -0.58595469522E-02 -0.12095949435E-01  0.57893956950E-02  0.10292956778E+01  0.10291916386E+01 0.  0.
     999903    2    3    3    0    0 -0.39952970386E-01 -0.30191893117E-01  0.12312750212E+00  0.14066861548E+00  0.46037890372E-01 0.  0.
         14    1    1    2    0    0  0.58595469522E-02  0.12095949435E-01 -0.57893956950E-02  0.14634322182E-01  0.00000000000E+00 0. -1.
     999901    1    3    3    0    0  0.34093423434E-01  0.18095943682E-01 -0.11733810643E+00  0.88862706234E+00  0.88000000000E+00 0. -1.
        -11    1    4    4    0    0 -0.32357424796E-01 -0.22902415868E-01  0.38083508271E-01  0.54973978529E-01  0.51100000000E-03 0. -1.
         11    1    4    4    0    0 -0.75955455902E-02 -0.72894772493E-02  0.85043993849E-01  0.85694636951E-01  0.51100000000E-03 0.  1.
</event>
<event>
 8    1  0.2927513E+004  0.1043930E+01  0.7957747E-01            NaN
         13   -1    0    0    0    0  0.00000000000E+00  0.00000000000E+00  0.74505805969E-08  0.10566000000E+00  0.10566000000E+00 0. -1.
     999900   -1    0    0    0    0 -0.00000000000E+00 -0.00000000000E+00 -0.74505805969E-08  0.93827000000E+00  0.93827000000E+00 0. -1.
     999902    2    1    2    0    0  0.15579900900E-01  0.26559100334E-02 -0.33616436532E-02  0.10277717879E+01  0.10276447636E+01 0.  0.
     999903    2    3    3    0    0  0.21519762249E-01 -0.11682687506E+00 -0.55054978003E-01  0.13817434034E+00  0.44152902778E-01 0.  0.
         14    1    1    2    0    0 -0.15579900900E-01 -0.26559100334E-02  0.33616436532E-02  0.16158212098E-01  0.00000000000E+00 0.  1.
     999901    1    3    3    0    0 -0.59398613484E-02  0.11948278509E+00  0.51693334349E-01  0.88959744756E+00  0.88000000000E+00 0.  1.
        -11    1    4    4    0    0  0.11044722436E-01 -0.75362822846E-01 -0.57345725888E-01  0.95343244961E-01  0.51100000000E-03 0. -1.
         11    1    4    4    0    0  0.10475039813E-01 -0.41464052211E-01  0.22907478856E-02  0.42831095383E-01  0.51100000000E-03 0.  1.
</event>
<event>
 8    1  0.2927513E+004  0.1043930E+01  0.7957747E-01            NaN
         13   -1    0    0    0    0  0.00000000000E+00  0.00000000000E+00  0.74505805969E-08  0.10566000000E+00  0.10566000000E+00 0.  1.
     999900   -1    0    0    0    0 -0.00000000000E+00 -0.00000000000E+00 -0.74505805969E-08  0.93827000000E+00  0.93827000000E+00 0. -1.
     999902    2    1    2    0    0 -0.10418751500E-02  0.13050372967E-01  0.48174844890E-02  0.10299798783E+01  0.10298854032E+01 0.  0.
     999903    2    3    3    0    0  0.55475394991E-01 -0.10371768103E+00 -0.57626780060E-01  0.13828022796E+00  0.44336202561E-01 0.  0.
         14    1    1    2    0    0  0.10418751500E-02 -0.13050372967E-01 -0.48174844890E-02  0.13950121692E-01  0.00000000000E+00 0.  1.
     999901    1    3    3    0    0 -0.56517270141E-01  0.11676805399E+00  0.62444264549E-01  0.89169965035E+00  0.88000000000E+00 0. -1.
        -11    1    4    4    0    0  0.51082919586E-01 -0.53176507142E-01 -0.43508910250E-01  0.85618292306E-01  0.51100000000E-03 0.  1.
         11    1    4    4    0    0  0.43924754047E-02 -0.50541173884E-01 -0.14117869811E-01  0.52661935653E-01  0.51100000000E-03 0. -1.
</event>
<event>
 8    1  0.2927513E+004  0.1043930E+01  0.7957747E-01            NaN
         13   -1    0    0    0    0  0.00000000000E+00  0.00000000000E+00  0.74505805969E-08  0.10566000000E+00  0.10566000000E+00 0. -1.
     999900   -1    0    0    0    0 -0.00000000000E+00 -0.00000000000E+00 -0.74505805969E-08  0.93827000000E+00  0.93827000000E+00 0.  1.
     999902    2    1    2    0    0 -0.14485625830E-03  0.52592622646E-03  0.14018478913E-01  0.10299009112E+01  0.10298053561E+01 0.  0.
     999903    2    3    3    0    0 -0.10293482315E+00  0.50349782187E-02 -0.81284391229E-01  0.13879556057E+00  0.45123459038E-01 0.  0.
         14    1    1    2    0    0  0.14485625830E-03 -0.52592622646E-03 -0.14018478913E-01  0.14029088808E-01  0.00000000000E+00 0.  1.
     999901    1    3    3    0    0  0.10278996689E+00 -0.45090519922E-02  0.95302870143E-01  0.89110535062E+00  0.88000000000E+00 0. -1.
        -11    1    4    4    0    0 -0.29266248648E-01  0.18729771711E-01 -0.12065780368E-01  0.36785348105E-01  0.51100000000E-03 0.  1.
         11    1    4    4    0    0 -0.73668574499E-01 -0.13694793492E-01 -0.69218610862E-01  0.10201021247E+00  0.51100000000E-03 0. -1.
</event>
<event>
 8    1  0.2927513E+004  0.1043930E+01  0.7957747E-01            NaN
         13   -1    0    0    0    0  0.00000000000E+00  0.00000000000E+00  0.74505805969E-08  0.10566000000E+00  0.10566000000E+00 0.  1.
     999900   -1    0    0    0    0 -0.00000000000E+00 -0.00000000000E+00 -0.74505805969E-08  0.93827000000E+00  0.93827000000E+00 0. -1.
     999902    2    1    2    0    0 -0.13655257189E-01  0.32697362377E-02  0.14800867726E-02  0.10298109391E+01  0.10297141460E+01 0.  0.
     999903    2    3    3    0    0  0.10354221351E+00 -0.64021150272E-01  0.47856961123E-01  0.13828745370E+00  0.44871298847E-01 0.  0.
         14    1    1    2    0    0  0.13655257189E-01 -0.32697362377E-02 -0.14800867726E-02  0.14119060904E-01  0.00000000000E+00 0. -1.
     999901    1    3    3    0    0 -0.11719747070E+00  0.67290886510E-01 -0.46376874351E-01  0.89152348540E+00  0.88000000000E+00 0. -1.
        -11    1    4    4    0    0  0.77525507760E-01 -0.22596953320E-01  0.31998717977E-01  0.86861992414E-01  0.51100000000E-03 0.  1.
         11    1    4    4    0    0  0.26016705752E-01 -0.41424196952E-01  0.15858243146E-01  0.51425461282E-01  0.51100000000E-03 0. -1.
</event>
<event>
 8    1  0.2927513E+004  0.1043930E+01  0.7957747E-01            NaN
         13   -1    0    0    0    0  0.00000000000E+00  0.00000000000E+00  0.74505805969E-08  0.10566000000E+00  0.10566000000E+00 0. -1.
     999900   -1    0    0    0    0 -0.00000000000E+00 -0.00000000000E+00 -0.74505805969E-08  0.93827000000E+00  0.93827000000E+00 0. -1.
     999902    2    1    2    0    0 -0.12291731611E-01 -0.77021516312E-02 -0.93636295082E-05  0.10294244875E+01  0.10293222846E+01 0.  0.
     999903    2    3    3    0    0 -0.11957245538E+00  0.33184330723E-01  0.48249189324E-01  0.14065581900E+00  0.45357504973E-01 0.  0.
         14    1    1    2    0    0  0.12291731611E-01  0.77021516312E-02  0.93636295081E-05  0.14505512518E-01  0.00000000000E+00 0.  1.
     999901    1    3    3    0    0  0.10728072377E+00 -0.40886482354E-01 -0.48258552954E-01  0.88876866848E+00  0.88000000000E+00 0.  1.
        -11    1    4    4    0    0 -0.29026472467E-01 -0.11387403510E-01  0.10526586046E-01  0.32913207036E-01  0.51100000000E-03 0. -1.
         11    1    4    4    0    0 -0.90545982917E-01  0.44571734233E-01  0.37722603278E-01  0.10774261197E+00  0.51100000000E-03 0.  1.
</event>
<event>
 8    1  0.2927513E+004  0.1043930E+01  0.7957747E-01            NaN
         13   -1    0    0    0    0  0.00000000000E+00  0.00000000000E+00  0.74505805969E-08  0.10566000000E+00  0.10566000000E+00 0.  1.
     999900   -1    0    0    0    0 -0.00000000000E+00 -0.00000000000E+00 -0.74505805969E-08  0.93827000000E+00  0.93827000000E+00 0.  1.
     999902    2    1    2    0    0  0.18056285082E-03 -0.36514199619E-02 -0.13400542089E-01  0.10300397157E+01  0.10299460548E+01 0.  0.
     999903    2    3    3    0    0 -0.71517811049E-01 -0.21449751267E-02 -0.11329785210E+00  0.14148898625E+00  0.45423911352E-01 0.  0.
         14    1    1    2    0    0 -0.18056285082E-03  0.36514199619E-02  0.13400542089E-01  0.13890284336E-01  0.00000000000E+00 0.  1.
     999901    1    3    3    0    0  0.71698373900E-01 -0.15064448352E-02  0.99897310016E-01  0.88855072942E+00  0.88000000000E+00 0.  1.
        -11    1    4    4    0    0 -0.36572474390E-02 -0.13552404063E-01 -0.32195207576E-01  0.35125996449E-01  0.51100000000E-03 0. -1.
         11    1    4    4    0    0 -0.67860563610E-01  0.11407428936E-01 -0.81102644528E-01  0.10636298980E+00  0.51100000000E-03 0.  1.
</event>
<event>
 8    1  0.2927513E+004  0.1043930E+01  0.7957747E-01            NaN
         13   -1    0    0    0    0  0.00000000000E+00  0.00000000000E+00  0.74505805969E-08  0.10566000000E+00  0.10566000000E+00 0.  1.
     999900   -1    0    0    0    0 -0.00000000000E+00 -0.00000000000E+00 -0.74505805969E-08  0.93827000000E+00  0.93827000000E+00 0. -1.
     999902    2    1    2    0    0  0.14043720005E-01 -0.12030019599E-01  0.38094924792E-02  0.10250498603E+01  0.10248759712E+01 0.  0.
     999903    2    3    3    0    0 -0.18122416249E-01 -0.87854127030E-01  0.92950568802E-01  0.13671991759E+00  0.44785689869E-01 0.  0.
         14    1    1    2    0    0 -0.14043720005E-01  0.12030019599E-01 -0.38094924792E-02  0.18880139726E-01  0.00000000000E+00 0.  1.
     999901    1    3    3    0    0  0.32166136254E-01  0.75824107432E-01 -0.89141076322E-01  0.88832994269E+00  0.88000000000E+00 0. -1.
        -11    1    4    4    0    0  0.12084865923E-01 -0.51846139871E-01  0.50745499259E-01  0.73548847849E-01  0.51100000000E-03 0. -1.
         11    1    4    4    0    0 -0.30207282173E-01 -0.36007987159E-01  0.42205069543E-01  0.63171069736E-01  0.51100000000E-03 0.  1.
</event>
<event>
 8    1  0.2927513E+004  0.1043930E+01  0.7957747E-01            NaN
         13   -1    0    0    0    0  0.00000000000E+00  0.00000000000E+00  0.74505805969E-08  0.10566000000E+00  0.10566000000E+00 0. -1.
     999900   -1    0    0    0    0 -0.00000000000E+00 -0.00000000000E+00 -0.74505805969E-08  0.93827000000E+00  0.93827000000E+00 0. -1.
     999902    2    1    2    0    0  0.14338095343E-02  0.50643502883E-02 -0.12640172046E-01  0.10302377612E+01  0.10301467698E+01 0.  0.
     999903    2    3    3    0    0  0.11003993796E+00 -0.46821428193E-01  0.54909615265E-01  0.13947943321E+00  0.46242970890E-01 0.  0.
         14    1    1    2    0    0 -0.14338095343E-02 -0.50643502883E-02  0.12640172046E-01  0.13692238786E-01  0.00000000000E+00 0. -1.
     999901    1    3    3    0    0 -0.10860612842E+00  0.51885778481E-01 -0.67549787311E-01  0.89075832800E+00  0.88000000000E+00 0. -1.
        -11    1    4    4    0    0  0.40740635563E-01  0.31149774530E-02  0.67392501178E-02  0.41414744762E-01  0.51100000000E-03 0. -1.
         11    1    4    4    0    0  0.69299302395E-01 -0.49936405646E-01  0.48170365148E-01  0.98064688449E-01  0.51100000000E-03 0.  1.
</event>
<event>
 8    1  0.2927513E+004  0.1043930E+01  0.7957747E-01            NaN
         13   -1    0    0    0    0  0.00000000000E+00  0.00000000000E+00  0.74505805969E-08  0.10566000000E+00  0.10566000000E+00 0.  1.
     999900   -1    0    0    0    0 -0.00000000000E+00 -0.00000000000E+00 -0.74505805969E-08  0.93827000000E+00  0.93827000000E+00 0.  1.
     999902    2    1    2    0    0 -0.13468200477E-01  0.35235006164E-02  0.12374996740E-02  0.10299536312E+01  0.10298587978E+01 0.  0.
     999903    2    3    3    0    0 -0.34670842919E-01 -0.10010373978E+00 -0.79522739513E-01  0.13994780351E+00  0.45151916253E-01 0.  0.
         14    1    1    2    0    0  0.13468200477E-01 -0.35235006164E-02 -0.12374996740E-02  0.13976368846E-01  0.00000000000E+00 0.  1.
     999901    1    3    3    0    0  0.21202642442E-01  0.10362724040E+00  0.80760239187E-01  0.89000582764E+00  0.88000000000E+00 0.  1.
        -11    1    4    4    0    0 -0.10968463836E-01 -0.78727021256E-01 -0.39526157430E-01  0.88774035151E-01  0.51100000000E-03 0.  1.
         11    1    4    4    0    0 -0.23702379083E-01 -0.21376718528E-01 -0.39996582082E-01  0.51173768363E-01  0.51100000000E-03 0. -1.
</event>
<event>
 8    1  0.2927513E+004  0.1043930E+01  0.7957747E-01            NaN
         13   -1    0    0    0    0  0.00000000000E+00  0.00000000000E+00  0.74505805969E-08  0.10566000000E+00  0.10566000000E+00 0.  1.
     999900   -1    0    0    0    0 -0.00000000000E+00 -0.00000000000E+00 -0.74505805969E-08  0.93827000000E+00  0.93827000000E+00 0. -1.
     999902    2    1    2    0    0  0.64757181714E-02  0.92388805770E-02 -0.75201109174E-02  0.10303710949E+01  0.10302818785E+01 0.  0.
     999903    2    3    3    0    0  0.32701458232E-01  0.79643678624E-01  0.10139990425E+00  0.14047885716E+00  0.45164895793E-01 0.  0.
         14    1    1    2    0    0 -0.64757181714E-02 -0.92388805770E-02  0.75201109174E-02  0.13558905131E-01  0.00000000000E+00 0.  1.
     999901    1    3    3    0    0 -0.26225740061E-01 -0.70404798047E-01 -0.10892001517E+00  0.88989223771E+00  0.88000000000E+00 0. -1.
        -11    1    4    4    0    0  0.11517855811E-01  0.66919047992E-01  0.53025078404E-01  0.86155325125E-01  0.51100000000E-03 0.  1.
         11    1    4    4    0    0  0.21183602421E-01  0.12724630632E-01  0.48374825845E-01  0.54323532036E-01  0.51100000000E-03 0. -1.
</event>
<event>
 8    1  0.2927513E+004  0.1043930E+01  0.7957747E-01            NaN
         13   -1    0    0    0    0  0.00000000000E+00  0.00000000000E+00  0.74505805969E-08  0.10566000000E+00  0.10566000000E+00 0. -1.
     999900   -1    0    0    0    0 -0.00000000000E+00 -0.00000000000E+00 -0.74505805969E-08  0.93827000000E+00  0.93827000000E+00 0.  1.
     999902    2    1    2    0    0  0.11469222208E-01 -0.14419659432E-01  0.68172313155E-02  0.10242845354E+01  0.10240961211E+01 0.  0.
     999903    2    3    3    0    0 -0.52288429200E-01  0.27097496184E-01 -0.11045781972E+00  0.13325022074E+00  0.45676440998E-01 0.  0.
         14    1    1    2    0    0 -0.11469222208E-01  0.14419659432E-01 -0.68172313155E-02  0.19645464591E-01  0.00000000000E+00 0.  1.
     999901    1    3    3    0    0  0.63757651408E-01 -0.41517155616E-01  0.11727505103E+00  0.89103431467E+00  0.88000000000E+00 0. -1.
        -11    1    4    4    0    0 -0.59712627664E-01  0.19166035112E-01 -0.85586629816E-01  0.10610498164E+00  0.51100000000E-03 0.  1.
         11    1    4    4    0    0  0.74241984640E-02  0.79314610719E-02 -0.24871189904E-01  0.27145239100E-01  0.51100000000E-03 0. -1.
</event>
<event>
 8    1  0.2927513E+004  0.1043930E+01  0.7957747E-01            NaN
         13   -1    0    0    0    0  0.00000000000E+00  0.00000000000E+00  0.74505805969E-08  0.10566000000E+00  0.10566000000E+00 0.  1.
     999900   -1    0    0    0    0 -0.00000000000E+00 -0.00000000000E+00 -0.74505805969E-08  0.93827000000E+00  0.93827000000E+00 0. -1.
     999902    2    1    2    0    0  0.16033169798E-02  0.30091250143E-02  0.23689651812E-01  0.10199962359E+01  0.10197153997E+01 0.  0.
     999903    2    3    3    0    0 -0.90085246594E-01  0.13085398314E-01 -0.79841385104E-01  0.12913878406E+00  0.44895428177E-01 0.  0.
         14    1    1    2    0    0 -0.16033169798E-02 -0.30091250143E-02 -0.23689651812E-01  0.23933764052E-01  0.00000000000E+00 0. -1.
     999901    1    3    3    0    0  0.91688563573E-01 -0.10076273300E-01  0.10353103692E+00  0.89085745188E+00  0.88000000000E+00 0. -1.
        -11    1    4    4    0    0 -0.48084247916E-01 -0.12673378433E-01 -0.25860482001E-01  0.56051182582E-01  0.51100000000E-03 0.  1.
         11    1    4    4    0    0 -0.42000998678E-01  0.25758776747E-01 -0.53980903104E-01  0.73087601482E-01  0.51100000000E-03 0. -1.
</event>
<event>
 8    1  0.2927513E+004  0.1043930E+01  0.7957747E-01            NaN
         13   -1    0    0    0    0  0.00000000000E+00  0.00000000000E+00  0.74505805969E-08  0.10566000000E+00  0.10566000000E+00 0.  1.
     999900   -1    0    0    0    0 -0.00000000000E+00 -0.00000000000E+00 -0.74505805969E-08  0.93827000000E+00  0.93827000000E+00 0. -1.
     999902    2    1    2    0    0 -0.51656473973E-02 -0.75045875602E-02 -0.29910113966E-02  0.10343410013E+01  0.10342965523E+01 0.  0.
     999903    2    3    3    0    0  0.24303616947E-01  0.12869713588E+00 -0.34557013751E-01  0.14281659918E+00  0.45263398260E-01 0.  0.
         14    1    1    2    0    0  0.51656473973E-02  0.75045875602E-02  0.29910113966E-02  0.95889987306E-02  0.00000000000E+00 0.  1.
     999901    1    3    3    0    0 -0.29469264344E-01 -0.13620172344E+00  0.31566002354E-01  0.89152440209E+00  0.88000000000E+00 0.  1.
        -11    1    4    4    0    0 -0.15746742339E-02  0.55615160474E-01  0.48416854082E-02  0.55850055614E-01  0.51100000000E-03 0.  1.
         11    1    4    4    0    0  0.25878291181E-01  0.73081975408E-01 -0.39398699159E-01  0.86966543569E-01  0.51100000000E-03 0. -1.
</event>
<event>
 8    1  0.2927513E+004  0.1043930E+01  0.7957747E-01            NaN
         13   -1    0    0    0    0  0.00000000000E+00  0.00000000000E+00  0.74505805969E-08  0.10566000000E+00  0.10566000000E+00 0. -1.
     999900   -1    0    0    0    0 -0.00000000000E+00 -0.00000000000E+00 -0.74505805969E-08  0.93827000000E+00  0.93827000000E+00 0.  1.
     999902    2    1    2    0    0 -0.92120480388E-02 -0.10619789995E-01  0.19170098341E-02  0.10297413885E+01  0.10296436328E+01 0.  0.
     999903    2    3    3    0    0  0.11127871778E+00 -0.47582274794E-01 -0.52016263840E-01  0.13912752836E+00  0.44763283355E-01 0.  0.
         14    1    1    2    0    0  0.92120480388E-02  0.10619789995E-01 -0.19170098341E-02  0.14188611466E-01  0.00000000000E+00 0.  1.
     999901    1    3    3    0    0 -0.12049076582E+00  0.36962484798E-01  0.53933273674E-01  0.89061386018E+00  0.88000000000E+00 0. -1.
        -11    1    4    4    0    0  0.68961033293E-02 -0.17976410163E-01 -0.11500481827E-02  0.19294851523E-01  0.51100000000E-03 0. -1.
         11    1    4    4    0    0  0.10438261445E+00 -0.29605864631E-01 -0.50866215657E-01  0.11983267683E+00  0.51100000000E-03 0.  1.
</event>
<event>
 8    1  0.2927513E+004  0.1043930E+01  0.7957747E-01            NaN
         13   -1    0    0    0    0  0.00000000000E+00  0.00000000000E+00  0.74505805969E-08  0.10566000000E+00  0.10566000000E+00 0. -1.
     999900   -1    0    0    0    0 -0.00000000000E+00 -0.00000000000E+00 -0.74505805969E-08  0.93827000000E+00  0.93827000000E+00 0.  1.
     999902    2    1    2    0    0 -0.11554790997E-01 -0.83071646533E-02 -0.15204069884E-02  0.10296179835E+01  0.10295185079E+01 0.  0.
     999903    2    3    3    0    0 -0.37351231681E-01  0.71352560752E-01 -0.10489552905E+00  0.13961936322E+00  0.44768204515E-01 0.  0.
         14    1    1    2    0    0  0.11554790997E-01  0.83071646533E-02  0.15204069884E-02  0.14312016524E-01  0.00000000000E+00 0. -1.
     999901    1    3    3    0    0  0.25796440684E-01 -0.79659725405E-01  0.10337512206E+00  0.88999862026E+00  0.88000000000E+00 0. -1.
        -11    1    4    4    0    0 -0.48768942005E-02  0.55971343054E-01 -0.62491629882E-01  0.84035946277E-01  0.51100000000E-03 0.  1.
         11    1    4    4    0    0 -0.32474337481E-01  0.15381217697E-01 -0.42403899171E-01  0.55583416939E-01  0.51100000000E-03 0. -1.
</event>
<event>
 8    1  0.2927513E+004  0.1043930E+01  0.7957747E-01            NaN
         13   -1    0    0    0    0  0.00000000000E+00  0.00000000000E+00  0.74505805969E-08  0.10566000000E+00  0.10566000000E+00 0.  1.
     999900   -1    0    0    0    0 -0.00000000000E+00 -0.00000000000E+00 -0.74505805969E-08  0.93827000000E+00  0.93827000000E+00 0. -1.
     999902    2    1    2    0    0 -0.75436213708E-02 -0.42081045923E-02 -0.10265131885E-01  0.10305140654E+01  0.10304267328E+01 0.  0.
     999903    2    3    3    0    0 -0.18709221180E-01 -0.51682499239E-01 -0.12308828451E+00  0.14197169023E+00  0.44543454714E-01 0.  0.
         14    1    1    2    0    0  0.75436213708E-02  0.42081045923E-02  0.10265131885E-01  0.13415934565E-01  0.00000000000E+00 0.  1.
     999901    1    3    3    0    0  0.11165599810E-01  0.47474394646E-01  0.11282315263E+00  0.88854237520E+00  0.88000000000E+00 0.  1.
        -11    1    4    4    0    0  0.10931889964E-01 -0.30692236471E-01 -0.74431081383E-01  0.81251255957E-01  0.51100000000E-03 0. -1.
         11    1    4    4    0    0 -0.29641111144E-01 -0.20990262767E-01 -0.48657203129E-01  0.60720434273E-01  0.51100000000E-03 0.  1.
</event>
<event>
 8    1  0.2927513E+004  0.1043930E+01  0.7957747E-01            NaN
         13   -1    0    0    0    0  0.00000000000E+00  0.00000000000E+00  0.74505805969E-08  0.10566000000E+00  0.10566000000E+00 0.  1.
     999900   -1    0    0    0    0 -0.00000000000E+00 -0.00000000000E+00 -0.74505805969E-08  0.93827000000E+00  0.93827000000E+00 0. -1.
     999902    2    1    2    0    0  0.11621329776E-01  0.17516837340E-02  0.10716355240E-01  0.10280251589E+01  0.10279021176E+01 0.  0.
     999903    2    3    3    0    0  0.31968670513E-01  0.47856040307E-01 -0.11631171910E+00  0.13747714914E+00  0.45380106280E-01 0.  0.
         14    1    1    2    0    0 -0.11621329776E-01 -0.17516837340E-02 -0.10716355240E-01  0.15904841128E-01  0.00000000000E+00 0. -1.
     999901    1    3    3    0    0 -0.20347340737E-01 -0.46104356573E-01  0.12702807434E+00  0.89054800973E+00  0.88000000000E+00 0.  1.
        -11    1    4    4    0    0  0.85715481625E-03  0.39786253628E-01 -0.51071158646E-01  0.64747239776E-01  0.51100000000E-03 0. -1.
         11    1    4    4    0    0  0.31111515697E-01  0.80697866789E-02 -0.65240560457E-01  0.72729909362E-01  0.51100000000E-03 0.  1.
</event>
<event>
 8    1  0.2927513E+004  0.1043930E+01  0.7957747E-01            NaN
         13   -1    0    0    0    0  0.00000000000E+00  0.00000000000E+00  0.74505805969E-08  0.10566000000E+00  0.10566000000E+00 0. -1.
     999900   -1    0    0    0    0 -0.00000000000E+00 -0.00000000000E+00 -0.74505805969E-08  0.93827000000E+00  0.93827000000E+00 0.  1.
     999902    2    1    2    0    0 -0.27160738647E-02  0.54513849009E-02  0.10118681920E-01  0.10321197342E+01  0.10320521612E+01 0.  0.
     999903    2    3    3    0    0 -0.12356847072E+00 -0.56325785082E-02 -0.51973882742E-01  0.14162344411E+00  0.45332356401E-01 0.  0.
         14    1    1    2    0    0  0.27160738647E-02 -0.54513849009E-02 -0.10118681920E-01  0.11810265804E-01  0.00000000000E+00 0.  1.
     999901    1    3    3    0    0  0.12085239686E+00  0.11083963409E-01  0.62092564661E-01  0.89049629009E+00  0.88000000000E+00 0. -1.
        -11    1    4    4    0    0 -0.39997902394E-02  0.10160775023E-01 -0.22144987838E-02  0.11153689833E-01  0.51100000000E-03 0.  1.
         11    1    4    4    0    0 -0.11956868048E+00 -0.15793353531E-01 -0.49759383958E-01  0.13046975428E+00  0.51100000000E-03 0. -1.
</event>
<event>
 8    1  0.2927513E+004  0.1043930E+01  0.7957747E-01            NaN
         13   -1    0    0    0    0  0.00000000000E+00  0.00000000000E+00  0.74505805969E-08  0.10566000000E+00  0.10566000000E+00 0.  1.
     999900   -1    0    0    0    0 -0.00000000000E+00 -0.00000000000E+00 -0.74505805969E-08  0.93827000000E+00  0.93827000000E+00 0. -1.
     999902    2    1    2    0    0 -0.52842791852E-02  0.16701249104E-02 -0.12554612731E-01  0.10302066176E+01  0.10301152090E+01 0.  0.
     999903    2    3    3    0    0  0.50340957482E-01  0.72161772088E-01  0.97129501540E-01  0.13886277586E+00  0.45904216582E-01 0.  0.
         14    1    1    2    0    0  0.52842791852E-02 -0.16701249104E-02  0.12554612731E-01  0.13723382401E-01  0.00000000000E+00 0.  1.
     999901    1    3    3    0    0 -0.55625236667E-01 -0.70491647178E-01 -0.10968411427E+00  0.89134384174E+00  0.88000000000E+00 0. -1.
        -11    1    4    4    0    0  0.16587642188E-01  0.38355194923E-01  0.75768932848E-01  0.86530128607E-01  0.51100000000E-03 0. -1.
         11    1    4    4    0    0  0.33753315294E-01  0.33806577165E-01  0.21360568692E-01  0.52332647256E-01  0.51100000000E-03 0.  1.
</event>
<event>
 8    1  0.2927513E+004  0.1043930E+01  0.7957747E-01            NaN
         13   -1    0    0    0    0  0.00000000000E+00  0.00000000000E+00  0.74505805969E-08  0.10566000000E+00  0.10566000000E+00 0. -1.
     999900   -1    0    0    0    0 -0.00000000000E+00 -0.00000000000E+00 -0.74505805969E-08  0.93827000000E+00  0.93827000000E+00 0.  1.
     999902    2    1    2    0    0  0.26272005883E-02  0.31291630447E-02 -0.13909239188E-01  0.10294330769E+01  0.10293309959E+01 0.  0.
     999903    2    3    3    0    0 -0.13138582066E+00  0.10050251193E-01 -0.23639307056E-02  0.13918553523E+00  0.44763641822E-01 0.  0.
         14    1    1    2    0    0 -0.26272005883E-02 -0.31291630447E-02  0.13909239188E-01  0.14496923090E-01  0.00000000000E+00 0. -1.
     999901    1    3    3    0    0  0.13401302125E+00 -0.69210881483E-02 -0.11545308483E-01  0.89024754168E+00  0.88000000000E+00 0.  1.
        -11    1    4    4    0    0 -0.61077095602E-01  0.22063630408E-01  0.12974550989E-01  0.66225489717E-01  0.51100000000E-03 0.  1.
         11    1    4    4    0    0 -0.70308725055E-01 -0.12013379215E-01 -0.15338481694E-01  0.72960045510E-01  0.51100000000E-03 0. -1.
</event>
<event>
 8    1  0.2927513E+004  0.1043930E+01  0.7957747E-01            NaN
         13   -1    0    0    0    0  0.00000000000E+00  0.00000000000E+00  0.74505805969E-08  0.10566000000E+00  0.10566000000E+00 0.  1.
     999900   -1    0    0    0    0 -0.00000000000E+00 -0.00000000000E+00 -0.74505805969E-08  0.93827000000E+00  0.93827000000E+00 0. -1.
     999902    2    1    2    0    0  0.64001489907E-02 -0.18451111591E-03  0.12502614550E-01  0.10298832451E+01  0.10297874476E+01 0.  0.
     999903    2    3    3    0    0  0.63048891736E-01 -0.58872855988E-01 -0.99433811438E-01  0.13905039587E+00  0.44796805841E-01 0.  0.
         14    1    1    2    0    0 -0.64001489907E-02  0.18451111591E-03 -0.12502614550E-01  0.14046754858E-01  0.00000000000E+00 0.  1.
     999901    1    3    3    0    0 -0.56648742745E-01  0.58688344872E-01  0.11193642599E+00  0.89083284927E+00  0.88000000000E+00 0.  1.
        -11    1    4    4    0    0  0.26112405044E-01  0.16252202936E-02 -0.23471745127E-01  0.35152282692E-01  0.51100000000E-03 0.  1.
         11    1    4    4    0    0  0.36936486692E-01 -0.60498076281E-01 -0.75962066311E-01  0.10389811318E+00  0.51100000000E-03 0. -1.
</event>
<event>
 8    1  0.2927513E+004  0.1043930E+01  0.7957747E-01            NaN
         13   -1    0    0    0    0  0.00000000000E+00  0.00000000000E+00  0.74505805969E-08  0.10566000000E+00  0.10566000000E+00 0. -1.
     999900   -1    0    0    0    0 -0.00000000000E+00 -0.00000000000E+00 -0.74505805969E-08  0.93827000000E+00  0.93827000000E+00 0.  1.
     999902    2    1    2    0    0 -0.59352950373E-02 -0.10977973462E-01  0.32246433592E-02  0.10310403936E+01  0.10309598204E+01 0.  0.
     999903    2    3    3    0    0 -0.83351783295E-01 -0.73308929538E-01  0.77158484221E-01  0.14236459581E+00  0.44637736557E-01 0.  0.
         14    1    1    2    0    0  0.59352950373E-02  0.10977973462E-01 -0.32246433592E-02  0.12889606406E-01  0.00000000000E+00 0.  1.
     999901    1    3    3    0    0  0.77416488257E-01  0.62330956077E-01 -0.73933840862E-01  0.88867579778E+00  0.88000000000E+00 0. -1.
        -11    1    4    4    0    0 -0.20466695951E-01 -0.23245966760E-01  0.47456858116E-01  0.56671642971E-01  0.51100000000E-03 0.  1.
         11    1    4    4    0    0 -0.62885087343E-01 -0.50062962779E-01  0.29701626105E-01  0.85692952841E-01  0.51100000000E-03 0. -1.
</event>
<event>
 8    1  0.2927513E+004  0.1043930E+01  0.7957747E-01            NaN
         13   -1    0    0    0    0  0.00000000000E+00  0.00000000000E+00  0.74505805969E-08  0.10566000000E+00  0.10566000000E+00 0. -1.
     999900   -1    0    0    0    0 -0.00000000000E+00 -0.00000000000E+00 -0.74505805969E-08  0.93827000000E+00  0.93827000000E+00 0.  1.
     999902    2    1    2    0    0  0.45052793155E-02 -0.78805404749E-02  0.10419614916E-01  0.10301108526E+01  0.10300181551E+01 0.  0.
     999903    2    3    3    0    0  0.89019908275E-01  0.95772779398E-01 -0.19198056713E-01  0.13951333424E+00  0.44703866804E-01 0.  0.
         14    1    1    2    0    0 -0.45052793155E-02  0.78805404749E-02 -0.10419614916E-01  0.13819147401E-01  0.00000000000E+00 0.  1.
     999901    1    3    3    0    0 -0.84514628959E-01 -0.10365331987E+00  0.29617671630E-01  0.89059751836E+00  0.88000000000E+00 0. -1.
        -11    1    4    4    0    0  0.61183653245E-01  0.80422311619E-01  0.23971999230E-02  0.10108014305E+00  0.51100000000E-03 0.  1.
         11    1    4    4    0    0  0.27836255030E-01  0.15350467779E-01 -0.21595256636E-01  0.38433191193E-01  0.51100000000E-03 0. -1.
</event>
<event>
 8    1  0.2927513E+004  0.1043930E+01  0.7957747E-01            NaN
         13   -1    0    0    0    0  0.00000000000E+00  0.00000000000E+00  0.74505805969E-08  0.10566000000E+00  0.10566000000E+00 0. -1.
     999900   -1    0    0    0    0 -0.00000000000E+00 -0.00000000000E+00 -0.74505805969E-08  0.93827000000E+00  0.93827000000E+00 0.  1.
     999902    2    1    2    0    0  0.15331448447E-01 -0.27105225928E-02  0.13109023427E-02  0.10283057013E+01  0.10281869950E+01 0.  0.
     999903    2    3    3    0    0 -0.73742033706E-01 -0.87366160033E-01  0.63937288469E-01  0.13756290656E+00  0.42010033940E-01 0.  0.
         14    1    1    2    0    0 -0.15331448447E-01  0.27105225928E-02 -0.13109023427E-02  0.15624298677E-01  0.00000000000E+00 0.  1.
     999901    1    3    3    0    0  0.89073482153E-01  0.84655637441E-01 -0.62626386127E-01  0.89074279476E+00  0.88000000000E+00 0.  1.
        -11    1    4    4    0    0 -0.18775866351E-01 -0.47451999955E-01  0.42249738870E-01  0.66253505662E-01  0.51100000000E-03 0.  1.
         11    1    4    4    0    0 -0.54966167355E-01 -0.39914160078E-01  0.21687549600E-01  0.71309400903E-01  0.51100000000E-03 0. -1.
</event>
<event>
 8    1  0.2927513E+004  0.1043930E+01  0.7957747E-01            NaN
         13   -1    0    0    0    0  0.00000000000E+00  0.00000000000E+00  0.74505805969E-08  0.10566000000E+00  0.10566000000E+00 0.  1.
     999900   -1    0    0    0    0 -0.00000000000E+00 -0.00000000000E+00 -0.74505805969E-08  0.93827000000E+00  0.93827000000E+00 0.  1.
     999902    2    1    2    0    0 -0.79658533392E-02  0.32273304556E-02  0.11967813901E-01  0.10291957185E+01  0.10290902429E+01 0.  0.
     999903    2    3    3    0    0 -0.35270413604E-01 -0.72539978983E-01  0.10906849373E+00  0.14019922459E+00  0.35409541426E-01 0.  0.
         14    1    1    2    0    0  0.79658533392E-02 -0.32273304556E-02 -0.11967813901E-01  0.14734281484E-01  0.00000000000E+00 0. -1.
     999901    1    3    3    0    0  0.27304560265E-01  0.75767309439E-01 -0.97100679830E-01  0.88899649393E+00  0.88000000000E+00 0.  1.
        -11    1    4    4    0    0 -0.11242410235E-01 -0.35418829270E-01  0.23759525270E-01  0.44109652195E-01  0.51100000000E-03 0.  1.
         11    1    4    4    0    0 -0.24028003369E-01 -0.37121149713E-01  0.85308968461E-01  0.96089572394E-01  0.51100000000E-03 0. -1.
</event>
<event>
 8    1  0.2927513E+004  0.1043930E+01  0.7957747E-01            NaN
         13   -1    0    0    0    0  0.00000000000E+00  0.00000000000E+00  0.74505805969E-08  0.10566000000E+00  0.10566000000E+00 0. -1.
     999900   -1    0    0    0    0 -0.00000000000E+00 -0.00000000000E+00 -0.74505805969E-08  0.93827000000E+00  0.93827000000E+00 0.  1.
     999902    2    1    2    0    0 -0.47064114307E-02  0.10862866515E-02 -0.14173490156E-01  0.10289560843E+01  0.10288471244E+01 0.  0.
     999903    2    3    3    0    0  0.30799901703E-02 -0.46692700988E-01  0.12088082692E+00  0.13733782057E+00  0.45385107444E-01 0.  0.
         14    1    1    2    0    0  0.47064114307E-02 -0.10862866515E-02  0.14173490156E-01  0.14973915669E-01  0.00000000000E+00 0. -1.
     999901    1    3    3    0    0 -0.77864016010E-02  0.47778987639E-01 -0.13505431708E+00  0.89161826376E+00  0.88000000000E+00 0.  1.
        -11    1    4    4    0    0  0.17812985816E-01 -0.23406177821E-01  0.28598652581E-01  0.41027986477E-01  0.51100000000E-03 0. -1.
         11    1    4    4    0    0 -0.14732995646E-01 -0.23286523167E-01  0.92282174337E-01  0.96309834095E-01  0.51100000000E-03 0.  1.
</event>
<event>
 8    1  0.2927513E+004  0.1043930E+01  0.7957747E-01            NaN
         13   -1    0    0    0    0  0.00000000000E+00  0.00000000000E+00  0.74505805969E-08  0.10566000000E+00  0.10566000000E+00 0.  1.
     999900   -1    0    0    0    0 -0.00000000000E+00 -0.00000000000E+00 -0.74505805969E-08  0.93827000000E+00  0.93827000000E+00 0.  1.
     999902    2    1    2    0    0 -0.11280116978E-01 -0.69235888632E-02  0.11863734630E-01  0.10261557118E+01  0.10260017639E+01 0.  0.
     999903    2    3    3    0    0  0.37958775145E-01  0.11862567811E+00 -0.24637144959E-01  0.13513416259E+00  0.46274538020E-01 0.  0.
         14    1    1    2    0    0  0.11280116978E-01  0.69235888632E-02 -0.11863734630E-01  0.17774288204E-01  0.00000000000E+00 0.  1.
     999901    1    3    3    0    0 -0.49238892123E-01 -0.12554926698E+00  0.36500879589E-01  0.89102154920E+00  0.88000000000E+00 0. -1.
        -11    1    4    4    0    0  0.77872559166E-02  0.88785666262E-01 -0.77672848033E-02  0.89465790794E-01  0.51100000000E-03 0. -1.
         11    1    4    4    0    0  0.30171519229E-01  0.29840011852E-01 -0.16869860156E-01  0.45668371797E-01  0.51100000000E-03 0.  1.
</event>
<event>
 8    1  0.2927513E+004  0.1043930E+01  0.7957747E-01            NaN
         13   -1    0    0    0    0  0.00000000000E+00  0.00000000000E+00  0.74505805969E-08  0.10566000000E+00  0.10566000000E+00 0. -1.
     999900   -1    0    0    0    0 -0.00000000000E+00 -0.00000000000E+00 -0.74505805969E-08  0.93827000000E+00  0.93827000000E+00 0. -1.
     999902    2    1    2    0    0  0.57095199598E-02 -0.87366412090E-02  0.86072744669E-02  0.10304017817E+01  0.10303129714E+01 0.  0.
     999903    2    3    3    0    0 -0.32688778783E-01 -0.45782301900E-01 -0.11941462830E+00  0.13953904368E+00  0.45240643623E-01 0.  0.
         14    1    1    2    0    0 -0.57095199598E-02  0.87366412090E-02 -0.86072744669E-02  0.13528218343E-01  0.00000000000E+00 0.  1.
     999901    1    3    3    0    0  0.38398298743E-01  0.37045660691E-01  0.12802190276E+00  0.89086273797E+00  0.88000000000E+00 0.  1.
        -11    1    4    4    0    0 -0.12998992358E-02 -0.50774538201E-02 -0.62990408987E-01  0.63210149665E-01  0.51100000000E-03 0.  1.
         11    1    4    4    0    0 -0.31388879548E-01 -0.40704848080E-01 -0.56424219309E-01  0.76328894019E-01  0.51100000000E-03 0. -1.
</event>
<event>
 8    1  0.2927513E+004  0.1043930E+01  0.7957747E-01            NaN
         13   -1    0    0    0    0  0.00000000000E+00  0.00000000000E+00  0.74505805969E-08  0.10566000000E+00  0.10566000000E+00 0.  1.
     999900   -1    0    0    0    0 -0.00000000000E+00 -0.00000000000E+00 -0.74505805969E-08  0.93827000000E+00  0.93827000000E+00 0. -1.
     999902    2    1    2    0    0 -0.13538617222E-01  0.58762471100E-02 -0.14472450760E-01  0.10232593380E+01  0.10230505347E+01 0.  0.
     999903    2    3    3    0    0 -0.59558844711E-01 -0.95018596387E-01 -0.60266958451E-01  0.13511815119E+00  0.45266089481E-01 0.  0.
         14    1    1    2    0    0  0.13538617222E-01 -0.58762471100E-02  0.14472450760E-01  0.20670661997E-01  0.00000000000E+00 0.  1.
     999901    1    3    3    0    0  0.46020227489E-01  0.10089484350E+00  0.45794507691E-01  0.88814118681E+00  0.88000000000E+00 0.  1.
        -11    1    4    4    0    0 -0.57336257839E-01 -0.87291869631E-01 -0.67448471960E-01  0.12432567899E+00  0.51100000000E-03 0. -1.
         11    1    4    4    0    0 -0.22225868715E-02 -0.77267267557E-02  0.71815135092E-02  0.10792472193E-01  0.51100000000E-03 0.  1.
</event>
<event>
 8    1  0.2927513E+004  0.1043930E+01  0.7957747E-01            NaN
         13   -1    0    0    0    0  0.00000000000E+00  0.00000000000E+00  0.74505805969E-08  0.10566000000E+00  0.10566000000E+00 0. -1.
     999900   -1    0    0    0    0 -0.00000000000E+00 -0.00000000000E+00 -0.74505805969E-08  0.93827000000E+00  0.93827000000E+00 0. -1.
     999902    2    1    2    0    0 -0.87569637862E-02  0.30093342048E-02  0.89901550067E-02  0.10310240559E+01  0.10309432770E+01 0.  0.
     999903    2    3    3    0    0  0.12104434508E+00  0.53222520205E-01  0.12303623763E-01  0.14008032985E+00  0.44572968494E-01 0.  0.
         14    1    1    2    0    0  0.87569637862E-02 -0.30093342048E-02 -0.89901550067E-02  0.12905944140E-01  0.00000000000E+00 0.  1.
     999901    1    3    3    0    0 -0.12980130887E+00 -0.50213186000E-01 -0.33134687566E-02  0.89094372601E+00  0.88000000000E+00 0. -1.
        -11    1    4    4    0    0  0.69795852519E-01  0.66804107480E-02  0.98632018502E-02  0.70807010871E-01  0.51100000000E-03 0.  1.
         11    1    4    4    0    0  0.51248492565E-01  0.46542109457E-01  0.24404219132E-02  0.69273318984E-01  0.51100000000E-03 0. -1.
</event>
<event>
 8    1  0.2927513E+004  0.1043930E+01  0.7957747E-01            NaN
         13   -1    0    0    0    0  0.00000000000E+00  0.00000000000E+00  0.74505805969E-08  0.10566000000E+00  0.10566000000E+00 0.  1.
     999900   -1    0    0    0    0 -0.00000000000E+00 -0.00000000000E+00 -0.74505805969E-08  0.93827000000E+00  0.93827000000E+00 0. -1.
     999902    2    1    2    0    0 -0.47623592494E-02 -0.12402962669E-01  0.29883060928E-02  0.10303122351E+01  0.10302222373E+01 0.  0.
     999903    2    3    3    0    0  0.53585303059E-01  0.10644960774E+00 -0.55136113982E-01  0.13851134282E+00  0.44073771484E-01 0.  0.
         14    1    1    2    0    0  0.47623592494E-02  0.12402962669E-01 -0.29883060928E-02  0.13617764937E-01  0.00000000000E+00 0. -1.
     999901    1    3    3    0    0 -0.58347662309E-01 -0.11885257041E+00  0.58124420075E-01  0.89180089224E+00  0.88000000000E+00 0.  1.
        -11    1    4    4    0    0  0.38305405517E-01  0.40573284078E-01 -0.86971600216E-02  0.56474748217E-01  0.51100000000E-03 0. -1.
         11    1    4    4    0    0  0.15279897542E-01  0.65876323666E-01 -0.46438953961E-01  0.82036594606E-01  0.51100000000E-03 0.  1.
</event>
<event>
 8    1  0.2927513E+004  0.1043930E+01  0.7957747E-01            NaN
         13   -1    0    0    0    0  0.00000000000E+00  0.00000000000E+00  0.74505805969E-08  0.10566000000E+00  0.10566000000E+00 0. -1.
     999900   -1    0    0    0    0 -0.00000000000E+00 -0.00000000000E+00 -0.74505805969E-08  0.93827000000E+00  0.93827000000E+00 0. -1.
     999902    2    1    2    0    0 -0.10572261686E-01 -0.94480548662E-02  0.18482114772E-02  0.10296312468E+01  0.10295319568E+01 0.  0.
     999903    2    3    3    0    0 -0.82880386394E-01  0.33459736230E-01 -0.97862700911E-01  0.14001795468E+00  0.45157579716E-01 0.  0.
         14    1    1    2    0    0  0.10572261686E-01  0.94480548662E-02 -0.18482114772E-02  0.14298753218E-01  0.00000000000E+00 0.  1.
     999901    1    3    3    0    0  0.72308124708E-01 -0.42907791097E-01  0.99710912389E-01  0.88961329210E+00  0.88000000000E+00 0.  1.
        -11    1    4    4    0    0 -0.46063106120E-01 -0.51366805071E-02 -0.52108663108E-01  0.69740727871E-01  0.51100000000E-03 0. -1.
         11    1    4    4    0    0 -0.36817280274E-01  0.38596416738E-01 -0.45754037803E-01  0.70277226809E-01  0.51100000000E-03 0.  1.
</event>
<event>
 8    1  0.2927513E+004  0.1043930E+01  0.7957747E-01            NaN
         13   -1    0    0    0    0  0.00000000000E+00  0.00000000000E+00  0.74505805969E-08  0.10566000000E+00  0.10566000000E+00 0.  1.
     999900   -1    0    0    0    0 -0.00000000000E+00 -0.00000000000E+00 -0.74505805969E-08  0.93827000000E+00  0.93827000000E+00 0. -1.
     999902    2    1    2    0    0  0.13219360255E-02 -0.10675158403E-01 -0.91741476284E-02  0.10297924080E+01  0.10296953589E+01 0.  0.
     999903    2    3    3    0    0 -0.18308245165E-01 -0.72983784750E-01  0.10824585221E+00  0.13959289934E+00  0.45904121255E-01 0.  0.
         14    1    1    2    0    0 -0.13219360255E-02  0.10675158403E-01  0.91741476284E-02  0.14137591962E-01  0.00000000000E+00 0.  1.
     999901    1    3    3    0    0  0.19630181190E-01  0.62308626347E-01 -0.11741999983E+00  0.89019950870E+00  0.88000000000E+00 0. -1.
        -11    1    4    4    0    0  0.80925022979E-02 -0.22318259846E-01  0.96339535092E-02  0.25625524330E-01  0.51100000000E-03 0. -1.
         11    1    4    4    0    0 -0.26400747463E-01 -0.50665524904E-01  0.98611898696E-01  0.11396737501E+00  0.51100000000E-03 0.  1.
</event>
<event>
 8    1  0.2927513E+004  0.1043930E+01  0.7957747E-01            NaN
         13   -1    0    0    0    0  0.00000000000E+00  0.00000000000E+00  0.74505805969E-08  0.10566000000E+00  0.10566000000E+00 0.  1.
     999900   -1    0    0    0    0 -0.00000000000E+00 -0.00000000000E+00 -0.74505805969E-08  0.93827000000E+00  0.93827000000E+00 0.  1.
     999902    2    1    2    0    0  0.10303085652E-01  0.89110739923E-02  0.48023509997E-02  0.10294861989E+01  0.10293848699E+01 0.  0.
     999903    2    3    3    0    0 -0.74702797861E-01 -0.11703448989E-01  0.10722786742E+00  0.13923794975E+00  0.46603780665E-01 0.  0.
         14    1    1    2    0    0 -0.10303085652E-01 -0.89110739923E-02 -0.48023509997E-02  0.14443801050E-01  0.00000000000E+00 0.  1.
     999901    1    3    3    0    0  0.85005883513E-01  0.20614522981E-01 -0.10242551642E+00  0.89024824920E+00  0.88000000000E+00 0.  1.
        -11    1    4    4    0    0 -0.51879700747E-01  0.14658024843E-01  0.67058948594E-01  0.86043737421E-01  0.51100000000E-03 0.  1.
         11    1    4    4    0    0 -0.22823097114E-01 -0.26361473832E-01  0.40168918828E-01  0.53194212329E-01  0.51100000000E-03 0. -1.
</event>
<event>
 8    1  0.2927513E+004  0.1043930E+01  0.7957747E-01            NaN
         13   -1    0    0    0    0  0.00000000000E+00  0.00000000000E+00  0.74505805969E-08  0.10566000000E+00  0.10566000000E+00 0.  1.
     999900   -1    0    0    0    0 -0.00000000000E+00 -0.00000000000E+00 -0.74505805969E-08  0.93827000000E+00  0.93827000000E+00 0. -1.
     999902    2    1    2    0    0 -0.64933668992E-02 -0.10899320986E-01  0.65242648367E-02  0.10296637796E+01  0.10295649441E+01 0.  0.
     999903    2    3    3    0    0  0.12242767057E-01  0.54035093927E-01 -0.11854707528E+00  0.13825458007E+00  0.44623347387E-01 0.  0.
         14    1    1    2    0    0  0.64933668992E-02  0.10899320986E-01 -0.65242648367E-02  0.14266220358E-01  0.00000000000E+00 0. -1.
     999901    1    3    3    0    0 -0.18736133956E-01 -0.64934414913E-01  0.12507134012E+00  0.89140919957E+00  0.88000000000E+00 0.  1.
        -11    1    4    4    0    0  0.10959846155E-01  0.22942746883E-02 -0.55798861610E-01  0.56913583634E-01  0.51100000000E-03 0. -1.
         11    1    4    4    0    0  0.12829209023E-02  0.51740819238E-01 -0.62748213674E-01  0.81340996439E-01  0.51100000000E-03 0.  1.
</event>
<event>
 8    1  0.2927513E+004  0.1043930E+01  0.7957747E-01            NaN
         13   -1    0    0    0    0  0.00000000000E+00  0.00000000000E+00  0.74505805969E-08  0.10566000000E+00  0.10566000000E+00 0. -1.
     999900   -1    0    0    0    0 -0.00000000000E+00 -0.00000000000E+00 -0.74505805969E-08  0.93827000000E+00  0.93827000000E+00 0.  1.
     999902    2    1    2    0    0  0.82944058565E-02 -0.11777018317E-01  0.14363539112E-03  0.10295245857E+01  0.10294237984E+01 0.  0.
     999903    2    3    3    0    0 -0.10614969195E+00 -0.11674818173E-01  0.76622906528E-01  0.13882455717E+00  0.44689253616E-01 0.  0.
         14    1    1    2    0    0 -0.82944058565E-02  0.11777018317E-01 -0.14363539112E-03  0.14405414263E-01  0.00000000000E+00 0. -1.
     999901    1    3    3    0    0  0.11444409781E+00 -0.10220014427E-03 -0.76479271137E-01  0.89070002856E+00  0.88000000000E+00 0.  1.
        -11    1    4    4    0    0 -0.77424353763E-01  0.49584747044E-02  0.33765937586E-01  0.84613927276E-01  0.51100000000E-03 0. -1.
         11    1    4    4    0    0 -0.28725338191E-01 -0.16633292877E-01  0.42856968942E-01  0.54210629899E-01  0.51100000000E-03 0.  1.
</event>
<event>
 8    1  0.2927513E+004  0.1043930E+01  0.7957747E-01            NaN
         13   -1    0    0    0    0  0.00000000000E+00  0.00000000000E+00  0.74505805969E-08  0.10566000000E+00  0.10566000000E+00 0. -1.
     999900   -1    0    0    0    0 -0.00000000000E+00 -0.00000000000E+00 -0.74505805969E-08  0.93827000000E+00  0.93827000000E+00 0.  1.
     999902    2    1    2    0    0  0.17948777237E-02  0.84263981610E-02  0.76781722072E-02  0.10323896317E+01  0.10323251288E+01 0.  0.
     999903    2    3    3    0    0  0.18356611496E-02  0.12071091871E+00 -0.61830663737E-01  0.14253610809E+00  0.43806570079E-01 0.  0.
         14    1    1    2    0    0 -0.17948777237E-02 -0.84263981610E-02 -0.76781722072E-02  0.11540368298E-01  0.00000000000E+00 0.  1.
     999901    1    3    3    0    0 -0.40783425874E-04 -0.11228452055E+00  0.69508835944E-01  0.88985352362E+00  0.88000000000E+00 0.  1.
        -11    1    4    4    0    0  0.18345659072E-01  0.69108817947E-01 -0.49509382830E-01  0.86971443785E-01  0.51100000000E-03 0.  1.
         11    1    4    4    0    0 -0.16509997922E-01  0.51602100764E-01 -0.12321280907E-01  0.55564664301E-01  0.51100000000E-03 0. -1.
</event>
<event>
 8    1  0.2927513E+004  0.1043930E+01  0.7957747E-01            NaN
         13   -1    0    0    0    0  0.00000000000E+00  0.00000000000E+00  0.74505805969E-08  0.10566000000E+00  0.10566000000E+00 0.  1.
     999900   -1    0    0    0    0 -0.00000000000E+00 -0.00000000000E+00 -0.74505805969E-08  0.93827000000E+00  0.93827000000E+00 0.  1.
     999902    2    1    2    0    0 -0.11854375108E-01  0.76679613933E-02  0.27394410190E-03  0.10298091329E+01  0.10297123149E+01 0.  0.
     999903    2    3    3    0    0 -0.72386797980E-01 -0.59884011189E-01 -0.93674815204E-01  0.14017223364E+00  0.45247549800E-01 0.  0.
         14    1    1    2    0    0  0.11854375108E-01 -0.76679613933E-02 -0.27394410190E-03  0.14120867060E-01  0.00000000000E+00 0.  1.
     999901    1    3    3    0    0  0.60532422871E-01  0.67551972582E-01  0.93948759306E-01  0.88963689930E+00  0.88000000000E+00 0.  1.
        -11    1    4    4    0    0 -0.14804254863E-01  0.41161084715E-02 -0.27799112961E-01  0.31767280548E-01  0.51100000000E-03 0. -1.
         11    1    4    4    0    0 -0.57582543117E-01 -0.64000119660E-01 -0.65875702243E-01  0.10840495309E+00  0.51100000000E-03 0.  1.
</event>
<event>
 8    1  0.2927513E+004  0.1043930E+01  0.7957747E-01            NaN
         13   -1    0    0    0    0  0.00000000000E+00  0.00000000000E+00  0.74505805969E-08  0.10566000000E+00  0.10566000000E+00 0.  1.
     999900   -1    0    0    0    0 -0.00000000000E+00 -0.00000000000E+00 -0.74505805969E-08  0.93827000000E+00  0.93827000000E+00 0. -1.
     999902    2    1    2    0    0  0.12811925415E-01  0.30061697122E-02 -0.11105981448E-02  0.10307233381E+01  0.10306387262E+01 0.  0.
     999903    2    3    3    0    0 -0.10885193261E+00 -0.27602732071E-01  0.66110267452E-01  0.13928761753E+00  0.49191654594E-01 0.  0.
         14    1    1    2    0    0 -0.12811925415E-01 -0.30061697122E-02  0.11105981448E-02  0.13206661858E-01  0.00000000000E+00 0. -1.
     999901    1    3    3    0    0  0.12166385803E+00  0.30608901784E-01 -0.67220865597E-01  0.89143572062E+00  0.88000000000E+00 0. -1.
        -11    1    4    4    0    0 -0.41998732925E-01  0.10010647280E-01  0.38223266441E-01  0.57666158574E-01  0.51100000000E-03 0. -1.
         11    1    4    4    0    0 -0.66853199690E-01 -0.37613379352E-01  0.27887001011E-01  0.81621458952E-01  0.51100000000E-03 0.  1.
</event>
<event>
 8    1  0.2927513E+004  0.1043930E+01  0.7957747E-01            NaN
         13   -1    0    0    0    0  0.00000000000E+00  0.00000000000E+00  0.74505805969E-08  0.10566000000E+00  0.10566000000E+00 0. -1.
     999900   -1    0    0    0    0 -0.00000000000E+00 -0.00000000000E+00 -0.74505805969E-08  0.93827000000E+00  0.93827000000E+00 0. -1.
     999902    2    1    2    0    0  0.10420060340E-01  0.39203716964E-03 -0.91741923538E-02  0.10300412579E+01  0.10299476180E+01 0.  0.
     999903    2    3    3    0    0 -0.98990267345E-01  0.79848387770E-01 -0.32100396328E-01  0.13941813771E+00  0.47245567205E-01 0.  0.
         14    1    1    2    0    0 -0.10420060340E-01 -0.39203716964E-03  0.91741923538E-02  0.13888742059E-01  0.00000000000E+00 0. -1.
     999901    1    3    3    0    0  0.10941032769E+00 -0.79456350601E-01  0.22926203974E-01  0.89062312023E+00  0.88000000000E+00 0. -1.
        -11    1    4    4    0    0 -0.34800358565E-02  0.97736925114E-02  0.92890967268E-02  0.13934997448E-01  0.51100000000E-03 0. -1.
         11    1    4    4    0    0 -0.95510231489E-01  0.70074695259E-01 -0.41389493055E-01  0.12548314027E+00  0.51100000000E-03 0.  1.
</event>
<event>
 8    1  0.2927513E+004  0.1043930E+01  0.7957747E-01            NaN
         13   -1    0    0    0    0  0.00000000000E+00  0.00000000000E+00  0.74505805969E-08  0.10566000000E+00  0.10566000000E+00 0. -1.
     999900   -1    0    0    0    0 -0.00000000000E+00 -0.00000000000E+00 -0.74505805969E-08  0.93827000000E+00  0.93827000000E+00 0. -1.
     999902    2    1    2    0    0 -0.60388084014E-02  0.61608399144E-03 -0.11119895100E-01  0.10312611866E+01  0.10311833669E+01 0.  0.
     999903    2    3    3    0    0  0.95099508447E-01  0.50225009232E-01  0.75635574243E-01  0.13984853463E+00  0.47648761662E-01 0.  0.
         14    1    1    2    0    0  0.60388084014E-02 -0.61608399144E-03  0.11119895100E-01  0.12668813418E-01  0.00000000000E+00 0.  1.
     999901    1    3    3    0    0 -0.10113831685E+00 -0.49608925241E-01 -0.86755469343E-01  0.89141265195E+00  0.88000000000E+00 0.  1.
        -11    1    4    4    0    0  0.47416968587E-01  0.50439776628E-01  0.37137491190E-01  0.78562041402E-01  0.51100000000E-03 0.  1.
         11    1    4    4    0    0  0.47682539859E-01 -0.21476739618E-03  0.38498083052E-01  0.61286493228E-01  0.51100000000E-03 0. -1.
</event>
<event>
 8    1  0.2927513E+004  0.1043930E+01  0.7957747E-01            NaN
         13   -1    0    0    0    0  0.00000000000E+00  0.00000000000E+00  0.74505805969E-08  0.10566000000E+00  0.10566000000E+00 0.  1.
     999900   -1    0    0    0    0 -0.00000000000E+00 -0.00000000000E+00 -0.74505805969E-08  0.93827000000E+00  0.93827000000E+00 0.  1.
     999902    2    1    2    0    0  0.12974750702E-01 -0.42584592323E-02 -0.10717869960E-02  0.10302322864E+01  0.10301412217E+01 0.  0.
     999903    2    3    3    0    0 -0.28554520514E-02 -0.11730321014E+00 -0.63191384293E-01  0.14068827095E+00  0.45075956102E-01 0.  0.
         14    1    1    2    0    0 -0.12974750702E-01  0.42584592323E-02  0.10717869960E-02  0.13697713612E-01  0.00000000000E+00 0.  1.
     999901    1    3    3    0    0  0.15830202754E-01  0.11304475091E+00  0.62119597297E-01  0.88954401543E+00  0.88000000000E+00 0. -1.
        -11    1    4    4    0    0 -0.93683424965E-02 -0.21174680732E-01  0.36182245655E-02  0.23441109514E-01  0.51100000000E-03 0.  1.
         11    1    4    4    0    0  0.65128904451E-02 -0.96128529412E-01 -0.66809608859E-01  0.11724716144E+00  0.51100000000E-03 0. -1.
</event>
<event>
 8    1  0.2927513E+004  0.1043930E+01  0.7957747E-01            NaN
         13   -1    0    0    0    0  0.00000000000E+00  0.00000000000E+00  0.74505805969E-08  0.10566000000E+00  0.10566000000E+00 0.  1.
     999900   -1    0    0    0    0 -0.00000000000E+00 -0.00000000000E+00 -0.74505805969E-08  0.93827000000E+00  0.93827000000E+00 0. -1.
     999902    2    1    2    0    0  0.29290640400E-02 -0.97822059846E-02 -0.76123362759E-02  0.10311934921E+01  0.10311148333E+01 0.  0.
     999903    2    3    3    0    0  0.80042282181E-01 -0.10779267806E+00  0.14184111215E-01  0.14213354689E+00  0.44437909024E-01 0.  0.
         14    1    1    2    0    0 -0.29290640400E-02  0.97822059846E-02  0.76123362759E-02  0.12736507907E-01  0.00000000000E+00 0.  1.
     999901    1    3    3    0    0 -0.77113218141E-01  0.98010472079E-01 -0.21796447491E-01  0.88905994521E+00  0.88000000000E+00 0.  1.
        -11    1    4    4    0    0  0.56476908823E-01 -0.74326386700E-01  0.30295054934E-01  0.98143285377E-01  0.51100000000E-03 0.  1.
         11    1    4    4    0    0  0.23565373358E-01 -0.33466291364E-01 -0.16110943718E-01  0.43990261509E-01  0.51100000000E-03 0. -1.
</event>
<event>
 8    1  0.2927513E+004  0.1043930E+01  0.7957747E-01            NaN
         13   -1    0    0    0    0  0.00000000000E+00  0.00000000000E+00  0.74505805969E-08  0.10566000000E+00  0.10566000000E+00 0. -1.
     999900   -1    0    0    0    0 -0.00000000000E+00 -0.00000000000E+00 -0.74505805969E-08  0.93827000000E+00  0.93827000000E+00 0.  1.
     999902    2    1    2    0    0 -0.10956299039E-01 -0.88511398183E-02  0.15721325912E-02  0.10297576761E+01  0.10296601462E+01 0.  0.
     999903    2    3    3    0    0  0.85309300787E-01  0.53209904292E-01 -0.83898763019E-01  0.13822870127E+00  0.44262859190E-01 0.  0.
         14    1    1    2    0    0  0.10956299039E-01  0.88511398183E-02 -0.15721325912E-02  0.14172323931E-01  0.00000000000E+00 0. -1.
     999901    1    3    3    0    0 -0.96265599827E-01 -0.62061044110E-01  0.85470895610E-01  0.89152897480E+00  0.88000000000E+00 0. -1.
        -11    1    4    4    0    0  0.57012793102E-01  0.56039969987E-01 -0.51406631248E-01  0.95046513195E-01  0.51100000000E-03 0.  1.
         11    1    4    4    0    0  0.28296507686E-01 -0.28300656947E-02 -0.32492131771E-01  0.43182188077E-01  0.51100000000E-03 0. -1.
</event>
<event>
 8    1  0.2927513E+004  0.1043930E+01  0.7957747E-01            NaN
         13   -1    0    0    0    0  0.00000000000E+00  0.00000000000E+00  0.74505805969E-08  0.10566000000E+00  0.10566000000E+00 0. -1.
     999900   -1    0    0    0    0 -0.00000000000E+00 -0.00000000000E+00 -0.74505805969E-08  0.93827000000E+00  0.93827000000E+00 0. -1.
     999902    2    1    2    0    0 -0.29598216553E-02  0.15895659722E-02 -0.13640081913E-01  0.10298822565E+01  0.10297864454E+01 0.  0.
     999903    2    3    3    0    0  0.12635336512E+00  0.10731651459E-01 -0.38224932736E-01  0.14004525290E+00  0.45510286282E-01 0.  0.
         14    1    1    2    0    0  0.29598216553E-02 -0.15895659722E-02  0.13640081913E-01  0.14047743548E-01  0.00000000000E+00 0. -1.
     999901    1    3    3    0    0 -0.12931318677E+00 -0.91420854866E-02  0.24584850823E-01  0.88983700355E+00  0.88000000000E+00 0. -1.
        -11    1    4    4    0    0  0.10040685085E+00  0.23680347337E-01 -0.40779702296E-01  0.11093033754E+00  0.51100000000E-03 0. -1.
         11    1    4    4    0    0  0.25946514272E-01 -0.12948695878E-01  0.25547695603E-02  0.29114915358E-01  0.51100000000E-03 0.  1.
</event>
<event>
 8    1  0.2927513E+004  0.1043930E+01  0.7957747E-01            NaN
         13   -1    0    0    0    0  0.00000000000E+00  0.00000000000E+00  0.74505805969E-08  0.10566000000E+00  0.10566000000E+00 0. -1.
     999900   -1    0    0    0    0 -0.00000000000E+00 -0.00000000000E+00 -0.74505805969E-08  0.93827000000E+00  0.93827000000E+00 0. -1.
     999902    2    1    2    0    0 -0.19032621823E-02 -0.83469441574E-02 -0.10762062348E-01  0.10301780594E+01  0.10300862674E+01 0.  0.
     999903    2    3    3    0    0  0.87285009636E-01 -0.10144057385E+00  0.55574273306E-02  0.14063475105E+00  0.42876395307E-01 0.  0.
         14    1    1    2    0    0  0.19032621823E-02  0.83469441574E-02  0.10762062348E-01  0.13751940579E-01  0.00000000000E+00 0.  1.
     999901    1    3    3    0    0 -0.89188271819E-01  0.93093629695E-01 -0.16319489678E-01  0.88954330837E+00  0.88000000000E+00 0. -1.
        -11    1    4    4    0    0  0.10965921626E-01 -0.36953703625E-01  0.12369552035E-01  0.40485733133E-01  0.51100000000E-03 0.  1.
         11    1    4    4    0    0  0.76319088011E-01 -0.64486870227E-01 -0.68121247045E-02  0.10014901792E+00  0.51100000000E-03 0. -1.
</event>
<event>
 8    1  0.2927513E+004  0.1043930E+01  0.7957747E-01            NaN
         13   -1    0    0    0    0  0.00000000000E+00  0.00000000000E+00  0.74505805969E-08  0.10566000000E+00  0.10566000000E+00 0.  1.
     999900   -1    0    0    0    0 -0.00000000000E+00 -0.00000000000E+00 -0.74505805969E-08  0.93827000000E+00  0.93827000000E+00 0. -1.
     999902    2    1    2    0    0 -0.12246168406E-01 -0.82333166186E-02  0.14615223814E-02  0.10291012377E+01  0.10289943952E+01 0.  0.
     999903    2    3    3    0    0  0.12429127834E+00 -0.41790958670E-01 -0.44597042817E-02  0.13792019515E+00  0.42512176721E-01 0.  0.
         14    1    1    2    0    0  0.12246168406E-01  0.82333166186E-02 -0.14615223814E-02  0.14828762283E-01  0.00000000000E+00 0.  1.
     999901    1    3    3    0    0 -0.13653744675E+00  0.33557642051E-01  0.59212266631E-02  0.89118104257E+00  0.88000000000E+00 0.  1.
        -11    1    4    4    0    0  0.48584018436E-01 -0.37683481949E-01  0.40673693526E-02  0.61621881452E-01  0.51100000000E-03 0.  1.
         11    1    4    4    0    0  0.75707259906E-01 -0.41074767210E-02 -0.85270736344E-02  0.76298313699E-01  0.51100000000E-03 0. -1.
</event>
<event>
 8    1  0.2927513E+004  0.1043930E+01  0.7957747E-01            NaN
         13   -1    0    0    0    0  0.00000000000E+00  0.00000000000E+00  0.74505805969E-08  0.10566000000E+00  0.10566000000E+00 0.  1.
     999900   -1    0    0    0    0 -0.00000000000E+00 -0.00000000000E+00 -0.74505805969E-08  0.93827000000E+00  0.93827000000E+00 0.  1.
     999902    2    1    2    0    0 -0.13192271810E-01  0.21156710877E-02 -0.54130431239E-02  0.10295142747E+01  0.10294133420E+01 0.  0.
     999903    2    3    3    0    0 -0.42358469152E-01  0.79059355677E-01  0.97309345297E-01  0.13972616131E+00  0.44829341336E-01 0.  0.
         14    1    1    2    0    0  0.13192271810E-01 -0.21156710877E-02  0.54130431239E-02  0.14415725286E-01  0.00000000000E+00 0.  1.
     999901    1    3    3    0    0  0.29166197343E-01 -0.76943684589E-01 -0.10272238842E+00  0.88978811340E+00  0.88000000000E+00 0.  1.
        -11    1    4    4    0    0 -0.58812986380E-02  0.29524933248E-02  0.32906622082E-01  0.33562088558E-01  0.51100000000E-03 0. -1.
         11    1    4    4    0    0 -0.36477170514E-01  0.76106862352E-01  0.64402723215E-01  0.10616407276E+00  0.51100000000E-03 0.  1.
</event>
<event>
 8    1  0.2927513E+004  0.1043930E+01  0.7957747E-01            NaN
         13   -1    0    0    0    0  0.00000000000E+00  0.00000000000E+00  0.74505805969E-08  0.10566000000E+00  0.10566000000E+00 0. -1.
     999900   -1    0    0    0    0 -0.00000000000E+00 -0.00000000000E+00 -0.74505805969E-08  0.93827000000E+00  0.93827000000E+00 0.  1.
     999902    2    1    2    0    0  0.47758521232E-02  0.96111899976E-02  0.76160490268E-02  0.10307699111E+01  0.10306858987E+01 0.  0.
     999903    2    3    3    0    0 -0.49836337602E-01 -0.11154666278E-01  0.12370084335E+00  0.14122542570E+00  0.45106929565E-01 0.  0.
         14    1    1    2    0    0 -0.47758521232E-02 -0.96111899976E-02 -0.76160490268E-02  0.13160088885E-01  0.00000000000E+00 0.  1.
     999901    1    3    3    0    0  0.54612189725E-01  0.20765856275E-01 -0.11608479432E+00  0.88954448541E+00  0.88000000000E+00 0.  1.
        -11    1    4    4    0    0 -0.53306748394E-01 -0.39347681866E-02  0.76369799100E-01  0.93218555881E-01  0.51100000000E-03 0. -1.
         11    1    4    4    0    0  0.34704107920E-02 -0.72198980911E-02  0.47331044249E-01  0.48006869823E-01  0.51100000000E-03 0.  1.
</event>
<event>
 8    1  0.2927513E+004  0.1043930E+01  0.7957747E-01            NaN
         13   -1    0    0    0    0  0.00000000000E+00  0.00000000000E+00  0.74505805969E-08  0.10566000000E+00  0.10566000000E+00 0. -1.
     999900   -1    0    0    0    0 -0.00000000000E+00 -0.00000000000E+00 -0.74505805969E-08  0.93827000000E+00  0.93827000000E+00 0. -1.
     999902    2    1    2    0    0 -0.12557458657E-01 -0.34788171260E-02  0.37042546454E-02  0.10303832868E+01  0.10302942319E+01 0.  0.
     999903    2    3    3    0    0  0.99330351397E-01 -0.65056237140E-01  0.57855988756E-01  0.13951681475E+00  0.44930985547E-01 0.  0.
         14    1    1    2    0    0  0.12557458657E-01  0.34788171260E-02 -0.37042546454E-02  0.13546713217E-01  0.00000000000E+00 0.  1.
     999901    1    3    3    0    0 -0.11188781005E+00  0.61577420014E-01 -0.54151734110E-01  0.89086647204E+00  0.88000000000E+00 0. -1.
        -11    1    4    4    0    0  0.11080922029E-01 -0.29372979426E-01  0.98608422650E-02  0.32909817449E-01  0.51100000000E-03 0. -1.
         11    1    4    4    0    0  0.88249429367E-01 -0.35683257715E-01  0.47995146491E-01  0.10660699730E+00  0.51100000000E-03 0.  1.
</event>
<event>
 8    1  0.2927513E+004  0.1043930E+01  0.7957747E-01            NaN
         13   -1    0    0    0    0  0.00000000000E+00  0.00000000000E+00  0.74505805969E-08  0.10566000000E+00  0.10566000000E+00 0. -1.
     999900   -1    0    0    0    0 -0.00000000000E+00 -0.00000000000E+00 -0.74505805969E-08  0.93827000000E+00  0.93827000000E+00 0.  1.
     999902    2    1    2    0    0  0.14231392376E-01  0.24299845172E-02  0.38828044730E-04  0.10294925881E+01  0.10293913494E+01 0.  0.
     999903    2    3    3    0    0  0.71499323105E-01 -0.11183901878E+00  0.30122540276E-02  0.14025366509E+00  0.45187360728E-01 0.  0.
         14    1    1    2    0    0 -0.14231392376E-01 -0.24299845172E-02 -0.38828044730E-04  0.14437411864E-01  0.00000000000E+00 0. -1.
     999901    1    3    3    0    0 -0.57267930730E-01  0.11426900330E+00 -0.29734259829E-02  0.88923892305E+00  0.88000000000E+00 0.  1.
        -11    1    4    4    0    0  0.53449194654E-01 -0.41728274110E-01  0.55674696067E-03  0.67813246180E-01  0.51100000000E-03 0.  1.
         11    1    4    4    0    0  0.18050128452E-01 -0.70110744671E-01  0.24555070669E-02  0.72440418907E-01  0.51100000000E-03 0. -1.
</event>
<event>
 8    1  0.2927513E+004  0.1043930E+01  0.7957747E-01            NaN
         13   -1    0    0    0    0  0.00000000000E+00  0.00000000000E+00  0.74505805969E-08  0.10566000000E+00  0.10566000000E+00 0.  1.
     999900   -1    0    0    0    0 -0.00000000000E+00 -0.00000000000E+00 -0.74505805969E-08  0.93827000000E+00  0.93827000000E+00 0.  1.
     999902    2    1    2    0    0  0.69704865417E-02 -0.11616030937E-01 -0.27346674611E-02  0.10301097879E+01  0.10300170760E+01 0.  0.
     999903    2    3    3    0    0  0.80478589696E-01  0.77553930031E-01  0.71321618176E-01  0.13947009831E+00  0.43286483344E-01 0.  0.
         14    1    1    2    0    0 -0.69704865417E-02  0.11616030937E-01  0.27346674611E-02  0.13820212136E-01  0.00000000000E+00 0. -1.
     999901    1    3    3    0    0 -0.73508103154E-01 -0.89169960968E-01 -0.74056285637E-01  0.89063968956E+00  0.88000000000E+00 0.  1.
        -11    1    4    4    0    0  0.48099946675E-01  0.17750709149E-01  0.37452570583E-01  0.63495265255E-01  0.51100000000E-03 0. -1.
         11    1    4    4    0    0  0.32378643021E-01  0.59803220883E-01  0.33869047593E-01  0.75974833054E-01  0.51100000000E-03 0.  1.
</event>
<event>
 8    1  0.2927513E+004  0.1043930E+01  0.7957747E-01            NaN
         13   -1    0    0    0    0  0.00000000000E+00  0.00000000000E+00  0.74505805969E-08  0.10566000000E+00  0.10566000000E+00 0. -1.
     999900   -1    0    0    0    0 -0.00000000000E+00 -0.00000000000E+00 -0.74505805969E-08  0.93827000000E+00  0.93827000000E+00 0.  1.
     999902    2    1    2    0    0  0.65070213644E-02  0.79241231698E-02  0.11061537368E-01  0.10288472064E+01  0.10287366443E+01 0.  0.
     999903    2    3    3    0    0 -0.84289611351E-01  0.62235936008E-01 -0.77863143854E-01  0.13806025065E+00  0.44943445877E-01 0.  0.
         14    1    1    2    0    0 -0.65070213644E-02 -0.79241231698E-02 -0.11061537368E-01  0.15082793640E-01  0.00000000000E+00 0.  1.
     999901    1    3    3    0    0  0.90796632715E-01 -0.54311812838E-01  0.88924681222E-01  0.89078695571E+00  0.88000000000E+00 0. -1.
        -11    1    4    4    0    0 -0.34696483172E-01  0.45318253478E-01 -0.21217301694E-01  0.60893555119E-01  0.51100000000E-03 0. -1.
         11    1    4    4    0    0 -0.49593128179E-01  0.16917682529E-01 -0.56645842161E-01  0.77166695535E-01  0.51100000000E-03 0.  1.
</event>
<event>
 8    1  0.2927513E+004  0.1043930E+01  0.7957747E-01            NaN
         13   -1    0    0    0    0  0.00000000000E+00  0.00000000000E+00  0.74505805969E-08  0.10566000000E+00  0.10566000000E+00 0.  1.
     999900   -1    0    0    0    0 -0.00000000000E+00 -0.00000000000E+00 -0.74505805969E-08  0.93827000000E+00  0.93827000000E+00 0.  1.
     999902    2    1    2    0    0 -0.14212381882E-01 -0.34543229041E-02  0.26387171905E-02  0.10290677332E+01  0.10289604038E+01 0.  0.
     999903    2    3    3    0    0 -0.42175016101E-01 -0.94528051922E-01 -0.82682068948E-01  0.13982312706E+00  0.44720216376E-01 0.  0.
         14    1    1    2    0    0  0.14212381882E-01  0.34543229041E-02 -0.26387171905E-02  0.14862266782E-01  0.00000000000E+00 0. -1.
     999901    1    3    3    0    0  0.27962634218E-01  0.91073729018E-01  0.85320786138E-01  0.88924460616E+00  0.88000000000E+00 0. -1.
        -11    1    4    4    0    0  0.24000889775E-02 -0.44006140126E-01 -0.43275619197E-01  0.61768447720E-01  0.51100000000E-03 0. -1.
         11    1    4    4    0    0 -0.44575105078E-01 -0.50521911796E-01 -0.39406449751E-01  0.78054679342E-01  0.51100000000E-03 0.  1.
</event>
<event>
 8    1  0.2927513E+004  0.1043930E+01  0.7957747E-01            NaN
         13   -1    0    0    0    0  0.00000000000E+00  0.00000000000E+00  0.74505805969E-08  0.10566000000E+00  0.10566000000E+00 0. -1.
     999900   -1    0    0    0    0 -0.00000000000E+00 -0.00000000000E+00 -0.74505805969E-08  0.93827000000E+00  0.93827000000E+00 0. -1.
     999902    2    1    2    0    0  0.74202133562E-02 -0.11085006261E-01 -0.24526597012E-02  0.10303670921E+01  0.10302778228E+01 0.  0.
     999903    2    3    3    0    0 -0.31624433525E-01  0.82916170720E-01 -0.99468041258E-01  0.13920342031E+00  0.40106169503E-01 0.  0.
         14    1    1    2    0    0 -0.74202133562E-02  0.11085006261E-01  0.24526597012E-02  0.13562907862E-01  0.00000000000E+00 0. -1.
     999901    1    3    3    0    0  0.39044646881E-01 -0.94001176981E-01  0.97015381557E-01  0.89116367183E+00  0.88000000000E+00 0.  1.
        -11    1    4    4    0    0 -0.10943832197E-01  0.73726506041E-01 -0.80065472007E-01  0.10938969826E+00  0.51100000000E-03 0. -1.
         11    1    4    4    0    0 -0.20680601328E-01  0.91896646787E-02 -0.19402569251E-01  0.29813722054E-01  0.51100000000E-03 0.  1.
</event>
<event>
 8    1  0.2927513E+004  0.1043930E+01  0.7957747E-01            NaN
         13   -1    0    0    0    0  0.00000000000E+00  0.00000000000E+00  0.74505805969E-08  0.10566000000E+00  0.10566000000E+00 0. -1.
     999900   -1    0    0    0    0 -0.00000000000E+00 -0.00000000000E+00 -0.74505805969E-08  0.93827000000E+00  0.93827000000E+00 0.  1.
     999902    2    1    2    0    0  0.59765064023E-02  0.14465370614E-02  0.12186696837E-01  0.10302798470E+01  0.10301894177E+01 0.  0.
     999903    2    3    3    0    0 -0.33626764864E-01 -0.95618974780E-01 -0.83618751620E-01  0.13889395037E+00  0.45007623505E-01 0.  0.
         14    1    1    2    0    0 -0.59765064023E-02 -0.14465370614E-02 -0.12186696837E-01  0.13650153041E-01  0.00000000000E+00 0.  1.
     999901    1    3    3    0    0  0.39603271266E-01  0.97065511842E-01  0.95805448457E-01  0.89138589659E+00  0.88000000000E+00 0. -1.
        -11    1    4    4    0    0  0.55887388124E-02 -0.50879614245E-01 -0.34333594806E-01  0.61636239345E-01  0.51100000000E-03 0.  1.
         11    1    4    4    0    0 -0.39215503676E-01 -0.44739360535E-01 -0.49285156813E-01  0.77257711025E-01  0.51100000000E-03 0. -1.
</event>
<event>
 8    1  0.2927513E+004  0.1043930E+01  0.7957747E-01            NaN
         13   -1    0    0    0    0  0.00000000000E+00  0.00000000000E+00  0.74505805969E-08  0.10566000000E+00  0.10566000000E+00 0.  1.
     999900   -1    0    0    0    0 -0.00000000000E+00 -0.00000000000E+00 -0.74505805969E-08  0.93827000000E+00  0.93827000000E+00 0.  1.
     999902    2    1    2    0    0 -0.36501096097E-02 -0.11741754147E-01 -0.81274073469E-02  0.10291907042E+01  0.10290851562E+01 0.  0.
     999903    2    3    3    0    0  0.57043603357E-01 -0.96350172279E-01 -0.72115813970E-01  0.14074440453E+00  0.45507893811E-01 0.  0.
         14    1    1    2    0    0  0.36501096097E-02  0.11741754147E-01  0.81274073469E-02  0.14739295804E-01  0.00000000000E+00 0.  1.
     999901    1    3    3    0    0 -0.60693712967E-01  0.84608418132E-01  0.63988406623E-01  0.88844629967E+00  0.88000000000E+00 0. -1.
        -11    1    4    4    0    0 -0.56707634578E-02 -0.14900562310E-01 -0.19719516622E-01  0.25363453475E-01  0.51100000000E-03 0.  1.
         11    1    4    4    0    0  0.62714366815E-01 -0.81449609969E-01 -0.52396297347E-01  0.11538095105E+00  0.51100000000E-03 0. -1.
</event>
<event>
 8    1  0.2927513E+004  0.1043930E+01  0.7957747E-01            NaN
         13   -1    0    0    0    0  0.00000000000E+00  0.00000000000E+00  0.74505805969E-08  0.10566000000E+00  0.10566000000E+00 0. -1.
     999900   -1    0    0    0    0 -0.00000000000E+00 -0.00000000000E+00 -0.74505805969E-08  0.93827000000E+00  0.93827000000E+00 0. -1.
     999902    2    1    2    0    0  0.93336629075E-02  0.12181798163E-03  0.98723508376E-02  0.10303434105E+01  0.10302538271E+01 0.  0.
     999903    2    3    3    0    0 -0.11476043122E+00  0.22256342466E-01  0.61032961361E-01  0.13989032952E+00  0.46679551932E-01 0.  0.
         14    1    1    2    0    0 -0.93336629075E-02 -0.12181798163E-03 -0.98723508376E-02  0.13586589489E-01  0.00000000000E+00 0. -1.
     999901    1    3    3    0    0  0.12409409412E+00 -0.22134524485E-01 -0.51160610524E-01  0.89045308099E+00  0.88000000000E+00 0. -1.
        -11    1    4    4    0    0 -0.76745144859E-01 -0.76600504020E-02  0.32262412324E-01  0.83603935324E-01  0.51100000000E-03 0. -1.
         11    1    4    4    0    0 -0.38015286357E-01  0.29916392868E-01  0.28770549038E-01  0.56286394200E-01  0.51100000000E-03 0.  1.
</event>
<event>
 8    1  0.2927513E+004  0.1043930E+01  0.7957747E-01            NaN
         13   -1    0    0    0    0  0.00000000000E+00  0.00000000000E+00  0.74505805969E-08  0.10566000000E+00  0.10566000000E+00 0.  1.
     999900   -1    0    0    0    0 -0.00000000000E+00 -0.00000000000E+00 -0.74505805969E-08  0.93827000000E+00  0.93827000000E+00 0. -1.
     999902    2    1    2    0    0  0.16009711347E-01 -0.54697919010E-02 -0.30901826481E-02  0.10267317818E+01  0.10265877327E+01 0.  0.
     999903    2    3    3    0    0  0.39327928038E-01 -0.12343079950E+00 -0.19924339296E-01  0.13839517477E+00  0.44434186311E-01 0.  0.
         14    1    1    2    0    0 -0.16009711347E-01  0.54697919010E-02  0.30901826481E-02  0.17198218212E-01  0.00000000000E+00 0.  1.
     999901    1    3    3    0    0 -0.23318216691E-01  0.11796100760E+00  0.16834156648E-01  0.88833660702E+00  0.88000000000E+00 0.  1.
        -11    1    4    4    0    0  0.32574707624E-01 -0.49276673368E-01 -0.24136749473E-01  0.63813367810E-01  0.51100000000E-03 0. -1.
         11    1    4    4    0    0  0.67532204136E-02 -0.74154126133E-01  0.42124101778E-02  0.74581806957E-01  0.51100000000E-03 0.  1.
</event>
<event>
 8    1  0.2927513E+004  0.1043930E+01  0.7957747E-01            NaN
         13   -1    0    0    0    0  0.00000000000E+00  0.00000000000E+00  0.74505805969E-08  0.10566000000E+00  0.10566000000E+00 0. -1.
     999900   -1    0    0    0    0 -0.00000000000E+00 -0.00000000000E+00 -0.74505805969E-08  0.93827000000E+00  0.93827000000E+00 0.  1.
     999902    2    1    2    0    0  0.12973131432E-01 -0.59041112633E-02 -0.57829125695E-03  0.10296648295E+01  0.10295660086E+01 0.  0.
     999903    2    3    3    0    0 -0.71774679965E-01  0.46513715376E-01  0.98782594748E-01  0.13848448536E+00  0.45878331037E-01 0.  0.
         14    1    1    2    0    0 -0.12973131432E-01  0.59041112633E-02  0.57829125695E-03  0.14265170512E-01  0.00000000000E+00 0. -1.
     999901    1    3    3    0    0  0.84747811398E-01 -0.52417826640E-01 -0.99360886005E-01  0.89118034412E+00  0.88000000000E+00 0.  1.
        -11    1    4    4    0    0 -0.41290791576E-01  0.57969215223E-02  0.24215360898E-01  0.48220105687E-01  0.51100000000E-03 0. -1.
         11    1    4    4    0    0 -0.30483888390E-01  0.40716793854E-01  0.74567233850E-01  0.90264379676E-01  0.51100000000E-03 0.  1.
</event>
<event>
 8    1  0.2927513E+004  0.1043930E+01  0.7957747E-01            NaN
         13   -1    0    0    0    0  0.00000000000E+00  0.00000000000E+00  0.74505805969E-08  0.10566000000E+00  0.10566000000E+00 0.  1.
     999900   -1    0    0    0    0 -0.00000000000E+00 -0.00000000000E+00 -0.74505805969E-08  0.93827000000E+00  0.93827000000E+00 0.  1.
     999902    2    1    2    0    0  0.99847579109E-02  0.87898517442E-02 -0.45919551833E-02  0.10298572271E+01  0.10297610720E+01 0.  0.
     999903    2    3    3    0    0  0.80382542649E-01 -0.93009261742E-01 -0.50517868925E-01  0.14000999463E+00  0.44030303025E-01 0.  0.
         14    1    1    2    0    0 -0.99847579109E-02 -0.87898517442E-02  0.45919551833E-02  0.14072772883E-01  0.00000000000E+00 0.  1.
     999901    1    3    3    0    0 -0.70397784738E-01  0.10179911349E+00  0.45925913742E-01  0.88984723248E+00  0.88000000000E+00 0. -1.
        -11    1    4    4    0    0  0.43994515367E-01 -0.57392536521E-01 -0.51994579287E-01  0.89068052785E-01  0.51100000000E-03 0. -1.
         11    1    4    4    0    0  0.36388027282E-01 -0.35616725221E-01  0.14767103623E-02  0.50941941849E-01  0.51100000000E-03 0.  1.
</event>
<event>
 8    1  0.2927513E+004  0.1043930E+01  0.7957747E-01            NaN
         13   -1    0    0    0    0  0.00000000000E+00  0.00000000000E+00  0.74505805969E-08  0.10566000000E+00  0.10566000000E+00 0.  1.
     999900   -1    0    0    0    0 -0.00000000000E+00 -0.00000000000E+00 -0.74505805969E-08  0.93827000000E+00  0.93827000000E+00 0.  1.
     999902    2    1    2    0    0  0.10954567752E-01 -0.33520252477E-02  0.93772729434E-02  0.10291255454E+01  0.10290190554E+01 0.  0.
     999903    2    3    3    0    0 -0.94536492139E-01 -0.60602872798E-01  0.68493382402E-01  0.13901277859E+00  0.44981692275E-01 0.  0.
         14    1    1    2    0    0 -0.10954567752E-01  0.33520252477E-02 -0.93772729434E-02  0.14804454592E-01  0.00000000000E+00 0.  1.
     999901    1    3    3    0    0  0.10549105989E+00  0.57250847550E-01 -0.59116109459E-01  0.89011276682E+00  0.88000000000E+00 0.  1.
        -11    1    4    4    0    0 -0.53505230667E-01 -0.48156248895E-01  0.63225160198E-01  0.95809790833E-01  0.51100000000E-03 0.  1.
         11    1    4    4    0    0 -0.41031261473E-01 -0.12446623903E-01  0.52682222040E-02  0.43202987753E-01  0.51100000000E-03 0. -1.
</event>
<event>
 8    1  0.2927513E+004  0.1043930E+01  0.7957747E-01            NaN
         13   -1    0    0    0    0  0.00000000000E+00  0.00000000000E+00  0.74505805969E-08  0.10566000000E+00  0.10566000000E+00 0. -1.
     999900   -1    0    0    0    0 -0.00000000000E+00 -0.00000000000E+00 -0.74505805969E-08  0.93827000000E+00  0.93827000000E+00 0.  1.
     999902    2    1    2    0    0 -0.27162621675E-02 -0.12908930534E-01 -0.17715522210E-02  0.10306199675E+01  0.10305340171E+01 0.  0.
     999903    2    3    3    0    0 -0.67948791251E-01  0.10463134381E+00 -0.42315284730E-01  0.13948878009E+00  0.45845175420E-01 0.  0.
         14    1    1    2    0    0  0.27162621675E-02  0.12908930534E-01  0.17715522210E-02  0.13310032493E-01  0.00000000000E+00 0.  1.
     999901    1    3    3    0    0  0.65232529084E-01 -0.11754027434E+00  0.40543732509E-01  0.89113118742E+00  0.88000000000E+00 0. -1.
        -11    1    4    4    0    0 -0.61555997259E-01  0.56076850042E-01 -0.33339337977E-01  0.89696858847E-01  0.51100000000E-03 0. -1.
         11    1    4    4    0    0 -0.63927939926E-02  0.48554493766E-01 -0.89759467532E-02  0.49791921242E-01  0.51100000000E-03 0.  1.
</event>
<event>
 8    1  0.2927513E+004  0.1043930E+01  0.7957747E-01            NaN
         13   -1    0    0    0    0  0.00000000000E+00  0.00000000000E+00  0.74505805969E-08  0.10566000000E+00  0.10566000000E+00 0. -1.
     999900   -1    0    0    0    0 -0.00000000000E+00 -0.00000000000E+00 -0.74505805969E-08  0.93827000000E+00  0.93827000000E+00 0.  1.
     999902    2    1    2    0    0 -0.11066300850E-01  0.43944392949E-03 -0.73809191208E-02  0.10306208268E+01  0.10305348875E+01 0.  0.
     999903    2    3    3    0    0 -0.96890395651E-01  0.92734731392E-01  0.18473093656E-02  0.14159363058E+00  0.45363691348E-01 0.  0.
         14    1    1    2    0    0  0.11066300850E-01 -0.43944392949E-03  0.73809191208E-02  0.13309173248E-01  0.00000000000E+00 0. -1.
     999901    1    3    3    0    0  0.85824094801E-01 -0.92295287462E-01 -0.92282284864E-02  0.88902719617E+00  0.88000000000E+00 0.  1.
        -11    1    4    4    0    0 -0.46877070862E-01  0.58087957861E-01  0.21456196572E-01  0.77667883410E-01  0.51100000000E-03 0. -1.
         11    1    4    4    0    0 -0.50013324789E-01  0.34646773531E-01 -0.19608887206E-01  0.63925747168E-01  0.51100000000E-03 0.  1.
</event>
<event>
 8    1  0.2927513E+004  0.1043930E+01  0.7957747E-01            NaN
         13   -1    0    0    0    0  0.00000000000E+00  0.00000000000E+00  0.74505805969E-08  0.10566000000E+00  0.10566000000E+00 0. -1.
     999900   -1    0    0    0    0 -0.00000000000E+00 -0.00000000000E+00 -0.74505805969E-08  0.93827000000E+00  0.93827000000E+00 0.  1.
     999902    2    1    2    0    0  0.12957097407E-01  0.40222438709E-02 -0.28410223963E-02  0.10300686787E+01  0.10299754107E+01 0.  0.
     999903    2    3    3    0    0 -0.20486433959E-01  0.18318413607E-01 -0.13001414288E+00  0.14018337554E+00  0.44636791744E-01 0.  0.
         14    1    1    2    0    0 -0.12957097407E-01 -0.40222438709E-02  0.28410223963E-02  0.13861321266E-01  0.00000000000E+00 0. -1.
     999901    1    3    3    0    0  0.33443531366E-01 -0.14296169736E-01  0.12717312048E+00  0.88988530319E+00  0.88000000000E+00 0. -1.
        -11    1    4    4    0    0  0.80959746050E-02  0.21941601424E-01 -0.64538884582E-01  0.68647705147E-01  0.51100000000E-03 0.  1.
         11    1    4    4    0    0 -0.28582408564E-01 -0.36231878165E-02 -0.65475258296E-01  0.71535670398E-01  0.51100000000E-03 0. -1.
</event>
<event>
 8    1  0.2927513E+004  0.1043930E+01  0.7957747E-01            NaN
         13   -1    0    0    0    0  0.00000000000E+00  0.00000000000E+00  0.74505805969E-08  0.10566000000E+00  0.10566000000E+00 0. -1.
     999900   -1    0    0    0    0 -0.00000000000E+00 -0.00000000000E+00 -0.74505805969E-08  0.93827000000E+00  0.93827000000E+00 0.  1.
     999902    2    1    2    0    0 -0.22813113673E-02  0.11720724233E-01  0.63859350313E-02  0.10303889541E+01  0.10302999742E+01 0.  0.
     999903    2    3    3    0    0 -0.11169300242E+00 -0.23846511080E-02 -0.75848194634E-01  0.13969690190E+00  0.35794726157E-01 0.  0.
         14    1    1    2    0    0  0.22813113673E-02 -0.11720724233E-01 -0.63859350313E-02  0.13541045909E-01  0.00000000000E+00 0.  1.
     999901    1    3    3    0    0  0.10941169105E+00  0.14105375341E-01  0.82234129665E-01  0.89069205219E+00  0.88000000000E+00 0. -1.
        -11    1    4    4    0    0 -0.50988880527E-01  0.13932432016E-01 -0.46158651977E-01  0.70177352990E-01  0.51100000000E-03 0. -1.
         11    1    4    4    0    0 -0.60704121894E-01 -0.16317083124E-01 -0.29689542657E-01  0.69519548911E-01  0.51100000000E-03 0.  1.
</event>
<event>
 8    1  0.2927513E+004  0.1043930E+01  0.7957747E-01            NaN
         13   -1    0    0    0    0  0.00000000000E+00  0.00000000000E+00  0.74505805969E-08  0.10566000000E+00  0.10566000000E+00 0.  1.
     999900   -1    0    0    0    0 -0.00000000000E+00 -0.00000000000E+00 -0.74505805969E-08  0.93827000000E+00  0.93827000000E+00 0.  1.
     999902    2    1    2    0    0  0.12670070307E-01 -0.10951147285E-02 -0.47364115065E-02  0.10303593128E+01  0.10302699403E+01 0.  0.
     999903    2    3    3    0    0  0.88078673827E-01  0.99204752965E-01 -0.19076836600E-01  0.14134178272E+00  0.44879149442E-01 0.  0.
         14    1    1    2    0    0 -0.12670070307E-01  0.10951147285E-02  0.47364115065E-02  0.13570687227E-01  0.00000000000E+00 0. -1.
     999901    1    3    3    0    0 -0.75408603519E-01 -0.10029986769E+00  0.14340425093E-01  0.88901753005E+00  0.88000000000E+00 0. -1.
        -11    1    4    4    0    0  0.11423198344E-01  0.29250465139E-01 -0.20587679453E-01  0.37552534369E-01  0.51100000000E-03 0.  1.
         11    1    4    4    0    0  0.76655475482E-01  0.69954287826E-01  0.15108428537E-02  0.10378924835E+00  0.51100000000E-03 0. -1.
</event>
<event>
 8    1  0.2927513E+004  0.1043930E+01  0.7957747E-01            NaN
         13   -1    0    0    0    0  0.00000000000E+00  0.00000000000E+00  0.74505805969E-08  0.10566000000E+00  0.10566000000E+00 0. -1.
     999900   -1    0    0    0    0 -0.00000000000E+00 -0.00000000000E+00 -0.74505805969E-08  0.93827000000E+00  0.93827000000E+00 0.  1.
     999902    2    1    2    0    0 -0.51917623079E-02  0.14105341445E-01  0.18996105913E-02  0.10287799646E+01  0.10286684072E+01 0.  0.
     999903    2    3    3    0    0 -0.12278940566E+00  0.76345559989E-02  0.48243997260E-01  0.13972491624E+00  0.45387711536E-01 0.  0.
         14    1    1    2    0    0  0.51917623079E-02 -0.14105341445E-01 -0.18996105913E-02  0.15150035430E-01  0.00000000000E+00 0. -1.
     999901    1    3    3    0    0  0.11759764335E+00  0.64707854461E-02 -0.46344386669E-01  0.88905504833E+00  0.88000000000E+00 0.  1.
        -11    1    4    4    0    0 -0.67675360829E-01 -0.72817516094E-02  0.46805790159E-01  0.82607635745E-01  0.51100000000E-03 0. -1.
         11    1    4    4    0    0 -0.55114044832E-01  0.14916307608E-01  0.14382071004E-02  0.57117280494E-01  0.51100000000E-03 0.  1.
</event>
<event>
 8    1  0.2927513E+004  0.1043930E+01  0.7957747E-01            NaN
         13   -1    0    0    0    0  0.00000000000E+00  0.00000000000E+00  0.74505805969E-08  0.10566000000E+00  0.10566000000E+00 0. -1.
     999900   -1    0    0    0    0 -0.00000000000E+00 -0.00000000000E+00 -0.74505805969E-08  0.93827000000E+00  0.93827000000E+00 0.  1.
     999902    2    1    2    0    0  0.72828338190E-02  0.95279146112E-02 -0.63221024764E-02  0.10303730901E+01  0.10302839002E+01 0.  0.
     999903    2    3    3    0    0  0.55656977813E-01 -0.95156419974E-01  0.72014089343E-01  0.13939866477E+00  0.45754947641E-01 0.  0.
         14    1    1    2    0    0 -0.72828338190E-02 -0.95279146112E-02  0.63221024764E-02  0.13556909862E-01  0.00000000000E+00 0. -1.
     999901    1    3    3    0    0 -0.48374143994E-01  0.10468433459E+00 -0.78336191820E-01  0.89097442537E+00  0.88000000000E+00 0.  1.
        -11    1    4    4    0    0  0.37718163075E-01 -0.41174774305E-01  0.58612186872E-01  0.80954749310E-01  0.51100000000E-03 0. -1.
         11    1    4    4    0    0  0.17938814738E-01 -0.53981645669E-01  0.13401902471E-01  0.58443915459E-01  0.51100000000E-03 0.  1.
</event>
<event>
 8    1  0.2927513E+004  0.1043930E+01  0.7957747E-01            NaN
         13   -1    0    0    0    0  0.00000000000E+00  0.00000000000E+00  0.74505805969E-08  0.10566000000E+00  0.10566000000E+00 0.  1.
     999900   -1    0    0    0    0 -0.00000000000E+00 -0.00000000000E+00 -0.74505805969E-08  0.93827000000E+00  0.93827000000E+00 0.  1.
     999902    2    1    2    0    0  0.67571831050E-02  0.10228627113E-01 -0.83625186984E-02  0.10290903216E+01  0.10289833205E+01 0.  0.
     999903    2    3    3    0    0  0.65660697531E-01  0.11069858143E+00  0.36930803971E-01  0.14026226128E+00  0.41762597208E-01 0.  0.
         14    1    1    2    0    0 -0.67571831050E-02 -0.10228627113E-01  0.83625186984E-02  0.14839678403E-01  0.00000000000E+00 0. -1.
     999901    1    3    3    0    0 -0.58903514426E-01 -0.10046995432E+00 -0.45293322669E-01  0.88882806032E+00  0.88000000000E+00 0.  1.
        -11    1    4    4    0    0  0.34346322936E-01  0.75849417946E-01  0.41777493189E-01  0.93158060093E-01  0.51100000000E-03 0. -1.
         11    1    4    4    0    0  0.31314374595E-01  0.34849163485E-01 -0.48466892184E-02  0.47104201185E-01  0.51100000000E-03 0.  1.
</event>
<event>
 8    1  0.2927513E+004  0.1043930E+01  0.7957747E-01            NaN
         13   -1    0    0    0    0  0.00000000000E+00  0.00000000000E+00  0.74505805969E-08  0.10566000000E+00  0.10566000000E+00 0. -1.
     999900   -1    0    0    0    0 -0.00000000000E+00 -0.00000000000E+00 -0.74505805969E-08  0.93827000000E+00  0.93827000000E+00 0.  1.
     999902    2    1    2    0    0 -0.72660531285E-03 -0.11413955963E-03 -0.98810568881E-02  0.10340216062E+01  0.10339741321E+01 0.  0.
     999903    2    3    3    0    0  0.22344138700E-02  0.12757424520E+00 -0.49446790621E-01  0.14392130928E+00  0.44588984251E-01 0.  0.
         14    1    1    2    0    0  0.72660531285E-03  0.11413955963E-03  0.98810568881E-02  0.99083938328E-02  0.00000000000E+00 0. -1.
     999901    1    3    3    0    0 -0.29610191828E-02 -0.12768838476E+00  0.39565733733E-01  0.89010029689E+00  0.88000000000E+00 0. -1.
        -11    1    4    4    0    0 -0.21178245461E-01  0.62569228958E-01 -0.24933991248E-01  0.70607305102E-01  0.51100000000E-03 0. -1.
         11    1    4    4    0    0  0.23412659331E-01  0.65005016246E-01 -0.24512799373E-01  0.73314004175E-01  0.51100000000E-03 0.  1.
</event>
<event>
 8    1  0.2927513E+004  0.1043930E+01  0.7957747E-01            NaN
         13   -1    0    0    0    0  0.00000000000E+00  0.00000000000E+00  0.74505805969E-08  0.10566000000E+00  0.10566000000E+00 0.  1.
     999900   -1    0    0    0    0 -0.00000000000E+00 -0.00000000000E+00 -0.74505805969E-08  0.93827000000E+00  0.93827000000E+00 0. -1.
     999902    2    1    2    0    0 -0.71522735127E-03 -0.91892255031E-02  0.56092455092E-02  0.10331403267E+01  0.10330839838E+01 0.  0.
     999903    2    3    3    0    0  0.59028114518E-01 -0.88068487316E-01 -0.84699053355E-01  0.14300168932E+00  0.45112933275E-01 0.  0.
         14    1    1    2    0    0  0.71522735127E-03  0.91892255031E-02 -0.56092455092E-02  0.10789673336E-01  0.00000000000E+00 0. -1.
     999901    1    3    3    0    0 -0.59743341869E-01  0.78879261813E-01  0.90308298864E-01  0.89013863734E+00  0.88000000000E+00 0.  1.
        -11    1    4    4    0    0  0.32428083711E-01 -0.57109569124E-01 -0.24144869681E-01  0.69973704715E-01  0.51100000000E-03 0. -1.
         11    1    4    4    0    0  0.26600030807E-01 -0.30958918192E-01 -0.60554183674E-01  0.73027984609E-01  0.51100000000E-03 0.  1.
</event>
<event>
 8    1  0.2927513E+004  0.1043930E+01  0.7957747E-01            NaN
         13   -1    0    0    0    0  0.00000000000E+00  0.00000000000E+00  0.74505805969E-08  0.10566000000E+00  0.10566000000E+00 0. -1.
     999900   -1    0    0    0    0 -0.00000000000E+00 -0.00000000000E+00 -0.74505805969E-08  0.93827000000E+00  0.93827000000E+00 0.  1.
     999902    2    1    2    0    0 -0.44919834439E-02  0.12584545849E-01 -0.28947915941E-02  0.10302578192E+01  0.10301670959E+01 0.  0.
     999903    2    3    3    0    0  0.56500177865E-01 -0.30608396584E-01 -0.11574861145E+00  0.13990864125E+00  0.45249782352E-01 0.  0.
         14    1    1    2    0    0  0.44919834439E-02 -0.12584545849E-01  0.28947915941E-02  0.13672180801E-01  0.00000000000E+00 0. -1.
     999901    1    3    3    0    0 -0.60992161309E-01  0.43192942434E-01  0.11285381986E+00  0.89034917795E+00  0.88000000000E+00 0. -1.
        -11    1    4    4    0    0  0.17279776087E-01 -0.10788885145E-01 -0.82012212799E-01  0.84505945788E-01  0.51100000000E-03 0.  1.
         11    1    4    4    0    0  0.39220401779E-01 -0.19819511439E-01 -0.33736398654E-01  0.55402695462E-01  0.51100000000E-03 0. -1.
</event>
<event>
 8    1  0.2927513E+004  0.1043930E+01  0.7957747E-01            NaN
         13   -1    0    0    0    0  0.00000000000E+00  0.00000000000E+00  0.74505805969E-08  0.10566000000E+00  0.10566000000E+00 0.  1.
     999900   -1    0    0    0    0 -0.00000000000E+00 -0.00000000000E+00 -0.74505805969E-08  0.93827000000E+00  0.93827000000E+00 0. -1.
     999902    2    1    2    0    0 -0.10305424496E-01  0.95875812065E-02  0.20889587283E-02  0.10297001990E+01  0.10296018709E+01 0.  0.
     999903    2    3    3    0    0 -0.20421511337E-01 -0.80613914646E-01  0.10423348899E+00  0.13915421473E+00  0.39794897799E-01 0.  0.
         14    1    1    2    0    0  0.10305424496E-01 -0.95875812065E-02 -0.20889587283E-02  0.14229800983E-01  0.00000000000E+00 0.  1.
     999901    1    3    3    0    0  0.10116086841E-01  0.90201495853E-01 -0.10214453026E+00  0.89054598429E+00  0.88000000000E+00 0. -1.
        -11    1    4    4    0    0 -0.14704447795E-01 -0.12002075539E-01  0.43027877985E-01  0.47031159959E-01  0.51100000000E-03 0.  1.
         11    1    4    4    0    0 -0.57170635421E-02 -0.68611839108E-01  0.61205611003E-01  0.92123054772E-01  0.51100000000E-03 0. -1.
</event>
<event>
 8    1  0.2927513E+004  0.1043930E+01  0.7957747E-01            NaN
         13   -1    0    0    0    0  0.00000000000E+00  0.00000000000E+00  0.74505805969E-08  0.10566000000E+00  0.10566000000E+00 0.  1.
     999900   -1    0    0    0    0 -0.00000000000E+00 -0.00000000000E+00 -0.74505805969E-08  0.93827000000E+00  0.93827000000E+00 0.  1.
     999902    2    1    2    0    0 -0.39977218807E-02  0.59994336656E-02 -0.11796729014E-01  0.10301047405E+01  0.10300119604E+01 0.  0.
     999903    2    3    3    0    0  0.90571491339E-01 -0.13675890999E-01  0.93458868326E-01  0.13858401991E+00  0.45615188999E-01 0.  0.
         14    1    1    2    0    0  0.39977218807E-02 -0.59994336656E-02  0.11796729014E-01  0.13825259490E-01  0.00000000000E+00 0.  1.
     999901    1    3    3    0    0 -0.94569213219E-01  0.19675324664E-01 -0.10525559734E+00  0.89152072060E+00  0.88000000000E+00 0.  1.
        -11    1    4    4    0    0  0.25860276633E-01  0.16053837311E-01  0.20972140047E-01  0.36967166230E-01  0.51100000000E-03 0. -1.
         11    1    4    4    0    0  0.64711214706E-01 -0.29729728309E-01  0.72486728278E-01  0.10161685368E+00  0.51100000000E-03 0.  1.
</event>
<event>
 8    1  0.2927513E+004  0.1043930E+01  0.7957747E-01            NaN
         13   -1    0    0    0    0  0.00000000000E+00  0.00000000000E+00  0.74505805969E-08  0.10566000000E+00  0.10566000000E+00 0.  1.
     999900   -1    0    0    0    0 -0.00000000000E+00 -0.00000000000E+00 -0.74505805969E-08  0.93827000000E+00  0.93827000000E+00 0. -1.
     999902    2    1    2    0    0  0.58941498969E-02  0.80562412478E-02 -0.94825027933E-02  0.10301618525E+01  0.10300698425E+01 0.  0.
     999903    2    3    3    0    0 -0.93283618163E-01 -0.69546916117E-01  0.59999863332E-01  0.13848574601E+00  0.45163162953E-01 0.  0.
         14    1    1    2    0    0 -0.58941498969E-02 -0.80562412478E-02  0.94825027933E-02  0.13768147489E-01  0.00000000000E+00 0. -1.
     999901    1    3    3    0    0  0.99177768060E-01  0.77603157364E-01 -0.69482366126E-01  0.89167610651E+00  0.88000000000E+00 0. -1.
        -11    1    4    4    0    0 -0.57322210859E-01 -0.48900730601E-01  0.14153160990E-01  0.76666096796E-01  0.51100000000E-03 0.  1.
         11    1    4    4    0    0 -0.35961407305E-01 -0.20646185516E-01  0.45846702342E-01  0.61819649209E-01  0.51100000000E-03 0. -1.
</event>
<event>
 8    1  0.2927513E+004  0.1043930E+01  0.7957747E-01            NaN
         13   -1    0    0    0    0  0.00000000000E+00  0.00000000000E+00  0.74505805969E-08  0.10566000000E+00  0.10566000000E+00 0.  1.
     999900   -1    0    0    0    0 -0.00000000000E+00 -0.00000000000E+00 -0.74505805969E-08  0.93827000000E+00  0.93827000000E+00 0.  1.
     999902    2    1    2    0    0  0.18923926637E-03 -0.13785565671E-01  0.80026864704E-03  0.10301199290E+01  0.10300273540E+01 0.  0.
     999903    2    3    3    0    0 -0.31863759921E-01  0.12543832903E+00  0.17996328022E-01  0.13843254423E+00  0.45712447906E-01 0.  0.
         14    1    1    2    0    0 -0.18923926637E-03  0.13785565671E-01 -0.80026864704E-03  0.13810071045E-01  0.00000000000E+00 0. -1.
     999901    1    3    3    0    0  0.32052999187E-01 -0.13922389470E+00 -0.17196059375E-01  0.89168738472E+00  0.88000000000E+00 0.  1.
        -11    1    4    4    0    0 -0.11941895609E-01  0.32916731039E-01 -0.15144907938E-01  0.38154284300E-01  0.51100000000E-03 0. -1.
         11    1    4    4    0    0 -0.19921864312E-01  0.92521597995E-01  0.33141235960E-01  0.10027825993E+00  0.51100000000E-03 0.  1.
</event>
<event>
 8    1  0.2927513E+004  0.1043930E+01  0.7957747E-01            NaN
         13   -1    0    0    0    0  0.00000000000E+00  0.00000000000E+00  0.74505805969E-08  0.10566000000E+00  0.10566000000E+00 0.  1.
     999900   -1    0    0    0    0 -0.00000000000E+00 -0.00000000000E+00 -0.74505805969E-08  0.93827000000E+00  0.93827000000E+00 0. -1.
     999902    2    1    2    0    0  0.13107211145E-01 -0.28488522335E-02 -0.56679911347E-02  0.10293683701E+01  0.10292653692E+01 0.  0.
     999903    2    3    3    0    0 -0.78229693929E-01  0.70649192351E-01  0.76944164851E-01  0.13775793881E+00  0.44109543294E-01 0.  0.
         14    1    1    2    0    0 -0.13107211145E-01  0.28488522335E-02  0.56679911347E-02  0.14561629942E-01  0.00000000000E+00 0. -1.
     999901    1    3    3    0    0  0.91336905075E-01 -0.73498044584E-01 -0.82612155986E-01  0.89161043124E+00  0.88000000000E+00 0. -1.
        -11    1    4    4    0    0 -0.54395633090E-01  0.53002690057E-01  0.28833266061E-01  0.81239081761E-01  0.51100000000E-03 0. -1.
         11    1    4    4    0    0 -0.23834060840E-01  0.17646502294E-01  0.48110898790E-01  0.56518857054E-01  0.51100000000E-03 0.  1.
</event>
<event>
 7    1  0.2927513E+004  0.1043930E+01  0.7957747E-01            NaN
         13   -1    0    0    0    0  0.00000000000E+00  0.00000000000E+00  0.74505805969E-08  0.10566000000E+00  0.10566000000E+00 0. -1.
     999900   -1    0    0    0    0 -0.00000000000E+00 -0.00000000000E+00 -0.74505805969E-08  0.93827000000E+00  0.93827000000E+00 0.  1.
     999902    2    1    2    0    0  0.12312505236E-01  0.98000651327E-02  0.33992277634E-03  0.10281897773E+01  0.10280692893E+01 0.  0.
         14    1    1    2    0    0 -0.12312505236E-01 -0.98000651327E-02 -0.33992277634E-03  0.15740222657E-01  0.00000000000E+00 0. -1.
     999901    1    3    3    0    0  0.53373339513E-01  0.78247352397E-01  0.10992192051E+00  0.89188238582E+00  0.88000000000E+00 0. -1.
        -11    1    3    3    0    0 -0.10282656247E-01 -0.11302646947E-01 -0.29477959194E-01  0.33206837349E-01  0.51100000000E-03 0. -1.
         11    1    3    3    0    0 -0.30778178030E-01 -0.57144640317E-01 -0.80104038538E-01  0.10310055417E+00  0.51100000000E-03 0.  1.
</event>
<event>
 8    1  0.2927513E+004  0.1043930E+01  0.7957747E-01            NaN
         13   -1    0    0    0    0  0.00000000000E+00  0.00000000000E+00  0.74505805969E-08  0.10566000000E+00  0.10566000000E+00 0.  1.
     999900   -1    0    0    0    0 -0.00000000000E+00 -0.00000000000E+00 -0.74505805969E-08  0.93827000000E+00  0.93827000000E+00 0.  1.
     999902    2    1    2    0    0  0.12702785566E-01 -0.58814082498E-02 -0.29387581005E-02  0.10296265730E+01  0.10295272176E+01 0.  0.
     999903    2    3    3    0    0  0.72912818855E-01  0.62840601487E-01 -0.91956877602E-01  0.14042907621E+00  0.44710600077E-01 0.  0.
         14    1    1    2    0    0 -0.12702785566E-01  0.58814082498E-02  0.29387581005E-02  0.14303426978E-01  0.00000000000E+00 0.  1.
     999901    1    3    3    0    0 -0.60210033289E-01 -0.68722009737E-01  0.89018119502E-01  0.88919749681E+00  0.88000000000E+00 0. -1.
        -11    1    4    4    0    0  0.37875645685E-01  0.50476526260E-01 -0.34277515168E-01  0.71816804485E-01  0.51100000000E-03 0.  1.
         11    1    4    4    0    0  0.35037173170E-01  0.12364075227E-01 -0.57679362434E-01  0.68612271729E-01  0.51100000000E-03 0. -1.
</event>
<event>
 8    1  0.2927513E+004  0.1043930E+01  0.7957747E-01            NaN
         13   -1    0    0    0    0  0.00000000000E+00  0.00000000000E+00  0.74505805969E-08  0.10566000000E+00  0.10566000000E+00 0.  1.
     999900   -1    0    0    0    0 -0.00000000000E+00 -0.00000000000E+00 -0.74505805969E-08  0.93827000000E+00  0.93827000000E+00 0. -1.
     999902    2    1    2    0    0 -0.13119418955E-01  0.56343107484E-02 -0.10173351596E-02  0.10296156861E+01  0.10295161784E+01 0.  0.
     999903    2    3    3    0    0 -0.11829027239E+00 -0.10455942350E-01  0.58619345175E-01  0.14120342916E+00  0.48992504579E-01 0.  0.
         14    1    1    2    0    0  0.13119418955E-01 -0.56343107484E-02  0.10173351596E-02  0.14314313890E-01  0.00000000000E+00 0. -1.
     999901    1    3    3    0    0  0.10517085344E+00  0.16090253099E-01 -0.59636680335E-01  0.88841225695E+00  0.88000000000E+00 0. -1.
        -11    1    4    4    0    0 -0.88678360164E-01 -0.28969628073E-01  0.46461690642E-01  0.10422111461E+00  0.51100000000E-03 0. -1.
         11    1    4    4    0    0 -0.29611912227E-01  0.18513685723E-01  0.12157654533E-01  0.36982314551E-01  0.51100000000E-03 0.  1.
</event>
<event>
 8    1  0.2927513E+004  0.1043930E+01  0.7957747E-01            NaN
         13   -1    0    0    0    0  0.00000000000E+00  0.00000000000E+00  0.74505805969E-08  0.10566000000E+00  0.10566000000E+00 0.  1.
     999900   -1    0    0    0    0 -0.00000000000E+00 -0.00000000000E+00 -0.74505805969E-08  0.93827000000E+00  0.93827000000E+00 0. -1.
     999902    2    1    2    0    0 -0.68283151015E-02 -0.11491788228E-01 -0.35655415257E-02  0.10300952550E+01  0.10300023467E+01 0.  0.
     999903    2    3    3    0    0 -0.58245881075E-01  0.10638350502E+00  0.51560762777E-01  0.13904123849E+00  0.44316147631E-01 0.  0.
         14    1    1    2    0    0  0.68283151015E-02  0.11491788228E-01  0.35655415257E-02  0.13834745035E-01  0.00000000000E+00 0.  1.
     999901    1    3    3    0    0  0.51417565974E-01 -0.11787529325E+00 -0.55126304303E-01  0.89105401647E+00  0.88000000000E+00 0. -1.
        -11    1    4    4    0    0 -0.51062184588E-01  0.67707905627E-01  0.52406787283E-01  0.99691723095E-01  0.51100000000E-03 0. -1.
         11    1    4    4    0    0 -0.71836964873E-02  0.38675599391E-01 -0.84602450572E-03  0.39349515396E-01  0.51100000000E-03 0.  1.
</event>
<event>
 8    1  0.2927513E+004  0.1043930E+01  0.7957747E-01            NaN
         13   -1    0    0    0    0  0.00000000000E+00  0.00000000000E+00  0.74505805969E-08  0.10566000000E+00  0.10566000000E+00 0.  1.
     999900   -1    0    0    0    0 -0.00000000000E+00 -0.00000000000E+00 -0.74505805969E-08  0.93827000000E+00  0.93827000000E+00 0.  1.
     999902    2    1    2    0    0  0.28669026517E-02  0.49515067609E-02 -0.12830753134E-01  0.10298813426E+01  0.10297855189E+01 0.  0.
     999903    2    3    3    0    0  0.27690354018E-02  0.31149905244E-01 -0.13071640612E+00  0.14163397113E+00  0.44670110766E-01 0.  0.
         14    1    1    2    0    0 -0.28669026517E-02 -0.49515067609E-02  0.12830753134E-01  0.14048657445E-01  0.00000000000E+00 0.  1.
     999901    1    3    3    0    0  0.97867249949E-04 -0.26198398483E-01  0.11788565298E+00  0.88824737142E+00  0.88000000000E+00 0. -1.
        -11    1    4    4    0    0 -0.13920995901E-01  0.30501375184E-01 -0.57755309210E-01  0.66783717162E-01  0.51100000000E-03 0.  1.
         11    1    4    4    0    0  0.16690031302E-01  0.64853005999E-03 -0.72961096909E-01  0.74850253970E-01  0.51100000000E-03 0. -1.
</event>
<event>
 8    1  0.2927513E+004  0.1043930E+01  0.7957747E-01            NaN
         13   -1    0    0    0    0  0.00000000000E+00  0.00000000000E+00  0.74505805969E-08  0.10566000000E+00  0.10566000000E+00 0.  1.
     999900   -1    0    0    0    0 -0.00000000000E+00 -0.00000000000E+00 -0.74505805969E-08  0.93827000000E+00  0.93827000000E+00 0. -1.
     999902    2    1    2    0    0 -0.30296552968E-02  0.11902852212E-01 -0.66882923919E-02  0.10299446521E+01  0.10298496960E+01 0.  0.
     999903    2    3    3    0    0  0.10766678635E+00  0.68955662102E-01 -0.36698657860E-01  0.14067003342E+00  0.45762939094E-01 0.  0.
         14    1    1    2    0    0  0.30296552968E-02 -0.11902852212E-01  0.66882923919E-02  0.13985347944E-01  0.00000000000E+00 0. -1.
     999901    1    3    3    0    0 -0.11069644165E+00 -0.57052809890E-01  0.30010365468E-01  0.88927461863E+00  0.88000000000E+00 0.  1.
        -11    1    4    4    0    0  0.41777109427E-01  0.50516085199E-01 -0.64915560840E-02  0.65875664379E-01  0.51100000000E-03 0. -1.
         11    1    4    4    0    0  0.65889676927E-01  0.18439576903E-01 -0.30207101776E-01  0.74794369044E-01  0.51100000000E-03 0.  1.
</event>
<event>
 8    1  0.2927513E+004  0.1043930E+01  0.7957747E-01            NaN
         13   -1    0    0    0    0  0.00000000000E+00  0.00000000000E+00  0.74505805969E-08  0.10566000000E+00  0.10566000000E+00 0.  1.
     999900   -1    0    0    0    0 -0.00000000000E+00 -0.00000000000E+00 -0.74505805969E-08  0.93827000000E+00  0.93827000000E+00 0.  1.
     999902    2    1    2    0    0 -0.75057842865E-02 -0.76041457936E-02 -0.11603851398E-01  0.10281563131E+01  0.10280353082E+01 0.  0.
     999903    2    3    3    0    0 -0.12009143164E+00  0.53488802185E-01  0.59177482566E-02  0.13870992195E+00  0.43845396470E-01 0.  0.
         14    1    1    2    0    0  0.75057842865E-02  0.76041457936E-02  0.11603851398E-01  0.15773686896E-01  0.00000000000E+00 0.  1.
     999901    1    3    3    0    0  0.11258564735E+00 -0.61092947979E-01 -0.17521599655E-01  0.88944639115E+00  0.88000000000E+00 0.  1.
        -11    1    4    4    0    0 -0.57393019508E-01  0.41309216373E-01 -0.13413182534E-01  0.71976278261E-01  0.51100000000E-03 0.  1.
         11    1    4    4    0    0 -0.62698412127E-01  0.12179585813E-01  0.19330930791E-01  0.66733643690E-01  0.51100000000E-03 0. -1.
</event>
<event>
 8    1  0.2927513E+004  0.1043930E+01  0.7957747E-01            NaN
         13   -1    0    0    0    0  0.00000000000E+00  0.00000000000E+00  0.74505805969E-08  0.10566000000E+00  0.10566000000E+00 0. -1.
     999900   -1    0    0    0    0 -0.00000000000E+00 -0.00000000000E+00 -0.74505805969E-08  0.93827000000E+00  0.93827000000E+00 0.  1.
     999902    2    1    2    0    0 -0.12861349959E-01  0.74787172204E-02 -0.51463236899E-03  0.10290434161E+01  0.10289357326E+01 0.  0.
     999903    2    3    3    0    0  0.10185318880E+00  0.57332142997E-01  0.58648509174E-01  0.13823195075E+00  0.44803770944E-01 0.  0.
         14    1    1    2    0    0  0.12861349959E-01 -0.74787172204E-02  0.51463236899E-03  0.14886583910E-01  0.00000000000E+00 0.  1.
     999901    1    3    3    0    0 -0.11471453876E+00 -0.49853425777E-01 -0.59163141543E-01  0.89081146534E+00  0.88000000000E+00 0.  1.
        -11    1    4    4    0    0  0.96245618673E-01  0.55889099089E-01  0.39304619906E-01  0.11803357479E+00  0.51100000000E-03 0.  1.
         11    1    4    4    0    0  0.56075701253E-02  0.14430439083E-02  0.19343889268E-01  0.20198375960E-01  0.51100000000E-03 0. -1.
</event>
<event>
 8    1  0.2927513E+004  0.1043930E+01  0.7957747E-01            NaN
         13   -1    0    0    0    0  0.00000000000E+00  0.00000000000E+00  0.74505805969E-08  0.10566000000E+00  0.10566000000E+00 0. -1.
     999900   -1    0    0    0    0 -0.00000000000E+00 -0.00000000000E+00 -0.74505805969E-08  0.93827000000E+00  0.93827000000E+00 0. -1.
     999902    2    1    2    0    0 -0.67492712874E-02 -0.13523699802E-02  0.11863470082E-01  0.10302141883E+01  0.10301228812E+01 0.  0.
     999903    2    3    3    0    0  0.11644676294E+00  0.41216010117E-01 -0.44589459302E-01  0.13882411486E+00  0.45003409847E-01 0.  0.
         14    1    1    2    0    0  0.67492712874E-02  0.13523699802E-02 -0.11863470082E-01  0.13715811674E-01  0.00000000000E+00 0.  1.
     999901    1    3    3    0    0 -0.12319603423E+00 -0.42568380098E-01  0.56452929384E-01  0.89139007346E+00  0.88000000000E+00 0.  1.
        -11    1    4    4    0    0  0.90103061726E-01  0.44343087497E-01 -0.49303919135E-01  0.11187496907E+00  0.51100000000E-03 0. -1.
         11    1    4    4    0    0  0.26343701212E-01 -0.31270773793E-02  0.47144598332E-02  0.26949145794E-01  0.51100000000E-03 0.  1.
</event>
<event>
 8    1  0.2927513E+004  0.1043930E+01  0.7957747E-01            NaN
         13   -1    0    0    0    0  0.00000000000E+00  0.00000000000E+00  0.74505805969E-08  0.10566000000E+00  0.10566000000E+00 0.  1.
     999900   -1    0    0    0    0 -0.00000000000E+00 -0.00000000000E+00 -0.74505805969E-08  0.93827000000E+00  0.93827000000E+00 0. -1.
     999902    2    1    2    0    0 -0.89770996225E-02  0.30368622759E-02 -0.11287130881E-01  0.10291919481E+01  0.10290864181E+01 0.  0.
     999903    2    3    3    0    0  0.18679444139E-01 -0.10009103796E+00 -0.84544805013E-01  0.13971629637E+00  0.44784840093E-01 0.  0.
         14    1    1    2    0    0  0.89770996225E-02 -0.30368622759E-02  0.11287130881E-01  0.14738051895E-01  0.00000000000E+00 0.  1.
     999901    1    3    3    0    0 -0.27656543761E-01  0.10312790024E+00  0.73257674132E-01  0.88947565174E+00  0.88000000000E+00 0.  1.
        -11    1    4    4    0    0  0.14588069995E-01 -0.79569649095E-01 -0.39457474180E-01  0.90007189896E-01  0.51100000000E-03 0.  1.
         11    1    4    4    0    0  0.40913741438E-02 -0.20521388864E-01 -0.45087330833E-01  0.49709106469E-01  0.51100000000E-03 0. -1.
</event>
<event>
 8    1  0.2927513E+004  0.1043930E+01  0.7957747E-01            NaN
         13   -1    0    0    0    0  0.00000000000E+00  0.00000000000E+00  0.74505805969E-08  0.10566000000E+00  0.10566000000E+00 0.  1.
     999900   -1    0    0    0    0 -0.00000000000E+00 -0.00000000000E+00 -0.74505805969E-08  0.93827000000E+00  0.93827000000E+00 0. -1.
     999902    2    1    2    0    0  0.84262846017E-02 -0.34722358353E-02  0.11015456223E-01  0.10296331832E+01  0.10295339203E+01 0.  0.
     999903    2    3    3    0    0  0.10362804919E+00  0.82801886562E-01  0.69850282823E-03  0.14024404472E+00  0.45529981068E-01 0.  0.
         14    1    1    2    0    0 -0.84262846017E-02  0.34722358353E-02 -0.11015456223E-01  0.14296816768E-01  0.00000000000E+00 0.  1.
     999901    1    3    3    0    0 -0.95201764588E-01 -0.86274122397E-01  0.10316953395E-01  0.88938913851E+00  0.88000000000E+00 0. -1.
        -11    1    4    4    0    0  0.30627376582E-01  0.52178981592E-01 -0.59644137220E-02  0.60798993975E-01  0.51100000000E-03 0. -1.
         11    1    4    4    0    0  0.73000672608E-01  0.30622904970E-01  0.66629165502E-02  0.79445050745E-01  0.51100000000E-03 0.  1.
</event>
<event>
 8    1  0.2927513E+004  0.1043930E+01  0.7957747E-01            NaN
         13   -1    0    0    0    0  0.00000000000E+00  0.00000000000E+00  0.74505805969E-08  0.10566000000E+00  0.10566000000E+00 0.  1.
     999900   -1    0    0    0    0 -0.00000000000E+00 -0.00000000000E+00 -0.74505805969E-08  0.93827000000E+00  0.93827000000E+00 0. -1.
     999902    2    1    2    0    0  0.12089126139E-01  0.26816087118E-02 -0.63556198585E-02  0.10300112393E+01  0.10299171914E+01 0.  0.
     999903    2    3    3    0    0  0.90632742750E-01 -0.95590208777E-01  0.19350059006E-01  0.14069283075E+00  0.45478190046E-01 0.  0.
         14    1    1    2    0    0 -0.12089126139E-01 -0.26816087118E-02  0.63556198585E-02  0.13918760716E-01  0.00000000000E+00 0.  1.
     999901    1    3    3    0    0 -0.78543616610E-01  0.98271817489E-01 -0.25705678865E-01  0.88931840853E+00  0.88000000000E+00 0. -1.
        -11    1    4    4    0    0  0.36032636049E-01 -0.37693253138E-01 -0.14626486891E-01  0.54160201556E-01  0.51100000000E-03 0. -1.
         11    1    4    4    0    0  0.54600106700E-01 -0.57896955639E-01  0.33976545897E-01  0.86532629199E-01  0.51100000000E-03 0.  1.
</event>
<event>
 8    1  0.2927513E+004  0.1043930E+01  0.7957747E-01            NaN
         13   -1    0    0    0    0  0.00000000000E+00  0.00000000000E+00  0.74505805969E-08  0.10566000000E+00  0.10566000000E+00 0.  1.
     999900   -1    0    0    0    0 -0.00000000000E+00 -0.00000000000E+00 -0.74505805969E-08  0.93827000000E+00  0.93827000000E+00 0. -1.
     999902    2    1    2    0    0 -0.38815845049E-02 -0.14188820106E-01 -0.28587430386E-02  0.10289446163E+01  0.10288354881E+01 0.  0.
     999903    2    3    3    0    0 -0.87931092517E-01 -0.34443776483E-01 -0.93263377136E-01  0.14009840857E+00  0.44847026639E-01 0.  0.
         14    1    1    2    0    0  0.38815845049E-02  0.14188820106E-01  0.28587430386E-02  0.14985383746E-01  0.00000000000E+00 0.  1.
     999901    1    3    3    0    0  0.84049508012E-01  0.20254956377E-01  0.90404634097E-01  0.88884620769E+00  0.88000000000E+00 0.  1.
        -11    1    4    4    0    0 -0.77390905928E-01 -0.34140566541E-01 -0.56188223580E-01  0.10154953567E+00  0.51100000000E-03 0. -1.
         11    1    4    4    0    0 -0.10540186589E-01 -0.30320994137E-03 -0.37075153556E-01  0.38548872899E-01  0.51100000000E-03 0.  1.
</event>
<event>
 8    1  0.2927513E+004  0.1043930E+01  0.7957747E-01            NaN
         13   -1    0    0    0    0  0.00000000000E+00  0.00000000000E+00  0.74505805969E-08  0.10566000000E+00  0.10566000000E+00 0. -1.
     999900   -1    0    0    0    0 -0.00000000000E+00 -0.00000000000E+00 -0.74505805969E-08  0.93827000000E+00  0.93827000000E+00 0.  1.
     999902    2    1    2    0    0  0.12534535009E-01  0.30978438851E-02 -0.41636961184E-02  0.10303635867E+01  0.10302742709E+01 0.  0.
     999903    2    3    3    0    0  0.10636630720E+00 -0.80358930429E-01  0.10346498631E-01  0.14133041498E+00  0.45780860172E-01 0.  0.
         14    1    1    2    0    0 -0.12534535009E-01 -0.30978438851E-02  0.41636961184E-02  0.13566413307E-01  0.00000000000E+00 0. -1.
     999901    1    3    3    0    0 -0.93831772191E-01  0.83456774314E-01 -0.14510194749E-01  0.88903317171E+00  0.88000000000E+00 0. -1.
        -11    1    4    4    0    0  0.32290023280E-01 -0.21961994675E-01 -0.17761840995E-01  0.42903600433E-01  0.51100000000E-03 0. -1.
         11    1    4    4    0    0  0.74076283920E-01 -0.58396935754E-01  0.28108339626E-01  0.98426814549E-01  0.51100000000E-03 0.  1.
</event>
<event>
 8    1  0.2927513E+004  0.1043930E+01  0.7957747E-01            NaN
         13   -1    0    0    0    0  0.00000000000E+00  0.00000000000E+00  0.74505805969E-08  0.10566000000E+00  0.10566000000E+00 0. -1.
     999900   -1    0    0    0    0 -0.00000000000E+00 -0.00000000000E+00 -0.74505805969E-08  0.93827000000E+00  0.93827000000E+00 0.  1.
     999902    2    1    2    0    0 -0.12830545723E-02  0.48386035255E-02 -0.11207125737E-01  0.10316557187E+01  0.10315826986E+01 0.  0.
     999903    2    3    3    0    0  0.64965228027E-01 -0.10353084105E+00  0.52102531557E-01  0.14028549029E+00  0.45013654472E-01 0.  0.
         14    1    1    2    0    0  0.12830545723E-02 -0.48386035255E-02  0.11207125737E-01  0.12274281258E-01  0.00000000000E+00 0. -1.
     999901    1    3    3    0    0 -0.66248282599E-01  0.10836944458E+00 -0.63309657294E-01  0.89137022845E+00  0.88000000000E+00 0.  1.
        -11    1    4    4    0    0  0.48122071382E-01 -0.58920824267E-01  0.10110712931E-01  0.76745585693E-01  0.51100000000E-03 0. -1.
         11    1    4    4    0    0  0.16843156644E-01 -0.44610016788E-01  0.41991818625E-01  0.63539904596E-01  0.51100000000E-03 0.  1.
</event>
<event>
 8    1  0.2927513E+004  0.1043930E+01  0.7957747E-01            NaN
         13   -1    0    0    0    0  0.00000000000E+00  0.00000000000E+00  0.74505805969E-08  0.10566000000E+00  0.10566000000E+00 0.  1.
     999900   -1    0    0    0    0 -0.00000000000E+00 -0.00000000000E+00 -0.74505805969E-08  0.93827000000E+00  0.93827000000E+00 0. -1.
     999902    2    1    2    0    0  0.10194811131E-01 -0.71313158900E-02 -0.56304006500E-02  0.10302738200E+01  0.10301833104E+01 0.  0.
     999903    2    3    3    0    0 -0.14591598491E-01  0.52190827695E-01 -0.12111099519E+00  0.14040346399E+00  0.45917995385E-01 0.  0.
         14    1    1    2    0    0 -0.10194811131E-01  0.71313158900E-02  0.56304006500E-02  0.13656179986E-01  0.00000000000E+00 0.  1.
     999901    1    3    3    0    0  0.24786409622E-01 -0.59322143585E-01  0.11548059454E+00  0.88987035603E+00  0.88000000000E+00 0.  1.
        -11    1    4    4    0    0 -0.12326339185E-01  0.47356537874E-01 -0.53214167022E-01  0.72295152050E-01  0.51100000000E-03 0. -1.
         11    1    4    4    0    0 -0.22652593055E-02  0.48342898209E-02 -0.67896828173E-01  0.68108311936E-01  0.51100000000E-03 0.  1.
</event>
<event>
 8    1  0.2927513E+004  0.1043930E+01  0.7957747E-01            NaN
         13   -1    0    0    0    0  0.00000000000E+00  0.00000000000E+00  0.74505805969E-08  0.10566000000E+00  0.10566000000E+00 0. -1.
     999900   -1    0    0    0    0 -0.00000000000E+00 -0.00000000000E+00 -0.74505805969E-08  0.93827000000E+00  0.93827000000E+00 0.  1.
     999902    2    1    2    0    0 -0.78573022210E-02  0.69252737283E-02  0.16067740181E-01  0.10247500915E+01  0.10245705838E+01 0.  0.
     999903    2    3    3    0    0 -0.85426590499E-01 -0.88614280883E-01 -0.31578584046E-01  0.13491023336E+00  0.45314136353E-01 0.  0.
         14    1    1    2    0    0  0.78573022210E-02 -0.69252737283E-02 -0.16067740181E-01  0.19179908471E-01  0.00000000000E+00 0.  1.
     999901    1    3    3    0    0  0.77569288278E-01  0.95539554611E-01  0.47646324227E-01  0.88983985817E+00  0.88000000000E+00 0. -1.
        -11    1    4    4    0    0 -0.45846257271E-01 -0.76807998370E-01 -0.26487164037E-01  0.93290829662E-01  0.51100000000E-03 0. -1.
         11    1    4    4    0    0 -0.39580333228E-01 -0.11806282513E-01 -0.50914200083E-02  0.41619403695E-01  0.51100000000E-03 0.  1.
</event>
<event>
 8    1  0.2927513E+004  0.1043930E+01  0.7957747E-01            NaN
         13   -1    0    0    0    0  0.00000000000E+00  0.00000000000E+00  0.74505805969E-08  0.10566000000E+00  0.10566000000E+00 0.  1.
     999900   -1    0    0    0    0 -0.00000000000E+00 -0.00000000000E+00 -0.74505805969E-08  0.93827000000E+00  0.93827000000E+00 0. -1.
     999902    2    1    2    0    0  0.99271722821E-02  0.74695173607E-02 -0.63983731284E-02  0.10299556801E+01  0.10298608747E+01 0.  0.
     999903    2    3    3    0    0 -0.47124964298E-01 -0.10466572059E+00 -0.64785470359E-01  0.13909187958E+00  0.44426551395E-01 0.  0.
         14    1    1    2    0    0 -0.99271722821E-02 -0.74695173607E-02  0.63983731284E-02  0.13974319941E-01  0.00000000000E+00 0.  1.
     999901    1    3    3    0    0  0.57052136580E-01  0.11213523795E+00  0.58387097230E-01  0.89086380048E+00  0.88000000000E+00 0. -1.
        -11    1    4    4    0    0  0.61897111225E-02 -0.32314577552E-01 -0.21756133769E-01  0.39447876036E-01  0.51100000000E-03 0.  1.
         11    1    4    4    0    0 -0.53314675420E-01 -0.72351143039E-01 -0.43029336589E-01  0.99644003546E-01  0.51100000000E-03 0. -1.
</event>
<event>
 8    1  0.2927513E+004  0.1043930E+01  0.7957747E-01            NaN
         13   -1    0    0    0    0  0.00000000000E+00  0.00000000000E+00  0.74505805969E-08  0.10566000000E+00  0.10566000000E+00 0. -1.
     999900   -1    0    0    0    0 -0.00000000000E+00 -0.00000000000E+00 -0.74505805969E-08  0.93827000000E+00  0.93827000000E+00 0. -1.
     999902    2    1    2    0    0 -0.13104647234E-01 -0.11982596495E-01 -0.58792101032E-03  0.10261631756E+01  0.10260093581E+01 0.  0.
     999903    2    3    3    0    0 -0.95154344170E-01  0.50826545448E-03 -0.89149380417E-01  0.13783254657E+00  0.44672041770E-01 0.  0.
         14    1    1    2    0    0  0.13104647234E-01  0.11982596495E-01  0.58792101032E-03  0.17766824393E-01  0.00000000000E+00 0.  1.
     999901    1    3    3    0    0  0.82049696936E-01 -0.12490861950E-01  0.88561459407E-01  0.88833062904E+00  0.88000000000E+00 0.  1.
        -11    1    4    4    0    0 -0.13644979110E-01  0.16496282699E-01 -0.12435361127E-01  0.24763120263E-01  0.51100000000E-03 0. -1.
         11    1    4    4    0    0 -0.81509365060E-01 -0.15988017244E-01 -0.76714019290E-01  0.11306942630E+00  0.51100000000E-03 0.  1.
</event>
<event>
 8    1  0.2927513E+004  0.1043930E+01  0.7957747E-01            NaN
         13   -1    0    0    0    0  0.00000000000E+00  0.00000000000E+00  0.74505805969E-08  0.10566000000E+00  0.10566000000E+00 0.  1.
     999900   -1    0    0    0    0 -0.00000000000E+00 -0.00000000000E+00 -0.74505805969E-08  0.93827000000E+00  0.93827000000E+00 0. -1.
     999902    2    1    2    0    0 -0.83556770185E-02  0.65002058494E-02 -0.83675370672E-02  0.10304360869E+01  0.10303477294E+01 0.  0.
     999903    2    3    3    0    0  0.15062203135E-01  0.12574168464E+00  0.41257707157E-01  0.14070040016E+00  0.45349343822E-01 0.  0.
         14    1    1    2    0    0  0.83556770185E-02 -0.65002058494E-02  0.83675370672E-02  0.13493913113E-01  0.00000000000E+00 0.  1.
     999901    1    3    3    0    0 -0.23417880153E-01 -0.11924147879E+00 -0.49625244224E-01  0.88973568673E+00  0.88000000000E+00 0.  1.
        -11    1    4    4    0    0 -0.15111785686E-01  0.63725739315E-01  0.22042814783E-01  0.69104867574E-01  0.51100000000E-03 0. -1.
         11    1    4    4    0    0  0.30173988820E-01  0.62015945327E-01  0.19214892374E-01  0.71595532584E-01  0.51100000000E-03 0.  1.
</event>
<event>
 8    1  0.2927513E+004  0.1043930E+01  0.7957747E-01            NaN
         13   -1    0    0    0    0  0.00000000000E+00  0.00000000000E+00  0.74505805969E-08  0.10566000000E+00  0.10566000000E+00 0. -1.
     999900   -1    0    0    0    0 -0.00000000000E+00 -0.00000000000E+00 -0.74505805969E-08  0.93827000000E+00  0.93827000000E+00 0.  1.
     999902    2    1    2    0    0 -0.26160171668E-02  0.11594051676E-01 -0.38319350237E-02  0.10314420335E+01  0.10313664331E+01 0.  0.
     999903    2    3    3    0    0  0.58286934857E-01 -0.66975961688E-01  0.98726639568E-01  0.13992608989E+00  0.44149915672E-01 0.  0.
         14    1    1    2    0    0  0.26160171668E-02 -0.11594051676E-01  0.38319350237E-02  0.12487966453E-01  0.00000000000E+00 0. -1.
     999901    1    3    3    0    0 -0.60902952024E-01  0.78570013364E-01 -0.10255857459E+00  0.89151594365E+00  0.88000000000E+00 0.  1.
        -11    1    4    4    0    0  0.53264505332E-02 -0.38797832246E-01  0.38714174986E-01  0.55069876776E-01  0.51100000000E-03 0. -1.
         11    1    4    4    0    0  0.52960484324E-01 -0.28178129441E-01  0.60012464581E-01  0.84856213118E-01  0.51100000000E-03 0.  1.
</event>
<event>
 8    1  0.2927513E+004  0.1043930E+01  0.7957747E-01            NaN
         13   -1    0    0    0    0  0.00000000000E+00  0.00000000000E+00  0.74505805969E-08  0.10566000000E+00  0.10566000000E+00 0. -1.
     999900   -1    0    0    0    0 -0.00000000000E+00 -0.00000000000E+00 -0.74505805969E-08  0.93827000000E+00  0.93827000000E+00 0. -1.
     999902    2    1    2    0    0  0.53723066544E-02 -0.31928830368E-02  0.12252452360E-01  0.10301757727E+01  0.10300839499E+01 0.  0.
     999903    2    3    3    0    0 -0.52526262895E-01 -0.12063055699E+00  0.21953207120E-01  0.14043538566E+00  0.43925102936E-01 0.  0.
         14    1    1    2    0    0 -0.53723066544E-02  0.31928830368E-02 -0.12252452360E-01  0.13754227340E-01  0.00000000000E+00 0.  1.
     999901    1    3    3    0    0  0.57898569550E-01  0.11743767396E+00 -0.97007547598E-02  0.88974038700E+00  0.88000000000E+00 0. -1.
        -11    1    4    4    0    0 -0.28239071713E-01 -0.39400849831E-01 -0.10587391992E-01  0.49620823540E-01  0.51100000000E-03 0. -1.
         11    1    4    4    0    0 -0.24287191182E-01 -0.81229707162E-01  0.32540599112E-01  0.90814562118E-01  0.51100000000E-03 0.  1.
</event>
<event>
 8    1  0.2927513E+004  0.1043930E+01  0.7957747E-01            NaN
         13   -1    0    0    0    0  0.00000000000E+00  0.00000000000E+00  0.74505805969E-08  0.10566000000E+00  0.10566000000E+00 0.  1.
     999900   -1    0    0    0    0 -0.00000000000E+00 -0.00000000000E+00 -0.74505805969E-08  0.93827000000E+00  0.93827000000E+00 0.  1.
     999902    2    1    2    0    0 -0.57108092609E-02  0.15744479991E-01 -0.45115248821E-02  0.10265848033E+01  0.10264382604E+01 0.  0.
     999903    2    3    3    0    0  0.68623884545E-01  0.11034770784E+00  0.14055975121E-01  0.13820415880E+00  0.44910632583E-01 0.  0.
         14    1    1    2    0    0  0.57108092609E-02 -0.15744479991E-01  0.45115248821E-02  0.17345196723E-01  0.00000000000E+00 0.  1.
     999901    1    3    3    0    0 -0.74334693805E-01 -0.94603227845E-01 -0.18567500003E-01  0.88838064448E+00  0.88000000000E+00 0.  1.
        -11    1    4    4    0    0  0.20898463783E-02  0.41729856863E-01  0.69667312789E-02  0.42362068852E-01  0.51100000000E-03 0. -1.
         11    1    4    4    0    0  0.66534038166E-01  0.68617850973E-01  0.70892438420E-02  0.95842089950E-01  0.51100000000E-03 0.  1.
</event>
<event>
 8    1  0.2927513E+004  0.1043930E+01  0.7957747E-01            NaN
         13   -1    0    0    0    0  0.00000000000E+00  0.00000000000E+00  0.74505805969E-08  0.10566000000E+00  0.10566000000E+00 0. -1.
     999900   -1    0    0    0    0 -0.00000000000E+00 -0.00000000000E+00 -0.74505805969E-08  0.93827000000E+00  0.93827000000E+00 0. -1.
     999902    2    1    2    0    0 -0.12029947018E-01  0.22604678892E-02  0.20806049218E-02  0.10315139516E+01  0.10314392247E+01 0.  0.
     999903    2    3    3    0    0 -0.31699184013E-01 -0.65266840832E-01 -0.11284629320E+00  0.14125836573E+00  0.44215848075E-01 0.  0.
         14    1    1    2    0    0  0.12029947018E-01 -0.22604678892E-02 -0.20806049218E-02  0.12416048372E-01  0.00000000000E+00 0. -1.
     999901    1    3    3    0    0  0.19669236995E-01  0.67527308722E-01  0.11492689812E+00  0.89025558590E+00  0.88000000000E+00 0.  1.
        -11    1    4    4    0    0 -0.13417336909E-01 -0.28996373031E-01 -0.88046473896E-01  0.93665667484E-01  0.51100000000E-03 0.  1.
         11    1    4    4    0    0 -0.18281847104E-01 -0.36270467801E-01 -0.24799819305E-01  0.47592698249E-01  0.51100000000E-03 0. -1.
</event>
<event>
 8    1  0.2927513E+004  0.1043930E+01  0.7957747E-01            NaN
         13   -1    0    0    0    0  0.00000000000E+00  0.00000000000E+00  0.74505805969E-08  0.10566000000E+00  0.10566000000E+00 0. -1.
     999900   -1    0    0    0    0 -0.00000000000E+00 -0.00000000000E+00 -0.74505805969E-08  0.93827000000E+00  0.93827000000E+00 0.  1.
     999902    2    1    2    0    0  0.92025725976E-02  0.11542487779E-01  0.20210358727E-02  0.10290303036E+01  0.10289224289E+01 0.  0.
     999903    2    3    3    0    0 -0.38935842394E-01  0.68756326772E-01  0.10657950082E+00  0.13969167127E+00  0.43716595636E-01 0.  0.
         14    1    1    2    0    0 -0.92025725976E-02 -0.11542487779E-01 -0.20210358727E-02  0.14899696391E-01  0.00000000000E+00 0.  1.
     999901    1    3    3    0    0  0.48138414992E-01 -0.57213838993E-01 -0.10455846495E+00  0.88933863233E+00  0.88000000000E+00 0.  1.
        -11    1    4    4    0    0  0.30187314819E-02 -0.19854015857E-03  0.24075235101E-01  0.24269944872E-01  0.51100000000E-03 0.  1.
         11    1    4    4    0    0 -0.41954573876E-01  0.68954866930E-01  0.82504265721E-01  0.11542172640E+00  0.51100000000E-03 0. -1.
</event>
<event>
 8    1  0.2927513E+004  0.1043930E+01  0.7957747E-01            NaN
         13   -1    0    0    0    0  0.00000000000E+00  0.00000000000E+00  0.74505805969E-08  0.10566000000E+00  0.10566000000E+00 0.  1.
     999900   -1    0    0    0    0 -0.00000000000E+00 -0.00000000000E+00 -0.74505805969E-08  0.93827000000E+00  0.93827000000E+00 0. -1.
     999902    2    1    2    0    0 -0.49442459005E-02  0.16240396280E-01 -0.69444856941E-02  0.10255881920E+01  0.10254241648E+01 0.  0.
     999903    2    3    3    0    0  0.77100167002E-01 -0.20570264936E-01  0.98092767540E-01  0.13479128191E+00  0.46678979046E-01 0.  0.
         14    1    1    2    0    0  0.49442459005E-02 -0.16240396280E-01  0.69444856941E-02  0.18341807992E-01  0.00000000000E+00 0. -1.
     999901    1    3    3    0    0 -0.82044412902E-01  0.36810661216E-01 -0.10503725323E+00  0.89079691009E+00  0.88000000000E+00 0. -1.
        -11    1    4    4    0    0  0.58393596388E-01  0.73281450932E-02  0.62423891466E-01  0.85793456373E-01  0.51100000000E-03 0.  1.
         11    1    4    4    0    0  0.18706570614E-01 -0.27898410029E-01  0.35668876074E-01  0.48997825540E-01  0.51100000000E-03 0. -1.
</event>
<event>
 8    1  0.2927513E+004  0.1043930E+01  0.7957747E-01            NaN
         13   -1    0    0    0    0  0.00000000000E+00  0.00000000000E+00  0.74505805969E-08  0.10566000000E+00  0.10566000000E+00 0.  1.
     999900   -1    0    0    0    0 -0.00000000000E+00 -0.00000000000E+00 -0.74505805969E-08  0.93827000000E+00  0.93827000000E+00 0. -1.
     999902    2    1    2    0    0  0.59375178334E-02 -0.10853379595E-01 -0.64115143202E-02  0.10299959596E+01  0.10299017037E+01 0.  0.
     999903    2    3    3    0    0 -0.45861216539E-01  0.10451173075E+00 -0.65112267082E-01  0.13902009237E+00  0.45398521035E-01 0.  0.
         14    1    1    2    0    0 -0.59375178334E-02  0.10853379595E-01  0.64115143202E-02  0.13934040424E-01  0.00000000000E+00 0.  1.
     999901    1    3    3    0    0  0.51798734372E-01 -0.11536511034E+00  0.58700752762E-01  0.89097586720E+00  0.88000000000E+00 0.  1.
        -11    1    4    4    0    0 -0.20444316690E-01  0.44495630561E-01 -0.31214600669E-02  0.49069704074E-01  0.51100000000E-03 0. -1.
         11    1    4    4    0    0 -0.25416899849E-01  0.60016100186E-01 -0.61990807015E-01  0.89950388297E-01  0.51100000000E-03 0.  1.
</event>
<event>
 8    1  0.2927513E+004  0.1043930E+01  0.7957747E-01            NaN
         13   -1    0    0    0    0  0.00000000000E+00  0.00000000000E+00  0.74505805969E-08  0.10566000000E+00  0.10566000000E+00 0.  1.
     999900   -1    0    0    0    0 -0.00000000000E+00 -0.00000000000E+00 -0.74505805969E-08  0.93827000000E+00  0.93827000000E+00 0. -1.
     999902    2    1    2    0    0  0.18041151423E-02  0.15914674311E-01 -0.17635673724E-02  0.10278165938E+01  0.10276902785E+01 0.  0.
     999903    2    3    3    0    0  0.12165109991E+00  0.43876736666E-01  0.26232409230E-01  0.13881212170E+00  0.43087210489E-01 0.  0.
         14    1    1    2    0    0 -0.18041151423E-02 -0.15914674311E-01  0.17635673724E-02  0.16113406212E-01  0.00000000000E+00 0.  1.
     999901    1    3    3    0    0 -0.11984698476E+00 -0.27962062355E-01 -0.27995976602E-01  0.88900447209E+00  0.88000000000E+00 0. -1.
        -11    1    4    4    0    0  0.73246085249E-01  0.22689266560E-01 -0.60000107754E-02  0.76915883091E-01  0.51100000000E-03 0. -1.
         11    1    4    4    0    0  0.48405014657E-01  0.21187470106E-01  0.32232420005E-01  0.61896238608E-01  0.51100000000E-03 0.  1.
</event>
<event>
 8    1  0.2927513E+004  0.1043930E+01  0.7957747E-01            NaN
         13   -1    0    0    0    0  0.00000000000E+00  0.00000000000E+00  0.74505805969E-08  0.10566000000E+00  0.10566000000E+00 0.  1.
     999900   -1    0    0    0    0 -0.00000000000E+00 -0.00000000000E+00 -0.74505805969E-08  0.93827000000E+00  0.93827000000E+00 0.  1.
     999902    2    1    2    0    0 -0.36814845572E-02  0.90186660593E-02 -0.11166587254E-01  0.10291116891E+01  0.10290049982E+01 0.  0.
     999903    2    3    3    0    0 -0.69328116695E-01  0.11494974829E+00  0.10525467700E-02  0.14024714280E+00  0.40599517395E-01 0.  0.
         14    1    1    2    0    0  0.36814845572E-02 -0.90186660593E-02  0.11166587254E-01  0.14818310866E-01  0.00000000000E+00 0.  1.
     999901    1    3    3    0    0  0.65646632137E-01 -0.10593108223E+00 -0.12219134024E-01  0.88886454633E+00  0.88000000000E+00 0.  1.
        -11    1    4    4    0    0 -0.26070305660E-01  0.50138288419E-01  0.20184113593E-01  0.60009735588E-01  0.51100000000E-03 0.  1.
         11    1    4    4    0    0 -0.43257811035E-01  0.64811459870E-01 -0.19131566823E-01  0.80237407212E-01  0.51100000000E-03 0. -1.
</event>
<event>
 8    1  0.2927513E+004  0.1043930E+01  0.7957747E-01            NaN
         13   -1    0    0    0    0  0.00000000000E+00  0.00000000000E+00  0.74505805969E-08  0.10566000000E+00  0.10566000000E+00 0.  1.
     999900   -1    0    0    0    0 -0.00000000000E+00 -0.00000000000E+00 -0.74505805969E-08  0.93827000000E+00  0.93827000000E+00 0. -1.
     999902    2    1    2    0    0  0.11178832511E-02  0.51573296131E-02  0.68776203111E-02  0.10352611262E+01  0.10352248307E+01 0.  0.
     999903    2    3    3    0    0 -0.29696521760E-01 -0.48947124375E-01  0.12552182933E+00  0.14511885228E+00  0.45011634707E-01 0.  0.
         14    1    1    2    0    0 -0.11178832511E-02 -0.51573296131E-02 -0.68776203111E-02  0.86688737934E-02  0.00000000000E+00 0. -1.
     999901    1    3    3    0    0  0.30814405011E-01  0.54104453988E-01 -0.11864420902E+00  0.89014227393E+00  0.88000000000E+00 0. -1.
        -11    1    4    4    0    0 -0.32339609041E-01 -0.24413803929E-01  0.43440450139E-01  0.59407221484E-01  0.51100000000E-03 0. -1.
         11    1    4    4    0    0  0.26430872806E-02 -0.24533320446E-01  0.82081379193E-01  0.85711630796E-01  0.51100000000E-03 0.  1.
</event>
<event>
 8    1  0.2927513E+004  0.1043930E+01  0.7957747E-01            NaN
         13   -1    0    0    0    0  0.00000000000E+00  0.00000000000E+00  0.74505805969E-08  0.10566000000E+00  0.10566000000E+00 0.  1.
     999900   -1    0    0    0    0 -0.00000000000E+00 -0.00000000000E+00 -0.74505805969E-08  0.93827000000E+00  0.93827000000E+00 0. -1.
     999902    2    1    2    0    0 -0.10939611690E-01  0.37571953283E-03 -0.52215760039E-02  0.10318022993E+01  0.10317310229E+01 0.  0.
     999903    2    3    3    0    0  0.12293058107E+00  0.13511117705E-01 -0.48942810978E-01  0.14050812023E+00  0.45306236238E-01 0.  0.
         14    1    1    2    0    0  0.10939611690E-01 -0.37571953283E-03  0.52215760039E-02  0.12127700733E-01  0.00000000000E+00 0. -1.
     999901    1    3    3    0    0 -0.13387019276E+00 -0.13135398172E-01  0.43721234974E-01  0.89129417903E+00  0.88000000000E+00 0. -1.
        -11    1    4    4    0    0  0.87295725768E-01  0.46539061966E-02 -0.55008401957E-01  0.10328788887E+00  0.51100000000E-03 0.  1.
         11    1    4    4    0    0  0.35634855298E-01  0.88572115082E-02  0.60655909792E-02  0.37220231363E-01  0.51100000000E-03 0. -1.
</event>
<event>
 8    1  0.2927513E+004  0.1043930E+01  0.7957747E-01            NaN
         13   -1    0    0    0    0  0.00000000000E+00  0.00000000000E+00  0.74505805969E-08  0.10566000000E+00  0.10566000000E+00 0. -1.
     999900   -1    0    0    0    0 -0.00000000000E+00 -0.00000000000E+00 -0.74505805969E-08  0.93827000000E+00  0.93827000000E+00 0. -1.
     999902    2    1    2    0    0 -0.10106347249E-01 -0.30387123408E-02  0.10948241500E-01  0.10287235534E+01  0.10286111574E+01 0.  0.
     999903    2    3    3    0    0 -0.49814875582E-01  0.72524090091E-01  0.99780490960E-01  0.14014172096E+00  0.44071420493E-01 0.  0.
         14    1    1    2    0    0  0.10106347249E-01  0.30387123408E-02 -0.10948241500E-01  0.15206446638E-01  0.00000000000E+00 0.  1.
     999901    1    3    3    0    0  0.39708528333E-01 -0.75562802432E-01 -0.88832249460E-01  0.88858183240E+00  0.88000000000E+00 0. -1.
        -11    1    4    4    0    0  0.70765901423E-02  0.18085740348E-01  0.23748065805E-01  0.30682305690E-01  0.51100000000E-03 0. -1.
         11    1    4    4    0    0 -0.56891465724E-01  0.54438349743E-01  0.76032425154E-01  0.10945941527E+00  0.51100000000E-03 0.  1.
</event>
<event>
 7    1  0.2927513E+004  0.1043930E+01  0.7957747E-01            NaN
         13   -1    0    0    0    0  0.00000000000E+00  0.00000000000E+00  0.74505805969E-08  0.10566000000E+00  0.10566000000E+00 0.  1.
     999900   -1    0    0    0    0 -0.00000000000E+00 -0.00000000000E+00 -0.74505805969E-08  0.93827000000E+00  0.93827000000E+00 0.  1.
     999903    2    1    2    0    0  0.10532166356E+00  0.23053904473E-01  0.44383683494E-01  0.12490687353E+00  0.44807146415E-01 0.  0.
         14    1    1    2    0    0 -0.10413574032E-01  0.61876005674E-02 -0.31058279908E-01  0.33336851617E-01  0.00000000000E+00 0. -1.
     999901    1    1    2    0    0 -0.94908089524E-01 -0.29241505041E-01 -0.13325403586E-01  0.88568627485E+00  0.88000000000E+00 0. -1.
        -11    1    3    3    0    0  0.17725330452E-01 -0.11948771939E-01  0.19545608917E-02  0.21471886730E-01  0.51100000000E-03 0.  1.
         11    1    3    3    0    0  0.87596333105E-01  0.35002676412E-01  0.42429122602E-01  0.10343498680E+00  0.51100000000E-03 0. -1.
</event>
<event>
 8    1  0.2927513E+004  0.1043930E+01  0.7957747E-01            NaN
         13   -1    0    0    0    0  0.00000000000E+00  0.00000000000E+00  0.74505805969E-08  0.10566000000E+00  0.10566000000E+00 0.  1.
     999900   -1    0    0    0    0 -0.00000000000E+00 -0.00000000000E+00 -0.74505805969E-08  0.93827000000E+00  0.93827000000E+00 0. -1.
     999902    2    1    2    0    0 -0.42502035324E-02 -0.64011610208E-02 -0.11701682883E-01  0.10299311259E+01  0.10298359849E+01 0.  0.
     999903    2    3    3    0    0 -0.94625867740E-01  0.33396078514E-01 -0.88466503799E-01  0.14108669710E+00  0.44830579957E-01 0.  0.
         14    1    1    2    0    0  0.42502035324E-02  0.64011610208E-02  0.11701682883E-01  0.13998874054E-01  0.00000000000E+00 0.  1.
     999901    1    3    3    0    0  0.90375664208E-01 -0.39797239535E-01  0.76764820917E-01  0.88884442884E+00  0.88000000000E+00 0.  1.
        -11    1    4    4    0    0 -0.61970047289E-01  0.37412552779E-01 -0.40591225297E-01  0.82993340447E-01  0.51100000000E-03 0. -1.
         11    1    4    4    0    0 -0.32655820451E-01 -0.40164742654E-02 -0.47875278502E-01  0.58093356656E-01  0.51100000000E-03 0.  1.
</event>
<event>
 8    1  0.2927513E+004  0.1043930E+01  0.7957747E-01            NaN
         13   -1    0    0    0    0  0.00000000000E+00  0.00000000000E+00  0.74505805969E-08  0.10566000000E+00  0.10566000000E+00 0. -1.
     999900   -1    0    0    0    0 -0.00000000000E+00 -0.00000000000E+00 -0.74505805969E-08  0.93827000000E+00  0.93827000000E+00 0.  1.
     999902    2    1    2    0    0 -0.40978912722E-02  0.88080019865E-02  0.97469080188E-02  0.10301686110E+01  0.10300766919E+01 0.  0.
     999903    2    3    3    0    0  0.10081200881E+00 -0.81791249914E-01  0.24655496526E-01  0.13919353973E+00  0.43750180691E-01 0.  0.
         14    1    1    2    0    0  0.40978912722E-02 -0.88080019865E-02 -0.97469080188E-02  0.13761389021E-01  0.00000000000E+00 0.  1.
     999901    1    3    3    0    0 -0.10490990008E+00  0.90599251901E-01 -0.14908588507E-01  0.89097507125E+00  0.88000000000E+00 0. -1.
        -11    1    4    4    0    0  0.29786741245E-01 -0.34899985990E-01  0.28466430647E-01  0.53998683048E-01  0.51100000000E-03 0. -1.
         11    1    4    4    0    0  0.71025267562E-01 -0.46891263925E-01 -0.38109341212E-02  0.85194856680E-01  0.51100000000E-03 0.  1.
</event>
<event>
 8    1  0.2927513E+004  0.1043930E+01  0.7957747E-01            NaN
         13   -1    0    0    0    0  0.00000000000E+00  0.00000000000E+00  0.74505805969E-08  0.10566000000E+00  0.10566000000E+00 0.  1.
     999900   -1    0    0    0    0 -0.00000000000E+00 -0.00000000000E+00 -0.74505805969E-08  0.93827000000E+00  0.93827000000E+00 0.  1.
     999902    2    1    2    0    0 -0.10193308096E-01 -0.78014568407E-02 -0.43022275808E-02  0.10303920747E+01  0.10303031361E+01 0.  0.
     999903    2    3    3    0    0 -0.47315281392E-01  0.54040352478E-01 -0.11275791489E+00  0.14080504334E+00  0.44188429600E-01 0.  0.
         14    1    1    2    0    0  0.10193308096E-01  0.78014568407E-02  0.43022275808E-02  0.13537925282E-01  0.00000000000E+00 0. -1.
     999901    1    3    3    0    0  0.37121973296E-01 -0.61841809318E-01  0.10845568731E+00  0.88958703138E+00  0.88000000000E+00 0. -1.
        -11    1    4    4    0    0 -0.26742550281E-01  0.36582660458E-01 -0.31518981516E-01  0.55201108309E-01  0.51100000000E-03 0. -1.
         11    1    4    4    0    0 -0.20572731112E-01  0.17457692020E-01 -0.81238933377E-01  0.85603935034E-01  0.51100000000E-03 0.  1.
</event>
<event>
 8    1  0.2927513E+004  0.1043930E+01  0.7957747E-01            NaN
         13   -1    0    0    0    0  0.00000000000E+00  0.00000000000E+00  0.74505805969E-08  0.10566000000E+00  0.10566000000E+00 0. -1.
     999900   -1    0    0    0    0 -0.00000000000E+00 -0.00000000000E+00 -0.74505805969E-08  0.93827000000E+00  0.93827000000E+00 0.  1.
     999902    2    1    2    0    0 -0.80473447109E-02  0.11003996075E-01  0.35322078828E-02  0.10298472382E+01  0.10297509456E+01 0.  0.
     999903    2    3    3    0    0 -0.94935179273E-01  0.27837606775E-01 -0.89159150741E-01  0.14056406949E+00  0.44958679429E-01 0.  0.
         14    1    1    2    0    0  0.80473447109E-02 -0.11003996075E-01 -0.35322078828E-02  0.14082761769E-01  0.00000000000E+00 0.  1.
     999901    1    3    3    0    0  0.86887834562E-01 -0.16833610700E-01  0.92691358624E-01  0.88928316874E+00  0.88000000000E+00 0. -1.
        -11    1    4    4    0    0 -0.42480746817E-01  0.15241441052E-01 -0.70049790153E-01  0.83331564230E-01  0.51100000000E-03 0.  1.
         11    1    4    4    0    0 -0.52454432456E-01  0.12596165722E-01 -0.19109360588E-01  0.57232505260E-01  0.51100000000E-03 0. -1.
</event>
<event>
 8    1  0.2927513E+004  0.1043930E+01  0.7957747E-01            NaN
         13   -1    0    0    0    0  0.00000000000E+00  0.00000000000E+00  0.74505805969E-08  0.10566000000E+00  0.10566000000E+00 0. -1.
     999900   -1    0    0    0    0 -0.00000000000E+00 -0.00000000000E+00 -0.74505805969E-08  0.93827000000E+00  0.93827000000E+00 0.  1.
     999902    2    1    2    0    0  0.89237520034E-02 -0.49865997188E-02 -0.98638097558E-02  0.10297245690E+01  0.10296265798E+01 0.  0.
     999903    2    3    3    0    0  0.51371073553E-01 -0.12131972065E+00 -0.21115736929E-01  0.14098288776E+00  0.45528435933E-01 0.  0.
         14    1    1    2    0    0 -0.89237520034E-02  0.49865997188E-02  0.98638097558E-02  0.14205430985E-01  0.00000000000E+00 0. -1.
     999901    1    3    3    0    0 -0.42447321550E-01  0.11633312093E+00  0.11251927173E-01  0.88874168125E+00  0.88000000000E+00 0.  1.
        -11    1    4    4    0    0  0.54105995350E-01 -0.10323083159E+00 -0.30413992592E-01  0.12045470265E+00  0.51100000000E-03 0.  1.
         11    1    4    4    0    0 -0.27349217963E-02 -0.18088889060E-01  0.92982556625E-02  0.20528185113E-01  0.51100000000E-03 0. -1.
</event>
<event>
 8    1  0.2927513E+004  0.1043930E+01  0.7957747E-01            NaN
         13   -1    0    0    0    0  0.00000000000E+00  0.00000000000E+00  0.74505805969E-08  0.10566000000E+00  0.10566000000E+00 0. -1.
     999900   -1    0    0    0    0 -0.00000000000E+00 -0.00000000000E+00 -0.74505805969E-08  0.93827000000E+00  0.93827000000E+00 0.  1.
     999902    2    1    2    0    0 -0.91991366156E-02  0.14579666251E-02  0.10216766474E-01  0.10301049467E+01  0.10300121694E+01 0.  0.
     999903    2    3    3    0    0 -0.42637466453E-01 -0.11836206541E+00 -0.41840041084E-01  0.13983258772E+00  0.44441326228E-01 0.  0.
         14    1    1    2    0    0  0.91991366156E-02 -0.14579666251E-02 -0.10216766474E-01  0.13825053285E-01  0.00000000000E+00 0. -1.
     999901    1    3    3    0    0  0.33438329837E-01  0.11982003203E+00  0.52056807559E-01  0.89027235900E+00  0.88000000000E+00 0. -1.
        -11    1    4    4    0    0 -0.17109964105E-01 -0.61016366605E-02 -0.78221004697E-02  0.19784519665E-01  0.51100000000E-03 0.  1.
         11    1    4    4    0    0 -0.25527502348E-01 -0.11226042875E+00 -0.34017940615E-01  0.12004806805E+00  0.51100000000E-03 0. -1.
</event>
<event>
 8    1  0.2927513E+004  0.1043930E+01  0.7957747E-01            NaN
         13   -1    0    0    0    0  0.00000000000E+00  0.00000000000E+00  0.74505805969E-08  0.10566000000E+00  0.10566000000E+00 0.  1.
     999900   -1    0    0    0    0 -0.00000000000E+00 -0.00000000000E+00 -0.74505805969E-08  0.93827000000E+00  0.93827000000E+00 0. -1.
     999902    2    1    2    0    0 -0.12952991775E-01  0.46766760222E-02 -0.23800563713E-03  0.10301565494E+01  0.10300644681E+01 0.  0.
     999903    2    3    3    0    0 -0.11867766117E+00 -0.58857157433E-01 -0.19578179573E-01  0.14134369169E+00  0.45234741333E-01 0.  0.
         14    1    1    2    0    0  0.12952991775E-01 -0.46766760222E-02  0.23800563713E-03  0.13773450593E-01  0.00000000000E+00 0.  1.
     999901    1    3    3    0    0  0.10572466940E+00  0.63533833455E-01  0.19340173936E-01  0.88881285772E+00  0.88000000000E+00 0.  1.
        -11    1    4    4    0    0 -0.53703208092E-01 -0.38568719802E-01  0.10456802686E-01  0.66941665276E-01  0.51100000000E-03 0. -1.
         11    1    4    4    0    0 -0.64974453079E-01 -0.20288437631E-01 -0.30034982259E-01  0.74402026415E-01  0.51100000000E-03 0.  1.
</event>
<event>
 8    1  0.2927513E+004  0.1043930E+01  0.7957747E-01            NaN
         13   -1    0    0    0    0  0.00000000000E+00  0.00000000000E+00  0.74505805969E-08  0.10566000000E+00  0.10566000000E+00 0. -1.
     999900   -1    0    0    0    0 -0.00000000000E+00 -0.00000000000E+00 -0.74505805969E-08  0.93827000000E+00  0.93827000000E+00 0.  1.
     999902    2    1    2    0    0  0.79011361713E-02 -0.73214417626E-02 -0.77242593405E-02  0.10306749766E+01  0.10305897398E+01 0.  0.
     999903    2    3    3    0    0 -0.73121894025E-01 -0.49069848647E-01 -0.99705520624E-01  0.14119860632E+00  0.47341252125E-01 0.  0.
         14    1    1    2    0    0 -0.79011361713E-02  0.73214417626E-02  0.77242593405E-02  0.13255023374E-01  0.00000000000E+00 0. -1.
     999901    1    3    3    0    0  0.81023030197E-01  0.41748406884E-01  0.91981261283E-01  0.88947637030E+00  0.88000000000E+00 0.  1.
        -11    1    4    4    0    0 -0.91782306410E-02  0.88133579550E-02 -0.20280681337E-01  0.23947491573E-01  0.51100000000E-03 0.  1.
         11    1    4    4    0    0 -0.63943663384E-01 -0.57883206602E-01 -0.79424839287E-01  0.11725111475E+00  0.51100000000E-03 0. -1.
</event>
<event>
 8    1  0.2927513E+004  0.1043930E+01  0.7957747E-01            NaN
         13   -1    0    0    0    0  0.00000000000E+00  0.00000000000E+00  0.74505805969E-08  0.10566000000E+00  0.10566000000E+00 0.  1.
     999900   -1    0    0    0    0 -0.00000000000E+00 -0.00000000000E+00 -0.74505805969E-08  0.93827000000E+00  0.93827000000E+00 0. -1.
     999902    2    1    2    0    0 -0.10768210092E-01 -0.33026470170E-03  0.90448481197E-02  0.10298632768E+01  0.10297672049E+01 0.  0.
     999903    2    3    3    0    0  0.78724361048E-01 -0.72854185371E-01  0.76958386837E-01  0.13976166010E+00  0.45885411412E-01 0.  0.
         14    1    1    2    0    0  0.10768210092E-01  0.33026470170E-03 -0.90448481197E-02  0.14066723175E-01  0.00000000000E+00 0. -1.
     999901    1    3    3    0    0 -0.89492571140E-01  0.72523920669E-01 -0.67913538717E-01  0.89010161673E+00  0.88000000000E+00 0. -1.
        -11    1    4    4    0    0  0.49970348048E-01 -0.20010439017E-01  0.51287482121E-01  0.74351330163E-01  0.51100000000E-03 0.  1.
         11    1    4    4    0    0  0.28754012999E-01 -0.52843746354E-01  0.25670904716E-01  0.65410329936E-01  0.51100000000E-03 0. -1.
</event>
<event>
 8    1  0.2927513E+004  0.1043930E+01  0.7957747E-01            NaN
         13   -1    0    0    0    0  0.00000000000E+00  0.00000000000E+00  0.74505805969E-08  0.10566000000E+00  0.10566000000E+00 0.  1.
     999900   -1    0    0    0    0 -0.00000000000E+00 -0.00000000000E+00 -0.74505805969E-08  0.93827000000E+00  0.93827000000E+00 0. -1.
     999902    2    1    2    0    0 -0.26260191363E-03  0.39170148535E-02  0.15514784194E-01  0.10279262350E+01  0.10278016463E+01 0.  0.
     999903    2    3    3    0    0  0.38476352273E-01  0.12552070104E+00  0.17623019967E-02  0.13861341388E+00  0.44437559859E-01 0.  0.
         14    1    1    2    0    0  0.26260191363E-03 -0.39170148535E-02 -0.15514784194E-01  0.16003764985E-01  0.00000000000E+00 0. -1.
     999901    1    3    3    0    0 -0.38738954187E-01 -0.12160368618E+00  0.13752482197E-01  0.88931282113E+00  0.88000000000E+00 0. -1.
        -11    1    4    4    0    0 -0.59744717213E-02  0.54303043579E-01  0.17302331666E-02  0.54660494711E-01  0.51100000000E-03 0. -1.
         11    1    4    4    0    0  0.44450823995E-01  0.71217657459E-01  0.32068830099E-04  0.83952919170E-01  0.51100000000E-03 0.  1.
</event>
<event>
 8    1  0.2927513E+004  0.1043930E+01  0.7957747E-01            NaN
         13   -1    0    0    0    0  0.00000000000E+00  0.00000000000E+00  0.74505805969E-08  0.10566000000E+00  0.10566000000E+00 0. -1.
     999900   -1    0    0    0    0 -0.00000000000E+00 -0.00000000000E+00 -0.74505805969E-08  0.93827000000E+00  0.93827000000E+00 0.  1.
     999902    2    1    2    0    0 -0.82291095597E-02  0.80182484515E-02 -0.78118104096E-02  0.10300362988E+01  0.10299425915E+01 0.  0.
     999903    2    3    3    0    0 -0.97670101663E-01  0.91724630766E-01 -0.89649806844E-02  0.14155006965E+00  0.44757063034E-01 0.  0.
         14    1    1    2    0    0  0.82291095597E-02 -0.80182484515E-02  0.78118104096E-02  0.13893701244E-01  0.00000000000E+00 0.  1.
     999901    1    3    3    0    0  0.89440992103E-01 -0.83706382315E-01  0.11531702748E-02  0.88848622911E+00  0.88000000000E+00 0. -1.
        -11    1    4    4    0    0 -0.87234077929E-01  0.58985847577E-01 -0.15876730377E-01  0.10649622648E+00  0.51100000000E-03 0.  1.
         11    1    4    4    0    0 -0.10436023734E-01  0.32738783189E-01  0.69117496927E-02  0.35053843168E-01  0.51100000000E-03 0. -1.
</event>
<event>
 8    1  0.2927513E+004  0.1043930E+01  0.7957747E-01            NaN
         13   -1    0    0    0    0  0.00000000000E+00  0.00000000000E+00  0.74505805969E-08  0.10566000000E+00  0.10566000000E+00 0. -1.
     999900   -1    0    0    0    0 -0.00000000000E+00 -0.00000000000E+00 -0.74505805969E-08  0.93827000000E+00  0.93827000000E+00 0.  1.
     999902    2    1    2    0    0 -0.12838007536E-02  0.12949391979E-01  0.55809920273E-02  0.10297708203E+01  0.10296734725E+01 0.  0.
     999903    2    3    3    0    0  0.10215554385E-01  0.84698360612E-01 -0.99831265384E-01  0.14050601518E+00  0.49974882799E-01 0.  0.
         14    1    1    2    0    0  0.12838007536E-02 -0.12949391979E-01 -0.55809920273E-02  0.14159179673E-01  0.00000000000E+00 0.  1.
     999901    1    3    3    0    0 -0.11499355139E-01 -0.71748968633E-01  0.10541225741E+00  0.88926480515E+00  0.88000000000E+00 0. -1.
        -11    1    4    4    0    0  0.15867248915E-01  0.80139097832E-01 -0.63554057278E-01  0.10350567089E+00  0.51100000000E-03 0.  1.
         11    1    4    4    0    0 -0.56516945299E-02  0.45592627802E-02 -0.36277208106E-01  0.37000344284E-01  0.51100000000E-03 0. -1.
</event>
<event>
 8    1  0.2927513E+004  0.1043930E+01  0.7957747E-01            NaN
         13   -1    0    0    0    0  0.00000000000E+00  0.00000000000E+00  0.74505805969E-08  0.10566000000E+00  0.10566000000E+00 0.  1.
     999900   -1    0    0    0    0 -0.00000000000E+00 -0.00000000000E+00 -0.74505805969E-08  0.93827000000E+00  0.93827000000E+00 0.  1.
     999902    2    1    2    0    0 -0.79439294748E-02  0.62347449174E-02  0.89718115327E-02  0.10304218002E+01  0.10303332543E+01 0.  0.
     999903    2    3    3    0    0  0.12242785070E-01  0.10546201353E+00 -0.79836728225E-01  0.14017435650E+00  0.44752932454E-01 0.  0.
         14    1    1    2    0    0  0.79439294748E-02 -0.62347449174E-02 -0.89718115327E-02  0.13508199801E-01  0.00000000000E+00 0.  1.
     999901    1    3    3    0    0 -0.20186714545E-01 -0.99227268608E-01  0.88808539758E-01  0.89024744370E+00  0.88000000000E+00 0. -1.
        -11    1    4    4    0    0  0.19724263481E-01  0.90831677387E-01 -0.48631719816E-01  0.10490350557E+00  0.51100000000E-03 0. -1.
         11    1    4    4    0    0 -0.74814784105E-02  0.14630336139E-01 -0.31205008410E-01  0.35270850934E-01  0.51100000000E-03 0.  1.
</event>
<event>
 8    1  0.2927513E+004  0.1043930E+01  0.7957747E-01            NaN
         13   -1    0    0    0    0  0.00000000000E+00  0.00000000000E+00  0.74505805969E-08  0.10566000000E+00  0.10566000000E+00 0.  1.
     999900   -1    0    0    0    0 -0.00000000000E+00 -0.00000000000E+00 -0.74505805969E-08  0.93827000000E+00  0.93827000000E+00 0.  1.
     999902    2    1    2    0    0  0.59986429827E-02  0.12425916730E-01  0.52383657805E-02  0.10291710163E+01  0.10290651841E+01 0.  0.
     999903    2    3    3    0    0  0.88609369745E-01 -0.22541939296E-01 -0.95730797384E-01  0.13886654306E+00  0.41949633856E-01 0.  0.
         14    1    1    2    0    0 -0.59986429827E-02 -0.12425916730E-01 -0.52383657805E-02  0.14758983714E-01  0.00000000000E+00 0.  1.
     999901    1    3    3    0    0 -0.82610726762E-01  0.34967856026E-01  0.10096916316E+00  0.89030447322E+00  0.88000000000E+00 0. -1.
        -11    1    4    4    0    0  0.67996863870E-01 -0.17518895021E-01 -0.43782241032E-01  0.82750413472E-01  0.51100000000E-03 0.  1.
         11    1    4    4    0    0  0.20612505874E-01 -0.50230442751E-02 -0.51948556352E-01  0.56116129591E-01  0.51100000000E-03 0. -1.
</event>
<event>
 8    1  0.2927513E+004  0.1043930E+01  0.7957747E-01            NaN
         13   -1    0    0    0    0  0.00000000000E+00  0.00000000000E+00  0.74505805969E-08  0.10566000000E+00  0.10566000000E+00 0.  1.
     999900   -1    0    0    0    0 -0.00000000000E+00 -0.00000000000E+00 -0.74505805969E-08  0.93827000000E+00  0.93827000000E+00 0. -1.
     999902    2    1    2    0    0  0.79021818826E-02  0.10812099013E-01  0.12587478157E-02  0.10304789625E+01  0.10303911693E+01 0.  0.
     999903    2    3    3    0    0 -0.21352605907E-01 -0.12787791143E+00  0.23299695165E-01  0.13886437931E+00  0.43951632930E-01 0.  0.
         14    1    1    2    0    0 -0.79021818826E-02 -0.10812099013E-01 -0.12587478157E-02  0.13451037493E-01  0.00000000000E+00 0. -1.
     999901    1    3    3    0    0  0.29254787790E-01  0.13869001044E+00 -0.22040947350E-01  0.89161458319E+00  0.88000000000E+00 0. -1.
        -11    1    4    4    0    0  0.95112983124E-02 -0.38801100800E-01  0.19640704090E-01  0.44519755132E-01  0.51100000000E-03 0. -1.
         11    1    4    4    0    0 -0.30863904220E-01 -0.89076810627E-01  0.36589910757E-02  0.94344624181E-01  0.51100000000E-03 0.  1.
</event>
<event>
 8    1  0.2927513E+004  0.1043930E+01  0.7957747E-01            NaN
         13   -1    0    0    0    0  0.00000000000E+00  0.00000000000E+00  0.74505805969E-08  0.10566000000E+00  0.10566000000E+00 0. -1.
     999900   -1    0    0    0    0 -0.00000000000E+00 -0.00000000000E+00 -0.74505805969E-08  0.93827000000E+00  0.93827000000E+00 0.  1.
     999902    2    1    2    0    0 -0.13556648207E-01 -0.53720463307E-02 -0.25012189788E-02  0.10291348086E+01  0.10290284528E+01 0.  0.
     999903    2    3    3    0    0 -0.81447979052E-01  0.15659163088E-01 -0.10394672793E+00  0.14046010103E+00  0.45223169442E-01 0.  0.
         14    1    1    2    0    0  0.13556648207E-01  0.53720463307E-02  0.25012189788E-02  0.14795191407E-01  0.00000000000E+00 0. -1.
     999901    1    3    3    0    0  0.67891330846E-01 -0.21031209419E-01  0.10144550895E+00  0.88867470756E+00  0.88000000000E+00 0. -1.
        -11    1    4    4    0    0 -0.65925785118E-02  0.79574682868E-02  0.19700786552E-02  0.10532128174E-01  0.51100000000E-03 0. -1.
         11    1    4    4    0    0 -0.74855400541E-01  0.77016948014E-02 -0.10591680658E+00  0.12992797286E+00  0.51100000000E-03 0.  1.
</event>
<event>
 8    1  0.2927513E+004  0.1043930E+01  0.7957747E-01            NaN
         13   -1    0    0    0    0  0.00000000000E+00  0.00000000000E+00  0.74505805969E-08  0.10566000000E+00  0.10566000000E+00 0.  1.
     999900   -1    0    0    0    0 -0.00000000000E+00 -0.00000000000E+00 -0.74505805969E-08  0.93827000000E+00  0.93827000000E+00 0.  1.
     999902    2    1    2    0    0  0.14380074038E-01 -0.10392390938E-01  0.66202846607E-02  0.10249928279E+01  0.10248178769E+01 0.  0.
     999903    2    3    3    0    0  0.11647294756E+00 -0.72746165301E-02  0.58210730398E-01  0.13758410050E+00  0.43840939986E-01 0.  0.
         14    1    1    2    0    0 -0.14380074038E-01  0.10392390938E-01 -0.66202846607E-02  0.18937172116E-01  0.00000000000E+00 0. -1.
     999901    1    3    3    0    0 -0.10209287352E+00 -0.31177744081E-02 -0.51590445737E-01  0.88740872738E+00  0.88000000000E+00 0.  1.
        -11    1    4    4    0    0  0.73628021394E-01 -0.13164954856E-01  0.14688852103E-01  0.76226144254E-01  0.51100000000E-03 0.  1.
         11    1    4    4    0    0  0.42844926166E-01  0.58903383259E-02  0.43521878294E-01  0.61357956249E-01  0.51100000000E-03 0. -1.
</event>
<event>
 7    1  0.2927513E+004  0.1043930E+01  0.7957747E-01            NaN
         13   -1    0    0    0    0  0.00000000000E+00  0.00000000000E+00  0.74505805969E-08  0.10566000000E+00  0.10566000000E+00 0.  1.
     999900   -1    0    0    0    0 -0.00000000000E+00 -0.00000000000E+00 -0.74505805969E-08  0.93827000000E+00  0.93827000000E+00 0. -1.
     999903    2    1    2    0    0  0.61174766244E-01 -0.43634078093E-01  0.30466699702E-01  0.94589946602E-01  0.48710916758E-01 0.  0.
         14    1    1    2    0    0 -0.19990264139E-01 -0.50470058525E-01  0.28675615814E-01  0.61393227723E-01  0.00000000000E+00 0. -1.
     999901    1    1    2    0    0 -0.41184502106E-01  0.94104136618E-01 -0.59142315516E-01  0.88794682568E+00  0.88000000000E+00 0. -1.
        -11    1    3    3    0    0  0.42605495040E-01 -0.36306186684E-01 -0.25134453026E-02  0.56035220419E-01  0.51100000000E-03 0.  1.
         11    1    3    3    0    0  0.18569271205E-01 -0.73278914090E-02  0.32980145004E-01  0.38554726183E-01  0.51100000000E-03 0. -1.
</event>
<event>
 8    1  0.2927513E+004  0.1043930E+01  0.7957747E-01            NaN
         13   -1    0    0    0    0  0.00000000000E+00  0.00000000000E+00  0.74505805969E-08  0.10566000000E+00  0.10566000000E+00 0.  1.
     999900   -1    0    0    0    0 -0.00000000000E+00 -0.00000000000E+00 -0.74505805969E-08  0.93827000000E+00  0.93827000000E+00 0. -1.
     999902    2    1    2    0    0  0.31304822855E-02 -0.92653734927E-02  0.95071163296E-02  0.10302906332E+01  0.10302003478E+01 0.  0.
     999903    2    3    3    0    0  0.85420783695E-01 -0.75619691574E-01  0.71319314562E-01  0.14181140606E+00  0.44821671316E-01 0.  0.
         14    1    1    2    0    0 -0.31304822855E-02  0.92653734927E-02 -0.95071163296E-02  0.13639366782E-01  0.00000000000E+00 0.  1.
     999901    1    3    3    0    0 -0.82290301409E-01  0.66354318081E-01 -0.61812198232E-01  0.88847922715E+00  0.88000000000E+00 0. -1.
        -11    1    4    4    0    0  0.72682202335E-01 -0.53274081815E-01  0.33648830739E-01  0.96194257940E-01  0.51100000000E-03 0.  1.
         11    1    4    4    0    0  0.12738581360E-01 -0.22345609759E-01  0.37670483823E-01  0.45617148125E-01  0.51100000000E-03 0. -1.
</event>
<event>
 8    1  0.2927513E+004  0.1043930E+01  0.7957747E-01            NaN
         13   -1    0    0    0    0  0.00000000000E+00  0.00000000000E+00  0.74505805969E-08  0.10566000000E+00  0.10566000000E+00 0.  1.
     999900   -1    0    0    0    0 -0.00000000000E+00 -0.00000000000E+00 -0.74505805969E-08  0.93827000000E+00  0.93827000000E+00 0.  1.
     999902    2    1    2    0    0  0.19182185409E-01 -0.88330080175E-03  0.33063833186E-02  0.10244449127E+01  0.10242595914E+01 0.  0.
     999903    2    3    3    0    0 -0.25077096199E-01  0.14465019609E-01 -0.12300454636E+00  0.13419275407E+00  0.45160594256E-01 0.  0.
         14    1    1    2    0    0 -0.19182185409E-01  0.88330080175E-03 -0.33063833186E-02  0.19485087324E-01  0.00000000000E+00 0. -1.
     999901    1    3    3    0    0  0.44259281608E-01 -0.15348320410E-01  0.12631092968E+00  0.89025215861E+00  0.88000000000E+00 0. -1.
        -11    1    4    4    0    0 -0.31791358610E-01  0.43779924845E-02 -0.45127438759E-01  0.55376927961E-01  0.51100000000E-03 0. -1.
         11    1    4    4    0    0  0.67142624106E-02  0.10087027124E-01 -0.77877107600E-01  0.78815826108E-01  0.51100000000E-03 0.  1.
</event>
<event>
 8    1  0.2927513E+004  0.1043930E+01  0.7957747E-01            NaN
         13   -1    0    0    0    0  0.00000000000E+00  0.00000000000E+00  0.74505805969E-08  0.10566000000E+00  0.10566000000E+00 0. -1.
     999900   -1    0    0    0    0 -0.00000000000E+00 -0.00000000000E+00 -0.74505805969E-08  0.93827000000E+00  0.93827000000E+00 0.  1.
     999902    2    1    2    0    0  0.73087397459E-02 -0.61960008642E-02  0.98244944206E-02  0.10302067062E+01  0.10301152987E+01 0.  0.
     999903    2    3    3    0    0  0.32649161093E-01  0.12790364610E+00  0.11211296254E-01  0.13968619797E+00  0.44285780276E-01 0.  0.
         14    1    1    2    0    0 -0.73087397459E-02  0.61960008642E-02 -0.98244944206E-02  0.13723293847E-01  0.00000000000E+00 0.  1.
     999901    1    3    3    0    0 -0.25340421347E-01 -0.13409964696E+00 -0.13868018337E-02  0.89052050818E+00  0.88000000000E+00 0.  1.
        -11    1    4    4    0    0  0.29615323939E-01  0.48237107556E-01 -0.92999414635E-02  0.57364065316E-01  0.51100000000E-03 0. -1.
         11    1    4    4    0    0  0.30338371541E-02  0.79666538544E-01  0.20511237718E-01  0.82322132657E-01  0.51100000000E-03 0.  1.
</event>
<event>
 8    1  0.2927513E+004  0.1043930E+01  0.7957747E-01            NaN
         13   -1    0    0    0    0  0.00000000000E+00  0.00000000000E+00  0.74505805969E-08  0.10566000000E+00  0.10566000000E+00 0. -1.
     999900   -1    0    0    0    0 -0.00000000000E+00 -0.00000000000E+00 -0.74505805969E-08  0.93827000000E+00  0.93827000000E+00 0.  1.
     999902    2    1    2    0    0 -0.10964744892E-01 -0.71583625295E-02 -0.45119827399E-02  0.10300798818E+01  0.10299867656E+01 0.  0.
     999903    2    3    3    0    0 -0.67341889312E-01  0.79954151929E-01 -0.83303733905E-01  0.14048721515E+00  0.43238282470E-01 0.  0.
         14    1    1    2    0    0  0.10964744892E-01  0.71583625295E-02  0.45119827399E-02  0.13850118155E-01  0.00000000000E+00 0. -1.
     999901    1    3    3    0    0  0.56377144420E-01 -0.87112514458E-01  0.78791751165E-01  0.88959266670E+00  0.88000000000E+00 0. -1.
        -11    1    4    4    0    0 -0.32517633909E-01  0.64722493534E-01 -0.68497593648E-01  0.99692422685E-01  0.51100000000E-03 0.  1.
         11    1    4    4    0    0 -0.34824255403E-01  0.15231658394E-01 -0.14806140258E-01  0.40794792464E-01  0.51100000000E-03 0. -1.
</event>
<event>
 8    1  0.2927513E+004  0.1043930E+01  0.7957747E-01            NaN
         13   -1    0    0    0    0  0.00000000000E+00  0.00000000000E+00  0.74505805969E-08  0.10566000000E+00  0.10566000000E+00 0. -1.
     999900   -1    0    0    0    0 -0.00000000000E+00 -0.00000000000E+00 -0.74505805969E-08  0.93827000000E+00  0.93827000000E+00 0. -1.
     999902    2    1    2    0    0 -0.28286663072E-02  0.37125049956E-02  0.12991600090E-01  0.10301254457E+01  0.10300329452E+01 0.  0.
     999903    2    3    3    0    0 -0.91185994080E-01  0.81726542096E-01 -0.50567938441E-01  0.13999454393E+00  0.45246466518E-01 0.  0.
         14    1    1    2    0    0  0.28286663072E-02 -0.37125049956E-02 -0.12991600090E-01  0.13804554296E-01  0.00000000000E+00 0.  1.
     999901    1    3    3    0    0  0.88357327773E-01 -0.78014037101E-01  0.63559538531E-01  0.89013090177E+00  0.88000000000E+00 0.  1.
        -11    1    4    4    0    0 -0.49522158194E-01  0.69317787255E-01 -0.44449512776E-01  0.96090686798E-01  0.51100000000E-03 0. -1.
         11    1    4    4    0    0 -0.41663835886E-01  0.12408754841E-01 -0.61184256650E-02  0.43903857132E-01  0.51100000000E-03 0.  1.
</event>
<event>
 8    1  0.2927513E+004  0.1043930E+01  0.7957747E-01            NaN
         13   -1    0    0    0    0  0.00000000000E+00  0.00000000000E+00  0.74505805969E-08  0.10566000000E+00  0.10566000000E+00 0. -1.
     999900   -1    0    0    0    0 -0.00000000000E+00 -0.00000000000E+00 -0.74505805969E-08  0.93827000000E+00  0.93827000000E+00 0. -1.
     999902    2    1    2    0    0 -0.22927815132E-02 -0.14071961771E-01 -0.27064057367E-02  0.10294178814E+01  0.10293155847E+01 0.  0.
     999903    2    3    3    0    0 -0.18823162205E-02 -0.11062772272E+00  0.74443452798E-01  0.14078112536E+00  0.45116088530E-01 0.  0.
         14    1    1    2    0    0  0.22927815132E-02  0.14071961771E-01  0.27064057367E-02  0.14512118631E-01  0.00000000000E+00 0. -1.
     999901    1    3    3    0    0 -0.41046529272E-03  0.96555760952E-01 -0.77149858535E-01  0.88863675601E+00  0.88000000000E+00 0. -1.
        -11    1    4    4    0    0 -0.19012026148E-02 -0.81459334842E-01  0.76191995352E-01  0.11155590115E+00  0.51100000000E-03 0. -1.
         11    1    4    4    0    0  0.18886394274E-04 -0.29168387881E-01 -0.17485425533E-02  0.29225224213E-01  0.51100000000E-03 0.  1.
</event>
<event>
 8    1  0.2927513E+004  0.1043930E+01  0.7957747E-01            NaN
         13   -1    0    0    0    0  0.00000000000E+00  0.00000000000E+00  0.74505805969E-08  0.10566000000E+00  0.10566000000E+00 0. -1.
     999900   -1    0    0    0    0 -0.00000000000E+00 -0.00000000000E+00 -0.74505805969E-08  0.93827000000E+00  0.93827000000E+00 0. -1.
     999902    2    1    2    0    0 -0.37119056260E-02  0.96832016024E-02  0.81006036822E-02  0.10307708809E+01  0.10306868809E+01 0.  0.
     999903    2    3    3    0    0  0.67585607066E-01 -0.70803279832E-01  0.89993795162E-01  0.14045189093E+00  0.45243030192E-01 0.  0.
         14    1    1    2    0    0  0.37119056260E-02 -0.96832016024E-02 -0.81006036822E-02  0.13159119145E-01  0.00000000000E+00 0.  1.
     999901    1    3    3    0    0 -0.71297512692E-01  0.80486481435E-01 -0.81893191479E-01  0.89031898992E+00  0.88000000000E+00 0. -1.
        -11    1    4    4    0    0  0.28546963358E-01 -0.30264459402E-01  0.68618813848E-01  0.80247550460E-01  0.51100000000E-03 0.  1.
         11    1    4    4    0    0  0.39038643708E-01 -0.40538820430E-01  0.21374981314E-01  0.60204340471E-01  0.51100000000E-03 0. -1.
</event>
<event>
 8    1  0.2927513E+004  0.1043930E+01  0.7957747E-01            NaN
         13   -1    0    0    0    0  0.00000000000E+00  0.00000000000E+00  0.74505805969E-08  0.10566000000E+00  0.10566000000E+00 0. -1.
     999900   -1    0    0    0    0 -0.00000000000E+00 -0.00000000000E+00 -0.74505805969E-08  0.93827000000E+00  0.93827000000E+00 0.  1.
     999902    2    1    2    0    0  0.12402106700E-01  0.23947965378E-02 -0.40829844309E-02  0.10306552848E+01  0.10305697929E+01 0.  0.
     999903    2    3    3    0    0 -0.13018957942E+00 -0.16819238235E-01  0.90018123947E-02  0.13887460552E+00  0.44417452267E-01 0.  0.
         14    1    1    2    0    0 -0.12402106700E-01 -0.23947965378E-02  0.40829844309E-02  0.13274715173E-01  0.00000000000E+00 0.  1.
     999901    1    3    3    0    0  0.14259168612E+00  0.19214034773E-01 -0.13084796826E-01  0.89178067931E+00  0.88000000000E+00 0.  1.
        -11    1    4    4    0    0 -0.52822713917E-01  0.25752593295E-03 -0.16987857135E-01  0.55490123771E-01  0.51100000000E-03 0.  1.
         11    1    4    4    0    0 -0.77366865506E-01 -0.17076764168E-01  0.25989669529E-01  0.83384481745E-01  0.51100000000E-03 0. -1.
</event>
<event>
 8    1  0.2927513E+004  0.1043930E+01  0.7957747E-01            NaN
         13   -1    0    0    0    0  0.00000000000E+00  0.00000000000E+00  0.74505805969E-08  0.10566000000E+00  0.10566000000E+00 0.  1.
     999900   -1    0    0    0    0 -0.00000000000E+00 -0.00000000000E+00 -0.74505805969E-08  0.93827000000E+00  0.93827000000E+00 0.  1.
     999902    2    1    2    0    0 -0.68894254391E-02  0.11893611898E-01  0.92522324688E-03  0.10301539982E+01  0.10300618825E+01 0.  0.
     999903    2    3    3    0    0  0.97752890513E-01 -0.51669485061E-01 -0.70735581722E-01  0.13879236984E+00  0.45104723866E-01 0.  0.
         14    1    1    2    0    0  0.68894254391E-02 -0.11893611898E-01 -0.92522324688E-03  0.13776001775E-01  0.00000000000E+00 0. -1.
     999901    1    3    3    0    0 -0.10464231595E+00  0.63563096959E-01  0.71660804969E-01  0.89136162838E+00  0.88000000000E+00 0. -1.
        -11    1    4    4    0    0  0.38860515823E-01 -0.11528985473E-02 -0.38666326181E-01  0.54834430483E-01  0.51100000000E-03 0.  1.
         11    1    4    4    0    0  0.58892374690E-01 -0.50516586514E-01 -0.32069255541E-01  0.83957939360E-01  0.51100000000E-03 0. -1.
</event>
<event>
 8    1  0.2927513E+004  0.1043930E+01  0.7957747E-01            NaN
         13   -1    0    0    0    0  0.00000000000E+00  0.00000000000E+00  0.74505805969E-08  0.10566000000E+00  0.10566000000E+00 0. -1.
     999900   -1    0    0    0    0 -0.00000000000E+00 -0.00000000000E+00 -0.74505805969E-08  0.93827000000E+00  0.93827000000E+00 0.  1.
     999902    2    1    2    0    0 -0.13023797801E-01 -0.39919921228E-02  0.24971682211E-02  0.10300811315E+01  0.10299880321E+01 0.  0.
     999903    2    3    3    0    0 -0.77376578284E-01 -0.10492814741E+00  0.36264563874E-01  0.14133503455E+00  0.40785075835E-01 0.  0.
         14    1    1    2    0    0  0.13023797801E-01  0.39919921228E-02 -0.24971682211E-02  0.13848868524E-01  0.00000000000E+00 0.  1.
     999901    1    3    3    0    0  0.64352780483E-01  0.10093615529E+00 -0.33767395652E-01  0.88874609693E+00  0.88000000000E+00 0.  1.
        -11    1    4    4    0    0 -0.35241778371E-01 -0.17167302325E-01  0.87489320911E-02  0.40168447140E-01  0.51100000000E-03 0.  1.
         11    1    4    4    0    0 -0.42134799913E-01 -0.87760845086E-01  0.27515631783E-01  0.10116658741E+00  0.51100000000E-03 0. -1.
</event>
<event>
 8    1  0.2927513E+004  0.1043930E+01  0.7957747E-01            NaN
         13   -1    0    0    0    0  0.00000000000E+00  0.00000000000E+00  0.74505805969E-08  0.10566000000E+00  0.10566000000E+00 0. -1.
     999900   -1    0    0    0    0 -0.00000000000E+00 -0.00000000000E+00 -0.74505805969E-08  0.93827000000E+00  0.93827000000E+00 0. -1.
     999902    2    1    2    0    0  0.70620454432E-02  0.11814738148E-01 -0.26331637227E-02  0.10299159330E+01  0.10298205839E+01 0.  0.
     999903    2    3    3    0    0  0.93353656106E-01 -0.75265561286E-01 -0.54118754203E-01  0.13992717650E+00  0.47654646613E-01 0.  0.
         14    1    1    2    0    0 -0.70620454432E-02 -0.11814738148E-01  0.26331637227E-02  0.14014067024E-01  0.00000000000E+00 0.  1.
     999901    1    3    3    0    0 -0.86291610663E-01  0.87080299434E-01  0.51485590480E-01  0.88998875647E+00  0.88000000000E+00 0.  1.
        -11    1    4    4    0    0  0.48386866542E-01 -0.95620286276E-02 -0.18124945310E-01  0.52549938237E-01  0.51100000000E-03 0.  1.
         11    1    4    4    0    0  0.44966789564E-01 -0.65703532658E-01 -0.35993808893E-01  0.87377238266E-01  0.51100000000E-03 0. -1.
</event>
<event>
 8    1  0.2927513E+004  0.1043930E+01  0.7957747E-01            NaN
         13   -1    0    0    0    0  0.00000000000E+00  0.00000000000E+00  0.74505805969E-08  0.10566000000E+00  0.10566000000E+00 0. -1.
     999900   -1    0    0    0    0 -0.00000000000E+00 -0.00000000000E+00 -0.74505805969E-08  0.93827000000E+00  0.93827000000E+00 0. -1.
     999902    2    1    2    0    0 -0.62164516620E-02  0.39443632697E-02 -0.11620778896E-01  0.10301733734E+01  0.10300815184E+01 0.  0.
     999903    2    3    3    0    0  0.81928205357E-01 -0.80025576242E-01  0.63296094320E-01  0.13863931955E+00  0.45805476571E-01 0.  0.
         14    1    1    2    0    0  0.62164516620E-02 -0.39443632697E-02  0.11620778896E-01  0.13756626586E-01  0.00000000000E+00 0. -1.
     999901    1    3    3    0    0 -0.88144657019E-01  0.83969939512E-01 -0.74916873216E-01  0.89153405386E+00  0.88000000000E+00 0.  1.
        -11    1    4    4    0    0  0.21516551187E-01 -0.40053467197E-01  0.44894082190E-01  0.63898215516E-01  0.51100000000E-03 0. -1.
         11    1    4    4    0    0  0.60411654170E-01 -0.39972109045E-01  0.18402012130E-01  0.74741104036E-01  0.51100000000E-03 0.  1.
</event>
<event>
 8    1  0.2927513E+004  0.1043930E+01  0.7957747E-01            NaN
         13   -1    0    0    0    0  0.00000000000E+00  0.00000000000E+00  0.74505805969E-08  0.10566000000E+00  0.10566000000E+00 0.  1.
     999900   -1    0    0    0    0 -0.00000000000E+00 -0.00000000000E+00 -0.74505805969E-08  0.93827000000E+00  0.93827000000E+00 0.  1.
     999902    2    1    2    0    0  0.10577658495E-01  0.60226874359E-02 -0.73986061483E-02  0.10296857381E+01  0.10295872087E+01 0.  0.
     999903    2    3    3    0    0 -0.93247158867E-01  0.37764874444E-01 -0.85628567893E-01  0.13956940526E+00  0.45012763370E-01 0.  0.
         14    1    1    2    0    0 -0.10577658495E-01 -0.60226874359E-02  0.73986061483E-02  0.14244261867E-01  0.00000000000E+00 0. -1.
     999901    1    3    3    0    0  0.10382481736E+00 -0.31742187009E-01  0.78229961744E-01  0.89011633288E+00  0.88000000000E+00 0.  1.
        -11    1    4    4    0    0 -0.83790707776E-03  0.14659924928E-01 -0.14907965960E-01  0.20931413168E-01  0.51100000000E-03 0. -1.
         11    1    4    4    0    0 -0.92409251789E-01  0.23104949517E-01 -0.70720601932E-01  0.11863799209E+00  0.51100000000E-03 0.  1.
</event>
<event>
 8    1  0.2927513E+004  0.1043930E+01  0.7957747E-01            NaN
         13   -1    0    0    0    0  0.00000000000E+00  0.00000000000E+00  0.74505805969E-08  0.10566000000E+00  0.10566000000E+00 0.  1.
     999900   -1    0    0    0    0 -0.00000000000E+00 -0.00000000000E+00 -0.74505805969E-08  0.93827000000E+00  0.93827000000E+00 0.  1.
     999902    2    1    2    0    0 -0.22527867388E-02  0.91046167769E-02  0.11058460334E-01  0.10294297021E+01  0.10293275732E+01 0.  0.
     999903    2    3    3    0    0  0.43114063141E-01  0.12244609561E+00 -0.26853330770E-01  0.14019309364E+00  0.45619440585E-01 0.  0.
         14    1    1    2    0    0  0.22527867388E-02 -0.91046167769E-02 -0.11058460334E-01  0.14500297918E-01  0.00000000000E+00 0. -1.
     999901    1    3    3    0    0 -0.45366849880E-01 -0.11334147883E+00  0.37911791104E-01  0.88923660844E+00  0.88000000000E+00 0. -1.
        -11    1    4    4    0    0  0.26230390777E-01  0.10038192304E+00 -0.37661504419E-01  0.11037759696E+00  0.51100000000E-03 0. -1.
         11    1    4    4    0    0  0.16883672364E-01  0.22064172569E-01  0.10808173649E-01  0.29815496680E-01  0.51100000000E-03 0.  1.
</event>
<event>
 8    1  0.2927513E+004  0.1043930E+01  0.7957747E-01            NaN
         13   -1    0    0    0    0  0.00000000000E+00  0.00000000000E+00  0.74505805969E-08  0.10566000000E+00  0.10566000000E+00 0.  1.
     999900   -1    0    0    0    0 -0.00000000000E+00 -0.00000000000E+00 -0.74505805969E-08  0.93827000000E+00  0.93827000000E+00 0.  1.
     999902    2    1    2    0    0  0.23924583388E-02  0.10414915834E-01  0.81401197320E-02  0.10304966133E+01  0.10304090519E+01 0.  0.
     999903    2    3    3    0    0  0.48260870106E-01 -0.12179403027E+00  0.15400236955E-01  0.13940973431E+00  0.45111077673E-01 0.  0.
         14    1    1    2    0    0 -0.23924583388E-02 -0.10414915834E-01 -0.81401197320E-02  0.13433386691E-01  0.00000000000E+00 0. -1.
     999901    1    3    3    0    0 -0.45868411767E-01  0.13220894610E+00 -0.72601172228E-02  0.89108687900E+00  0.88000000000E+00 0.  1.
        -11    1    4    4    0    0  0.42066886146E-01 -0.11986351947E+00  0.49867576165E-02  0.12712991419E+00  0.51100000000E-03 0.  1.
         11    1    4    4    0    0  0.61939839594E-02 -0.19305108033E-02  0.10413479338E-01  0.12279820120E-01  0.51100000000E-03 0. -1.
</event>
<event>
 8    1  0.2927513E+004  0.1043930E+01  0.7957747E-01            NaN
         13   -1    0    0    0    0  0.00000000000E+00  0.00000000000E+00  0.74505805969E-08  0.10566000000E+00  0.10566000000E+00 0.  1.
     999900   -1    0    0    0    0 -0.00000000000E+00 -0.00000000000E+00 -0.74505805969E-08  0.93827000000E+00  0.93827000000E+00 0. -1.
     999902    2    1    2    0    0 -0.45683824863E-02  0.72984943971E-02  0.14850114135E-01  0.10267642192E+01  0.10266207176E+01 0.  0.
     999903    2    3    3    0    0 -0.24694258369E-01 -0.12493022232E+00  0.19327349578E-01  0.13664651352E+00  0.45621884779E-01 0.  0.
         14    1    1    2    0    0  0.45683824863E-02 -0.72984943971E-02 -0.14850114135E-01  0.17165780752E-01  0.00000000000E+00 0. -1.
     999901    1    3    3    0    0  0.20125875883E-01  0.13222871672E+00 -0.44772354433E-02  0.89011770572E+00  0.88000000000E+00 0.  1.
        -11    1    4    4    0    0 -0.33070444219E-01 -0.97796293950E-01  0.27968385576E-01  0.10695915624E+00  0.51100000000E-03 0.  1.
         11    1    4    4    0    0  0.83761858502E-02 -0.27133928372E-01 -0.86410359984E-02  0.29687357283E-01  0.51100000000E-03 0. -1.
</event>
<event>
 8    1  0.2927513E+004  0.1043930E+01  0.7957747E-01            NaN
         13   -1    0    0    0    0  0.00000000000E+00  0.00000000000E+00  0.74505805969E-08  0.10566000000E+00  0.10566000000E+00 0.  1.
     999900   -1    0    0    0    0 -0.00000000000E+00 -0.00000000000E+00 -0.74505805969E-08  0.93827000000E+00  0.93827000000E+00 0. -1.
     999902    2    1    2    0    0 -0.38905047144E-02 -0.10236406352E-01 -0.80254108965E-02  0.10303532824E+01  0.10302638299E+01 0.  0.
     999903    2    3    3    0    0  0.38254217382E-01 -0.95270479093E-01  0.84882656583E-01  0.14038762002E+00  0.44314434818E-01 0.  0.
         14    1    1    2    0    0  0.38905047144E-02  0.10236406352E-01  0.80254108965E-02  0.13576717644E-01  0.00000000000E+00 0.  1.
     999901    1    3    3    0    0 -0.42144722096E-01  0.85034072741E-01 -0.92908067479E-01  0.88996566233E+00  0.88000000000E+00 0. -1.
        -11    1    4    4    0    0  0.41779693791E-01 -0.67580677215E-01  0.78617910990E-01  0.11177534520E+00  0.51100000000E-03 0.  1.
         11    1    4    4    0    0 -0.35254764098E-02 -0.27689801878E-01  0.62647455921E-02  0.28612274819E-01  0.51100000000E-03 0. -1.
</event>
<event>
 8    1  0.2927513E+004  0.1043930E+01  0.7957747E-01            NaN
         13   -1    0    0    0    0  0.00000000000E+00  0.00000000000E+00  0.74505805969E-08  0.10566000000E+00  0.10566000000E+00 0. -1.
     999900   -1    0    0    0    0 -0.00000000000E+00 -0.00000000000E+00 -0.74505805969E-08  0.93827000000E+00  0.93827000000E+00 0. -1.
     999902    2    1    2    0    0 -0.13327949631E-01  0.33898001415E-02  0.21799142195E-02  0.10300060274E+01  0.10299119086E+01 0.  0.
     999903    2    3    3    0    0  0.46396320999E-01 -0.65086717846E-01 -0.10405430221E+00  0.13897194796E+00  0.45793067929E-01 0.  0.
         14    1    1    2    0    0  0.13327949631E-01 -0.33898001415E-02 -0.21799142195E-02  0.13923972578E-01  0.00000000000E+00 0.  1.
     999901    1    3    3    0    0 -0.59724270629E-01  0.68476517988E-01  0.10623421643E+00  0.89103407946E+00  0.88000000000E+00 0.  1.
        -11    1    4    4    0    0  0.31078210319E-01 -0.56796075037E-01 -0.48917015065E-01  0.81146686810E-01  0.51100000000E-03 0.  1.
         11    1    4    4    0    0  0.15318110680E-01 -0.82906428088E-02 -0.55137287142E-01  0.57825261153E-01  0.51100000000E-03 0. -1.
</event>
<event>
 8    1  0.2927513E+004  0.1043930E+01  0.7957747E-01            NaN
         13   -1    0    0    0    0  0.00000000000E+00  0.00000000000E+00  0.74505805969E-08  0.10566000000E+00  0.10566000000E+00 0.  1.
     999900   -1    0    0    0    0 -0.00000000000E+00 -0.00000000000E+00 -0.74505805969E-08  0.93827000000E+00  0.93827000000E+00 0. -1.
     999902    2    1    2    0    0 -0.20881542738E-02  0.38688383515E-02  0.10777511891E-01  0.10322902809E+01  0.10322246562E+01 0.  0.
     999903    2    3    3    0    0 -0.35358360867E-01 -0.96508936254E-01  0.88091251101E-01  0.14259369297E+00  0.44818570864E-01 0.  0.
         14    1    1    2    0    0  0.20881542738E-02 -0.38688383515E-02 -0.10777511891E-01  0.11639719112E-01  0.00000000000E+00 0. -1.
     999901    1    3    3    0    0  0.33270206593E-01  0.10037777461E+00 -0.77313739210E-01  0.88969658792E+00  0.88000000000E+00 0. -1.
        -11    1    4    4    0    0 -0.11863555347E-01 -0.19060199638E-01  0.46405936797E-01  0.51553925619E-01  0.51100000000E-03 0. -1.
         11    1    4    4    0    0 -0.23494805520E-01 -0.77448736615E-01  0.41685314304E-01  0.91039767351E-01  0.51100000000E-03 0.  1.
</event>
<event>
 8    1  0.2927513E+004  0.1043930E+01  0.7957747E-01            NaN
         13   -1    0    0    0    0  0.00000000000E+00  0.00000000000E+00  0.74505805969E-08  0.10566000000E+00  0.10566000000E+00 0. -1.
     999900   -1    0    0    0    0 -0.00000000000E+00 -0.00000000000E+00 -0.74505805969E-08  0.93827000000E+00  0.93827000000E+00 0. -1.
     999902    2    1    2    0    0 -0.19096611409E-01 -0.13820585262E-02 -0.65928393491E-02  0.10236801560E+01  0.10234798511E+01 0.  0.
     999903    2    3    3    0    0 -0.10670404607E+00 -0.69763250965E-01 -0.18696049374E-01  0.13660770244E+00  0.45381245815E-01 0.  0.
         14    1    1    2    0    0  0.19096611409E-01  0.13820585262E-02  0.65928393491E-02  0.20249844043E-01  0.00000000000E+00 0. -1.
     999901    1    3    3    0    0  0.87607434663E-01  0.68381192439E-01  0.12103210025E-01  0.88707245351E+00  0.88000000000E+00 0.  1.
        -11    1    4    4    0    0 -0.79045766419E-01 -0.36225119475E-01 -0.29482539608E-01  0.91814888403E-01  0.51100000000E-03 0. -1.
         11    1    4    4    0    0 -0.27658279653E-01 -0.33538131490E-01  0.10786490234E-01  0.44792814042E-01  0.51100000000E-03 0.  1.
</event>
<event>
 8    1  0.2927513E+004  0.1043930E+01  0.7957747E-01            NaN
         13   -1    0    0    0    0  0.00000000000E+00  0.00000000000E+00  0.74505805969E-08  0.10566000000E+00  0.10566000000E+00 0. -1.
     999900   -1    0    0    0    0 -0.00000000000E+00 -0.00000000000E+00 -0.74505805969E-08  0.93827000000E+00  0.93827000000E+00 0.  1.
     999902    2    1    2    0    0  0.85228687688E-02 -0.14050638290E-01 -0.10119865668E-01  0.10246304816E+01  0.10244487066E+01 0.  0.
     999903    2    3    3    0    0 -0.83673530480E-01  0.86787045693E-01  0.34559339129E-01  0.13296650574E+00  0.44187019870E-01 0.  0.
         14    1    1    2    0    0 -0.85228687688E-02  0.14050638290E-01  0.10119865668E-01  0.19299518376E-01  0.00000000000E+00 0. -1.
     999901    1    3    3    0    0  0.92196399249E-01 -0.10083768398E+00 -0.44679204797E-01  0.89166397588E+00  0.88000000000E+00 0.  1.
        -11    1    4    4    0    0 -0.54992012063E-01  0.57906983219E-01  0.44002110540E-01  0.91179970110E-01  0.51100000000E-03 0. -1.
         11    1    4    4    0    0 -0.28681518417E-01  0.28880062474E-01 -0.94427714106E-02  0.41786535631E-01  0.51100000000E-03 0.  1.
</event>
<event>
 8    1  0.2927513E+004  0.1043930E+01  0.7957747E-01            NaN
         13   -1    0    0    0    0  0.00000000000E+00  0.00000000000E+00  0.74505805969E-08  0.10566000000E+00  0.10566000000E+00 0.  1.
     999900   -1    0    0    0    0 -0.00000000000E+00 -0.00000000000E+00 -0.74505805969E-08  0.93827000000E+00  0.93827000000E+00 0.  1.
     999902    2    1    2    0    0  0.66536378855E-02  0.13784943768E-01  0.80854988051E-02  0.10266189959E+01  0.10264730352E+01 0.  0.
     999903    2    3    3    0    0 -0.54285417077E-01 -0.95096624653E-01 -0.64421248239E-01  0.13486454948E+00  0.45255662111E-01 0.  0.
         14    1    1    2    0    0 -0.66536378855E-02 -0.13784943768E-01 -0.80854988051E-02  0.17311004093E-01  0.00000000000E+00 0. -1.
     999901    1    3    3    0    0  0.60939054963E-01  0.10888156842E+00  0.72506747044E-01  0.89175444643E+00  0.88000000000E+00 0. -1.
        -11    1    4    4    0    0  0.69274500797E-03 -0.39739387232E-01 -0.14874218711E-01  0.42440573706E-01  0.51100000000E-03 0.  1.
         11    1    4    4    0    0 -0.54978162085E-01 -0.55357237421E-01 -0.49547029528E-01  0.92423975770E-01  0.51100000000E-03 0. -1.
</event>
<event>
 8    1  0.2927513E+004  0.1043930E+01  0.7957747E-01            NaN
         13   -1    0    0    0    0  0.00000000000E+00  0.00000000000E+00  0.74505805969E-08  0.10566000000E+00  0.10566000000E+00 0.  1.
     999900   -1    0    0    0    0 -0.00000000000E+00 -0.00000000000E+00 -0.74505805969E-08  0.93827000000E+00  0.93827000000E+00 0.  1.
     999902    2    1    2    0    0 -0.13245310788E-01  0.10659422423E-02  0.24427099080E-02  0.10304192146E+01  0.10303306345E+01 0.  0.
     999903    2    3    3    0    0  0.10917932628E+00  0.69842853974E-01 -0.21917608390E-01  0.13895329799E+00  0.45049838242E-01 0.  0.
         14    1    1    2    0    0  0.13245310788E-01 -0.10659422423E-02 -0.24427099080E-02  0.13510785411E-01  0.00000000000E+00 0.  1.
     999901    1    3    3    0    0 -0.12242463707E+00 -0.68776911732E-01  0.24360318298E-01  0.89146591660E+00  0.88000000000E+00 0. -1.
        -11    1    4    4    0    0  0.24269737841E-01  0.39155354498E-01 -0.14791981860E-01  0.48386215073E-01  0.51100000000E-03 0. -1.
         11    1    4    4    0    0  0.84909588443E-01  0.30687499476E-01 -0.71256265299E-02  0.90567082917E-01  0.51100000000E-03 0.  1.
</event>
<event>
 7    1  0.2927513E+004  0.1043930E+01  0.7957747E-01            NaN
         13   -1    0    0    0    0  0.00000000000E+00  0.00000000000E+00  0.74505805969E-08  0.10566000000E+00  0.10566000000E+00 0.  1.
     999900   -1    0    0    0    0 -0.00000000000E+00 -0.00000000000E+00 -0.74505805969E-08  0.93827000000E+00  0.93827000000E+00 0.  1.
     999903    2    1    2    0    0 -0.74353821049E-01 -0.76029398547E-02  0.66150423096E-01  0.10999719003E+00  0.46229946347E-01 0.  0.
         14    1    1    2    0    0 -0.99749093370E-02 -0.35914620213E-01 -0.30417399044E-01  0.48110050155E-01  0.00000000000E+00 0. -1.
     999901    1    1    2    0    0  0.84328730386E-01  0.43517560068E-01 -0.35733024052E-01  0.88582275982E+00  0.88000000000E+00 0.  1.
        -11    1    3    3    0    0 -0.26702817778E-01  0.14551668938E-01  0.76565205329E-02  0.31363593127E-01  0.51100000000E-03 0.  1.
         11    1    3    3    0    0 -0.47651003271E-01 -0.22154608793E-01  0.58493902563E-01  0.78633596900E-01  0.51100000000E-03 0. -1.
</event>
<event>
 8    1  0.2927513E+004  0.1043930E+01  0.7957747E-01            NaN
         13   -1    0    0    0    0  0.00000000000E+00  0.00000000000E+00  0.74505805969E-08  0.10566000000E+00  0.10566000000E+00 0. -1.
     999900   -1    0    0    0    0 -0.00000000000E+00 -0.00000000000E+00 -0.74505805969E-08  0.93827000000E+00  0.93827000000E+00 0.  1.
     999902    2    1    2    0    0 -0.41977501831E-02 -0.12030751493E-01  0.31259434165E-02  0.10308101063E+01  0.10307266096E+01 0.  0.
     999903    2    3    3    0    0  0.76521244783E-01  0.94154127941E-01  0.51948527043E-01  0.13942106137E+00  0.44934198345E-01 0.  0.
         14    1    1    2    0    0  0.41977501831E-02  0.12030751493E-01 -0.31259434165E-02  0.13119893686E-01  0.00000000000E+00 0.  1.
     999901    1    3    3    0    0 -0.80718994966E-01 -0.10618487943E+00 -0.48822583627E-01  0.89138904494E+00  0.88000000000E+00 0.  1.
        -11    1    4    4    0    0  0.56966264534E-01  0.34677006942E-01  0.24382052450E-01  0.71009828250E-01  0.51100000000E-03 0.  1.
         11    1    4    4    0    0  0.19554980249E-01  0.59477121000E-01  0.27566474594E-01  0.68411233124E-01  0.51100000000E-03 0. -1.
</event>
<event>
 8    1  0.2927513E+004  0.1043930E+01  0.7957747E-01            NaN
         13   -1    0    0    0    0  0.00000000000E+00  0.00000000000E+00  0.74505805969E-08  0.10566000000E+00  0.10566000000E+00 0.  1.
     999900   -1    0    0    0    0 -0.00000000000E+00 -0.00000000000E+00 -0.74505805969E-08  0.93827000000E+00  0.93827000000E+00 0. -1.
     999902    2    1    2    0    0 -0.80101146584E-03 -0.12371594536E-01 -0.62322797675E-02  0.10300541475E+01  0.10299606825E+01 0.  0.
     999903    2    3    3    0    0  0.12341216651E+00 -0.50776790670E-01 -0.85283071103E-02  0.14049855937E+00  0.43107631010E-01 0.  0.
         14    1    1    2    0    0  0.80101146584E-03  0.12371594536E-01  0.62322797675E-02  0.13875852472E-01  0.00000000000E+00 0. -1.
     999901    1    3    3    0    0 -0.12421317797E+00  0.38405196134E-01  0.22960273428E-02  0.88955558815E+00  0.88000000000E+00 0. -1.
        -11    1    4    4    0    0  0.11910613242E-01  0.23374414396E-02 -0.11816932975E-01  0.16947783520E-01  0.51100000000E-03 0. -1.
         11    1    4    4    0    0  0.11150155327E+00 -0.53114232109E-01  0.32886258652E-02  0.12355077586E+00  0.51100000000E-03 0.  1.
</event>
<event>
 8    1  0.2927513E+004  0.1043930E+01  0.7957747E-01            NaN
         13   -1    0    0    0    0  0.00000000000E+00  0.00000000000E+00  0.74505805969E-08  0.10566000000E+00  0.10566000000E+00 0.  1.
     999900   -1    0    0    0    0 -0.00000000000E+00 -0.00000000000E+00 -0.74505805969E-08  0.93827000000E+00  0.93827000000E+00 0. -1.
     999902    2    1    2    0    0  0.12297816882E-01 -0.65965590241E-02 -0.82276657794E-02  0.10277298341E+01  0.10276021441E+01 0.  0.
     999903    2    3    3    0    0 -0.51255988171E-02  0.27677688658E-01 -0.12847869070E+00  0.13871993063E+00  0.44092164590E-01 0.  0.
         14    1    1    2    0    0 -0.12297816882E-01  0.65965590241E-02  0.82276657794E-02  0.16200165901E-01  0.00000000000E+00 0. -1.
     999901    1    3    3    0    0  0.17423415699E-01 -0.34274247683E-01  0.12025102492E+00  0.88900990347E+00  0.88000000000E+00 0.  1.
        -11    1    4    4    0    0  0.64954230548E-02 -0.72353772290E-02 -0.61782709852E-01  0.62545228131E-01  0.51100000000E-03 0. -1.
         11    1    4    4    0    0 -0.11621021872E-01  0.34913065888E-01 -0.66695980847E-01  0.76174702501E-01  0.51100000000E-03 0.  1.
</event>
<event>
 7    1  0.2927513E+004  0.1043930E+01  0.7957747E-01            NaN
         13   -1    0    0    0    0  0.00000000000E+00  0.00000000000E+00  0.74505805969E-08  0.10566000000E+00  0.10566000000E+00 0. -1.
     999900   -1    0    0    0    0 -0.00000000000E+00 -0.00000000000E+00 -0.74505805969E-08  0.93827000000E+00  0.93827000000E+00 0.  1.
     999903    2    1    2    0    0  0.66986894871E-01 -0.62372513964E-01  0.30447230727E-01  0.10647458128E+00  0.45080239763E-01 0.  0.
         14    1    1    2    0    0 -0.64003655548E-02 -0.14034189959E-01 -0.49517058357E-01  0.51863881800E-01  0.00000000000E+00 0.  1.
     999901    1    1    2    0    0 -0.60586529316E-01  0.76406703923E-01  0.19069827630E-01  0.88559153692E+00  0.88000000000E+00 0. -1.
        -11    1    3    3    0    0  0.17209880603E-01 -0.46714169772E-01  0.13070122971E-01  0.51473127779E-01  0.51100000000E-03 0. -1.
         11    1    3    3    0    0  0.49777014268E-01 -0.15658344193E-01  0.17377107756E-01  0.55001453501E-01  0.51100000000E-03 0.  1.
</event>
<event>
 8    1  0.2927513E+004  0.1043930E+01  0.7957747E-01            NaN
         13   -1    0    0    0    0  0.00000000000E+00  0.00000000000E+00  0.74505805969E-08  0.10566000000E+00  0.10566000000E+00 0. -1.
     999900   -1    0    0    0    0 -0.00000000000E+00 -0.00000000000E+00 -0.74505805969E-08  0.93827000000E+00  0.93827000000E+00 0.  1.
     999902    2    1    2    0    0 -0.93521819018E-02 -0.87525449255E-02  0.53527131167E-02  0.10300475691E+01  0.10299540149E+01 0.  0.
     999903    2    3    3    0    0 -0.11637680345E+00 -0.13737985205E-01  0.62950774800E-01  0.14168015588E+00  0.48766524397E-01 0.  0.
         14    1    1    2    0    0  0.93521819018E-02  0.87525449255E-02 -0.53527131167E-02  0.13882430865E-01  0.00000000000E+00 0.  1.
     999901    1    3    3    0    0  0.10702462155E+00  0.49854402797E-02 -0.57598061683E-01  0.88836741326E+00  0.88000000000E+00 0.  1.
        -11    1    4    4    0    0 -0.61674843141E-01 -0.27708426925E-01  0.19304988031E-01  0.70317045466E-01  0.51100000000E-03 0.  1.
         11    1    4    4    0    0 -0.54701960311E-01  0.13970441719E-01  0.43645786769E-01  0.71363110410E-01  0.51100000000E-03 0. -1.
</event>
<event>
 8    1  0.2927513E+004  0.1043930E+01  0.7957747E-01            NaN
         13   -1    0    0    0    0  0.00000000000E+00  0.00000000000E+00  0.74505805969E-08  0.10566000000E+00  0.10566000000E+00 0.  1.
     999900   -1    0    0    0    0 -0.00000000000E+00 -0.00000000000E+00 -0.74505805969E-08  0.93827000000E+00  0.93827000000E+00 0.  1.
     999902    2    1    2    0    0  0.11156165614E-01 -0.14276064526E-02 -0.70746263818E-02  0.10306428472E+01  0.10305571940E+01 0.  0.
     999903    2    3    3    0    0 -0.13026617602E+00 -0.18374269498E-01  0.93453943744E-04  0.13916158015E+00  0.45376714971E-01 0.  0.
         14    1    1    2    0    0 -0.11156165614E-01  0.14276064526E-02  0.70746263818E-02  0.13287152811E-01  0.00000000000E+00 0. -1.
     999901    1    3    3    0    0  0.14142234164E+00  0.16946663045E-01 -0.71680803255E-02  0.89148126704E+00  0.88000000000E+00 0. -1.
        -11    1    4    4    0    0 -0.27379422972E-01 -0.18610745404E-01 -0.12739578215E-01  0.35476057009E-01  0.51100000000E-03 0.  1.
         11    1    4    4    0    0 -0.10288675305E+00  0.23647590612E-03  0.12833032159E-01  0.10368552314E+00  0.51100000000E-03 0. -1.
</event>
<event>
 8    1  0.2927513E+004  0.1043930E+01  0.7957747E-01            NaN
         13   -1    0    0    0    0  0.00000000000E+00  0.00000000000E+00  0.74505805969E-08  0.10566000000E+00  0.10566000000E+00 0.  1.
     999900   -1    0    0    0    0 -0.00000000000E+00 -0.00000000000E+00 -0.74505805969E-08  0.93827000000E+00  0.93827000000E+00 0.  1.
     999902    2    1    2    0    0 -0.10059619466E-01 -0.87314968767E-02 -0.55341919384E-03  0.10305980364E+01  0.10305118007E+01 0.  0.
     999903    2    3    3    0    0 -0.35772993117E-01 -0.70212656559E-01 -0.10888644201E+00  0.14145397919E+00  0.44084541468E-01 0.  0.
         14    1    1    2    0    0  0.10059619466E-01  0.87314968767E-02  0.55341919384E-03  0.13331963633E-01  0.00000000000E+00 0.  1.
     999901    1    3    3    0    0  0.25713373651E-01  0.61481159682E-01  0.10833302282E+00  0.88914405718E+00  0.88000000000E+00 0. -1.
        -11    1    4    4    0    0  0.97737546470E-02 -0.18148386487E-01 -0.19074722032E-01  0.28089078902E-01  0.51100000000E-03 0. -1.
         11    1    4    4    0    0 -0.45546747764E-01 -0.52064270072E-01 -0.89811719982E-01  0.11336490029E+00  0.51100000000E-03 0.  1.
</event>
<event>
 8    1  0.2927513E+004  0.1043930E+01  0.7957747E-01            NaN
         13   -1    0    0    0    0  0.00000000000E+00  0.00000000000E+00  0.74505805969E-08  0.10566000000E+00  0.10566000000E+00 0.  1.
     999900   -1    0    0    0    0 -0.00000000000E+00 -0.00000000000E+00 -0.74505805969E-08  0.93827000000E+00  0.93827000000E+00 0. -1.
     999902    2    1    2    0    0  0.36620934189E-03 -0.23829509882E-02 -0.13338371827E-01  0.10303754905E+01  0.10302863324E+01 0.  0.
     999903    2    3    3    0    0  0.11938544703E+00 -0.11376222158E-01 -0.59657415057E-01  0.14111067526E+00  0.44394955868E-01 0.  0.
         14    1    1    2    0    0 -0.36620934189E-03  0.23829509882E-02  0.13338371827E-01  0.13554509496E-01  0.00000000000E+00 0.  1.
     999901    1    3    3    0    0 -0.11901923769E+00  0.89932711703E-02  0.46319043230E-01  0.88926481525E+00  0.88000000000E+00 0.  1.
        -11    1    4    4    0    0  0.49990200894E-01  0.11836076723E-01 -0.40634499079E-01  0.65502187246E-01  0.51100000000E-03 0. -1.
         11    1    4    4    0    0  0.69395246140E-01 -0.23212298882E-01 -0.19022915977E-01  0.75608488012E-01  0.51100000000E-03 0.  1.
</event>
<event>
 8    1  0.2927513E+004  0.1043930E+01  0.7957747E-01            NaN
         13   -1    0    0    0    0  0.00000000000E+00  0.00000000000E+00  0.74505805969E-08  0.10566000000E+00  0.10566000000E+00 0. -1.
     999900   -1    0    0    0    0 -0.00000000000E+00 -0.00000000000E+00 -0.74505805969E-08  0.93827000000E+00  0.93827000000E+00 0. -1.
     999902    2    1    2    0    0  0.22227134201E-02 -0.12954040083E-01  0.43027161444E-02  0.10301002865E+01  0.10300074462E+01 0.  0.
     999903    2    3    3    0    0 -0.39557940848E-01 -0.33549328362E-01  0.12313791721E+00  0.14089187786E+00  0.44689892322E-01 0.  0.
         14    1    1    2    0    0 -0.22227134201E-02  0.12954040083E-01 -0.43027161444E-02  0.13829713505E-01  0.00000000000E+00 0. -1.
     999901    1    3    3    0    0  0.41780654268E-01  0.20595288279E-01 -0.11883520106E+00  0.88920840863E+00  0.88000000000E+00 0. -1.
        -11    1    4    4    0    0 -0.42767470685E-01 -0.10415871992E-01  0.91761087545E-01  0.10177379450E+00  0.51100000000E-03 0.  1.
         11    1    4    4    0    0  0.32095298376E-02 -0.23133456370E-01  0.31376829662E-01  0.39118083364E-01  0.51100000000E-03 0. -1.
</event>
<event>
 8    1  0.2927513E+004  0.1043930E+01  0.7957747E-01            NaN
         13   -1    0    0    0    0  0.00000000000E+00  0.00000000000E+00  0.74505805969E-08  0.10566000000E+00  0.10566000000E+00 0. -1.
     999900   -1    0    0    0    0 -0.00000000000E+00 -0.00000000000E+00 -0.74505805969E-08  0.93827000000E+00  0.93827000000E+00 0.  1.
     999902    2    1    2    0    0  0.32385584526E-02 -0.82822721162E-02  0.11284139627E-01  0.10295628117E+01  0.10294625623E+01 0.  0.
     999903    2    3    3    0    0  0.10745556026E+00 -0.35423000915E-01 -0.67905854669E-01  0.13946795282E+00  0.45151061354E-01 0.  0.
         14    1    1    2    0    0 -0.32385584526E-02  0.82822721162E-02 -0.11284139627E-01  0.14367188290E-01  0.00000000000E+00 0.  1.
     999901    1    3    3    0    0 -0.10421700181E+00  0.27140728799E-01  0.79189994296E-01  0.89009485889E+00  0.88000000000E+00 0. -1.
        -11    1    4    4    0    0  0.17625633249E-01 -0.25508227713E-01 -0.12332709450E-01  0.33371986334E-01  0.51100000000E-03 0.  1.
         11    1    4    4    0    0  0.89829927009E-01 -0.99147732012E-02 -0.55573145219E-01  0.10609596649E+00  0.51100000000E-03 0. -1.
</event>
<event>
 8    1  0.2927513E+004  0.1043930E+01  0.7957747E-01            NaN
         13   -1    0    0    0    0  0.00000000000E+00  0.00000000000E+00  0.74505805969E-08  0.10566000000E+00  0.10566000000E+00 0.  1.
     999900   -1    0    0    0    0 -0.00000000000E+00 -0.00000000000E+00 -0.74505805969E-08  0.93827000000E+00  0.93827000000E+00 0. -1.
     999902    2    1    2    0    0  0.81273664303E-02  0.26858142916E-03 -0.12111740544E-01  0.10293416320E+01  0.10292382498E+01 0.  0.
     999903    2    3    3    0    0  0.83885449683E-01 -0.10267138165E+00  0.13288061720E-01  0.13974561521E+00  0.42119865965E-01 0.  0.
         14    1    1    2    0    0 -0.81273664303E-02 -0.26858142916E-03  0.12111740544E-01  0.14588367971E-01  0.00000000000E+00 0.  1.
     999901    1    3    3    0    0 -0.75758083252E-01  0.10293996308E+00 -0.25399802264E-01  0.88959601681E+00  0.88000000000E+00 0. -1.
        -11    1    4    4    0    0  0.65784342231E-01 -0.10002953923E+00  0.54785937579E-02  0.11984892370E+00  0.51100000000E-03 0.  1.
         11    1    4    4    0    0  0.18101107452E-01 -0.26418424195E-02  0.78094679625E-02  0.19896691514E-01  0.51100000000E-03 0. -1.
</event>
<event>
 8    1  0.2927513E+004  0.1043930E+01  0.7957747E-01            NaN
         13   -1    0    0    0    0  0.00000000000E+00  0.00000000000E+00  0.74505805969E-08  0.10566000000E+00  0.10566000000E+00 0.  1.
     999900   -1    0    0    0    0 -0.00000000000E+00 -0.00000000000E+00 -0.74505805969E-08  0.93827000000E+00  0.93827000000E+00 0. -1.
     999902    2    1    2    0    0  0.12784408412E-01  0.45900417746E-02 -0.35258661665E-02  0.10298964219E+01  0.10298008053E+01 0.  0.
     999903    2    3    3    0    0  0.11915409825E+00  0.14236552727E-01 -0.60492718418E-01  0.14160998818E+00  0.44650209472E-01 0.  0.
         14    1    1    2    0    0 -0.12784408412E-01 -0.45900417746E-02  0.35258661665E-02  0.14033578096E-01  0.00000000000E+00 0. -1.
     999901    1    3    3    0    0 -0.10636968984E+00 -0.96465109521E-02  0.56966852251E-01  0.88828643373E+00  0.88000000000E+00 0. -1.
        -11    1    4    4    0    0  0.35172654785E-01 -0.57026323043E-02 -0.38651219087E-01  0.52571984153E-01  0.51100000000E-03 0. -1.
         11    1    4    4    0    0  0.83981443466E-01  0.19939185031E-01 -0.21841499331E-01  0.89038004023E-01  0.51100000000E-03 0.  1.
</event>
<event>
 8    1  0.2927513E+004  0.1043930E+01  0.7957747E-01            NaN
         13   -1    0    0    0    0  0.00000000000E+00  0.00000000000E+00  0.74505805969E-08  0.10566000000E+00  0.10566000000E+00 0. -1.
     999900   -1    0    0    0    0 -0.00000000000E+00 -0.00000000000E+00 -0.74505805969E-08  0.93827000000E+00  0.93827000000E+00 0. -1.
     999902    2    1    2    0    0 -0.11971984517E-02 -0.29068231350E-02  0.15717330441E-01  0.10279013575E+01  0.10277763781E+01 0.  0.
     999903    2    3    3    0    0  0.40715572256E-01  0.87610111418E-02  0.12480618689E+00  0.14009890349E+00  0.48131126457E-01 0.  0.
         14    1    1    2    0    0  0.11971984517E-02  0.29068231350E-02 -0.15717330441E-01  0.16028642521E-01  0.00000000000E+00 0.  1.
     999901    1    3    3    0    0 -0.41912770708E-01 -0.11667834277E-01 -0.10908885645E+00  0.88780245399E+00  0.88000000000E+00 0. -1.
        -11    1    4    4    0    0  0.12548097861E-01 -0.18323129187E-01  0.64682491448E-01  0.68390625411E-01  0.51100000000E-03 0.  1.
         11    1    4    4    0    0  0.28167474395E-01  0.27084140329E-01  0.60123695439E-01  0.71708278081E-01  0.51100000000E-03 0. -1.
</event>
<event>
 8    1  0.2927513E+004  0.1043930E+01  0.7957747E-01            NaN
         13   -1    0    0    0    0  0.00000000000E+00  0.00000000000E+00  0.74505805969E-08  0.10566000000E+00  0.10566000000E+00 0.  1.
     999900   -1    0    0    0    0 -0.00000000000E+00 -0.00000000000E+00 -0.74505805969E-08  0.93827000000E+00  0.93827000000E+00 0. -1.
     999902    2    1    2    0    0  0.11207567875E-01  0.81017468036E-02  0.11286364922E-02  0.10300547811E+01  0.10299613247E+01 0.  0.
     999903    2    3    3    0    0  0.49997028475E-01  0.67518313694E-01  0.10386069820E+00  0.14124162460E+00  0.45866396742E-01 0.  0.
         14    1    1    2    0    0 -0.11207567875E-01 -0.81017468036E-02 -0.11286364922E-02  0.13875218891E-01  0.00000000000E+00 0. -1.
     999901    1    3    3    0    0 -0.38789460601E-01 -0.59416566890E-01 -0.10273206171E+00  0.88881315651E+00  0.88000000000E+00 0. -1.
        -11    1    4    4    0    0  0.48172417839E-01  0.33549187722E-01  0.47979372798E-01  0.75818277298E-01  0.51100000000E-03 0. -1.
         11    1    4    4    0    0  0.18246106360E-02  0.33969125972E-01  0.55881325400E-01  0.65423347306E-01  0.51100000000E-03 0.  1.
</event>
<event>
 8    1  0.2927513E+004  0.1043930E+01  0.7957747E-01            NaN
         13   -1    0    0    0    0  0.00000000000E+00  0.00000000000E+00  0.74505805969E-08  0.10566000000E+00  0.10566000000E+00 0.  1.
     999900   -1    0    0    0    0 -0.00000000000E+00 -0.00000000000E+00 -0.74505805969E-08  0.93827000000E+00  0.93827000000E+00 0.  1.
     999902    2    1    2    0    0 -0.18774009114E-02 -0.10402136902E-01  0.99391014729E-02  0.10294208710E+01  0.10293186168E+01 0.  0.
     999903    2    3    3    0    0 -0.76400447148E-01 -0.93109170895E-01 -0.54982376176E-01  0.14003403944E+00  0.45608381710E-01 0.  0.
         14    1    1    2    0    0  0.18774009114E-02  0.10402136902E-01 -0.99391014729E-02  0.14509129002E-01  0.00000000000E+00 0. -1.
     999901    1    3    3    0    0  0.74523046236E-01  0.82707033993E-01  0.64921477649E-01  0.88938683156E+00  0.88000000000E+00 0. -1.
        -11    1    4    4    0    0 -0.42656794295E-01 -0.17859741341E-01 -0.17540119945E-01  0.49461999444E-01  0.51100000000E-03 0. -1.
         11    1    4    4    0    0 -0.33743652853E-01 -0.75249429554E-01 -0.37442256231E-01  0.90572039994E-01  0.51100000000E-03 0.  1.
</event>
<event>
 8    1  0.2927513E+004  0.1043930E+01  0.7957747E-01            NaN
         13   -1    0    0    0    0  0.00000000000E+00  0.00000000000E+00  0.74505805969E-08  0.10566000000E+00  0.10566000000E+00 0.  1.
     999900   -1    0    0    0    0 -0.00000000000E+00 -0.00000000000E+00 -0.74505805969E-08  0.93827000000E+00  0.93827000000E+00 0. -1.
     999902    2    1    2    0    0  0.14870785612E-01 -0.59175355696E-02 -0.17632496778E-02  0.10278282442E+01  0.10277021129E+01 0.  0.
     999903    2    3    3    0    0 -0.40843588686E-01 -0.79360746227E-01  0.94333098099E-01  0.13780998324E+00  0.46114328642E-01 0.  0.
         14    1    1    2    0    0 -0.14870785612E-01  0.59175355696E-02  0.17632496778E-02  0.16101755848E-01  0.00000000000E+00 0.  1.
     999901    1    3    3    0    0  0.55714374299E-01  0.73443210658E-01 -0.96096347777E-01  0.89001826091E+00  0.88000000000E+00 0. -1.
        -11    1    4    4    0    0  0.39277789711E-02 -0.41762983583E-01  0.37351505733E-01  0.56169122718E-01  0.51100000000E-03 0. -1.
         11    1    4    4    0    0 -0.44771367657E-01 -0.37597762644E-01  0.56981592366E-01  0.81640860525E-01  0.51100000000E-03 0.  1.
</event>
<event>
 7    1  0.2927513E+004  0.1043930E+01  0.7957747E-01            NaN
         13   -1    0    0    0    0  0.00000000000E+00  0.00000000000E+00  0.74505805969E-08  0.10566000000E+00  0.10566000000E+00 0.  1.
     999900   -1    0    0    0    0 -0.00000000000E+00 -0.00000000000E+00 -0.74505805969E-08  0.93827000000E+00  0.93827000000E+00 0.  1.
     999902    2    1    2    0    0  0.77042527814E-02 -0.61377809940E-02 -0.75539448005E-02  0.10315167028E+01  0.10314420091E+01 0.  0.
         14    1    1    2    0    0 -0.77042527814E-02  0.61377809940E-02  0.75539448005E-02  0.12413297245E-01  0.00000000000E+00 0.  1.
     999901    1    3    3    0    0 -0.21603001914E-01  0.67980271510E-01 -0.12051651553E+00  0.89107364315E+00  0.88000000000E+00 0.  1.
        -11    1    3    3    0    0  0.89492179267E-03 -0.33901089952E-01  0.51878890226E-01  0.61981974453E-01  0.51100000000E-03 0.  1.
         11    1    3    3    0    0  0.28412332903E-01 -0.40216962551E-01  0.61083680504E-01  0.78461085149E-01  0.51100000000E-03 0. -1.
</event>
<event>
 8    1  0.2927513E+004  0.1043930E+01  0.7957747E-01            NaN
         13   -1    0    0    0    0  0.00000000000E+00  0.00000000000E+00  0.74505805969E-08  0.10566000000E+00  0.10566000000E+00 0. -1.
     999900   -1    0    0    0    0 -0.00000000000E+00 -0.00000000000E+00 -0.74505805969E-08  0.93827000000E+00  0.93827000000E+00 0.  1.
     999902    2    1    2    0    0 -0.17676496070E-02  0.15192273724E-01 -0.35860550384E-02  0.10282204629E+01  0.10281004478E+01 0.  0.
     999903    2    3    3    0    0 -0.34792487854E-01 -0.13670546798E-01  0.12518972385E+00  0.13776726164E+00  0.43702978856E-01 0.  0.
         14    1    1    2    0    0  0.17676496070E-02 -0.15192273724E-01  0.35860550384E-02  0.15709537128E-01  0.00000000000E+00 0. -1.
     999901    1    3    3    0    0  0.33024838247E-01  0.28862820521E-01 -0.12877577889E+00  0.89045320123E+00  0.88000000000E+00 0.  1.
        -11    1    4    4    0    0 -0.20439288879E-01  0.13065433215E-01  0.34841020895E-01  0.42457366062E-01  0.51100000000E-03 0.  1.
         11    1    4    4    0    0 -0.14353198975E-01 -0.26735980012E-01  0.90348702960E-01  0.95309895581E-01  0.51100000000E-03 0. -1.
</event>
<event>
 8    1  0.2927513E+004  0.1043930E+01  0.7957747E-01            NaN
         13   -1    0    0    0    0  0.00000000000E+00  0.00000000000E+00  0.74505805969E-08  0.10566000000E+00  0.10566000000E+00 0.  1.
     999900   -1    0    0    0    0 -0.00000000000E+00 -0.00000000000E+00 -0.74505805969E-08  0.93827000000E+00  0.93827000000E+00 0. -1.
     999902    2    1    2    0    0  0.10707086716E-01 -0.26980073518E-02  0.48744154023E-02  0.10318601667E+01  0.10317895729E+01 0.  0.
     999903    2    3    3    0    0 -0.13093856262E+00  0.44140544021E-02  0.22400144218E-01  0.14033270077E+00  0.45023431523E-01 0.  0.
         14    1    1    2    0    0 -0.10707086716E-01  0.26980073518E-02 -0.48744154023E-02  0.12069833268E-01  0.00000000000E+00 0.  1.
     999901    1    3    3    0    0  0.14164564934E+00 -0.71120617539E-02 -0.17525728815E-01  0.89152746596E+00  0.88000000000E+00 0. -1.
        -11    1    4    4    0    0 -0.85354575987E-01  0.20238377310E-01  0.27191213876E-01  0.91840180700E-01  0.51100000000E-03 0.  1.
         11    1    4    4    0    0 -0.45583986635E-01 -0.15824322908E-01 -0.47910696585E-02  0.48492520067E-01  0.51100000000E-03 0. -1.
</event>
<event>
 8    1  0.2927513E+004  0.1043930E+01  0.7957747E-01            NaN
         13   -1    0    0    0    0  0.00000000000E+00  0.00000000000E+00  0.74505805969E-08  0.10566000000E+00  0.10566000000E+00 0. -1.
     999900   -1    0    0    0    0 -0.00000000000E+00 -0.00000000000E+00 -0.74505805969E-08  0.93827000000E+00  0.93827000000E+00 0.  1.
     999902    2    1    2    0    0 -0.11157895513E-01 -0.25939429575E-02  0.73074926837E-02  0.10303422621E+01  0.10302526634E+01 0.  0.
     999903    2    3    3    0    0 -0.13304569577E+00  0.12035508435E-01 -0.12967639559E-01  0.14158935059E+00  0.45092947346E-01 0.  0.
         14    1    1    2    0    0  0.11157895513E-01  0.25939429575E-02 -0.73074926837E-02  0.13587737916E-01  0.00000000000E+00 0.  1.
     999901    1    3    3    0    0  0.12188780025E+00 -0.14629451393E-01  0.20275132242E-01  0.88875291149E+00  0.88000000000E+00 0. -1.
        -11    1    4    4    0    0 -0.56588895870E-01  0.38473472113E-02 -0.27971186790E-01  0.63243605430E-01  0.51100000000E-03 0. -1.
         11    1    4    4    0    0 -0.76456799895E-01  0.81881612241E-02  0.15003547231E-01  0.78345745162E-01  0.51100000000E-03 0.  1.
</event>
<event>
 8    1  0.2927513E+004  0.1043930E+01  0.7957747E-01            NaN
         13   -1    0    0    0    0  0.00000000000E+00  0.00000000000E+00  0.74505805969E-08  0.10566000000E+00  0.10566000000E+00 0.  1.
     999900   -1    0    0    0    0 -0.00000000000E+00 -0.00000000000E+00 -0.74505805969E-08  0.93827000000E+00  0.93827000000E+00 0.  1.
     999902    2    1    2    0    0 -0.10508282118E-02 -0.91747585837E-02  0.10159703214E-01  0.10302004696E+01  0.10301089785E+01 0.  0.
     999903    2    3    3    0    0  0.15547913802E-01  0.38497435980E-01 -0.12407242707E+00  0.13859157489E+00  0.45715066112E-01 0.  0.
         14    1    1    2    0    0  0.10508282118E-02  0.91747585837E-02 -0.10159703214E-01  0.13729530378E-01  0.00000000000E+00 0. -1.
     999901    1    3    3    0    0 -0.16598742014E-01 -0.47672194564E-01  0.13423213028E+00  0.89160889474E+00  0.88000000000E+00 0. -1.
        -11    1    4    4    0    0  0.75486810766E-02  0.48399245467E-01 -0.10012990074E+00  0.11147074814E+00  0.51100000000E-03 0.  1.
         11    1    4    4    0    0  0.79992327253E-02 -0.99018094866E-02 -0.23942526336E-01  0.27120826751E-01  0.51100000000E-03 0. -1.
</event>
<event>
 8    1  0.2927513E+004  0.1043930E+01  0.7957747E-01            NaN
         13   -1    0    0    0    0  0.00000000000E+00  0.00000000000E+00  0.74505805969E-08  0.10566000000E+00  0.10566000000E+00 0.  1.
     999900   -1    0    0    0    0 -0.00000000000E+00 -0.00000000000E+00 -0.74505805969E-08  0.93827000000E+00  0.93827000000E+00 0. -1.
     999902    2    1    2    0    0 -0.88838868828E-02  0.12718289840E-01 -0.15009351360E-02  0.10283437513E+01  0.10282256268E+01 0.  0.
     999903    2    3    3    0    0 -0.72551325559E-01 -0.99218510671E-01  0.43660675896E-01  0.13782538474E+00  0.44514877936E-01 0.  0.
         14    1    1    2    0    0  0.88838868828E-02 -0.12718289840E-01  0.15009351360E-02  0.15586248711E-01  0.00000000000E+00 0.  1.
     999901    1    3    3    0    0  0.63667438677E-01  0.11193680051E+00 -0.45161611032E-01  0.89051836655E+00  0.88000000000E+00 0. -1.
        -11    1    4    4    0    0 -0.33928395720E-01 -0.21941362087E-01 -0.13086082151E-02  0.40429357932E-01  0.51100000000E-03 0. -1.
         11    1    4    4    0    0 -0.38622929840E-01 -0.77277148584E-01  0.44969284112E-01  0.97396026804E-01  0.51100000000E-03 0.  1.
</event>
<event>
 8    1  0.2927513E+004  0.1043930E+01  0.7957747E-01            NaN
         13   -1    0    0    0    0  0.00000000000E+00  0.00000000000E+00  0.74505805969E-08  0.10566000000E+00  0.10566000000E+00 0. -1.
     999900   -1    0    0    0    0 -0.00000000000E+00 -0.00000000000E+00 -0.74505805969E-08  0.93827000000E+00  0.93827000000E+00 0.  1.
     999902    2    1    2    0    0 -0.10795882599E-01 -0.39495315722E-02 -0.82607750875E-02  0.10297740724E+01  0.10296767696E+01 0.  0.
     999903    2    3    3    0    0 -0.22980246519E-01 -0.94433098408E-01  0.89860384447E-01  0.13962605296E+00  0.44439218796E-01 0.  0.
         14    1    1    2    0    0  0.10795882599E-01  0.39495315722E-02  0.82607750875E-02  0.14155927585E-01  0.00000000000E+00 0.  1.
     999901    1    3    3    0    0  0.12184363919E-01  0.90483566836E-01 -0.98121159535E-01  0.89014801946E+00  0.88000000000E+00 0.  1.
        -11    1    4    4    0    0 -0.34820249621E-01 -0.52397949390E-01  0.57952983779E-01  0.85538320850E-01  0.51100000000E-03 0.  1.
         11    1    4    4    0    0  0.11840003102E-01 -0.42035149018E-01  0.31907400669E-01  0.54087732110E-01  0.51100000000E-03 0. -1.
</event>
<event>
 8    1  0.2927513E+004  0.1043930E+01  0.7957747E-01            NaN
         13   -1    0    0    0    0  0.00000000000E+00  0.00000000000E+00  0.74505805969E-08  0.10566000000E+00  0.10566000000E+00 0. -1.
     999900   -1    0    0    0    0 -0.00000000000E+00 -0.00000000000E+00 -0.74505805969E-08  0.93827000000E+00  0.93827000000E+00 0.  1.
     999902    2    1    2    0    0 -0.71392262525E-02 -0.10296756332E-01  0.48934920850E-02  0.10304786801E+01  0.10303908832E+01 0.  0.
     999903    2    3    3    0    0  0.52539413428E-01  0.34795812692E-01 -0.11587238335E+00  0.13908691634E+00  0.44131876572E-01 0.  0.
         14    1    1    2    0    0  0.71392262525E-02  0.10296756332E-01 -0.48934920850E-02  0.13451319906E-01  0.00000000000E+00 0.  1.
     999901    1    3    3    0    0 -0.59678639681E-01 -0.45092569023E-01  0.12076587544E+00  0.89139176375E+00  0.88000000000E+00 0. -1.
        -11    1    4    4    0    0  0.57543212728E-01  0.34145244715E-01 -0.86914441721E-01  0.10968819612E+00  0.51100000000E-03 0. -1.
         11    1    4    4    0    0 -0.50037993000E-02  0.65056797642E-03 -0.28957941630E-01  0.29398720220E-01  0.51100000000E-03 0.  1.
</event>
<event>
 8    1  0.2927513E+004  0.1043930E+01  0.7957747E-01            NaN
         13   -1    0    0    0    0  0.00000000000E+00  0.00000000000E+00  0.74505805969E-08  0.10566000000E+00  0.10566000000E+00 0.  1.
     999900   -1    0    0    0    0 -0.00000000000E+00 -0.00000000000E+00 -0.74505805969E-08  0.93827000000E+00  0.93827000000E+00 0.  1.
     999902    2    1    2    0    0  0.15122038134E-01 -0.17640296763E-02  0.12396375931E-02  0.10286550355E+01  0.10285416169E+01 0.  0.
     999903    2    3    3    0    0  0.48348841709E-01 -0.13019302501E-01  0.12189740020E+00  0.13972928086E+00  0.46456248492E-01 0.  0.
         14    1    1    2    0    0 -0.15122038134E-01  0.17640296763E-02 -0.12396375931E-02  0.15274964464E-01  0.00000000000E+00 0. -1.
     999901    1    3    3    0    0 -0.33226803575E-01  0.11255272825E-01 -0.12065776260E+00  0.88892575467E+00  0.88000000000E+00 0.  1.
        -11    1    4    4    0    0  0.48565283632E-02 -0.23102850896E-01  0.39892273862E-01  0.46357116198E-01  0.51100000000E-03 0.  1.
         11    1    4    4    0    0  0.43492313346E-01  0.10083548395E-01  0.82005126334E-01  0.93372164666E-01  0.51100000000E-03 0. -1.
</event>
<event>
 8    1  0.2927513E+004  0.1043930E+01  0.7957747E-01            NaN
         13   -1    0    0    0    0  0.00000000000E+00  0.00000000000E+00  0.74505805969E-08  0.10566000000E+00  0.10566000000E+00 0.  1.
     999900   -1    0    0    0    0 -0.00000000000E+00 -0.00000000000E+00 -0.74505805969E-08  0.93827000000E+00  0.93827000000E+00 0.  1.
     999902    2    1    2    0    0 -0.88023772406E-02 -0.99486738841E-02  0.87405289032E-03  0.10306175274E+01  0.10305315453E+01 0.  0.
     999903    2    3    3    0    0  0.10056689176E+00 -0.63548764025E-01  0.59360081256E-01  0.14030565951E+00  0.44832061255E-01 0.  0.
         14    1    1    2    0    0  0.88023772406E-02  0.99486738841E-02 -0.87405289032E-03  0.13312472557E-01  0.00000000000E+00 0. -1.
     999901    1    3    3    0    0 -0.10936926900E+00  0.53600090141E-01 -0.58486028365E-01  0.89031186793E+00  0.88000000000E+00 0. -1.
        -11    1    4    4    0    0  0.43052337749E-01 -0.53303564130E-01  0.28236437850E-01  0.74110264323E-01  0.51100000000E-03 0. -1.
         11    1    4    4    0    0  0.57514554013E-01 -0.10245199895E-01  0.31123643406E-01  0.66195395188E-01  0.51100000000E-03 0.  1.
</event>
<event>
 8    1  0.2927513E+004  0.1043930E+01  0.7957747E-01            NaN
         13   -1    0    0    0    0  0.00000000000E+00  0.00000000000E+00  0.74505805969E-08  0.10566000000E+00  0.10566000000E+00 0. -1.
     999900   -1    0    0    0    0 -0.00000000000E+00 -0.00000000000E+00 -0.74505805969E-08  0.93827000000E+00  0.93827000000E+00 0. -1.
     999902    2    1    2    0    0 -0.11603840139E-02  0.13087407371E-02 -0.14151470347E-01  0.10296708483E+01  0.10295721114E+01 0.  0.
     999903    2    3    3    0    0 -0.17582455263E-01  0.12637018662E+00  0.32839791996E-01  0.13943591956E+00  0.45665708405E-01 0.  0.
         14    1    1    2    0    0  0.11603840139E-02 -0.13087407371E-02  0.14151470347E-01  0.14259151670E-01  0.00000000000E+00 0. -1.
     999901    1    3    3    0    0  0.16422071249E-01 -0.12506144589E+00 -0.46991262342E-01  0.89023492877E+00  0.88000000000E+00 0. -1.
        -11    1    4    4    0    0 -0.64550314836E-02  0.12238591174E+00  0.34895989868E-01  0.12742829377E+00  0.51100000000E-03 0.  1.
         11    1    4    4    0    0 -0.11127423779E-01  0.39842748845E-02 -0.20561978726E-02  0.12007625786E-01  0.51100000000E-03 0. -1.
</event>
<event>
 8    1  0.2927513E+004  0.1043930E+01  0.7957747E-01            NaN
         13   -1    0    0    0    0  0.00000000000E+00  0.00000000000E+00  0.74505805969E-08  0.10566000000E+00  0.10566000000E+00 0. -1.
     999900   -1    0    0    0    0 -0.00000000000E+00 -0.00000000000E+00 -0.74505805969E-08  0.93827000000E+00  0.93827000000E+00 0. -1.
     999902    2    1    2    0    0 -0.13712185203E-02 -0.10252964322E-01  0.10107320001E-01  0.10294675854E+01  0.10293659932E+01 0.  0.
     999903    2    3    3    0    0  0.83594523422E-01 -0.96847369753E-01 -0.35881570587E-01  0.13995493998E+00  0.43959535287E-01 0.  0.
         14    1    1    2    0    0  0.13712185203E-02  0.10252964322E-01 -0.10107320001E-01  0.14462414571E-01  0.00000000000E+00 0.  1.
     999901    1    3    3    0    0 -0.84965741943E-01  0.86594405431E-01  0.45988890589E-01  0.88951264545E+00  0.88000000000E+00 0.  1.
        -11    1    4    4    0    0  0.32918730797E-01 -0.33157302275E-01 -0.35298965190E-01  0.58560461029E-01  0.51100000000E-03 0. -1.
         11    1    4    4    0    0  0.50675792625E-01 -0.63690067478E-01 -0.58260539695E-03  0.81394478951E-01  0.51100000000E-03 0.  1.
</event>
<event>
 8    1  0.2927513E+004  0.1043930E+01  0.7957747E-01            NaN
         13   -1    0    0    0    0  0.00000000000E+00  0.00000000000E+00  0.74505805969E-08  0.10566000000E+00  0.10566000000E+00 0.  1.
     999900   -1    0    0    0    0 -0.00000000000E+00 -0.00000000000E+00 -0.74505805969E-08  0.93827000000E+00  0.93827000000E+00 0. -1.
     999902    2    1    2    0    0 -0.15724886640E-02  0.13443417245E-01  0.31919906528E-02  0.10300236348E+01  0.10299297555E+01 0.  0.
     999903    2    3    3    0    0 -0.82433722069E-01  0.90576838545E-02 -0.10339460813E+00  0.13990090354E+00  0.44771169856E-01 0.  0.
         14    1    1    2    0    0  0.15724886640E-02 -0.13443417245E-01 -0.31919906528E-02  0.13906365167E-01  0.00000000000E+00 0.  1.
     999901    1    3    3    0    0  0.80861233405E-01  0.43857333908E-02  0.10658659878E+00  0.89012273129E+00  0.88000000000E+00 0.  1.
        -11    1    4    4    0    0 -0.59931334058E-01  0.89678736448E-02 -0.39955542845E-01  0.72587148206E-01  0.51100000000E-03 0.  1.
         11    1    4    4    0    0 -0.22502388011E-01  0.89810209733E-04 -0.63439065284E-01  0.67313755334E-01  0.51100000000E-03 0. -1.
</event>
<event>
 8    1  0.2927513E+004  0.1043930E+01  0.7957747E-01            NaN
         13   -1    0    0    0    0  0.00000000000E+00  0.00000000000E+00  0.74505805969E-08  0.10566000000E+00  0.10566000000E+00 0.  1.
     999900   -1    0    0    0    0 -0.00000000000E+00 -0.00000000000E+00 -0.74505805969E-08  0.93827000000E+00  0.93827000000E+00 0.  1.
     999902    2    1    2    0    0 -0.51397730220E-02  0.57587367248E-02 -0.73713773160E-02  0.10332567850E+01  0.10332016580E+01 0.  0.
     999903    2    3    3    0    0  0.31508472610E-01  0.68088933672E-01  0.11206932092E+00  0.14224936203E+00  0.45237833394E-01 0.  0.
         14    1    1    2    0    0  0.51397730220E-02 -0.57587367248E-02  0.73713773160E-02  0.10673215023E-01  0.00000000000E+00 0.  1.
     999901    1    3    3    0    0 -0.36648245632E-01 -0.62330196947E-01 -0.11944069824E+00  0.89100742295E+00  0.88000000000E+00 0.  1.
        -11    1    4    4    0    0  0.30978479927E-01  0.69543255179E-01  0.81094882958E-01  0.11123206248E+00  0.51100000000E-03 0.  1.
         11    1    4    4    0    0  0.52999268362E-03 -0.14543215072E-02  0.30974437963E-01  0.31017299551E-01  0.51100000000E-03 0. -1.
</event>
<event>
 7    1  0.2927513E+004  0.1043930E+01  0.7957747E-01            NaN
         13   -1    0    0    0    0  0.00000000000E+00  0.00000000000E+00  0.74505805969E-08  0.10566000000E+00  0.10566000000E+00 0. -1.
     999900   -1    0    0    0    0 -0.00000000000E+00 -0.00000000000E+00 -0.74505805969E-08  0.93827000000E+00  0.93827000000E+00 0. -1.
     999903    2    1    2    0    0  0.38181469729E-01  0.94169529945E-01 -0.16376146193E-01  0.11222320939E+00  0.44722986941E-01 0.  0.
         14    1    1    2    0    0  0.28661323710E-01 -0.24972424665E-01  0.26612779840E-01  0.46404024839E-01  0.00000000000E+00 0. -1.
     999901    1    1    2    0    0 -0.66842793439E-01 -0.69197105281E-01 -0.10236633647E-01  0.88530276577E+00  0.88000000000E+00 0. -1.
        -11    1    3    3    0    0  0.33387749635E-01  0.60982770244E-01  0.90855520969E-02  0.70117390640E-01  0.51100000000E-03 0.  1.
         11    1    3    3    0    0  0.47937200944E-02  0.33186759702E-01 -0.25461698289E-01  0.42105818750E-01  0.51100000000E-03 0. -1.
</event>
<event>
 8    1  0.2927513E+004  0.1043930E+01  0.7957747E-01            NaN
         13   -1    0    0    0    0  0.00000000000E+00  0.00000000000E+00  0.74505805969E-08  0.10566000000E+00  0.10566000000E+00 0. -1.
     999900   -1    0    0    0    0 -0.00000000000E+00 -0.00000000000E+00 -0.74505805969E-08  0.93827000000E+00  0.93827000000E+00 0. -1.
     999902    2    1    2    0    0  0.86634605035E-03  0.12458693566E-01  0.57332791744E-02  0.10301880900E+01  0.10300964327E+01 0.  0.
     999903    2    3    3    0    0  0.10024279006E+00 -0.81007076560E-01  0.28539549524E-01  0.13938415321E+00  0.44751233137E-01 0.  0.
         14    1    1    2    0    0 -0.86634605035E-03 -0.12458693566E-01 -0.57332791744E-02  0.13741910018E-01  0.00000000000E+00 0.  1.
     999901    1    3    3    0    0 -0.99376444005E-01  0.93465770125E-01 -0.22806270350E-01  0.89080393678E+00  0.88000000000E+00 0. -1.
        -11    1    4    4    0    0  0.25267158685E-01 -0.48443921717E-01  0.96240190017E-02  0.55480859060E-01  0.51100000000E-03 0.  1.
         11    1    4    4    0    0  0.74975631370E-01 -0.32563154843E-01  0.18915530522E-01  0.83903294146E-01  0.51100000000E-03 0. -1.
</event>
<event>
 8    1  0.2927513E+004  0.1043930E+01  0.7957747E-01            NaN
         13   -1    0    0    0    0  0.00000000000E+00  0.00000000000E+00  0.74505805969E-08  0.10566000000E+00  0.10566000000E+00 0.  1.
     999900   -1    0    0    0    0 -0.00000000000E+00 -0.00000000000E+00 -0.74505805969E-08  0.93827000000E+00  0.93827000000E+00 0. -1.
     999902    2    1    2    0    0 -0.48763038266E-02  0.27175303566E-02  0.10598008470E-01  0.10319516406E+01  0.10318821190E+01 0.  0.
     999903    2    3    3    0    0  0.67673439182E-01  0.49155047551E-01 -0.10305964850E+00  0.14047086616E+00  0.45987607245E-01 0.  0.
         14    1    1    2    0    0  0.48763038266E-02 -0.27175303566E-02 -0.10598008470E-01  0.11978359394E-01  0.00000000000E+00 0. -1.
     999901    1    3    3    0    0 -0.72549743008E-01 -0.46437517194E-01  0.11365765697E+00  0.89148077444E+00  0.88000000000E+00 0.  1.
        -11    1    4    4    0    0 -0.66273393259E-02  0.65339247213E-02 -0.14704318968E-01  0.17409535207E-01  0.51100000000E-03 0.  1.
         11    1    4    4    0    0  0.74300778507E-01  0.42621122830E-01 -0.88355329536E-01  0.12306133096E+00  0.51100000000E-03 0. -1.
</event>
<event>
 8    1  0.2927513E+004  0.1043930E+01  0.7957747E-01            NaN
         13   -1    0    0    0    0  0.00000000000E+00  0.00000000000E+00  0.74505805969E-08  0.10566000000E+00  0.10566000000E+00 0.  1.
     999900   -1    0    0    0    0 -0.00000000000E+00 -0.00000000000E+00 -0.74505805969E-08  0.93827000000E+00  0.93827000000E+00 0.  1.
     999902    2    1    2    0    0  0.60418652072E-02 -0.11761180242E-01  0.37426972864E-02  0.10301881923E+01  0.10300965364E+01 0.  0.
     999903    2    3    3    0    0  0.35498570307E-01  0.60128747654E-01  0.11287073265E+00  0.14005068196E+00  0.44707677640E-01 0.  0.
         14    1    1    2    0    0 -0.60418652072E-02  0.11761180242E-01 -0.37426972864E-02  0.13741807699E-01  0.00000000000E+00 0.  1.
     999901    1    3    3    0    0 -0.29456705100E-01 -0.71889927895E-01 -0.10912803537E+00  0.89013751034E+00  0.88000000000E+00 0.  1.
        -11    1    4    4    0    0  0.17129013151E-01  0.61176264483E-01  0.77809429289E-01  0.10045151485E+00  0.51100000000E-03 0. -1.
         11    1    4    4    0    0  0.18369557156E-01 -0.10475168293E-02  0.35061303366E-01  0.39599167117E-01  0.51100000000E-03 0.  1.
</event>
<event>
 8    1  0.2927513E+004  0.1043930E+01  0.7957747E-01            NaN
         13   -1    0    0    0    0  0.00000000000E+00  0.00000000000E+00  0.74505805969E-08  0.10566000000E+00  0.10566000000E+00 0. -1.
     999900   -1    0    0    0    0 -0.00000000000E+00 -0.00000000000E+00 -0.74505805969E-08  0.93827000000E+00  0.93827000000E+00 0. -1.
     999902    2    1    2    0    0 -0.12591843834E-01 -0.23404095607E-02 -0.31860801725E-03  0.10311185380E+01  0.10310389449E+01 0.  0.
     999903    2    3    3    0    0  0.11925852175E+00 -0.99104755714E-03 -0.56417172060E-01  0.13952816759E+00  0.45405231671E-01 0.  0.
         14    1    1    2    0    0  0.12591843834E-01  0.23404095607E-02  0.31860801725E-03  0.12811462021E-01  0.00000000000E+00 0.  1.
     999901    1    3    3    0    0 -0.13185036558E+00 -0.13493620036E-02  0.56098564043E-01  0.89159037039E+00  0.88000000000E+00 0.  1.
        -11    1    4    4    0    0  0.61219090227E-01  0.10705691780E-01 -0.50394526500E-01  0.80014112923E-01  0.51100000000E-03 0.  1.
         11    1    4    4    0    0  0.58039431521E-01 -0.11696739337E-01 -0.60226455599E-02  0.59514054667E-01  0.51100000000E-03 0. -1.
</event>
<event>
 8    1  0.2927513E+004  0.1043930E+01  0.7957747E-01            NaN
         13   -1    0    0    0    0  0.00000000000E+00  0.00000000000E+00  0.74505805969E-08  0.10566000000E+00  0.10566000000E+00 0. -1.
     999900   -1    0    0    0    0 -0.00000000000E+00 -0.00000000000E+00 -0.74505805969E-08  0.93827000000E+00  0.93827000000E+00 0.  1.
     999902    2    1    2    0    0 -0.41763256577E-02  0.70735918340E-03 -0.12945660303E-01  0.10303089804E+01  0.10302189394E+01 0.  0.
     999903    2    3    3    0    0 -0.89945828720E-03 -0.28954439979E-01  0.12729607148E+00  0.13870463797E+00  0.46856356667E-01 0.  0.
         14    1    1    2    0    0  0.41763256577E-02 -0.70735918340E-03  0.12945660303E-01  0.13621019554E-01  0.00000000000E+00 0. -1.
     999901    1    3    3    0    0 -0.32768673705E-02  0.29661799162E-01 -0.14024173178E+00  0.89160434248E+00  0.88000000000E+00 0.  1.
        -11    1    4    4    0    0 -0.80602854902E-02  0.91334142508E-02  0.12158646861E-01  0.17218631553E-01  0.51100000000E-03 0. -1.
         11    1    4    4    0    0  0.71608272030E-02 -0.38087854230E-01  0.11513742462E+00  0.12148600642E+00  0.51100000000E-03 0.  1.
</event>
<event>
 8    1  0.2927513E+004  0.1043930E+01  0.7957747E-01            NaN
         13   -1    0    0    0    0  0.00000000000E+00  0.00000000000E+00  0.74505805969E-08  0.10566000000E+00  0.10566000000E+00 0. -1.
     999900   -1    0    0    0    0 -0.00000000000E+00 -0.00000000000E+00 -0.74505805969E-08  0.93827000000E+00  0.93827000000E+00 0. -1.
     999902    2    1    2    0    0 -0.61679126988E-02  0.10795317000E-01 -0.50718174110E-02  0.10305022173E+01  0.10304147294E+01 0.  0.
     999903    2    3    3    0    0  0.65519921614E-01 -0.46855431590E-01 -0.10514844266E+00  0.14006519802E+00  0.45538698963E-01 0.  0.
         14    1    1    2    0    0  0.61679126988E-02 -0.10795317000E-01  0.50718174110E-02  0.13427782692E-01  0.00000000000E+00 0. -1.
     999901    1    3    3    0    0 -0.71687834312E-01  0.57650748590E-01  0.10007662525E+00  0.89043701929E+00  0.88000000000E+00 0.  1.
        -11    1    4    4    0    0  0.17385933472E-01 -0.13451881570E-01 -0.28451619193E-02  0.22171600479E-01  0.51100000000E-03 0. -1.
         11    1    4    4    0    0  0.48133988142E-01 -0.33403550020E-01 -0.10230328074E+00  0.11789359754E+00  0.51100000000E-03 0.  1.
</event>
<event>
 8    1  0.2927513E+004  0.1043930E+01  0.7957747E-01            NaN
         13   -1    0    0    0    0  0.00000000000E+00  0.00000000000E+00  0.74505805969E-08  0.10566000000E+00  0.10566000000E+00 0.  1.
     999900   -1    0    0    0    0 -0.00000000000E+00 -0.00000000000E+00 -0.74505805969E-08  0.93827000000E+00  0.93827000000E+00 0.  1.
     999902    2    1    2    0    0  0.15421016098E-02  0.44050836274E-02 -0.12062485450E-01  0.10309960758E+01  0.10309149441E+01 0.  0.
     999903    2    3    3    0    0 -0.62582663402E-01 -0.11423089133E+00  0.24748856949E-01  0.13996209501E+00  0.44850817469E-01 0.  0.
         14    1    1    2    0    0 -0.15421016098E-02 -0.44050836274E-02  0.12062485450E-01  0.12933924168E-01  0.00000000000E+00 0.  1.
     999901    1    3    3    0    0  0.64124765012E-01  0.11863597496E+00 -0.36811342399E-01  0.89103398082E+00  0.88000000000E+00 0.  1.
        -11    1    4    4    0    0 -0.41368807986E-01 -0.30856651825E-01  0.65460593132E-02  0.52025217439E-01  0.51100000000E-03 0. -1.
         11    1    4    4    0    0 -0.21213855416E-01 -0.83374239507E-01  0.18202797635E-01  0.87936877575E-01  0.51100000000E-03 0.  1.
</event>
<event>
 8    1  0.2927513E+004  0.1043930E+01  0.7957747E-01            NaN
         13   -1    0    0    0    0  0.00000000000E+00  0.00000000000E+00  0.74505805969E-08  0.10566000000E+00  0.10566000000E+00 0. -1.
     999900   -1    0    0    0    0 -0.00000000000E+00 -0.00000000000E+00 -0.74505805969E-08  0.93827000000E+00  0.93827000000E+00 0. -1.
     999902    2    1    2    0    0 -0.11492953408E-01 -0.61030696718E-02  0.52914775219E-02  0.10298823962E+01  0.10297865871E+01 0.  0.
     999903    2    3    3    0    0 -0.11267858065E+00  0.61220887349E-01 -0.36116073362E-01  0.14056488733E+00  0.44829200430E-01 0.  0.
         14    1    1    2    0    0  0.11492953408E-01  0.61030696718E-02 -0.52914775219E-02  0.14047603775E-01  0.00000000000E+00 0.  1.
     999901    1    3    3    0    0  0.10118562724E+00 -0.67323957021E-01  0.41407550884E-01  0.88931750889E+00  0.88000000000E+00 0. -1.
        -11    1    4    4    0    0 -0.89035878599E-01  0.42613953096E-01 -0.74257901702E-02  0.98988585994E-01  0.51100000000E-03 0. -1.
         11    1    4    4    0    0 -0.23642702050E-01  0.18606934253E-01 -0.28690283192E-01  0.41576301341E-01  0.51100000000E-03 0.  1.
</event>
<event>
 8    1  0.2927513E+004  0.1043930E+01  0.7957747E-01            NaN
         13   -1    0    0    0    0  0.00000000000E+00  0.00000000000E+00  0.74505805969E-08  0.10566000000E+00  0.10566000000E+00 0. -1.
     999900   -1    0    0    0    0 -0.00000000000E+00 -0.00000000000E+00 -0.74505805969E-08  0.93827000000E+00  0.93827000000E+00 0. -1.
     999902    2    1    2    0    0 -0.88383139643E-02 -0.10130474948E-01  0.30381203160E-03  0.10304825237E+01  0.10303947773E+01 0.  0.
     999903    2    3    3    0    0  0.93085004434E-01  0.92071848664E-01 -0.97339644953E-02  0.13866727675E+00  0.44629813005E-01 0.  0.
         14    1    1    2    0    0  0.88383139643E-02  0.10130474948E-01 -0.30381203160E-03  0.13447476275E-01  0.00000000000E+00 0. -1.
     999901    1    3    3    0    0 -0.10192331840E+00 -0.10220232361E+00  0.10037776527E-01  0.89181524698E+00  0.88000000000E+00 0.  1.
        -11    1    4    4    0    0  0.64445958949E-01  0.50947830496E-01  0.13792849904E-01  0.83303462632E-01  0.51100000000E-03 0.  1.
         11    1    4    4    0    0  0.28639045485E-01  0.41124018168E-01 -0.23526814399E-01  0.55363814115E-01  0.51100000000E-03 0. -1.
</event>
<event>
 8    1  0.2927513E+004  0.1043930E+01  0.7957747E-01            NaN
         13   -1    0    0    0    0  0.00000000000E+00  0.00000000000E+00  0.74505805969E-08  0.10566000000E+00  0.10566000000E+00 0.  1.
     999900   -1    0    0    0    0 -0.00000000000E+00 -0.00000000000E+00 -0.74505805969E-08  0.93827000000E+00  0.93827000000E+00 0. -1.
     999902    2    1    2    0    0  0.15287497870E-01  0.37381352737E-02  0.26238028205E-02  0.10279748884E+01  0.10278510619E+01 0.  0.
     999903    2    3    3    0    0  0.17858722222E-01 -0.94140780666E-01 -0.88329904028E-01  0.13788530288E+00  0.45041805697E-01 0.  0.
         14    1    1    2    0    0 -0.15287497870E-01 -0.37381352737E-02 -0.26238028205E-02  0.15955111647E-01  0.00000000000E+00 0. -1.
     999901    1    3    3    0    0 -0.25712243518E-02  0.97878915940E-01  0.90953706848E-01  0.89008958547E+00  0.88000000000E+00 0.  1.
        -11    1    4    4    0    0  0.14460644566E-01 -0.88417954558E-01 -0.57768751627E-01  0.10660363369E+00  0.51100000000E-03 0. -1.
         11    1    4    4    0    0  0.33980776558E-02 -0.57228261086E-02 -0.30561152401E-01  0.31281669193E-01  0.51100000000E-03 0.  1.
</event>
<event>
 8    1  0.2927513E+004  0.1043930E+01  0.7957747E-01            NaN
         13   -1    0    0    0    0  0.00000000000E+00  0.00000000000E+00  0.74505805969E-08  0.10566000000E+00  0.10566000000E+00 0. -1.
     999900   -1    0    0    0    0 -0.00000000000E+00 -0.00000000000E+00 -0.74505805969E-08  0.93827000000E+00  0.93827000000E+00 0.  1.
     999902    2    1    2    0    0 -0.49330909087E-02 -0.10716064665E-01 -0.53413494023E-02  0.10309801181E+01  0.10308987848E+01 0.  0.
     999903    2    3    3    0    0  0.80629007273E-01  0.87182638997E-04  0.10523178251E+00  0.13987743025E+00  0.44619760502E-01 0.  0.
         14    1    1    2    0    0  0.49330909087E-02  0.10716064665E-01  0.53413494023E-02  0.12949881901E-01  0.00000000000E+00 0.  1.
     999901    1    3    3    0    0 -0.85562098182E-01 -0.10803247304E-01 -0.11057313191E+00  0.89110268785E+00  0.88000000000E+00 0.  1.
        -11    1    4    4    0    0  0.18449076567E-01  0.70142339151E-02  0.29307533679E-02  0.19960419332E-01  0.51100000000E-03 0.  1.
         11    1    4    4    0    0  0.62179930706E-01 -0.69270512761E-02  0.10230102914E+00  0.11991701091E+00  0.51100000000E-03 0. -1.
</event>
<event>
 8    1  0.2927513E+004  0.1043930E+01  0.7957747E-01            NaN
         13   -1    0    0    0    0  0.00000000000E+00  0.00000000000E+00  0.74505805969E-08  0.10566000000E+00  0.10566000000E+00 0. -1.
     999900   -1    0    0    0    0 -0.00000000000E+00 -0.00000000000E+00 -0.74505805969E-08  0.93827000000E+00  0.93827000000E+00 0.  1.
     999902    2    1    2    0    0  0.38699114588E-02 -0.31573492005E-02 -0.13601460324E-01  0.10294405282E+01  0.10293385529E+01 0.  0.
     999903    2    3    3    0    0  0.12387298971E+00 -0.43591294256E-01 -0.19933389675E-01  0.14035350437E+00  0.45354687185E-01 0.  0.
         14    1    1    2    0    0 -0.38699114588E-02  0.31573492005E-02  0.13601460324E-01  0.14489471751E-01  0.00000000000E+00 0. -1.
     999901    1    3    3    0    0 -0.12000307825E+00  0.40433945056E-01  0.63319293509E-02  0.88908702388E+00  0.88000000000E+00 0. -1.
        -11    1    4    4    0    0  0.13262379544E-01 -0.21958981111E-01  0.11812869345E-02  0.25685484664E-01  0.51100000000E-03 0. -1.
         11    1    4    4    0    0  0.11061061017E+00 -0.21632313145E-01 -0.21114676609E-01  0.11466801971E+00  0.51100000000E-03 0.  1.
</event>
<event>
 8    1  0.2927513E+004  0.1043930E+01  0.7957747E-01            NaN
         13   -1    0    0    0    0  0.00000000000E+00  0.00000000000E+00  0.74505805969E-08  0.10566000000E+00  0.10566000000E+00 0. -1.
     999900   -1    0    0    0    0 -0.00000000000E+00 -0.00000000000E+00 -0.74505805969E-08  0.93827000000E+00  0.93827000000E+00 0. -1.
     999902    2    1    2    0    0  0.43000730214E-03  0.93972977693E-02 -0.14128240556E-01  0.10269564531E+01  0.10268161741E+01 0.  0.
     999903    2    3    3    0    0 -0.29599400829E-01 -0.31431091330E-01 -0.12370672806E+00  0.13871314885E+00  0.45540587000E-01 0.  0.
         14    1    1    2    0    0 -0.43000730214E-03 -0.93972977693E-02  0.14128240556E-01  0.16973546856E-01  0.00000000000E+00 0. -1.
     999901    1    3    3    0    0  0.30029408131E-01  0.40828389099E-01  0.10957848750E+00  0.88824330430E+00  0.88000000000E+00 0.  1.
        -11    1    4    4    0    0  0.82139448407E-03 -0.28759765294E-01 -0.37584315032E-01  0.47335405841E-01  0.51100000000E-03 0. -1.
         11    1    4    4    0    0 -0.30420795313E-01 -0.26713260355E-02 -0.86122413026E-01  0.91377743005E-01  0.51100000000E-03 0.  1.
</event>
<event>
 8    1  0.2927513E+004  0.1043930E+01  0.7957747E-01            NaN
         13   -1    0    0    0    0  0.00000000000E+00  0.00000000000E+00  0.74505805969E-08  0.10566000000E+00  0.10566000000E+00 0. -1.
     999900   -1    0    0    0    0 -0.00000000000E+00 -0.00000000000E+00 -0.74505805969E-08  0.93827000000E+00  0.93827000000E+00 0.  1.
     999902    2    1    2    0    0 -0.98481000258E-02  0.62644324397E-02  0.35647248956E-02  0.10317260887E+01  0.10316539083E+01 0.  0.
     999903    2    3    3    0    0 -0.17201179836E-01 -0.49432402232E-01 -0.12284785477E+00  0.14091951850E+00  0.45025240650E-01 0.  0.
         14    1    1    2    0    0  0.98481000258E-02 -0.62644324397E-02 -0.35647248956E-02  0.12203911319E-01  0.00000000000E+00 0. -1.
     999901    1    3    3    0    0  0.73530798098E-02  0.55696834672E-01  0.12641257966E+00  0.89080657018E+00  0.88000000000E+00 0. -1.
        -11    1    4    4    0    0  0.63195056267E-02 -0.11536313739E-01 -0.72371110851E-01  0.73558558257E-01  0.51100000000E-03 0. -1.
         11    1    4    4    0    0 -0.23520685462E-01 -0.37896088493E-01 -0.50476743918E-01  0.67360960246E-01  0.51100000000E-03 0.  1.
</event>
<event>
 8    1  0.2927513E+004  0.1043930E+01  0.7957747E-01            NaN
         13   -1    0    0    0    0  0.00000000000E+00  0.00000000000E+00  0.74505805969E-08  0.10566000000E+00  0.10566000000E+00 0. -1.
     999900   -1    0    0    0    0 -0.00000000000E+00 -0.00000000000E+00 -0.74505805969E-08  0.93827000000E+00  0.93827000000E+00 0. -1.
     999902    2    1    2    0    0 -0.19091911865E-02 -0.11915396684E-02 -0.14132399058E-01  0.10296195325E+01  0.10295200786E+01 0.  0.
     999903    2    3    3    0    0 -0.10574652081E+00  0.14646383936E-01 -0.80661739402E-01  0.14087930947E+00  0.44088778712E-01 0.  0.
         14    1    1    2    0    0  0.19091911865E-02  0.11915396684E-02  0.14132399058E-01  0.14310467529E-01  0.00000000000E+00 0. -1.
     999901    1    3    3    0    0  0.10383732962E+00 -0.15837923605E-01  0.66529340344E-01  0.88874022300E+00  0.88000000000E+00 0.  1.
        -11    1    4    4    0    0 -0.39358673255E-01  0.14913972981E-01 -0.87226184399E-02  0.42986939225E-01  0.51100000000E-03 0. -1.
         11    1    4    4    0    0 -0.66387847555E-01 -0.26758904516E-03 -0.71939120962E-01  0.97892370248E-01  0.51100000000E-03 0.  1.
</event>
<event>
 8    1  0.2927513E+004  0.1043930E+01  0.7957747E-01            NaN
         13   -1    0    0    0    0  0.00000000000E+00  0.00000000000E+00  0.74505805969E-08  0.10566000000E+00  0.10566000000E+00 0.  1.
     999900   -1    0    0    0    0 -0.00000000000E+00 -0.00000000000E+00 -0.74505805969E-08  0.93827000000E+00  0.93827000000E+00 0.  1.
     999902    2    1    2    0    0 -0.71772391888E-02  0.87833372773E-02  0.61115289793E-02  0.10310454914E+01  0.10309649823E+01 0.  0.
     999903    2    3    3    0    0 -0.12841664256E+00  0.36511400307E-01 -0.14783367191E-01  0.14205480802E+00  0.46228823232E-01 0.  0.
         14    1    1    2    0    0  0.71772391888E-02 -0.87833372773E-02 -0.61115289793E-02  0.12884508627E-01  0.00000000000E+00 0. -1.
     999901    1    3    3    0    0  0.12123940337E+00 -0.27728063030E-01  0.20894896170E-01  0.88899068336E+00  0.88000000000E+00 0.  1.
        -11    1    4    4    0    0 -0.58797122512E-01  0.29345649419E-01  0.12576184127E-01  0.66908073382E-01  0.51100000000E-03 0.  1.
         11    1    4    4    0    0 -0.69619520044E-01  0.71657508877E-02 -0.27359551317E-01  0.75146734635E-01  0.51100000000E-03 0. -1.
</event>
<event>
 8    1  0.2927513E+004  0.1043930E+01  0.7957747E-01            NaN
         13   -1    0    0    0    0  0.00000000000E+00  0.00000000000E+00  0.74505805969E-08  0.10566000000E+00  0.10566000000E+00 0.  1.
     999900   -1    0    0    0    0 -0.00000000000E+00 -0.00000000000E+00 -0.74505805969E-08  0.93827000000E+00  0.93827000000E+00 0.  1.
     999902    2    1    2    0    0  0.48384589976E-02  0.11678587506E-01  0.10956755996E-01  0.10272012644E+01  0.10270650355E+01 0.  0.
     999903    2    3    3    0    0 -0.56823482849E-01  0.10459059357E+00 -0.55621701341E-01  0.13766906888E+00  0.41120535034E-01 0.  0.
         14    1    1    2    0    0 -0.48384589976E-02 -0.11678587506E-01 -0.10956755996E-01  0.16728735563E-01  0.00000000000E+00 0.  1.
     999901    1    3    3    0    0  0.61661941846E-01 -0.92912006062E-01  0.66578457337E-01  0.88953219555E+00  0.88000000000E+00 0. -1.
        -11    1    4    4    0    0 -0.39042390823E-01  0.81464290286E-01 -0.21665512174E-01  0.92899916102E-01  0.51100000000E-03 0.  1.
         11    1    4    4    0    0 -0.17781092026E-01  0.23126303282E-01 -0.33956189167E-01  0.44769152782E-01  0.51100000000E-03 0. -1.
</event>
<event>
 8    1  0.2927513E+004  0.1043930E+01  0.7957747E-01            NaN
         13   -1    0    0    0    0  0.00000000000E+00  0.00000000000E+00  0.74505805969E-08  0.10566000000E+00  0.10566000000E+00 0.  1.
     999900   -1    0    0    0    0 -0.00000000000E+00 -0.00000000000E+00 -0.74505805969E-08  0.93827000000E+00  0.93827000000E+00 0.  1.
     999902    2    1    2    0    0  0.12371478203E-01  0.43153579168E-02 -0.48208941890E-02  0.10299687390E+01  0.10298741120E+01 0.  0.
     999903    2    3    3    0    0 -0.59642965796E-01  0.71220994834E-01  0.91221066082E-01  0.13930241402E+00  0.49539541573E-01 0.  0.
         14    1    1    2    0    0 -0.12371478203E-01 -0.43153579168E-02  0.48208941890E-02  0.13961260962E-01  0.00000000000E+00 0.  1.
     999901    1    3    3    0    0  0.72014443999E-01 -0.66905636917E-01 -0.96041960271E-01  0.89066632502E+00  0.88000000000E+00 0. -1.
        -11    1    4    4    0    0 -0.14032505300E-01  0.15681931724E-01  0.54857704087E-01  0.58757663383E-01  0.51100000000E-03 0. -1.
         11    1    4    4    0    0 -0.45610460496E-01  0.55539063110E-01  0.36363361995E-01  0.80544750632E-01  0.51100000000E-03 0.  1.
</event>
<event>
 8    1  0.2927513E+004  0.1043930E+01  0.7957747E-01            NaN
         13   -1    0    0    0    0  0.00000000000E+00  0.00000000000E+00  0.74505805969E-08  0.10566000000E+00  0.10566000000E+00 0. -1.
     999900   -1    0    0    0    0 -0.00000000000E+00 -0.00000000000E+00 -0.74505805969E-08  0.93827000000E+00  0.93827000000E+00 0.  1.
     999902    2    1    2    0    0  0.11618355426E-01  0.26479768607E-02  0.83347643838E-02  0.10293881204E+01  0.10292854008E+01 0.  0.
     999903    2    3    3    0    0 -0.17821572941E-01 -0.96104037330E-01  0.87534953809E-01  0.13984253998E+00  0.48373271499E-01 0.  0.
         14    1    1    2    0    0 -0.11618355426E-01 -0.26479768607E-02 -0.83347643838E-02  0.14541879576E-01  0.00000000000E+00 0.  1.
     999901    1    3    3    0    0  0.29439928367E-01  0.98752014191E-01 -0.79200189425E-01  0.88954558045E+00  0.88000000000E+00 0.  1.
        -11    1    4    4    0    0  0.40258601426E-02 -0.51166633675E-01  0.18370554295E-01  0.54515780629E-01  0.51100000000E-03 0. -1.
         11    1    4    4    0    0 -0.21847433084E-01 -0.44937403655E-01  0.69164399514E-01  0.85326759348E-01  0.51100000000E-03 0.  1.
</event>
<event>
 8    1  0.2927513E+004  0.1043930E+01  0.7957747E-01            NaN
         13   -1    0    0    0    0  0.00000000000E+00  0.00000000000E+00  0.74505805969E-08  0.10566000000E+00  0.10566000000E+00 0. -1.
     999900   -1    0    0    0    0 -0.00000000000E+00 -0.00000000000E+00 -0.74505805969E-08  0.93827000000E+00  0.93827000000E+00 0. -1.
     999902    2    1    2    0    0  0.98769326084E-02 -0.81750342162E-02  0.49506428005E-02  0.10301861342E+01  0.10300944507E+01 0.  0.
     999903    2    3    3    0    0  0.68921113834E-01 -0.10220345932E+00  0.53874542094E-01  0.14186124547E+00  0.45016437578E-01 0.  0.
         14    1    1    2    0    0 -0.98769326084E-02  0.81750342162E-02 -0.49506428005E-02  0.13743865771E-01  0.00000000000E+00 0. -1.
     999901    1    3    3    0    0 -0.59044181226E-01  0.94028425102E-01 -0.48923899294E-01  0.88832488876E+00  0.88000000000E+00 0. -1.
        -11    1    4    4    0    0  0.12943694541E-01 -0.41679562823E-01  0.38070968341E-01  0.57917052212E-01  0.51100000000E-03 0.  1.
         11    1    4    4    0    0  0.55977419293E-01 -0.60523896495E-01  0.15803573753E-01  0.83944193260E-01  0.51100000000E-03 0. -1.
</event>
<event>
 8    1  0.2927513E+004  0.1043930E+01  0.7957747E-01            NaN
         13   -1    0    0    0    0  0.00000000000E+00  0.00000000000E+00  0.74505805969E-08  0.10566000000E+00  0.10566000000E+00 0.  1.
     999900   -1    0    0    0    0 -0.00000000000E+00 -0.00000000000E+00 -0.74505805969E-08  0.93827000000E+00  0.93827000000E+00 0.  1.
     999902    2    1    2    0    0 -0.17715583379E-02  0.12516078200E-01  0.50833189370E-02  0.10303053619E+01  0.10302152726E+01 0.  0.
     999903    2    3    3    0    0 -0.11390720920E-02  0.96694090359E-01  0.93380595819E-01  0.14188949818E+00  0.45405389801E-01 0.  0.
         14    1    1    2    0    0  0.17715583379E-02 -0.12516078200E-01 -0.50833189370E-02  0.13624638119E-01  0.00000000000E+00 0. -1.
     999901    1    3    3    0    0 -0.63248624592E-03 -0.84178012159E-01 -0.88297276882E-01  0.88841586370E+00  0.88000000000E+00 0.  1.
        -11    1    4    4    0    0  0.17710585479E-01  0.72443305616E-01  0.54666326162E-01  0.92468187523E-01  0.51100000000E-03 0.  1.
         11    1    4    4    0    0 -0.18849657571E-01  0.24250784742E-01  0.38714269656E-01  0.49421310658E-01  0.51100000000E-03 0. -1.
</event>
<event>
 8    1  0.2927513E+004  0.1043930E+01  0.7957747E-01            NaN
         13   -1    0    0    0    0  0.00000000000E+00  0.00000000000E+00  0.74505805969E-08  0.10566000000E+00  0.10566000000E+00 0.  1.
     999900   -1    0    0    0    0 -0.00000000000E+00 -0.00000000000E+00 -0.74505805969E-08  0.93827000000E+00  0.93827000000E+00 0. -1.
     999902    2    1    2    0    0  0.38393773609E-02 -0.11719742681E-01  0.63976996866E-02  0.10300367013E+01  0.10299429995E+01 0.  0.
     999903    2    3    3    0    0 -0.70583522601E-01  0.23792182523E-01 -0.10709396464E+00  0.13892491106E+00  0.47779828778E-01 0.  0.
         14    1    1    2    0    0 -0.38393773609E-02  0.11719742681E-01 -0.63976996866E-02  0.13893298683E-01  0.00000000000E+00 0.  1.
     999901    1    3    3    0    0  0.74422899962E-01 -0.35511925203E-01  0.11349166433E+00  0.89111179026E+00  0.88000000000E+00 0.  1.
        -11    1    4    4    0    0 -0.57058688737E-01  0.34469002858E-01 -0.63586241299E-01  0.92126420325E-01  0.51100000000E-03 0. -1.
         11    1    4    4    0    0 -0.13524833863E-01 -0.10676820335E-01 -0.43507723339E-01  0.46798490731E-01  0.51100000000E-03 0.  1.
</event>
<event>
 8    1  0.2927513E+004  0.1043930E+01  0.7957747E-01            NaN
         13   -1    0    0    0    0  0.00000000000E+00  0.00000000000E+00  0.74505805969E-08  0.10566000000E+00  0.10566000000E+00 0.  1.
     999900   -1    0    0    0    0 -0.00000000000E+00 -0.00000000000E+00 -0.74505805969E-08  0.93827000000E+00  0.93827000000E+00 0. -1.
     999902    2    1    2    0    0 -0.94746436974E-02  0.55984033664E-02  0.90178759725E-02  0.10297021020E+01  0.10296038004E+01 0.  0.
     999903    2    3    3    0    0  0.51299123210E-01  0.12277198148E-01  0.12201584774E+00  0.14037280494E+00  0.45103521285E-01 0.  0.
         14    1    1    2    0    0  0.94746436974E-02 -0.55984033664E-02 -0.90178759725E-02  0.14227897965E-01  0.00000000000E+00 0. -1.
     999901    1    3    3    0    0 -0.60773766908E-01 -0.66787947818E-02 -0.11299797176E+00  0.88932929709E+00  0.88000000000E+00 0. -1.
        -11    1    4    4    0    0  0.18791681632E-01  0.24718248202E-01  0.79962808410E-01  0.85781297160E-01  0.51100000000E-03 0.  1.
         11    1    4    4    0    0  0.32507441579E-01 -0.12441050053E-01  0.42053039326E-01  0.54591507783E-01  0.51100000000E-03 0. -1.
</event>
<event>
 8    1  0.2927513E+004  0.1043930E+01  0.7957747E-01            NaN
         13   -1    0    0    0    0  0.00000000000E+00  0.00000000000E+00  0.74505805969E-08  0.10566000000E+00  0.10566000000E+00 0.  1.
     999900   -1    0    0    0    0 -0.00000000000E+00 -0.00000000000E+00 -0.74505805969E-08  0.93827000000E+00  0.93827000000E+00 0.  1.
     999902    2    1    2    0    0 -0.11548187946E-01 -0.69542265312E-02 -0.37016455470E-02  0.10299505833E+01  0.10298557083E+01 0.  0.
     999903    2    3    3    0    0  0.62534346510E-01 -0.10503739890E+00  0.50572389994E-01  0.13975161591E+00  0.45050503409E-01 0.  0.
         14    1    1    2    0    0  0.11548187946E-01  0.69542265312E-02  0.37016455470E-02  0.13979416699E-01  0.00000000000E+00 0. -1.
     999901    1    3    3    0    0 -0.74082534456E-01  0.98083172372E-01 -0.54274035541E-01  0.89019896739E+00  0.88000000000E+00 0.  1.
        -11    1    4    4    0    0  0.42595887412E-01 -0.62164929802E-01  0.73998618414E-02  0.75722567297E-01  0.51100000000E-03 0. -1.
         11    1    4    4    0    0  0.19938459098E-01 -0.42872469101E-01  0.43172528152E-01  0.64029048611E-01  0.51100000000E-03 0.  1.
</event>
<event>
 8    1  0.2927513E+004  0.1043930E+01  0.7957747E-01            NaN
         13   -1    0    0    0    0  0.00000000000E+00  0.00000000000E+00  0.74505805969E-08  0.10566000000E+00  0.10566000000E+00 0.  1.
     999900   -1    0    0    0    0 -0.00000000000E+00 -0.00000000000E+00 -0.74505805969E-08  0.93827000000E+00  0.93827000000E+00 0. -1.
     999902    2    1    2    0    0 -0.36363388195E-02  0.36504962609E-02 -0.13051354252E-01  0.10298983597E+01  0.10298027696E+01 0.  0.
     999903    2    3    3    0    0 -0.61755813292E-01 -0.22564517534E-02  0.11570701293E+00  0.13861193966E+00  0.44791572049E-01 0.  0.
         14    1    1    2    0    0  0.36363388195E-02 -0.36504962609E-02  0.13051354252E-01  0.14031640345E-01  0.00000000000E+00 0. -1.
     999901    1    3    3    0    0  0.58119474472E-01  0.59069480143E-02 -0.12875836718E+00  0.89128641999E+00  0.88000000000E+00 0. -1.
        -11    1    4    4    0    0 -0.28324793898E-01 -0.20293189511E-01  0.34894020748E-01  0.49314919597E-01  0.51100000000E-03 0. -1.
         11    1    4    4    0    0 -0.33431019393E-01  0.18036737758E-01  0.80812992178E-01  0.89297020064E-01  0.51100000000E-03 0.  1.
</event>
<event>
 8    1  0.2927513E+004  0.1043930E+01  0.7957747E-01            NaN
         13   -1    0    0    0    0  0.00000000000E+00  0.00000000000E+00  0.74505805969E-08  0.10566000000E+00  0.10566000000E+00 0. -1.
     999900   -1    0    0    0    0 -0.00000000000E+00 -0.00000000000E+00 -0.74505805969E-08  0.93827000000E+00  0.93827000000E+00 0. -1.
     999902    2    1    2    0    0  0.68513420883E-02 -0.23505719663E-02  0.11617225668E-01  0.10302396381E+01  0.10301486717E+01 0.  0.
     999903    2    3    3    0    0  0.62054120072E-01 -0.51455471097E-02  0.11927236931E+00  0.14195770732E+00  0.45264799934E-01 0.  0.
         14    1    1    2    0    0 -0.68513420883E-02  0.23505719663E-02 -0.11617225668E-01  0.13690361909E-01  0.00000000000E+00 0.  1.
     999901    1    3    3    0    0 -0.55202777983E-01  0.27949751434E-02 -0.10765514364E+00  0.88828193077E+00  0.88000000000E+00 0. -1.
        -11    1    4    4    0    0  0.53648591090E-01 -0.20259686866E-02  0.54276762843E-01  0.76344639503E-01  0.51100000000E-03 0.  1.
         11    1    4    4    0    0  0.84055289813E-02 -0.31195784231E-02  0.64995606469E-01  0.65613067816E-01  0.51100000000E-03 0. -1.
</event>
<event>
 8    1  0.2927513E+004  0.1043930E+01  0.7957747E-01            NaN
         13   -1    0    0    0    0  0.00000000000E+00  0.00000000000E+00  0.74505805969E-08  0.10566000000E+00  0.10566000000E+00 0.  1.
     999900   -1    0    0    0    0 -0.00000000000E+00 -0.00000000000E+00 -0.74505805969E-08  0.93827000000E+00  0.93827000000E+00 0. -1.
     999902    2    1    2    0    0 -0.10466036293E-01 -0.13060692727E-01 -0.52410047673E-02  0.10263918205E+01  0.10262419702E+01 0.  0.
     999903    2    3    3    0    0 -0.34861276569E-01  0.18748741905E-01 -0.12427017483E+00  0.13747398895E+00  0.43464897987E-01 0.  0.
         14    1    1    2    0    0  0.10466036293E-01  0.13060692727E-01  0.52410047673E-02  0.17538179528E-01  0.00000000000E+00 0.  1.
     999901    1    3    3    0    0  0.24395240277E-01 -0.31809434633E-01  0.11902917006E+00  0.88891783153E+00  0.88000000000E+00 0.  1.
        -11    1    4    4    0    0 -0.14849480605E-01  0.26453779467E-01 -0.10256310980E+00  0.10695682370E+00  0.51100000000E-03 0.  1.
         11    1    4    4    0    0 -0.20011795964E-01 -0.77050375614E-02 -0.21707065026E-01  0.30517165245E-01  0.51100000000E-03 0. -1.
</event>
<event>
 8    1  0.2927513E+004  0.1043930E+01  0.7957747E-01            NaN
         13   -1    0    0    0    0  0.00000000000E+00  0.00000000000E+00  0.74505805969E-08  0.10566000000E+00  0.10566000000E+00 0.  1.
     999900   -1    0    0    0    0 -0.00000000000E+00 -0.00000000000E+00 -0.74505805969E-08  0.93827000000E+00  0.93827000000E+00 0.  1.
     999902    2    1    2    0    0 -0.83052489604E-02  0.10626177566E-01  0.88928668535E-03  0.10304139488E+01  0.10303252992E+01 0.  0.
     999903    2    3    3    0    0  0.80399137017E-01  0.94080420652E-01 -0.49487891719E-01  0.14059883377E+00  0.44764202752E-01 0.  0.
         14    1    1    2    0    0  0.83052489604E-02 -0.10626177566E-01 -0.88928668535E-03  0.13516051227E-01  0.00000000000E+00 0. -1.
     999901    1    3    3    0    0 -0.88704385978E-01 -0.83454243086E-01  0.50377178404E-01  0.88981511500E+00  0.88000000000E+00 0. -1.
        -11    1    4    4    0    0  0.15997411719E-01  0.51911557581E-01 -0.25148823020E-01  0.59861936257E-01  0.51100000000E-03 0. -1.
         11    1    4    4    0    0  0.64401725298E-01  0.42168863071E-01 -0.24339068699E-01  0.80736897515E-01  0.51100000000E-03 0.  1.
</event>
<event>
 8    1  0.2927513E+004  0.1043930E+01  0.7957747E-01            NaN
         13   -1    0    0    0    0  0.00000000000E+00  0.00000000000E+00  0.74505805969E-08  0.10566000000E+00  0.10566000000E+00 0. -1.
     999900   -1    0    0    0    0 -0.00000000000E+00 -0.00000000000E+00 -0.74505805969E-08  0.93827000000E+00  0.93827000000E+00 0.  1.
     999902    2    1    2    0    0 -0.62013567205E-02 -0.54640303653E-02  0.10454614449E-01  0.10306029067E+01  0.10305167344E+01 0.  0.
     999903    2    3    3    0    0 -0.47445617106E-01  0.11408436969E+00  0.49234875803E-01  0.14071706140E+00  0.45944405353E-01 0.  0.
         14    1    1    2    0    0  0.62013567205E-02  0.54640303653E-02 -0.10454614449E-01  0.13327093317E-01  0.00000000000E+00 0.  1.
     999901    1    3    3    0    0  0.41244260386E-01 -0.11954840005E+00 -0.38780261354E-01  0.88988584529E+00  0.88000000000E+00 0.  1.
        -11    1    4    4    0    0 -0.36373005273E-01  0.37158097685E-01  0.76164091836E-02  0.52554643430E-01  0.51100000000E-03 0.  1.
         11    1    4    4    0    0 -0.11072611833E-01  0.76926272003E-01  0.41618466619E-01  0.88162417967E-01  0.51100000000E-03 0. -1.
</event>
<event>
 8    1  0.2927513E+004  0.1043930E+01  0.7957747E-01            NaN
         13   -1    0    0    0    0  0.00000000000E+00  0.00000000000E+00  0.74505805969E-08  0.10566000000E+00  0.10566000000E+00 0. -1.
     999900   -1    0    0    0    0 -0.00000000000E+00 -0.00000000000E+00 -0.74505805969E-08  0.93827000000E+00  0.93827000000E+00 0. -1.
     999902    2    1    2    0    0 -0.67721396960E-02 -0.23592536922E-02 -0.11787419905E-01  0.10301324922E+01  0.10300400867E+01 0.  0.
     999903    2    3    3    0    0  0.12784937915E-02 -0.12827517123E+00 -0.37170227232E-01  0.14077096957E+00  0.44482423269E-01 0.  0.
         14    1    1    2    0    0  0.67721396960E-02  0.23592536922E-02  0.11787419905E-01  0.13797507821E-01  0.00000000000E+00 0. -1.
     999901    1    3    3    0    0 -0.80506334875E-02  0.12591591754E+00  0.25382807327E-01  0.88936152261E+00  0.88000000000E+00 0.  1.
        -11    1    4    4    0    0  0.21801140772E-01 -0.46689791052E-01 -0.16938300399E-01  0.54243833464E-01  0.51100000000E-03 0. -1.
         11    1    4    4    0    0 -0.20522646980E-01 -0.81585380181E-01 -0.20231926833E-01  0.86527136106E-01  0.51100000000E-03 0.  1.
</event>
<event>
 8    1  0.2927513E+004  0.1043930E+01  0.7957747E-01            NaN
         13   -1    0    0    0    0  0.00000000000E+00  0.00000000000E+00  0.74505805969E-08  0.10566000000E+00  0.10566000000E+00 0. -1.
     999900   -1    0    0    0    0 -0.00000000000E+00 -0.00000000000E+00 -0.74505805969E-08  0.93827000000E+00  0.93827000000E+00 0. -1.
     999902    2    1    2    0    0  0.79994261500E-02 -0.10123441790E-03  0.10566287336E-01  0.10306767930E+01  0.10305915797E+01 0.  0.
     999903    2    3    3    0    0  0.13473048246E+00 -0.19529095242E-02  0.21808119149E-02  0.14155671928E+00  0.43329344261E-01 0.  0.
         14    1    1    2    0    0 -0.79994261500E-02  0.10123441790E-03 -0.10566287336E-01  0.13253206978E-01  0.00000000000E+00 0.  1.
     999901    1    3    3    0    0 -0.12673105631E+00  0.18516751063E-02  0.83854754212E-02  0.88912007374E+00  0.88000000000E+00 0.  1.
        -11    1    4    4    0    0  0.80023814964E-01 -0.22263886068E-01 -0.15586687990E-02  0.83079372613E-01  0.51100000000E-03 0. -1.
         11    1    4    4    0    0  0.54706667492E-01  0.20310976543E-01  0.37394807138E-02  0.58477346667E-01  0.51100000000E-03 0.  1.
</event>
<event>
 8    1  0.2927513E+004  0.1043930E+01  0.7957747E-01            NaN
         13   -1    0    0    0    0  0.00000000000E+00  0.00000000000E+00  0.74505805969E-08  0.10566000000E+00  0.10566000000E+00 0.  1.
     999900   -1    0    0    0    0 -0.00000000000E+00 -0.00000000000E+00 -0.74505805969E-08  0.93827000000E+00  0.93827000000E+00 0.  1.
     999902    2    1    2    0    0 -0.53388805915E-02 -0.11866619215E-01 -0.27770675427E-02  0.10306246476E+01  0.10305387581E+01 0.  0.
     999903    2    3    3    0    0 -0.12034794027E+00 -0.12176535711E-01 -0.57772761203E-01  0.14143866811E+00  0.45114411770E-01 0.  0.
         14    1    1    2    0    0  0.53388805915E-02  0.11866619215E-01  0.27770675427E-02  0.13305352370E-01  0.00000000000E+00 0. -1.
     999901    1    3    3    0    0  0.11500905968E+00  0.30991649617E-03  0.54995693660E-01  0.88918597952E+00  0.88000000000E+00 0. -1.
        -11    1    4    4    0    0 -0.22295473252E-01 -0.18719682366E-01 -0.23314271558E-01  0.37300549791E-01  0.51100000000E-03 0. -1.
         11    1    4    4    0    0 -0.98052467021E-01  0.65431466555E-02 -0.34458489645E-01  0.10413811832E+00  0.51100000000E-03 0.  1.
</event>
<event>
 8    1  0.2927513E+004  0.1043930E+01  0.7957747E-01            NaN
         13   -1    0    0    0    0  0.00000000000E+00  0.00000000000E+00  0.74505805969E-08  0.10566000000E+00  0.10566000000E+00 0.  1.
     999900   -1    0    0    0    0 -0.00000000000E+00 -0.00000000000E+00 -0.74505805969E-08  0.93827000000E+00  0.93827000000E+00 0.  1.
     999902    2    1    2    0    0 -0.37609974970E-03  0.10651101862E-01  0.91013849346E-02  0.10299149142E+01  0.10298195511E+01 0.  0.
     999903    2    3    3    0    0  0.80291163053E-01 -0.62962345452E-01  0.85036184083E-01  0.13991927342E+00  0.43992302293E-01 0.  0.
         14    1    1    2    0    0  0.37609974970E-03 -0.10651101862E-01 -0.91013849346E-02  0.14015085787E-01  0.00000000000E+00 0.  1.
     999901    1    3    3    0    0 -0.80667262802E-01  0.73613447313E-01 -0.75934799149E-01  0.88999564080E+00  0.88000000000E+00 0.  1.
        -11    1    4    4    0    0  0.58144416124E-01 -0.20747215006E-01  0.59916743564E-01  0.86031955326E-01  0.51100000000E-03 0.  1.
         11    1    4    4    0    0  0.22146746928E-01 -0.42215130446E-01  0.25119440519E-01  0.53887318091E-01  0.51100000000E-03 0. -1.
</event>
<event>
 8    1  0.2927513E+004  0.1043930E+01  0.7957747E-01            NaN
         13   -1    0    0    0    0  0.00000000000E+00  0.00000000000E+00  0.74505805969E-08  0.10566000000E+00  0.10566000000E+00 0.  1.
     999900   -1    0    0    0    0 -0.00000000000E+00 -0.00000000000E+00 -0.74505805969E-08  0.93827000000E+00  0.93827000000E+00 0. -1.
     999902    2    1    2    0    0  0.37887498163E-02 -0.10752973778E-01  0.71132786657E-02  0.10304920015E+01  0.10304043795E+01 0.  0.
     999903    2    3    3    0    0 -0.10370797647E+00  0.59900070755E-01  0.56367259061E-01  0.13977692167E+00  0.44910545276E-01 0.  0.
         14    1    1    2    0    0 -0.37887498163E-02  0.10752973778E-01 -0.71132786657E-02  0.13437998498E-01  0.00000000000E+00 0. -1.
     999901    1    3    3    0    0  0.10749672628E+00 -0.70653044533E-01 -0.49253980395E-01  0.89071507984E+00  0.88000000000E+00 0. -1.
        -11    1    4    4    0    0 -0.70577773385E-01  0.16156696067E-01  0.25184210519E-01  0.76660071121E-01  0.51100000000E-03 0. -1.
         11    1    4    4    0    0 -0.33130203082E-01  0.43743374688E-01  0.31183048542E-01  0.63116850545E-01  0.51100000000E-03 0.  1.
</event>
<event>
 8    1  0.2927513E+004  0.1043930E+01  0.7957747E-01            NaN
         13   -1    0    0    0    0  0.00000000000E+00  0.00000000000E+00  0.74505805969E-08  0.10566000000E+00  0.10566000000E+00 0. -1.
     999900   -1    0    0    0    0 -0.00000000000E+00 -0.00000000000E+00 -0.74505805969E-08  0.93827000000E+00  0.93827000000E+00 0. -1.
     999902    2    1    2    0    0  0.37917249289E-02  0.22413161549E-01  0.24794287453E-03  0.10211970181E+01  0.10209439561E+01 0.  0.
     999903    2    3    3    0    0 -0.82800004176E-01  0.81267021514E-01 -0.48750414483E-01  0.13363702388E+00  0.44967563452E-01 0.  0.
         14    1    1    2    0    0 -0.37917249289E-02 -0.22413161549E-01 -0.24794287453E-03  0.22732981859E-01  0.00000000000E+00 0.  1.
     999901    1    3    3    0    0  0.86591729105E-01 -0.58853859966E-01  0.48998357358E-01  0.88755999426E+00  0.88000000000E+00 0. -1.
        -11    1    4    4    0    0 -0.71001089916E-01  0.53032946893E-01 -0.18354684299E-01  0.90503059518E-01  0.51100000000E-03 0.  1.
         11    1    4    4    0    0 -0.11798914260E-01  0.28234074622E-01 -0.30395730184E-01  0.43133964365E-01  0.51100000000E-03 0. -1.
</event>
<event>
 8    1  0.2927513E+004  0.1043930E+01  0.7957747E-01            NaN
         13   -1    0    0    0    0  0.00000000000E+00  0.00000000000E+00  0.74505805969E-08  0.10566000000E+00  0.10566000000E+00 0.  1.
     999900   -1    0    0    0    0 -0.00000000000E+00 -0.00000000000E+00 -0.74505805969E-08  0.93827000000E+00  0.93827000000E+00 0.  1.
     999902    2    1    2    0    0  0.13723321194E-02  0.13640902638E-01 -0.33970976064E-02  0.10298056313E+01  0.10297087648E+01 0.  0.
     999903    2    3    3    0    0 -0.34247753106E-02  0.32070675201E-01 -0.12942811193E+00  0.14062258749E+00  0.44528851981E-01 0.  0.
         14    1    1    2    0    0 -0.13723321194E-02 -0.13640902638E-01  0.33970976064E-02  0.14124368743E-01  0.00000000000E+00 0. -1.
     999901    1    3    3    0    0  0.47971074300E-02 -0.18429772563E-01  0.12603101433E+00  0.88918304377E+00  0.88000000000E+00 0. -1.
        -11    1    4    4    0    0  0.73686648193E-03  0.20158497233E-01 -0.14127386949E-01  0.24632339839E-01  0.51100000000E-03 0.  1.
         11    1    4    4    0    0 -0.41616417925E-02  0.11912177968E-01 -0.11530072499E+00  0.11599024765E+00  0.51100000000E-03 0. -1.
</event>
<event>
 8    1  0.2927513E+004  0.1043930E+01  0.7957747E-01            NaN
         13   -1    0    0    0    0  0.00000000000E+00  0.00000000000E+00  0.74505805969E-08  0.10566000000E+00  0.10566000000E+00 0. -1.
     999900   -1    0    0    0    0 -0.00000000000E+00 -0.00000000000E+00 -0.74505805969E-08  0.93827000000E+00  0.93827000000E+00 0. -1.
     999902    2    1    2    0    0  0.23326026058E-01  0.41276352774E-02 -0.34510919289E-02  0.10199915184E+01  0.10197105701E+01 0.  0.
     999903    2    3    3    0    0  0.12509600768E+00 -0.25849577622E-02 -0.16199178482E-01  0.13400918126E+00  0.45170279307E-01 0.  0.
         14    1    1    2    0    0 -0.23326026058E-01 -0.41276352774E-02  0.34510919289E-02  0.23938481575E-01  0.00000000000E+00 0. -1.
     999901    1    3    3    0    0 -0.10176998162E+00  0.67125930396E-02  0.12748086553E-01  0.88598233717E+00  0.88000000000E+00 0. -1.
        -11    1    4    4    0    0  0.72381226817E-01 -0.23514170310E-01 -0.56444862972E-02  0.76315657289E-01  0.51100000000E-03 0. -1.
         11    1    4    4    0    0  0.52714780865E-01  0.20929212548E-01 -0.10554692185E-01  0.57693523966E-01  0.51100000000E-03 0.  1.
</event>
<event>
 8    1  0.2927513E+004  0.1043930E+01  0.7957747E-01            NaN
         13   -1    0    0    0    0  0.00000000000E+00  0.00000000000E+00  0.74505805969E-08  0.10566000000E+00  0.10566000000E+00 0. -1.
     999900   -1    0    0    0    0 -0.00000000000E+00 -0.00000000000E+00 -0.74505805969E-08  0.93827000000E+00  0.93827000000E+00 0.  1.
     999902    2    1    2    0    0 -0.27735093475E-03  0.22951512604E-02  0.12179883056E-01  0.10315326537E+01  0.10314581531E+01 0.  0.
     999903    2    3    3    0    0 -0.69979304300E-01 -0.11350455708E+00 -0.87778581603E-02  0.14096701233E+00  0.44880510953E-01 0.  0.
         14    1    1    2    0    0  0.27735093475E-03 -0.22951512604E-02 -0.12179883056E-01  0.12397346252E-01  0.00000000000E+00 0.  1.
     999901    1    3    3    0    0  0.69701953366E-01  0.11579970834E+00  0.20957741216E-01  0.89056564142E+00  0.88000000000E+00 0. -1.
        -11    1    4    4    0    0 -0.58028809358E-01 -0.76360292830E-01 -0.24350594549E-01  0.98951753964E-01  0.51100000000E-03 0.  1.
         11    1    4    4    0    0 -0.11950494942E-01 -0.37144264250E-01  0.15572736389E-01  0.42015258367E-01  0.51100000000E-03 0. -1.
</event>
<event>
 8    1  0.2927513E+004  0.1043930E+01  0.7957747E-01            NaN
         13   -1    0    0    0    0  0.00000000000E+00  0.00000000000E+00  0.74505805969E-08  0.10566000000E+00  0.10566000000E+00 0.  1.
     999900   -1    0    0    0    0 -0.00000000000E+00 -0.00000000000E+00 -0.74505805969E-08  0.93827000000E+00  0.93827000000E+00 0. -1.
     999902    2    1    2    0    0  0.67123056953E-02 -0.10904574877E-01  0.11156027967E-01  0.10269470155E+01  0.10268065791E+01 0.  0.
     999903    2    3    3    0    0  0.92388278757E-03  0.90307844638E-01  0.89958446566E-01  0.13762857939E+00  0.51891650526E-01 0.  0.
         14    1    1    2    0    0 -0.67123056953E-02  0.10904574877E-01 -0.11156027967E-01  0.16982984455E-01  0.00000000000E+00 0.  1.
     999901    1    3    3    0    0  0.57884229077E-02 -0.10121241952E+00 -0.78802418599E-01  0.88931843615E+00  0.88000000000E+00 0. -1.
        -11    1    4    4    0    0  0.22009807605E-01  0.71177032301E-01  0.55368151098E-01  0.92825076542E-01  0.51100000000E-03 0.  1.
         11    1    4    4    0    0 -0.21085924818E-01  0.19130812338E-01  0.34590295468E-01  0.44803502851E-01  0.51100000000E-03 0. -1.
</event>
<event>
 7    1  0.2927513E+004  0.1043930E+01  0.7957747E-01            NaN
         13   -1    0    0    0    0  0.00000000000E+00  0.00000000000E+00  0.74505805969E-08  0.10566000000E+00  0.10566000000E+00 0.  1.
     999900   -1    0    0    0    0 -0.00000000000E+00 -0.00000000000E+00 -0.74505805969E-08  0.93827000000E+00  0.93827000000E+00 0. -1.
     999903    2    1    2    0    0  0.76886113477E-01 -0.73884140711E-01  0.30134303109E-01  0.11945860869E+00  0.44631180492E-01 0.  0.
         14    1    1    2    0    0  0.32029600208E-01 -0.87795914351E-02  0.25820605859E-02  0.33311312675E-01  0.00000000000E+00 0. -1.
     999901    1    1    2    0    0 -0.10891571368E+00  0.82663732146E-01 -0.32716363695E-01  0.89116007864E+00  0.88000000000E+00 0. -1.
        -11    1    3    3    0    0  0.38629866807E-01 -0.83353899858E-02  0.72096690587E-02  0.40174441934E-01  0.51100000000E-03 0. -1.
         11    1    3    3    0    0  0.38256246670E-01 -0.65548750725E-01  0.22924634050E-01  0.79284166756E-01  0.51100000000E-03 0.  1.
</event>
<event>
 8    1  0.2927513E+004  0.1043930E+01  0.7957747E-01            NaN
         13   -1    0    0    0    0  0.00000000000E+00  0.00000000000E+00  0.74505805969E-08  0.10566000000E+00  0.10566000000E+00 0. -1.
     999900   -1    0    0    0    0 -0.00000000000E+00 -0.00000000000E+00 -0.74505805969E-08  0.93827000000E+00  0.93827000000E+00 0.  1.
     999902    2    1    2    0    0  0.13316796611E-01  0.97644511378E-02 -0.85715055028E-04  0.10274167046E+01  0.10272839899E+01 0.  0.
     999903    2    3    3    0    0  0.16035418969E-01 -0.68882274778E-01 -0.10886562418E+00  0.13723370822E+00  0.44491168837E-01 0.  0.
         14    1    1    2    0    0 -0.13316796611E-01 -0.97644511378E-02  0.85715055028E-04  0.16513295403E-01  0.00000000000E+00 0. -1.
     999901    1    3    3    0    0 -0.27186223583E-02  0.78646725916E-01  0.10877990912E+00  0.89018299637E+00  0.88000000000E+00 0. -1.
        -11    1    4    4    0    0  0.50575655988E-03  0.85282389004E-05 -0.35118501974E-01  0.35125861759E-01  0.51100000000E-03 0.  1.
         11    1    4    4    0    0  0.15529662409E-01 -0.68890803017E-01 -0.73747122205E-01  0.10210784646E+00  0.51100000000E-03 0. -1.
</event>
<event>
 8    1  0.2927513E+004  0.1043930E+01  0.7957747E-01            NaN
         13   -1    0    0    0    0  0.00000000000E+00  0.00000000000E+00  0.74505805969E-08  0.10566000000E+00  0.10566000000E+00 0.  1.
     999900   -1    0    0    0    0 -0.00000000000E+00 -0.00000000000E+00 -0.74505805969E-08  0.93827000000E+00  0.93827000000E+00 0. -1.
     999902    2    1    2    0    0 -0.12546753373E-02 -0.12730063317E-01  0.60566233214E-02  0.10297768587E+01  0.10296795945E+01 0.  0.
     999903    2    3    3    0    0  0.95973328653E-01  0.79609854348E-01 -0.40625246604E-01  0.13839638880E+00  0.44210191703E-01 0.  0.
         14    1    1    2    0    0  0.12546753373E-02  0.12730063317E-01 -0.60566233214E-02  0.14153141288E-01  0.00000000000E+00 0. -1.
     999901    1    3    3    0    0 -0.97228003990E-01 -0.92339917665E-01  0.46681869925E-01  0.89138046991E+00  0.88000000000E+00 0. -1.
        -11    1    4    4    0    0  0.54228744164E-01  0.25763337450E-01 -0.36221534017E-01  0.70119661278E-01  0.51100000000E-03 0. -1.
         11    1    4    4    0    0  0.41744584488E-01  0.53846516898E-01 -0.44037125867E-02  0.68276727526E-01  0.51100000000E-03 0.  1.
</event>
<event>
 8    1  0.2927513E+004  0.1043930E+01  0.7957747E-01            NaN
         13   -1    0    0    0    0  0.00000000000E+00  0.00000000000E+00  0.74505805969E-08  0.10566000000E+00  0.10566000000E+00 0. -1.
     999900   -1    0    0    0    0 -0.00000000000E+00 -0.00000000000E+00 -0.74505805969E-08  0.93827000000E+00  0.93827000000E+00 0. -1.
     999902    2    1    2    0    0  0.63320852585E-02 -0.89266596269E-02 -0.72992154728E-02  0.10307748070E+01  0.10306908575E+01 0.  0.
     999903    2    3    3    0    0 -0.36328605098E-01  0.99091705984E-01 -0.80282034905E-01  0.14014896316E+00  0.45360698897E-01 0.  0.
         14    1    1    2    0    0 -0.63320852585E-02  0.89266596269E-02  0.72992154728E-02  0.13155192980E-01  0.00000000000E+00 0. -1.
     999901    1    3    3    0    0  0.42660690357E-01 -0.10801836561E+00  0.72982819432E-01  0.89062584386E+00  0.88000000000E+00 0.  1.
        -11    1    4    4    0    0 -0.34709387453E-01  0.83174793282E-01 -0.43586569294E-01  0.10011412467E+00  0.51100000000E-03 0.  1.
         11    1    4    4    0    0 -0.16192176448E-02  0.15916912702E-01 -0.36695465611E-01  0.40034838493E-01  0.51100000000E-03 0. -1.
</event>
<event>
 8    1  0.2927513E+004  0.1043930E+01  0.7957747E-01            NaN
         13   -1    0    0    0    0  0.00000000000E+00  0.00000000000E+00  0.74505805969E-08  0.10566000000E+00  0.10566000000E+00 0. -1.
     999900   -1    0    0    0    0 -0.00000000000E+00 -0.00000000000E+00 -0.74505805969E-08  0.93827000000E+00  0.93827000000E+00 0.  1.
     999902    2    1    2    0    0  0.12647483550E-02 -0.13424361638E-01  0.17295142472E-02  0.10303357257E+01  0.10302460402E+01 0.  0.
     999903    2    3    3    0    0 -0.69771606729E-01  0.10016994302E+00 -0.44583990310E-01  0.13899136437E+00  0.49282578946E-01 0.  0.
         14    1    1    2    0    0 -0.12647483550E-02  0.13424361638E-01 -0.17295142472E-02  0.13594274285E-01  0.00000000000E+00 0. -1.
     999901    1    3    3    0    0  0.71036355084E-01 -0.11359430466E+00  0.46313504557E-01  0.89134436134E+00  0.88000000000E+00 0. -1.
        -11    1    4    4    0    0 -0.58177129447E-02  0.24639209831E-01 -0.29500310463E-01  0.38877575586E-01  0.51100000000E-03 0. -1.
         11    1    4    4    0    0 -0.63953893784E-01  0.75530733190E-01 -0.15083679847E-01  0.10011378879E+00  0.51100000000E-03 0.  1.
</event>
<event>
 8    1  0.2927513E+004  0.1043930E+01  0.7957747E-01            NaN
         13   -1    0    0    0    0  0.00000000000E+00  0.00000000000E+00  0.74505805969E-08  0.10566000000E+00  0.10566000000E+00 0.  1.
     999900   -1    0    0    0    0 -0.00000000000E+00 -0.00000000000E+00 -0.74505805969E-08  0.93827000000E+00  0.93827000000E+00 0. -1.
     999902    2    1    2    0    0  0.12865002401E-01 -0.66142136248E-02  0.56231035332E-03  0.10294533878E+01  0.10293515946E+01 0.  0.
     999903    2    3    3    0    0  0.63685336336E-01  0.11588288908E+00  0.23976431040E-02  0.13951428033E+00  0.44427690429E-01 0.  0.
         14    1    1    2    0    0 -0.12865002401E-01  0.66142136248E-02 -0.56231035332E-03  0.14476612228E-01  0.00000000000E+00 0.  1.
     999901    1    3    3    0    0 -0.50820333935E-01 -0.12249710271E+00 -0.18353327506E-02  0.88993910744E+00  0.88000000000E+00 0. -1.
        -11    1    4    4    0    0  0.66579212929E-02  0.43721890298E-01  0.14946535377E-01  0.46686096945E-01  0.51100000000E-03 0. -1.
         11    1    4    4    0    0  0.57027415043E-01  0.72160998784E-01 -0.12548892273E-01  0.92828183383E-01  0.51100000000E-03 0.  1.
</event>
<event>
 8    1  0.2927513E+004  0.1043930E+01  0.7957747E-01            NaN
         13   -1    0    0    0    0  0.00000000000E+00  0.00000000000E+00  0.74505805969E-08  0.10566000000E+00  0.10566000000E+00 0.  1.
     999900   -1    0    0    0    0 -0.00000000000E+00 -0.00000000000E+00 -0.74505805969E-08  0.93827000000E+00  0.93827000000E+00 0. -1.
     999902    2    1    2    0    0 -0.87672239807E-02  0.22125538669E-02 -0.10972929083E-01  0.10297115337E+01  0.10296133633E+01 0.  0.
     999903    2    3    3    0    0  0.82445985859E-01 -0.10053334192E+00 -0.19481424840E-01  0.13901014534E+00  0.45166372127E-01 0.  0.
         14    1    1    2    0    0  0.87672239807E-02 -0.22125538669E-02  0.10972929083E-01  0.14218466289E-01  0.00000000000E+00 0.  1.
     999901    1    3    3    0    0 -0.91213209839E-01  0.10274589579E+00  0.85084957570E-02  0.89070138837E+00  0.88000000000E+00 0.  1.
        -11    1    4    4    0    0  0.57288028159E-01 -0.48334124369E-01  0.70320486523E-02  0.75284902724E-01  0.51100000000E-03 0.  1.
         11    1    4    4    0    0  0.25157957700E-01 -0.52199217551E-01 -0.26513473492E-01  0.63725242614E-01  0.51100000000E-03 0. -1.
</event>
<event>
 8    1  0.2927513E+004  0.1043930E+01  0.7957747E-01            NaN
         13   -1    0    0    0    0  0.00000000000E+00  0.00000000000E+00  0.74505805969E-08  0.10566000000E+00  0.10566000000E+00 0.  1.
     999900   -1    0    0    0    0 -0.00000000000E+00 -0.00000000000E+00 -0.74505805969E-08  0.93827000000E+00  0.93827000000E+00 0. -1.
     999902    2    1    2    0    0  0.15878830784E-01 -0.73575028041E-03 -0.97026771941E-02  0.10253068816E+01  0.10251377375E+01 0.  0.
     999903    2    3    3    0    0  0.61782227589E-01  0.77436007639E-01  0.81059764065E-01  0.13600616397E+00  0.45974040088E-01 0.  0.
         14    1    1    2    0    0 -0.15878830784E-01  0.73575028041E-03  0.97026771941E-02  0.18623118436E-01  0.00000000000E+00 0.  1.
     999901    1    3    3    0    0 -0.45903396805E-01 -0.78171757919E-01 -0.90762441259E-01  0.88930071760E+00  0.88000000000E+00 0.  1.
        -11    1    4    4    0    0  0.65343758475E-01  0.52591030126E-01  0.58608524891E-01  0.10232713976E+00  0.51100000000E-03 0.  1.
         11    1    4    4    0    0 -0.35615308859E-02  0.24844977513E-01  0.22451239174E-01  0.33679024204E-01  0.51100000000E-03 0. -1.
</event>
<event>
 8    1  0.2927513E+004  0.1043930E+01  0.7957747E-01            NaN
         13   -1    0    0    0    0  0.00000000000E+00  0.00000000000E+00  0.74505805969E-08  0.10566000000E+00  0.10566000000E+00 0. -1.
     999900   -1    0    0    0    0 -0.00000000000E+00 -0.00000000000E+00 -0.74505805969E-08  0.93827000000E+00  0.93827000000E+00 0. -1.
     999902    2    1    2    0    0  0.11396390395E-01 -0.28632026426E-02 -0.71559634740E-02  0.10301719676E+01  0.10300800936E+01 0.  0.
     999903    2    3    3    0    0  0.47805608289E-01 -0.11827440137E+00 -0.41236289256E-01  0.14123617430E+00  0.44418635439E-01 0.  0.
         14    1    1    2    0    0 -0.11396390395E-01  0.28632026426E-02  0.71559634740E-02  0.13758032441E-01  0.00000000000E+00 0. -1.
     999901    1    3    3    0    0 -0.36409217894E-01  0.11541119873E+00  0.34080325782E-01  0.88893579326E+00  0.88000000000E+00 0. -1.
        -11    1    4    4    0    0  0.25302448917E-02 -0.43991264316E-01 -0.30475209697E-01  0.53578288535E-01  0.51100000000E-03 0. -1.
         11    1    4    4    0    0  0.45275363398E-01 -0.74283137056E-01 -0.10761079559E-01  0.87657885760E-01  0.51100000000E-03 0.  1.
</event>
<event>
 8    1  0.2927513E+004  0.1043930E+01  0.7957747E-01            NaN
         13   -1    0    0    0    0  0.00000000000E+00  0.00000000000E+00  0.74505805969E-08  0.10566000000E+00  0.10566000000E+00 0. -1.
     999900   -1    0    0    0    0 -0.00000000000E+00 -0.00000000000E+00 -0.74505805969E-08  0.93827000000E+00  0.93827000000E+00 0. -1.
     999902    2    1    2    0    0  0.43589923962E-02 -0.11362079005E-01 -0.15078935694E-02  0.10316673984E+01  0.10315945180E+01 0.  0.
     999903    2    3    3    0    0 -0.12346767573E+00 -0.11165029593E-01  0.49603891633E-01  0.14096424334E+00  0.45182374882E-01 0.  0.
         14    1    1    2    0    0 -0.43589923962E-02  0.11362079005E-01  0.15078935694E-02  0.12262601561E-01  0.00000000000E+00 0. -1.
     999901    1    3    3    0    0  0.12782666813E+00 -0.19704941196E-03 -0.51111785203E-01  0.89070315510E+00  0.88000000000E+00 0. -1.
        -11    1    4    4    0    0 -0.89232108868E-01 -0.27933691110E-01  0.30735542092E-01  0.98425581130E-01  0.51100000000E-03 0. -1.
         11    1    4    4    0    0 -0.34235566862E-01  0.16768661517E-01  0.18868349541E-01  0.42538662212E-01  0.51100000000E-03 0.  1.
</event>
<event>
 8    1  0.2927513E+004  0.1043930E+01  0.7957747E-01            NaN
         13   -1    0    0    0    0  0.00000000000E+00  0.00000000000E+00  0.74505805969E-08  0.10566000000E+00  0.10566000000E+00 0.  1.
     999900   -1    0    0    0    0 -0.00000000000E+00 -0.00000000000E+00 -0.74505805969E-08  0.93827000000E+00  0.93827000000E+00 0. -1.
     999902    2    1    2    0    0 -0.10755105748E-01  0.73603995203E-03  0.84356095074E-02  0.10302415537E+01  0.10301506130E+01 0.  0.
     999903    2    3    3    0    0 -0.27160070739E-01 -0.12308548363E+00  0.43196807974E-01  0.14074212509E+00  0.45328532199E-01 0.  0.
         14    1    1    2    0    0  0.10755105748E-01 -0.73603995203E-03 -0.84356095074E-02  0.13688446304E-01  0.00000000000E+00 0. -1.
     999901    1    3    3    0    0  0.16404964991E-01  0.12382152358E+00 -0.34761198466E-01  0.88949942861E+00  0.88000000000E+00 0. -1.
        -11    1    4    4    0    0 -0.21320980717E-01 -0.11051235317E+00  0.20890024372E-01  0.11447365925E+00  0.51100000000E-03 0.  1.
         11    1    4    4    0    0 -0.58390900219E-02 -0.12573130459E-01  0.22306783602E-01  0.26268465838E-01  0.51100000000E-03 0. -1.
</event>
<event>
 8    1  0.2927513E+004  0.1043930E+01  0.7957747E-01            NaN
         13   -1    0    0    0    0  0.00000000000E+00  0.00000000000E+00  0.74505805969E-08  0.10566000000E+00  0.10566000000E+00 0. -1.
     999900   -1    0    0    0    0 -0.00000000000E+00 -0.00000000000E+00 -0.74505805969E-08  0.93827000000E+00  0.93827000000E+00 0. -1.
     999902    2    1    2    0    0  0.11080209716E-02  0.83401243792E-02  0.10273277154E-01  0.10306512347E+01  0.10305656903E+01 0.  0.
     999903    2    3    3    0    0  0.10021363800E+00  0.37483551574E-01  0.80956314237E-01  0.14179390393E+00  0.45867161440E-01 0.  0.
         14    1    1    2    0    0 -0.11080209716E-02 -0.83401243792E-02 -0.10273277154E-01  0.13278765328E-01  0.00000000000E+00 0.  1.
     999901    1    3    3    0    0 -0.99105617028E-01 -0.29143427195E-01 -0.70683037082E-01  0.88885733074E+00  0.88000000000E+00 0. -1.
        -11    1    4    4    0    0  0.21328020902E-01  0.28162897603E-01  0.36346831488E-01  0.50689116753E-01  0.51100000000E-03 0.  1.
         11    1    4    4    0    0  0.78885617098E-01  0.93206539710E-02  0.44609482749E-01  0.91104787182E-01  0.51100000000E-03 0. -1.
</event>
<event>
 8    1  0.2927513E+004  0.1043930E+01  0.7957747E-01            NaN
         13   -1    0    0    0    0  0.00000000000E+00  0.00000000000E+00  0.74505805969E-08  0.10566000000E+00  0.10566000000E+00 0.  1.
     999900   -1    0    0    0    0 -0.00000000000E+00 -0.00000000000E+00 -0.74505805969E-08  0.93827000000E+00  0.93827000000E+00 0. -1.
     999902    2    1    2    0    0 -0.14387915310E-01 -0.53693959040E-03 -0.63608713453E-02  0.10281895713E+01  0.10280690801E+01 0.  0.
     999903    2    3    3    0    0 -0.22295958937E-01  0.31405871961E-02  0.12833224945E+00  0.13789844019E+00  0.45164593267E-01 0.  0.
         14    1    1    2    0    0  0.14387915310E-01  0.53693959040E-03  0.63608713453E-02  0.15740428690E-01  0.00000000000E+00 0. -1.
     999901    1    3    3    0    0  0.79080436270E-02 -0.36775267865E-02 -0.13469312080E+00  0.89029113112E+00  0.88000000000E+00 0. -1.
        -11    1    4    4    0    0  0.52493131799E-02  0.12344437281E-01  0.82862362561E-01  0.83942674908E-01  0.51100000000E-03 0. -1.
         11    1    4    4    0    0 -0.27545272117E-01 -0.92038500847E-02  0.45469886891E-01  0.53955765283E-01  0.51100000000E-03 0.  1.
</event>
<event>
 8    1  0.2927513E+004  0.1043930E+01  0.7957747E-01            NaN
         13   -1    0    0    0    0  0.00000000000E+00  0.00000000000E+00  0.74505805969E-08  0.10566000000E+00  0.10566000000E+00 0. -1.
     999900   -1    0    0    0    0 -0.00000000000E+00 -0.00000000000E+00 -0.74505805969E-08  0.93827000000E+00  0.93827000000E+00 0.  1.
     999902    2    1    2    0    0 -0.26399393711E-02  0.12190262504E-01  0.47415651037E-02  0.10305863041E+01  0.10304999156E+01 0.  0.
     999903    2    3    3    0    0 -0.12354002289E+00  0.61286652392E-02  0.49913708474E-01  0.14115159844E+00  0.46181139589E-01 0.  0.
         14    1    1    2    0    0  0.26399393711E-02 -0.12190262504E-01 -0.47415651037E-02  0.13343695869E-01  0.00000000000E+00 0.  1.
     999901    1    3    3    0    0  0.12090008352E+00  0.60615972650E-02 -0.45172143371E-01  0.88943470569E+00  0.88000000000E+00 0. -1.
        -11    1    4    4    0    0 -0.27111653646E-01 -0.70382963279E-03 -0.82239296888E-02  0.28344863381E-01  0.51100000000E-03 0.  1.
         11    1    4    4    0    0 -0.96428369247E-01  0.68324948720E-02  0.58137638163E-01  0.11280673506E+00  0.51100000000E-03 0. -1.
</event>
<event>
 8    1  0.2927513E+004  0.1043930E+01  0.7957747E-01            NaN
         13   -1    0    0    0    0  0.00000000000E+00  0.00000000000E+00  0.74505805969E-08  0.10566000000E+00  0.10566000000E+00 0. -1.
     999900   -1    0    0    0    0 -0.00000000000E+00 -0.00000000000E+00 -0.74505805969E-08  0.93827000000E+00  0.93827000000E+00 0. -1.
     999902    2    1    2    0    0 -0.11933115494E-01 -0.11670862221E-02 -0.76302643251E-02  0.10297179534E+01  0.10296198722E+01 0.  0.
     999903    2    3    3    0    0  0.12263210044E+00 -0.24584241950E-01  0.33138161666E-01  0.13824825390E+00  0.48697278527E-01 0.  0.
         14    1    1    2    0    0  0.11933115494E-01  0.11670862221E-02  0.76302643251E-02  0.14212046627E-01  0.00000000000E+00 0. -1.
     999901    1    3    3    0    0 -0.13456521594E+00  0.23417155728E-01 -0.40768425991E-01  0.89146969947E+00  0.88000000000E+00 0. -1.
        -11    1    4    4    0    0  0.63189601785E-01 -0.88295024842E-02  0.41604192394E-01  0.76171227072E-01  0.51100000000E-03 0.  1.
         11    1    4    4    0    0  0.59442498659E-01 -0.15754739466E-01 -0.84660307274E-02  0.62077026827E-01  0.51100000000E-03 0. -1.
</event>
<event>
 8    1  0.2927513E+004  0.1043930E+01  0.7957747E-01            NaN
         13   -1    0    0    0    0  0.00000000000E+00  0.00000000000E+00  0.74505805969E-08  0.10566000000E+00  0.10566000000E+00 0.  1.
     999900   -1    0    0    0    0 -0.00000000000E+00 -0.00000000000E+00 -0.74505805969E-08  0.93827000000E+00  0.93827000000E+00 0. -1.
     999902    2    1    2    0    0 -0.25050154161E-02 -0.11086929501E-01  0.85079323440E-02  0.10297321121E+01  0.10296342276E+01 0.  0.
     999903    2    3    3    0    0  0.97876910335E-01 -0.48461644499E-01 -0.74288662184E-01  0.13937899316E+00  0.44489075532E-01 0.  0.
         14    1    1    2    0    0  0.25050154161E-02  0.11086929501E-01 -0.85079323440E-02  0.14197887898E-01  0.00000000000E+00 0. -1.
     999901    1    3    3    0    0 -0.10038192575E+00  0.37374714998E-01  0.82796594528E-01  0.89035311894E+00  0.88000000000E+00 0. -1.
        -11    1    4    4    0    0  0.97433756619E-01 -0.45638337819E-01 -0.56829514985E-01  0.12168011219E+00  0.51100000000E-03 0.  1.
         11    1    4    4    0    0  0.44315371611E-03 -0.28233066799E-02 -0.17459147199E-01  0.17698880974E-01  0.51100000000E-03 0. -1.
</event>
<event>
 8    1  0.2927513E+004  0.1043930E+01  0.7957747E-01            NaN
         13   -1    0    0    0    0  0.00000000000E+00  0.00000000000E+00  0.74505805969E-08  0.10566000000E+00  0.10566000000E+00 0.  1.
     999900   -1    0    0    0    0 -0.00000000000E+00 -0.00000000000E+00 -0.74505805969E-08  0.93827000000E+00  0.93827000000E+00 0.  1.
     999902    2    1    2    0    0  0.11438409521E-01  0.79758544794E-02 -0.29089462848E-02  0.10296852313E+01  0.10295866948E+01 0.  0.
     999903    2    3    3    0    0  0.54530947000E-02 -0.11875314904E+00 -0.56492054549E-01  0.13897359792E+00  0.44612353040E-01 0.  0.
         14    1    1    2    0    0 -0.11438409521E-01 -0.79758544794E-02  0.29089462848E-02  0.14244768707E-01  0.00000000000E+00 0.  1.
     999901    1    3    3    0    0  0.59853148207E-02  0.12672900352E+00  0.53583108264E-01  0.89071163337E+00  0.88000000000E+00 0. -1.
        -11    1    4    4    0    0 -0.18376818825E-01 -0.31008719493E-01 -0.16253072320E-01  0.39543288122E-01  0.51100000000E-03 0.  1.
         11    1    4    4    0    0  0.23829913525E-01 -0.87744429549E-01 -0.40238982229E-01  0.99430309802E-01  0.51100000000E-03 0. -1.
</event>
<event>
 8    1  0.2927513E+004  0.1043930E+01  0.7957747E-01            NaN
         13   -1    0    0    0    0  0.00000000000E+00  0.00000000000E+00  0.74505805969E-08  0.10566000000E+00  0.10566000000E+00 0.  1.
     999900   -1    0    0    0    0 -0.00000000000E+00 -0.00000000000E+00 -0.74505805969E-08  0.93827000000E+00  0.93827000000E+00 0. -1.
     999902    2    1    2    0    0  0.45013829388E-02 -0.71194976899E-02 -0.10890629920E-01  0.10301620838E+01  0.10300700770E+01 0.  0.
     999903    2    3    3    0    0  0.23719899029E-01 -0.13161196484E+00 -0.51573253326E-02  0.14117355942E+00  0.44933650835E-01 0.  0.
         14    1    1    2    0    0 -0.45013829388E-02  0.71194976899E-02  0.10890629920E-01  0.13767916174E-01  0.00000000000E+00 0.  1.
     999901    1    3    3    0    0 -0.19218516090E-01  0.12449246715E+00 -0.57333045869E-02  0.88898852440E+00  0.88000000000E+00 0.  1.
        -11    1    4    4    0    0  0.19960610404E-01 -0.24615258817E-01 -0.12000475887E-01  0.33891141569E-01  0.51100000000E-03 0.  1.
         11    1    4    4    0    0  0.37592886248E-02 -0.10699670602E+00  0.68431505547E-02  0.10728241786E+00  0.51100000000E-03 0. -1.
</event>
<event>
 8    1  0.2927513E+004  0.1043930E+01  0.7957747E-01            NaN
         13   -1    0    0    0    0  0.00000000000E+00  0.00000000000E+00  0.74505805969E-08  0.10566000000E+00  0.10566000000E+00 0. -1.
     999900   -1    0    0    0    0 -0.00000000000E+00 -0.00000000000E+00 -0.74505805969E-08  0.93827000000E+00  0.93827000000E+00 0. -1.
     999902    2    1    2    0    0 -0.75247124474E-02  0.75399676945E-02  0.90426007338E-02  0.10299571321E+01  0.10298623466E+01 0.  0.
     999903    2    3    3    0    0  0.52466543328E-01  0.74591094402E-01  0.97717382072E-01  0.14093631048E+00  0.44696614198E-01 0.  0.
         14    1    1    2    0    0  0.75247124474E-02 -0.75399676945E-02 -0.90426007338E-02  0.13972867933E-01  0.00000000000E+00 0.  1.
     999901    1    3    3    0    0 -0.59991255776E-01 -0.67051126708E-01 -0.88674781339E-01  0.88902082158E+00  0.88000000000E+00 0. -1.
        -11    1    4    4    0    0  0.59670302309E-01  0.71862801402E-01  0.93389903595E-01  0.13208611743E+00  0.51100000000E-03 0.  1.
         11    1    4    4    0    0 -0.72037589802E-02  0.27282929999E-02  0.43274784778E-02  0.88501930551E-02  0.51100000000E-03 0. -1.
</event>
<event>
 8    1  0.2927513E+004  0.1043930E+01  0.7957747E-01            NaN
         13   -1    0    0    0    0  0.00000000000E+00  0.00000000000E+00  0.74505805969E-08  0.10566000000E+00  0.10566000000E+00 0. -1.
     999900   -1    0    0    0    0 -0.00000000000E+00 -0.00000000000E+00 -0.74505805969E-08  0.93827000000E+00  0.93827000000E+00 0.  1.
     999902    2    1    2    0    0 -0.64262074413E-02  0.12726803762E-01 -0.35233608157E-04  0.10296727591E+01  0.10295740488E+01 0.  0.
     999903    2    3    3    0    0  0.78252785313E-01  0.16093388066E-01 -0.10459751699E+00  0.13943956674E+00  0.46046244836E-01 0.  0.
         14    1    1    2    0    0  0.64262074413E-02 -0.12726803762E-01  0.35233608157E-04  0.14257240879E-01  0.00000000000E+00 0.  1.
     999901    1    3    3    0    0 -0.84678992755E-01 -0.33665843039E-02  0.10456228339E+00  0.89023319238E+00  0.88000000000E+00 0. -1.
        -11    1    4    4    0    0  0.32656749041E-01  0.30193810706E-01 -0.50915910830E-01  0.67607843920E-01  0.51100000000E-03 0. -1.
         11    1    4    4    0    0  0.45596036272E-01 -0.14100422640E-01 -0.53681606165E-01  0.71831722823E-01  0.51100000000E-03 0.  1.
</event>
<event>
 8    1  0.2927513E+004  0.1043930E+01  0.7957747E-01            NaN
         13   -1    0    0    0    0  0.00000000000E+00  0.00000000000E+00  0.74505805969E-08  0.10566000000E+00  0.10566000000E+00 0. -1.
     999900   -1    0    0    0    0 -0.00000000000E+00 -0.00000000000E+00 -0.74505805969E-08  0.93827000000E+00  0.93827000000E+00 0.  1.
     999902    2    1    2    0    0  0.55628016684E-03  0.13967846203E-01 -0.39884977196E-03  0.10299453922E+01  0.10298504462E+01 0.  0.
     999903    2    3    3    0    0 -0.24167068029E-01 -0.88000367001E-01  0.92499602750E-01  0.13885679784E+00  0.48958370363E-01 0.  0.
         14    1    1    2    0    0 -0.55628016684E-03 -0.13967846203E-01  0.39884977196E-03  0.13984607836E-01  0.00000000000E+00 0. -1.
     999901    1    3    3    0    0  0.24723348196E-01  0.10196821320E+00 -0.92898452522E-01  0.89108859432E+00  0.88000000000E+00 0.  1.
        -11    1    4    4    0    0 -0.65889548198E-02 -0.42177383400E-01  0.11612322306E-01  0.44243114113E-01  0.51100000000E-03 0. -1.
         11    1    4    4    0    0 -0.17578113209E-01 -0.45822983601E-01  0.80887280444E-01  0.94613683729E-01  0.51100000000E-03 0.  1.
</event>
<event>
 8    1  0.2927513E+004  0.1043930E+01  0.7957747E-01            NaN
         13   -1    0    0    0    0  0.00000000000E+00  0.00000000000E+00  0.74505805969E-08  0.10566000000E+00  0.10566000000E+00 0.  1.
     999900   -1    0    0    0    0 -0.00000000000E+00 -0.00000000000E+00 -0.74505805969E-08  0.93827000000E+00  0.93827000000E+00 0.  1.
     999902    2    1    2    0    0 -0.32437048564E-02  0.78445318908E-02 -0.99086190774E-02  0.10308824319E+01  0.10307998590E+01 0.  0.
     999903    2    3    3    0    0  0.11114773667E+00 -0.45206867189E-01 -0.58210722953E-01  0.14058307432E+00  0.44470578031E-01 0.  0.
         14    1    1    2    0    0  0.32437048564E-02 -0.78445318908E-02  0.99086190774E-02  0.13047568118E-01  0.00000000000E+00 0.  1.
     999901    1    3    3    0    0 -0.11439144153E+00  0.53051399080E-01  0.48302103875E-01  0.89029935756E+00  0.88000000000E+00 0. -1.
        -11    1    4    4    0    0  0.10516058418E+00 -0.47166615390E-01 -0.64154266871E-01  0.13190704739E+00  0.51100000000E-03 0. -1.
         11    1    4    4    0    0  0.59871524856E-02  0.19597482011E-02  0.59435439184E-02  0.86760269252E-02  0.51100000000E-03 0.  1.
</event>
<event>
 8    1  0.2927513E+004  0.1043930E+01  0.7957747E-01            NaN
         13   -1    0    0    0    0  0.00000000000E+00  0.00000000000E+00  0.74505805969E-08  0.10566000000E+00  0.10566000000E+00 0. -1.
     999900   -1    0    0    0    0 -0.00000000000E+00 -0.00000000000E+00 -0.74505805969E-08  0.93827000000E+00  0.93827000000E+00 0. -1.
     999902    2    1    2    0    0  0.82888440309E-02  0.10983917508E-01  0.27801623100E-02  0.10298914573E+01  0.10297957725E+01 0.  0.
     999903    2    3    3    0    0  0.11129712593E+00  0.74408836185E-01 -0.11161272109E-01  0.14150652380E+00  0.44449939695E-01 0.  0.
         14    1    1    2    0    0 -0.82888440309E-02 -0.10983917508E-01 -0.27801623100E-02  0.14038542719E-01  0.00000000000E+00 0.  1.
     999901    1    3    3    0    0 -0.10300828190E+00 -0.63424918676E-01  0.13941434419E-01  0.88838493348E+00  0.88000000000E+00 0.  1.
        -11    1    4    4    0    0  0.37477859869E-01  0.47585398454E-01 -0.16502735673E-01  0.62781856711E-01  0.51100000000E-03 0. -1.
         11    1    4    4    0    0  0.73819266063E-01  0.26823437731E-01  0.53414635643E-02  0.78724667086E-01  0.51100000000E-03 0.  1.
</event>
<event>
 8    1  0.2927513E+004  0.1043930E+01  0.7957747E-01            NaN
         13   -1    0    0    0    0  0.00000000000E+00  0.00000000000E+00  0.74505805969E-08  0.10566000000E+00  0.10566000000E+00 0. -1.
     999900   -1    0    0    0    0 -0.00000000000E+00 -0.00000000000E+00 -0.74505805969E-08  0.93827000000E+00  0.93827000000E+00 0. -1.
     999902    2    1    2    0    0 -0.48244984693E-02 -0.12228754397E-01  0.42076213069E-02  0.10301270186E+01  0.10300345393E+01 0.  0.
     999903    2    3    3    0    0 -0.11379078772E-01 -0.11348223293E+00  0.71173222310E-01  0.14176919586E+00  0.45001963241E-01 0.  0.
         14    1    1    2    0    0  0.48244984693E-02  0.12228754397E-01 -0.42076213069E-02  0.13802981440E-01  0.00000000000E+00 0. -1.
     999901    1    3    3    0    0  0.65545803029E-02  0.10125347853E+00 -0.66965601003E-01  0.88835782270E+00  0.88000000000E+00 0. -1.
        -11    1    4    4    0    0 -0.22085149242E-01 -0.70412838722E-01  0.62143499411E-01  0.96476926330E-01  0.51100000000E-03 0.  1.
         11    1    4    4    0    0  0.10706070470E-01 -0.43069394208E-01  0.90297228993E-02  0.45292269528E-01  0.51100000000E-03 0. -1.
</event>
<event>
 8    1  0.2927513E+004  0.1043930E+01  0.7957747E-01            NaN
         13   -1    0    0    0    0  0.00000000000E+00  0.00000000000E+00  0.74505805969E-08  0.10566000000E+00  0.10566000000E+00 0. -1.
     999900   -1    0    0    0    0 -0.00000000000E+00 -0.00000000000E+00 -0.74505805969E-08  0.93827000000E+00  0.93827000000E+00 0. -1.
     999902    2    1    2    0    0  0.10464644157E-01  0.65970606895E-02  0.16252552775E-02  0.10314531638E+01  0.10313776988E+01 0.  0.
     999903    2    3    3    0    0 -0.11950303169E+00  0.64621801573E-01 -0.10115484665E-01  0.13993966850E+00  0.31997436864E-01 0.  0.
         14    1    1    2    0    0 -0.10464644157E-01 -0.65970606895E-02 -0.16252552775E-02  0.12476836209E-01  0.00000000000E+00 0. -1.
     999901    1    3    3    0    0  0.12996767585E+00 -0.58024740884E-01  0.11740739942E-01  0.89151349530E+00  0.88000000000E+00 0. -1.
        -11    1    4    4    0    0 -0.57939164153E-01  0.42462460729E-01 -0.17939295504E-01  0.74041115322E-01  0.51100000000E-03 0. -1.
         11    1    4    4    0    0 -0.61563867541E-01  0.22159340844E-01  0.78238108393E-02  0.65898553173E-01  0.51100000000E-03 0.  1.
</event>
<event>
 8    1  0.2927513E+004  0.1043930E+01  0.7957747E-01            NaN
         13   -1    0    0    0    0  0.00000000000E+00  0.00000000000E+00  0.74505805969E-08  0.10566000000E+00  0.10566000000E+00 0. -1.
     999900   -1    0    0    0    0 -0.00000000000E+00 -0.00000000000E+00 -0.74505805969E-08  0.93827000000E+00  0.93827000000E+00 0.  1.
     999902    2    1    2    0    0  0.43659525277E-02  0.61309056223E-02  0.11425125467E-01  0.10302485148E+01  0.10301576672E+01 0.  0.
     999903    2    3    3    0    0 -0.30157328347E-01  0.80512435309E-01  0.10261875934E+00  0.14174373275E+00  0.46572087269E-01 0.  0.
         14    1    1    2    0    0 -0.43659525277E-02 -0.61309056223E-02 -0.11425125467E-01  0.13681485196E-01  0.00000000000E+00 0.  1.
     999901    1    3    3    0    0  0.34523280875E-01 -0.74381529686E-01 -0.91193633871E-01  0.88850478206E+00  0.88000000000E+00 0.  1.
        -11    1    4    4    0    0  0.65717619107E-02  0.94440520116E-02 -0.13730623730E-03  0.11517731852E-01  0.51100000000E-03 0.  1.
         11    1    4    4    0    0 -0.36729090258E-01  0.71068383297E-01  0.10275606558E+00  0.13022600089E+00  0.51100000000E-03 0. -1.
</event>
<event>
 7    1  0.2927513E+004  0.1043930E+01  0.7957747E-01            NaN
         13   -1    0    0    0    0  0.00000000000E+00  0.00000000000E+00  0.74505805969E-08  0.10566000000E+00  0.10566000000E+00 0.  1.
     999900   -1    0    0    0    0 -0.00000000000E+00 -0.00000000000E+00 -0.74505805969E-08  0.93827000000E+00  0.93827000000E+00 0.  1.
     999902    2    1    2    0    0  0.80305808327E-02  0.52468136989E-02  0.10115721452E-01  0.10299891570E+01  0.10298948085E+01 0.  0.
         14    1    1    2    0    0 -0.80305808327E-02 -0.52468136989E-02 -0.10115721452E-01  0.13940842980E-01  0.00000000000E+00 0. -1.
     999901    1    3    3    0    0 -0.37000242278E-01  0.69305823021E-01  0.12314402172E+00  0.89204078669E+00  0.88000000000E+00 0. -1.
        -11    1    3    3    0    0  0.19620110584E-01 -0.32272013008E-01 -0.63012911158E-01  0.73466452592E-01  0.51100000000E-03 0. -1.
         11    1    3    3    0    0  0.25410712526E-01 -0.31786996314E-01 -0.50015389115E-01  0.64481917737E-01  0.51100000000E-03 0.  1.
</event>
<event>
 8    1  0.2927513E+004  0.1043930E+01  0.7957747E-01            NaN
         13   -1    0    0    0    0  0.00000000000E+00  0.00000000000E+00  0.74505805969E-08  0.10566000000E+00  0.10566000000E+00 0.  1.
     999900   -1    0    0    0    0 -0.00000000000E+00 -0.00000000000E+00 -0.74505805969E-08  0.93827000000E+00  0.93827000000E+00 0. -1.
     999902    2    1    2    0    0 -0.88224099270E-02 -0.10801655511E-01 -0.14848045858E-02  0.10299044760E+01  0.10298089698E+01 0.  0.
     999903    2    3    3    0    0  0.98345506344E-01  0.87430444979E-02  0.86723498282E-01  0.13881095551E+00  0.44712825561E-01 0.  0.
         14    1    1    2    0    0  0.88224099270E-02  0.10801655511E-01  0.14848045858E-02  0.14025523996E-01  0.00000000000E+00 0. -1.
     999901    1    3    3    0    0 -0.10716791627E+00 -0.19544700009E-01 -0.88208302868E-01  0.89109352050E+00  0.88000000000E+00 0. -1.
        -11    1    4    4    0    0  0.91469958662E-01 -0.60480153804E-02  0.77657476977E-01  0.12014273461E+00  0.51100000000E-03 0. -1.
         11    1    4    4    0    0  0.68755476814E-02  0.14791059878E-01  0.90660213045E-02  0.18668220899E-01  0.51100000000E-03 0.  1.
</event>
<event>
 8    1  0.2927513E+004  0.1043930E+01  0.7957747E-01            NaN
         13   -1    0    0    0    0  0.00000000000E+00  0.00000000000E+00  0.74505805969E-08  0.10566000000E+00  0.10566000000E+00 0.  1.
     999900   -1    0    0    0    0 -0.00000000000E+00 -0.00000000000E+00 -0.74505805969E-08  0.93827000000E+00  0.93827000000E+00 0.  1.
     999902    2    1    2    0    0  0.17570527424E-01  0.26897940567E-02 -0.12419556452E-01  0.10222458166E+01  0.10220158051E+01 0.  0.
     999903    2    3    3    0    0 -0.10150945076E+00  0.56851727601E-01 -0.42180599055E-01  0.13207769998E+00  0.46141395401E-01 0.  0.
         14    1    1    2    0    0 -0.17570527424E-01 -0.26897940567E-02  0.12419556452E-01  0.21684183371E-01  0.00000000000E+00 0.  1.
     999901    1    3    3    0    0  0.11907997818E+00 -0.54161933544E-01  0.29761042604E-01  0.89016811665E+00  0.88000000000E+00 0. -1.
        -11    1    4    4    0    0 -0.90430911320E-02  0.47425948458E-02 -0.21688956240E-01  0.23977940839E-01  0.51100000000E-03 0.  1.
         11    1    4    4    0    0 -0.92466359626E-01  0.52109132755E-01 -0.20491642815E-01  0.10809975914E+00  0.51100000000E-03 0. -1.
</event>
<event>
 8    1  0.2927513E+004  0.1043930E+01  0.7957747E-01            NaN
         13   -1    0    0    0    0  0.00000000000E+00  0.00000000000E+00  0.74505805969E-08  0.10566000000E+00  0.10566000000E+00 0. -1.
     999900   -1    0    0    0    0 -0.00000000000E+00 -0.00000000000E+00 -0.74505805969E-08  0.93827000000E+00  0.93827000000E+00 0.  1.
     999902    2    1    2    0    0  0.12206585697E-01 -0.14527929599E-02  0.57088161425E-02  0.10303763317E+01  0.10302871848E+01 0.  0.
     999903    2    3    3    0    0  0.11094948466E+00 -0.25633455293E-01 -0.69732663629E-01  0.14131712032E+00  0.46271178313E-01 0.  0.
         14    1    1    2    0    0 -0.12206585697E-01  0.14527929599E-02 -0.57088161425E-02  0.13553668267E-01  0.00000000000E+00 0.  1.
     999901    1    3    3    0    0 -0.98742898963E-01  0.24180662333E-01  0.75441479771E-01  0.88905921141E+00  0.88000000000E+00 0. -1.
        -11    1    4    4    0    0  0.27281947248E-01  0.11779640531E-01 -0.27151045559E-01  0.40255496179E-01  0.51100000000E-03 0. -1.
         11    1    4    4    0    0  0.83667537412E-01 -0.37413095824E-01 -0.42581618070E-01  0.10106162414E+00  0.51100000000E-03 0.  1.
</event>
<event>
 8    1  0.2927513E+004  0.1043930E+01  0.7957747E-01            NaN
         13   -1    0    0    0    0  0.00000000000E+00  0.00000000000E+00  0.74505805969E-08  0.10566000000E+00  0.10566000000E+00 0. -1.
     999900   -1    0    0    0    0 -0.00000000000E+00 -0.00000000000E+00 -0.74505805969E-08  0.93827000000E+00  0.93827000000E+00 0.  1.
     999902    2    1    2    0    0  0.89716940483E-02  0.17195122242E-02 -0.11420360311E-01  0.10293056147E+01  0.10292017177E+01 0.  0.
     999903    2    3    3    0    0 -0.11852953317E+00 -0.54574919701E-01  0.49361120743E-02  0.13818656528E+00  0.45204972379E-01 0.  0.
         14    1    1    2    0    0 -0.89716940483E-02 -0.17195122242E-02  0.11420360311E-01  0.14624385321E-01  0.00000000000E+00 0. -1.
     999901    1    3    3    0    0  0.12750122722E+00  0.56294431925E-01 -0.16356472385E-01  0.89111904940E+00  0.88000000000E+00 0. -1.
        -11    1    4    4    0    0 -0.64794674517E-01 -0.30960058443E-01  0.25175127307E-01  0.76098115749E-01  0.51100000000E-03 0. -1.
         11    1    4    4    0    0 -0.53734858655E-01 -0.23614861258E-01 -0.20239015233E-01  0.62088449534E-01  0.51100000000E-03 0.  1.
</event>
<event>
 8    1  0.2927513E+004  0.1043930E+01  0.7957747E-01            NaN
         13   -1    0    0    0    0  0.00000000000E+00  0.00000000000E+00  0.74505805969E-08  0.10566000000E+00  0.10566000000E+00 0.  1.
     999900   -1    0    0    0    0 -0.00000000000E+00 -0.00000000000E+00 -0.74505805969E-08  0.93827000000E+00  0.93827000000E+00 0.  1.
     999902    2    1    2    0    0  0.23809818562E-02 -0.92020819960E-02 -0.76945663435E-02  0.10317007834E+01  0.10316283016E+01 0.  0.
     999903    2    3    3    0    0  0.11721106726E+00  0.35197811211E-01 -0.55653132544E-01  0.14183712917E+00  0.45201546940E-01 0.  0.
         14    1    1    2    0    0 -0.23809818562E-02  0.92020819960E-02  0.76945663435E-02  0.12229216609E-01  0.00000000000E+00 0.  1.
     999901    1    3    3    0    0 -0.11483008541E+00 -0.44399893207E-01  0.47958566201E-01  0.88986365422E+00  0.88000000000E+00 0. -1.
        -11    1    4    4    0    0  0.10342747290E+00  0.13095575425E-01 -0.47254336246E-01  0.11446383560E+00  0.51100000000E-03 0. -1.
         11    1    4    4    0    0  0.13783594365E-01  0.22102235786E-01 -0.83987962981E-02  0.27373293565E-01  0.51100000000E-03 0.  1.
</event>
<event>
 7    1  0.2927513E+004  0.1043930E+01  0.7957747E-01            NaN
         13   -1    0    0    0    0  0.00000000000E+00  0.00000000000E+00  0.74505805969E-08  0.10566000000E+00  0.10566000000E+00 0.  1.
     999900   -1    0    0    0    0 -0.00000000000E+00 -0.00000000000E+00 -0.74505805969E-08  0.93827000000E+00  0.93827000000E+00 0. -1.
     999903    2    1    2    0    0  0.44592788554E-01  0.34740449854E-01  0.42489482643E-01  0.83560173749E-01  0.44514389299E-01 0.  0.
         14    1    1    2    0    0 -0.52995918121E-01  0.49512600905E-01 -0.23018198578E-01  0.76091408527E-01  0.00000000000E+00 0. -1.
     999901    1    1    2    0    0  0.84031295667E-02 -0.84253050759E-01 -0.19471284065E-01  0.88427841772E+00  0.88000000000E+00 0. -1.
        -11    1    3    3    0    0  0.28719575627E-01  0.40167465811E-01  0.15461138260E-01  0.51745021511E-01  0.51100000000E-03 0. -1.
         11    1    3    3    0    0  0.15873212927E-01 -0.54270159575E-02  0.27028344383E-01  0.31815152238E-01  0.51100000000E-03 0.  1.
</event>
<event>
 8    1  0.2927513E+004  0.1043930E+01  0.7957747E-01            NaN
         13   -1    0    0    0    0  0.00000000000E+00  0.00000000000E+00  0.74505805969E-08  0.10566000000E+00  0.10566000000E+00 0.  1.
     999900   -1    0    0    0    0 -0.00000000000E+00 -0.00000000000E+00 -0.74505805969E-08  0.93827000000E+00  0.93827000000E+00 0.  1.
     999902    2    1    2    0    0 -0.65925751269E-02 -0.10077814523E-01 -0.11294104651E-01  0.10274199669E+01  0.10272873051E+01 0.  0.
     999903    2    3    3    0    0 -0.75456457806E-01  0.69279549979E-01  0.78277970655E-01  0.13665457564E+00  0.45317759019E-01 0.  0.
         14    1    1    2    0    0  0.65925751269E-02  0.10077814523E-01  0.11294104651E-01  0.16510033078E-01  0.00000000000E+00 0.  1.
     999901    1    3    3    0    0  0.68863882679E-01 -0.79357364502E-01 -0.89572075306E-01  0.89076539129E+00  0.88000000000E+00 0.  1.
        -11    1    4    4    0    0 -0.50932506581E-01  0.23533785081E-01  0.58632408566E-01  0.81154049327E-01  0.51100000000E-03 0. -1.
         11    1    4    4    0    0 -0.24523951225E-01  0.45745764898E-01  0.19645562088E-01  0.55500526309E-01  0.51100000000E-03 0.  1.
</event>
<event>
 8    1  0.2927513E+004  0.1043930E+01  0.7957747E-01            NaN
         13   -1    0    0    0    0  0.00000000000E+00  0.00000000000E+00  0.74505805969E-08  0.10566000000E+00  0.10566000000E+00 0. -1.
     999900   -1    0    0    0    0 -0.00000000000E+00 -0.00000000000E+00 -0.74505805969E-08  0.93827000000E+00  0.93827000000E+00 0. -1.
     999902    2    1    2    0    0 -0.12975976775E-01  0.35245330923E-02 -0.33421851667E-02  0.10300747299E+01  0.10299815439E+01 0.  0.
     999903    2    3    3    0    0  0.38954195816E-01 -0.46932479535E-01 -0.11882827437E+00  0.13958065935E+00  0.40527949243E-01 0.  0.
         14    1    1    2    0    0  0.12975976775E-01 -0.35245330923E-02  0.33421851667E-02  0.13855270061E-01  0.00000000000E+00 0.  1.
     999901    1    3    3    0    0 -0.51930172591E-01  0.50457012628E-01  0.11548608920E+00  0.89049407059E+00  0.88000000000E+00 0. -1.
        -11    1    4    4    0    0  0.16789131141E-02 -0.33049303116E-01 -0.60841594662E-01  0.69260637795E-01  0.51100000000E-03 0.  1.
         11    1    4    4    0    0  0.37275282701E-01 -0.13883176419E-01 -0.57986679704E-01  0.70320021559E-01  0.51100000000E-03 0. -1.
</event>
<event>
 8    1  0.2927513E+004  0.1043930E+01  0.7957747E-01            NaN
         13   -1    0    0    0    0  0.00000000000E+00  0.00000000000E+00  0.74505805969E-08  0.10566000000E+00  0.10566000000E+00 0. -1.
     999900   -1    0    0    0    0 -0.00000000000E+00 -0.00000000000E+00 -0.74505805969E-08  0.93827000000E+00  0.93827000000E+00 0. -1.
     999902    2    1    2    0    0 -0.18766601251E-02  0.28365440533E-02  0.12261439602E-01  0.10312055850E+01  0.10311270765E+01 0.  0.
     999903    2    3    3    0    0 -0.15043672408E-01 -0.68109173049E-01  0.11587960753E+00  0.14219299247E+00  0.43881569426E-01 0.  0.
         14    1    1    2    0    0  0.18766601251E-02 -0.28365440533E-02 -0.12261439602E-01  0.12724414977E-01  0.00000000000E+00 0.  1.
     999901    1    3    3    0    0  0.13167012283E-01  0.70945717102E-01 -0.10361816792E+00  0.88901259255E+00  0.88000000000E+00 0. -1.
        -11    1    4    4    0    0  0.86872747465E-02 -0.26313626303E-01  0.17716488523E-01  0.32893931937E-01  0.51100000000E-03 0. -1.
         11    1    4    4    0    0 -0.23730947155E-01 -0.41795546746E-01  0.98163119003E-01  0.10929906054E+00  0.51100000000E-03 0.  1.
</event>
<event>
 8    1  0.2927513E+004  0.1043930E+01  0.7957747E-01            NaN
         13   -1    0    0    0    0  0.00000000000E+00  0.00000000000E+00  0.74505805969E-08  0.10566000000E+00  0.10566000000E+00 0.  1.
     999900   -1    0    0    0    0 -0.00000000000E+00 -0.00000000000E+00 -0.74505805969E-08  0.93827000000E+00  0.93827000000E+00 0. -1.
     999902    2    1    2    0    0  0.83541580719E-02  0.10279401740E-01 -0.15148931206E-02  0.10305975974E+01  0.10305113560E+01 0.  0.
     999903    2    3    3    0    0  0.88472522682E-01  0.57973001916E-01 -0.83394814192E-01  0.14189182310E+00  0.44613206652E-01 0.  0.
         14    1    1    2    0    0 -0.83541580719E-02 -0.10279401740E-01  0.15148931206E-02  0.13332402574E-01  0.00000000000E+00 0. -1.
     999901    1    3    3    0    0 -0.80118364610E-01 -0.47693600176E-01  0.81879921071E-01  0.88870577433E+00  0.88000000000E+00 0.  1.
        -11    1    4    4    0    0 -0.34694937925E-02  0.10938748888E-01 -0.73089682229E-02  0.13615276417E-01  0.51100000000E-03 0. -1.
         11    1    4    4    0    0  0.91942016475E-01  0.47034253027E-01 -0.76085845969E-01  0.12827654668E+00  0.51100000000E-03 0.  1.
</event>
<event>
 8    1  0.2927513E+004  0.1043930E+01  0.7957747E-01            NaN
         13   -1    0    0    0    0  0.00000000000E+00  0.00000000000E+00  0.74505805969E-08  0.10566000000E+00  0.10566000000E+00 0.  1.
     999900   -1    0    0    0    0 -0.00000000000E+00 -0.00000000000E+00 -0.74505805969E-08  0.93827000000E+00  0.93827000000E+00 0. -1.
     999902    2    1    2    0    0  0.12892435316E-01  0.44174007886E-02  0.15318571776E-02  0.10302159596E+01  0.10301246762E+01 0.  0.
     999903    2    3    3    0    0 -0.79284110278E-01 -0.56003686336E-02  0.10517502026E+00  0.13929577432E+00  0.44991038935E-01 0.  0.
         14    1    1    2    0    0 -0.12892435316E-01 -0.44174007886E-02 -0.15318571776E-02  0.13714040415E-01  0.00000000000E+00 0. -1.
     999901    1    3    3    0    0  0.92176545594E-01  0.10017769422E-01 -0.10364316308E+00  0.89092018527E+00  0.88000000000E+00 0. -1.
        -11    1    4    4    0    0 -0.83437048733E-01 -0.61540131614E-02  0.87255456723E-01  0.12088585040E+00  0.51100000000E-03 0.  1.
         11    1    4    4    0    0  0.41529384546E-02  0.55364452785E-03  0.17919563539E-01  0.18409923913E-01  0.51100000000E-03 0. -1.
</event>
<event>
 8    1  0.2927513E+004  0.1043930E+01  0.7957747E-01            NaN
         13   -1    0    0    0    0  0.00000000000E+00  0.00000000000E+00  0.74505805969E-08  0.10566000000E+00  0.10566000000E+00 0.  1.
     999900   -1    0    0    0    0 -0.00000000000E+00 -0.00000000000E+00 -0.74505805969E-08  0.93827000000E+00  0.93827000000E+00 0. -1.
     999902    2    1    2    0    0  0.84853292209E-02 -0.72681531968E-02  0.89668253740E-02  0.10296041206E+01  0.10295044509E+01 0.  0.
     999903    2    3    3    0    0 -0.92399809533E-01  0.82941693595E-01 -0.39734506057E-01  0.13792735891E+00  0.45034165103E-01 0.  0.
         14    1    1    2    0    0 -0.84853292209E-02  0.72681531968E-02 -0.89668253740E-02  0.14325879385E-01  0.00000000000E+00 0. -1.
     999901    1    3    3    0    0  0.10088513875E+00 -0.90209846792E-01  0.48701331431E-01  0.89167676170E+00  0.88000000000E+00 0.  1.
        -11    1    4    4    0    0 -0.74827590266E-01  0.38912218365E-01 -0.30076672734E-01  0.89544382106E-01  0.51100000000E-03 0.  1.
         11    1    4    4    0    0 -0.17572219267E-01  0.44029475230E-01 -0.96578333227E-02  0.48382976805E-01  0.51100000000E-03 0. -1.
</event>
<event>
 8    1  0.2927513E+004  0.1043930E+01  0.7957747E-01            NaN
         13   -1    0    0    0    0  0.00000000000E+00  0.00000000000E+00  0.74505805969E-08  0.10566000000E+00  0.10566000000E+00 0.  1.
     999900   -1    0    0    0    0 -0.00000000000E+00 -0.00000000000E+00 -0.74505805969E-08  0.93827000000E+00  0.93827000000E+00 0. -1.
     999902    2    1    2    0    0  0.10136548130E-01 -0.54321953193E-02  0.82499168365E-02  0.10297765735E+01  0.10296793053E+01 0.  0.
     999903    2    3    3    0    0 -0.75209178042E-01 -0.10714269000E+00 -0.15651454881E-01  0.13949561039E+00  0.45585971465E-01 0.  0.
         14    1    1    2    0    0 -0.10136548130E-01  0.54321953193E-02 -0.82499168365E-02  0.14153426503E-01  0.00000000000E+00 0. -1.
     999901    1    3    3    0    0  0.85345726171E-01  0.10171049469E+00  0.23901371717E-01  0.89028096311E+00  0.88000000000E+00 0. -1.
        -11    1    4    4    0    0 -0.19411869428E-01 -0.66799363790E-01 -0.11553460835E-01  0.70517510278E-01  0.51100000000E-03 0. -1.
         11    1    4    4    0    0 -0.55797308614E-01 -0.40343326214E-01 -0.40979940457E-02  0.68978100110E-01  0.51100000000E-03 0.  1.
</event>
<event>
 8    1  0.2927513E+004  0.1043930E+01  0.7957747E-01            NaN
         13   -1    0    0    0    0  0.00000000000E+00  0.00000000000E+00  0.74505805969E-08  0.10566000000E+00  0.10566000000E+00 0. -1.
     999900   -1    0    0    0    0 -0.00000000000E+00 -0.00000000000E+00 -0.74505805969E-08  0.93827000000E+00  0.93827000000E+00 0. -1.
     999902    2    1    2    0    0 -0.69834572649E-02  0.90853953430E-02 -0.74065083732E-02  0.10302856074E+01  0.10301952549E+01 0.  0.
     999903    2    3    3    0    0  0.72534497696E-01  0.55037167154E-01 -0.97641687086E-01  0.14091669743E+00  0.45091833331E-01 0.  0.
         14    1    1    2    0    0  0.69834572649E-02 -0.90853953430E-02  0.74065083732E-02  0.13644392628E-01  0.00000000000E+00 0. -1.
     999901    1    3    3    0    0 -0.79517954961E-01 -0.45951771811E-01  0.90235178713E-01  0.88936890994E+00  0.88000000000E+00 0.  1.
        -11    1    4    4    0    0  0.64554107155E-01  0.61531617705E-01 -0.76906802829E-01  0.11776370481E+00  0.51100000000E-03 0. -1.
         11    1    4    4    0    0  0.79803905416E-02 -0.64944505512E-02 -0.20734884257E-01  0.23152992621E-01  0.51100000000E-03 0.  1.
</event>
<event>
 8    1  0.2927513E+004  0.1043930E+01  0.7957747E-01            NaN
         13   -1    0    0    0    0  0.00000000000E+00  0.00000000000E+00  0.74505805969E-08  0.10566000000E+00  0.10566000000E+00 0.  1.
     999900   -1    0    0    0    0 -0.00000000000E+00 -0.00000000000E+00 -0.74505805969E-08  0.93827000000E+00  0.93827000000E+00 0. -1.
     999902    2    1    2    0    0 -0.90029969027E-02  0.15388245609E-01  0.10367220275E-01  0.10233064379E+01  0.10230985948E+01 0.  0.
     999903    2    3    3    0    0 -0.11922856960E+00 -0.35740763520E-01 -0.23631041065E-01  0.13430714984E+00  0.44577240968E-01 0.  0.
         14    1    1    2    0    0  0.90029969027E-02 -0.15388245609E-01 -0.10367220275E-01  0.20623562068E-01  0.00000000000E+00 0. -1.
     999901    1    3    3    0    0  0.11022557269E+00  0.51129009129E-01  0.33998261340E-01  0.88899928809E+00  0.88000000000E+00 0.  1.
        -11    1    4    4    0    0 -0.83976012994E-01 -0.45417116986E-01 -0.13940417869E-01  0.96484618697E-01  0.51100000000E-03 0. -1.
         11    1    4    4    0    0 -0.35252556601E-01  0.96763534664E-02 -0.96906231966E-02  0.37822531145E-01  0.51100000000E-03 0.  1.
</event>
<event>
 8    1  0.2927513E+004  0.1043930E+01  0.7957747E-01            NaN
         13   -1    0    0    0    0  0.00000000000E+00  0.00000000000E+00  0.74505805969E-08  0.10566000000E+00  0.10566000000E+00 0.  1.
     999900   -1    0    0    0    0 -0.00000000000E+00 -0.00000000000E+00 -0.74505805969E-08  0.93827000000E+00  0.93827000000E+00 0.  1.
     999902    2    1    2    0    0  0.13464010542E-01  0.18013463933E-02 -0.82163369383E-04  0.10303457746E+01  0.10302562225E+01 0.  0.
     999903    2    3    3    0    0  0.88724051789E-01  0.83930993316E-01 -0.56008304391E-01  0.14156172549E+00  0.44569305120E-01 0.  0.
         14    1    1    2    0    0 -0.13464010542E-01 -0.18013463933E-02  0.82163369383E-04  0.13584225392E-01  0.00000000000E+00 0. -1.
     999901    1    3    3    0    0 -0.75260041247E-01 -0.82129646922E-01  0.55926141021E-01  0.88878404912E+00  0.88000000000E+00 0. -1.
        -11    1    4    4    0    0  0.44467446128E-01  0.58105880602E-01 -0.52774642783E-01  0.90216800916E-01  0.51100000000E-03 0. -1.
         11    1    4    4    0    0  0.44256605661E-01  0.25825112713E-01 -0.32336616071E-02  0.51344924576E-01  0.51100000000E-03 0.  1.
</event>
<event>
 8    1  0.2927513E+004  0.1043930E+01  0.7957747E-01            NaN
         13   -1    0    0    0    0  0.00000000000E+00  0.00000000000E+00  0.74505805969E-08  0.10566000000E+00  0.10566000000E+00 0. -1.
     999900   -1    0    0    0    0 -0.00000000000E+00 -0.00000000000E+00 -0.74505805969E-08  0.93827000000E+00  0.93827000000E+00 0.  1.
     999902    2    1    2    0    0 -0.21915790595E-01  0.10930881819E-01 -0.56623658739E-02  0.10187934043E+01  0.10184832607E+01 0.  0.
     999903    2    3    3    0    0  0.74616377680E-01  0.77487536347E-01  0.55192365670E-01  0.12893299610E+00  0.44783905017E-01 0.  0.
         14    1    1    2    0    0  0.21915790595E-01 -0.10930881819E-01  0.56623658739E-02  0.25136595673E-01  0.00000000000E+00 0.  1.
     999901    1    3    3    0    0 -0.96532168275E-01 -0.66556654529E-01 -0.60854731544E-01  0.88986040822E+00  0.88000000000E+00 0.  1.
        -11    1    4    4    0    0  0.20540929826E-01  0.54759963141E-02  0.27405312088E-01  0.34687585465E-01  0.51100000000E-03 0. -1.
         11    1    4    4    0    0  0.54075447853E-01  0.72011540033E-01  0.27787053582E-01  0.94245410637E-01  0.51100000000E-03 0.  1.
</event>
<event>
 8    1  0.2927513E+004  0.1043930E+01  0.7957747E-01            NaN
         13   -1    0    0    0    0  0.00000000000E+00  0.00000000000E+00  0.74505805969E-08  0.10566000000E+00  0.10566000000E+00 0. -1.
     999900   -1    0    0    0    0 -0.00000000000E+00 -0.00000000000E+00 -0.74505805969E-08  0.93827000000E+00  0.93827000000E+00 0. -1.
     999902    2    1    2    0    0 -0.32742364019E-02  0.10402107137E-01 -0.85099802783E-02  0.10300972772E+01  0.10300043962E+01 0.  0.
     999903    2    3    3    0    0 -0.27789404859E-01  0.97968020904E-02 -0.13080511462E+00  0.14130176650E+00  0.44586801315E-01 0.  0.
         14    1    1    2    0    0  0.32742364019E-02 -0.10402107137E-01  0.85099802783E-02  0.13832722842E-01  0.00000000000E+00 0. -1.
     999901    1    3    3    0    0  0.24515168457E-01  0.60530504625E-03  0.12229513434E+00  0.88879551066E+00  0.88000000000E+00 0.  1.
        -11    1    4    4    0    0  0.41741457950E-02 -0.30912390003E-02 -0.78424729207E-01  0.78598209419E-01  0.51100000000E-03 0. -1.
         11    1    4    4    0    0 -0.31963550654E-01  0.12888041091E-01 -0.52380385415E-01  0.62703557082E-01  0.51100000000E-03 0.  1.
</event>
<event>
 8    1  0.2927513E+004  0.1043930E+01  0.7957747E-01            NaN
         13   -1    0    0    0    0  0.00000000000E+00  0.00000000000E+00  0.74505805969E-08  0.10566000000E+00  0.10566000000E+00 0.  1.
     999900   -1    0    0    0    0 -0.00000000000E+00 -0.00000000000E+00 -0.74505805969E-08  0.93827000000E+00  0.93827000000E+00 0. -1.
     999902    2    1    2    0    0  0.27661991122E-02 -0.12367235835E-01 -0.72585172303E-02  0.10293256701E+01  0.10292220599E+01 0.  0.
     999903    2    3    3    0    0  0.11154339593E+00 -0.21850525112E-01  0.67147399384E-01  0.13946126933E+00  0.44958845345E-01 0.  0.
         14    1    1    2    0    0 -0.27661991122E-02  0.12367235835E-01  0.72585172303E-02  0.14604329909E-01  0.00000000000E+00 0.  1.
     999901    1    3    3    0    0 -0.10877719682E+00  0.94832892771E-02 -0.74405916614E-01  0.88986440077E+00  0.88000000000E+00 0. -1.
        -11    1    4    4    0    0  0.40911293324E-01  0.97388594439E-02  0.98920047152E-02  0.43205233283E-01  0.51100000000E-03 0. -1.
         11    1    4    4    0    0  0.70632102605E-01 -0.31589384556E-01  0.57255394668E-01  0.96256036043E-01  0.51100000000E-03 0.  1.
</event>
<event>
 8    1  0.2927513E+004  0.1043930E+01  0.7957747E-01            NaN
         13   -1    0    0    0    0  0.00000000000E+00  0.00000000000E+00  0.74505805969E-08  0.10566000000E+00  0.10566000000E+00 0. -1.
     999900   -1    0    0    0    0 -0.00000000000E+00 -0.00000000000E+00 -0.74505805969E-08  0.93827000000E+00  0.93827000000E+00 0. -1.
     999902    2    1    2    0    0 -0.10097563466E-01 -0.94692315320E-02  0.33062254041E-02  0.10296977036E+01  0.10295993408E+01 0.  0.
     999903    2    3    3    0    0  0.94806319313E-01 -0.80902779326E-01 -0.43022318363E-01  0.13938657242E+00  0.45212816875E-01 0.  0.
         14    1    1    2    0    0  0.10097563466E-01  0.94692315320E-02 -0.33062254041E-02  0.14232296378E-01  0.00000000000E+00 0. -1.
     999901    1    3    3    0    0 -0.10490388278E+00  0.71433547794E-01  0.46328543767E-01  0.89031113120E+00  0.88000000000E+00 0.  1.
        -11    1    4    4    0    0  0.25522284073E-01  0.26263494544E-03 -0.44524355576E-02  0.25914113236E-01  0.51100000000E-03 0.  1.
         11    1    4    4    0    0  0.69284035240E-01 -0.81165414272E-01 -0.38569882805E-01  0.11347245919E+00  0.51100000000E-03 0. -1.
</event>
<event>
 8    1  0.2927513E+004  0.1043930E+01  0.7957747E-01            NaN
         13   -1    0    0    0    0  0.00000000000E+00  0.00000000000E+00  0.74505805969E-08  0.10566000000E+00  0.10566000000E+00 0.  1.
     999900   -1    0    0    0    0 -0.00000000000E+00 -0.00000000000E+00 -0.74505805969E-08  0.93827000000E+00  0.93827000000E+00 0.  1.
     999902    2    1    2    0    0 -0.44753947177E-02  0.90750269786E-02  0.10664976104E-01  0.10292287420E+01  0.10291237420E+01 0.  0.
     999903    2    3    3    0    0  0.11951478465E+00  0.89200818982E-02  0.55364016013E-01  0.13941325954E+00  0.44805480197E-01 0.  0.
         14    1    1    2    0    0  0.44753947177E-02 -0.90750269786E-02 -0.10664976104E-01  0.14701258036E-01  0.00000000000E+00 0. -1.
     999901    1    3    3    0    0 -0.12399017937E+00  0.15494508041E-03 -0.44699039909E-01  0.88981548242E+00  0.88000000000E+00 0.  1.
        -11    1    4    4    0    0  0.71851049351E-01  0.72601347681E-02  0.56516152161E-01  0.91703977153E-01  0.51100000000E-03 0. -1.
         11    1    4    4    0    0  0.47663735302E-01  0.16599471301E-02 -0.11521361488E-02  0.47709282389E-01  0.51100000000E-03 0.  1.
</event>
<event>
 8    1  0.2927513E+004  0.1043930E+01  0.7957747E-01            NaN
         13   -1    0    0    0    0  0.00000000000E+00  0.00000000000E+00  0.74505805969E-08  0.10566000000E+00  0.10566000000E+00 0. -1.
     999900   -1    0    0    0    0 -0.00000000000E+00 -0.00000000000E+00 -0.74505805969E-08  0.93827000000E+00  0.93827000000E+00 0. -1.
     999902    2    1    2    0    0 -0.12713597028E-01 -0.10565131405E-01  0.19815097479E-02  0.10272811582E+01  0.10271462380E+01 0.  0.
     999903    2    3    3    0    0 -0.62758967615E-01 -0.75938266265E-01 -0.86824323945E-01  0.13898804109E+00  0.45540136566E-01 0.  0.
         14    1    1    2    0    0  0.12713597028E-01  0.10565131405E-01 -0.19815097479E-02  0.16648841758E-01  0.00000000000E+00 0.  1.
     999901    1    3    3    0    0  0.50045370587E-01  0.65373134861E-01  0.88805833693E-01  0.88829311715E+00  0.88000000000E+00 0.  1.
        -11    1    4    4    0    0 -0.19057516666E-01 -0.20511173452E-01 -0.12108323869E-02  0.28028992382E-01  0.51100000000E-03 0.  1.
         11    1    4    4    0    0 -0.43701450949E-01 -0.55427092813E-01 -0.85613491559E-01  0.11095904871E+00  0.51100000000E-03 0. -1.
</event>
<event>
 8    1  0.2927513E+004  0.1043930E+01  0.7957747E-01            NaN
         13   -1    0    0    0    0  0.00000000000E+00  0.00000000000E+00  0.74505805969E-08  0.10566000000E+00  0.10566000000E+00 0.  1.
     999900   -1    0    0    0    0 -0.00000000000E+00 -0.00000000000E+00 -0.74505805969E-08  0.93827000000E+00  0.93827000000E+00 0. -1.
     999902    2    1    2    0    0  0.61826449436E-02  0.35765838737E-02  0.11966525311E-01  0.10299939037E+01  0.10298996199E+01 0.  0.
     999903    2    3    3    0    0 -0.11669650228E+00  0.41295654244E-01  0.44656926894E-01  0.14005532416E+00  0.47935873844E-01 0.  0.
         14    1    1    2    0    0 -0.61826449436E-02 -0.35765838737E-02 -0.11966525311E-01  0.13936096251E-01  0.00000000000E+00 0.  1.
     999901    1    3    3    0    0  0.12287914722E+00 -0.37719070370E-01 -0.32690401583E-01  0.88993857959E+00  0.88000000000E+00 0. -1.
        -11    1    4    4    0    0 -0.10602038751E+00  0.32215111106E-01  0.21337952845E-01  0.11284372071E+00  0.51100000000E-03 0.  1.
         11    1    4    4    0    0 -0.10676114765E-01  0.90805431382E-02  0.23318974048E-01  0.27211603441E-01  0.51100000000E-03 0. -1.
</event>
<event>
 8    1  0.2927513E+004  0.1043930E+01  0.7957747E-01            NaN
         13   -1    0    0    0    0  0.00000000000E+00  0.00000000000E+00  0.74505805969E-08  0.10566000000E+00  0.10566000000E+00 0.  1.
     999900   -1    0    0    0    0 -0.00000000000E+00 -0.00000000000E+00 -0.74505805969E-08  0.93827000000E+00  0.93827000000E+00 0. -1.
     999902    2    1    2    0    0  0.23151421836E-02  0.12998623409E-01  0.54245686108E-02  0.10296558962E+01  0.10295569506E+01 0.  0.
     999903    2    3    3    0    0  0.72334598363E-01  0.10874250103E+00 -0.27676438362E-01  0.14108103106E+00  0.45614103466E-01 0.  0.
         14    1    1    2    0    0 -0.23151421836E-02 -0.12998623409E-01 -0.54245686108E-02  0.14274103771E-01  0.00000000000E+00 0. -1.
     999901    1    3    3    0    0 -0.70019456179E-01 -0.95743877618E-01  0.33101006973E-01  0.88857486517E+00  0.88000000000E+00 0.  1.
        -11    1    4    4    0    0  0.13125507954E-01  0.16353180829E-01  0.12270937676E-01  0.24301080526E-01  0.51100000000E-03 0. -1.
         11    1    4    4    0    0  0.59209090409E-01  0.92389320198E-01 -0.39947376038E-01  0.11677995054E+00  0.51100000000E-03 0.  1.
</event>
<event>
 8    1  0.2927513E+004  0.1043930E+01  0.7957747E-01            NaN
         13   -1    0    0    0    0  0.00000000000E+00  0.00000000000E+00  0.74505805969E-08  0.10566000000E+00  0.10566000000E+00 0. -1.
     999900   -1    0    0    0    0 -0.00000000000E+00 -0.00000000000E+00 -0.74505805969E-08  0.93827000000E+00  0.93827000000E+00 0. -1.
     999902    2    1    2    0    0  0.11098312677E-01  0.50822198644E-03  0.59174426150E-02  0.10313424283E+01  0.10312656096E+01 0.  0.
     999903    2    3    3    0    0  0.65761905398E-01 -0.10652956442E+00  0.50474605744E-01  0.14205589582E+00  0.44260766091E-01 0.  0.
         14    1    1    2    0    0 -0.11098312677E-01 -0.50822198644E-03 -0.59174426150E-02  0.12587571686E-01  0.00000000000E+00 0.  1.
     999901    1    3    3    0    0 -0.54663592721E-01  0.10703778641E+00 -0.44557163129E-01  0.88928653249E+00  0.88000000000E+00 0.  1.
        -11    1    4    4    0    0  0.39996396182E-01 -0.66823671038E-01  0.77063342583E-02  0.78260867790E-01  0.51100000000E-03 0.  1.
         11    1    4    4    0    0  0.25765509215E-01 -0.39705893383E-01  0.42768271486E-01  0.63795028030E-01  0.51100000000E-03 0. -1.
</event>
<event>
 8    1  0.2927513E+004  0.1043930E+01  0.7957747E-01            NaN
         13   -1    0    0    0    0  0.00000000000E+00  0.00000000000E+00  0.74505805969E-08  0.10566000000E+00  0.10566000000E+00 0.  1.
     999900   -1    0    0    0    0 -0.00000000000E+00 -0.00000000000E+00 -0.74505805969E-08  0.93827000000E+00  0.93827000000E+00 0.  1.
     999902    2    1    2    0    0  0.11910101931E-01  0.89985737372E-03 -0.90861982640E-02  0.10289226928E+01  0.10288132427E+01 0.  0.
     999903    2    3    3    0    0  0.97562461995E-01  0.36146127374E-01 -0.83543325143E-01  0.14093480430E+00  0.45366897320E-01 0.  0.
         14    1    1    2    0    0 -0.11910101931E-01 -0.89985737372E-03  0.90861982640E-02  0.15007307226E-01  0.00000000000E+00 0.  1.
     999901    1    3    3    0    0 -0.85652360064E-01 -0.35246270001E-01  0.74457126879E-01  0.88798788847E+00  0.88000000000E+00 0. -1.
        -11    1    4    4    0    0  0.70293458200E-01  0.21782299686E-01 -0.30661322968E-01  0.79724630400E-01  0.51100000000E-03 0.  1.
         11    1    4    4    0    0  0.27269003795E-01  0.14363827689E-01 -0.52882002174E-01  0.61210173900E-01  0.51100000000E-03 0. -1.
</event>
<event>
 8    1  0.2927513E+004  0.1043930E+01  0.7957747E-01            NaN
         13   -1    0    0    0    0  0.00000000000E+00  0.00000000000E+00  0.74505805969E-08  0.10566000000E+00  0.10566000000E+00 0. -1.
     999900   -1    0    0    0    0 -0.00000000000E+00 -0.00000000000E+00 -0.74505805969E-08  0.93827000000E+00  0.93827000000E+00 0.  1.
     999902    2    1    2    0    0 -0.31649818138E-02 -0.13585163164E-01  0.26180364947E-02  0.10297374709E+01  0.10296396608E+01 0.  0.
     999903    2    3    3    0    0 -0.84519594572E-01 -0.27264157513E-01 -0.98514532297E-01  0.14011199665E+00  0.45159300044E-01 0.  0.
         14    1    1    2    0    0  0.31649818138E-02  0.13585163164E-01 -0.26180364947E-02  0.14192529132E-01  0.00000000000E+00 0. -1.
     999901    1    3    3    0    0  0.81354612759E-01  0.13678994349E-01  0.10113256879E+00  0.88962547422E+00  0.88000000000E+00 0. -1.
        -11    1    4    4    0    0 -0.64255326805E-01  0.16967353538E-02 -0.63807173038E-01  0.90571752692E-01  0.51100000000E-03 0.  1.
         11    1    4    4    0    0 -0.20264267767E-01 -0.28960892867E-01 -0.34707359260E-01  0.49540243959E-01  0.51100000000E-03 0. -1.
</event>
<event>
 8    1  0.2927513E+004  0.1043930E+01  0.7957747E-01            NaN
         13   -1    0    0    0    0  0.00000000000E+00  0.00000000000E+00  0.74505805969E-08  0.10566000000E+00  0.10566000000E+00 0.  1.
     999900   -1    0    0    0    0 -0.00000000000E+00 -0.00000000000E+00 -0.74505805969E-08  0.93827000000E+00  0.93827000000E+00 0. -1.
     999902    2    1    2    0    0 -0.43190911647E-02  0.13705910570E-01 -0.36924650169E-02  0.10290928564E+01  0.10289858921E+01 0.  0.
     999903    2    3    3    0    0  0.71643855055E-01  0.93404390379E-01  0.60821310456E-01  0.13988858057E+00  0.44859347515E-01 0.  0.
         14    1    1    2    0    0  0.43190911647E-02 -0.13705910570E-01  0.36924650169E-02  0.14837143624E-01  0.00000000000E+00 0. -1.
     999901    1    3    3    0    0 -0.75962946219E-01 -0.79698479810E-01 -0.64513775473E-01  0.88920427580E+00  0.88000000000E+00 0. -1.
        -11    1    4    4    0    0  0.61539638899E-01  0.58176230023E-01  0.58958778046E-01  0.10318914442E+00  0.51100000000E-03 0.  1.
         11    1    4    4    0    0  0.10104216156E-01  0.35228160356E-01  0.18625324103E-02  0.36699436156E-01  0.51100000000E-03 0. -1.
</event>
<event>
 8    1  0.2927513E+004  0.1043930E+01  0.7957747E-01            NaN
         13   -1    0    0    0    0  0.00000000000E+00  0.00000000000E+00  0.74505805969E-08  0.10566000000E+00  0.10566000000E+00 0. -1.
     999900   -1    0    0    0    0 -0.00000000000E+00 -0.00000000000E+00 -0.74505805969E-08  0.93827000000E+00  0.93827000000E+00 0. -1.
     999902    2    1    2    0    0  0.90218698920E-02  0.10704467933E-01  0.82570146131E-02  0.10276770599E+01  0.10275485300E+01 0.  0.
     999903    2    3    3    0    0 -0.29773648306E-01 -0.12462426552E+00 -0.17740085337E-01  0.13610832590E+00  0.42344870529E-01 0.  0.
         14    1    1    2    0    0 -0.90218698920E-02 -0.10704467933E-01 -0.82570146131E-02  0.16252940054E-01  0.00000000000E+00 0. -1.
     999901    1    3    3    0    0  0.38795518198E-01  0.13532873345E+00  0.25997099950E-01  0.89156873405E+00  0.88000000000E+00 0.  1.
        -11    1    4    4    0    0 -0.63647160573E-02 -0.92435757975E-01 -0.31261126106E-03  0.92656558374E-01  0.51100000000E-03 0. -1.
         11    1    4    4    0    0 -0.23408932249E-01 -0.32188507547E-01 -0.17427474076E-01  0.43451767522E-01  0.51100000000E-03 0.  1.
</event>
<event>
 8    1  0.2927513E+004  0.1043930E+01  0.7957747E-01            NaN
         13   -1    0    0    0    0  0.00000000000E+00  0.00000000000E+00  0.74505805969E-08  0.10566000000E+00  0.10566000000E+00 0. -1.
     999900   -1    0    0    0    0 -0.00000000000E+00 -0.00000000000E+00 -0.74505805969E-08  0.93827000000E+00  0.93827000000E+00 0. -1.
     999902    2    1    2    0    0  0.97593680359E-02 -0.10201054517E-01  0.21382021509E-02  0.10296513906E+01  0.10295523821E+01 0.  0.
     999903    2    3    3    0    0  0.84845963329E-01  0.80736847114E-01 -0.61077316181E-01  0.13953684713E+00  0.44975739916E-01 0.  0.
         14    1    1    2    0    0 -0.97593680359E-02  0.10201054517E-01 -0.21382021509E-02  0.14278609392E-01  0.00000000000E+00 0.  1.
     999901    1    3    3    0    0 -0.75086595294E-01 -0.90937901632E-01  0.63215518332E-01  0.89011454347E+00  0.88000000000E+00 0.  1.
        -11    1    4    4    0    0  0.58065702308E-01  0.57718026664E-01 -0.17993115095E-01  0.83827261069E-01  0.51100000000E-03 0. -1.
         11    1    4    4    0    0  0.26780261022E-01  0.23018820451E-01 -0.43084201087E-01  0.55709586066E-01  0.51100000000E-03 0.  1.
</event>
<event>
 8    1  0.2927513E+004  0.1043930E+01  0.7957747E-01            NaN
         13   -1    0    0    0    0  0.00000000000E+00  0.00000000000E+00  0.74505805969E-08  0.10566000000E+00  0.10566000000E+00 0. -1.
     999900   -1    0    0    0    0 -0.00000000000E+00 -0.00000000000E+00 -0.74505805969E-08  0.93827000000E+00  0.93827000000E+00 0.  1.
     999902    2    1    2    0    0 -0.74237874064E-02 -0.73506807236E-02 -0.86796711227E-02  0.10303475916E+01  0.10302580637E+01 0.  0.
     999903    2    3    3    0    0  0.97844780419E-01 -0.41553681468E-01 -0.80002493167E-01  0.14055083866E+00  0.45319199432E-01 0.  0.
         14    1    1    2    0    0  0.74237874064E-02  0.73506807236E-02  0.86796711227E-02  0.13582408378E-01  0.00000000000E+00 0. -1.
     999901    1    3    3    0    0 -0.10526856783E+00  0.34203000744E-01  0.71322822044E-01  0.88979675296E+00  0.88000000000E+00 0.  1.
        -11    1    4    4    0    0  0.27850880895E-01  0.87625434646E-02 -0.23459526418E-01  0.37457499054E-01  0.51100000000E-03 0. -1.
         11    1    4    4    0    0  0.69993899524E-01 -0.50316224932E-01 -0.56542966749E-01  0.10309333961E+00  0.51100000000E-03 0.  1.
</event>
<event>
 8    1  0.2927513E+004  0.1043930E+01  0.7957747E-01            NaN
         13   -1    0    0    0    0  0.00000000000E+00  0.00000000000E+00  0.74505805969E-08  0.10566000000E+00  0.10566000000E+00 0. -1.
     999900   -1    0    0    0    0 -0.00000000000E+00 -0.00000000000E+00 -0.74505805969E-08  0.93827000000E+00  0.93827000000E+00 0. -1.
     999902    2    1    2    0    0  0.43750022273E-03  0.45455217667E-02 -0.12189432073E-01  0.10309132635E+01  0.10308310829E+01 0.  0.
     999903    2    3    3    0    0 -0.43906341196E-01 -0.91344174842E-01 -0.87112841865E-01  0.14143323140E+00  0.46294563956E-01 0.  0.
         14    1    1    2    0    0 -0.43750022273E-03 -0.45455217667E-02  0.12189432073E-01  0.13016736490E-01  0.00000000000E+00 0. -1.
     999901    1    3    3    0    0  0.44343841418E-01  0.95889696608E-01  0.74923409792E-01  0.88948003211E+00  0.88000000000E+00 0.  1.
        -11    1    4    4    0    0 -0.38005222918E-01 -0.55402677547E-01 -0.79733985817E-01  0.10426707661E+00  0.51100000000E-03 0. -1.
         11    1    4    4    0    0 -0.59011182776E-02 -0.35941497295E-01 -0.73788560475E-02  0.37166154795E-01  0.51100000000E-03 0.  1.
</event>
<event>
 8    1  0.2927513E+004  0.1043930E+01  0.7957747E-01            NaN
         13   -1    0    0    0    0  0.00000000000E+00  0.00000000000E+00  0.74505805969E-08  0.10566000000E+00  0.10566000000E+00 0. -1.
     999900   -1    0    0    0    0 -0.00000000000E+00 -0.00000000000E+00 -0.74505805969E-08  0.93827000000E+00  0.93827000000E+00 0. -1.
     999902    2    1    2    0    0 -0.68163040795E-02  0.12430774288E-01 -0.56694934679E-02  0.10286614275E+01  0.10285481044E+01 0.  0.
     999903    2    3    3    0    0 -0.12247154852E+00 -0.32114855776E-01 -0.36538325589E-01  0.13944079483E+00  0.45585544499E-01 0.  0.
         14    1    1    2    0    0  0.68163040795E-02 -0.12430774288E-01  0.56694934679E-02  0.15268572523E-01  0.00000000000E+00 0. -1.
     999901    1    3    3    0    0  0.11565524444E+00  0.44545630064E-01  0.30868832121E-01  0.88922063265E+00  0.88000000000E+00 0.  1.
        -11    1    4    4    0    0 -0.26227273476E-01 -0.16257742559E-01  0.84868801779E-02  0.32007379200E-01  0.51100000000E-03 0. -1.
         11    1    4    4    0    0 -0.96244275047E-01 -0.15857113217E-01 -0.45025205767E-01  0.10743341563E+00  0.51100000000E-03 0.  1.
</event>
<event>
 8    1  0.2927513E+004  0.1043930E+01  0.7957747E-01            NaN
         13   -1    0    0    0    0  0.00000000000E+00  0.00000000000E+00  0.74505805969E-08  0.10566000000E+00  0.10566000000E+00 0.  1.
     999900   -1    0    0    0    0 -0.00000000000E+00 -0.00000000000E+00 -0.74505805969E-08  0.93827000000E+00  0.93827000000E+00 0. -1.
     999902    2    1    2    0    0  0.11767233564E-01 -0.19720481659E-02  0.75886485500E-02  0.10297898322E+01  0.10296927474E+01 0.  0.
     999903    2    3    3    0    0 -0.51844878350E-02  0.13125484415E+00  0.13416231039E-01  0.13958158326E+00  0.45258260064E-01 0.  0.
         14    1    1    2    0    0 -0.11767233564E-01  0.19720481659E-02 -0.75886485500E-02  0.14140167839E-01  0.00000000000E+00 0. -1.
     999901    1    3    3    0    0  0.16951721399E-01 -0.13322689231E+00 -0.58275824890E-02  0.89020824890E+00  0.88000000000E+00 0.  1.
        -11    1    4    4    0    0  0.54286697824E-03  0.73002437434E-01  0.29710942311E-01  0.78820376743E-01  0.51100000000E-03 0.  1.
         11    1    4    4    0    0 -0.57273548132E-02  0.58252406713E-01 -0.16294711272E-01  0.60761206517E-01  0.51100000000E-03 0. -1.
</event>
<event>
 8    1  0.2927513E+004  0.1043930E+01  0.7957747E-01            NaN
         13   -1    0    0    0    0  0.00000000000E+00  0.00000000000E+00  0.74505805969E-08  0.10566000000E+00  0.10566000000E+00 0.  1.
     999900   -1    0    0    0    0 -0.00000000000E+00 -0.00000000000E+00 -0.74505805969E-08  0.93827000000E+00  0.93827000000E+00 0. -1.
     999902    2    1    2    0    0  0.12582369155E-01  0.36755926060E-02  0.36945312090E-02  0.10303110589E+01  0.10302210455E+01 0.  0.
     999903    2    3    3    0    0  0.89970054802E-01 -0.32527844323E-01 -0.92241657476E-01  0.14098361923E+00  0.47065763560E-01 0.  0.
         14    1    1    2    0    0 -0.12582369155E-01 -0.36755926060E-02 -0.36945312090E-02  0.13618941053E-01  0.00000000000E+00 0. -1.
     999901    1    3    3    0    0 -0.77387685648E-01  0.36203436929E-01  0.95936188685E-01  0.88932743972E+00  0.88000000000E+00 0.  1.
        -11    1    4    4    0    0  0.17722253556E-01  0.12268563924E-01 -0.16961547942E-01  0.27432665956E-01  0.51100000000E-03 0.  1.
         11    1    4    4    0    0  0.72247801246E-01 -0.44796408247E-01 -0.75280109534E-01  0.11355095327E+00  0.51100000000E-03 0. -1.
</event>
<event>
 8    1  0.2927513E+004  0.1043930E+01  0.7957747E-01            NaN
         13   -1    0    0    0    0  0.00000000000E+00  0.00000000000E+00  0.74505805969E-08  0.10566000000E+00  0.10566000000E+00 0. -1.
     999900   -1    0    0    0    0 -0.00000000000E+00 -0.00000000000E+00 -0.74505805969E-08  0.93827000000E+00  0.93827000000E+00 0.  1.
     999902    2    1    2    0    0 -0.79950153939E-02 -0.93187302779E-03 -0.12199662711E-01  0.10293142404E+01  0.10292104668E+01 0.  0.
     999903    2    3    3    0    0 -0.79344499335E-01 -0.16941550627E-01 -0.10650063914E+00  0.14126033843E+00  0.45050320357E-01 0.  0.
         14    1    1    2    0    0  0.79950153939E-02  0.93187302779E-03  0.12199662711E-01  0.14615759602E-01  0.00000000000E+00 0. -1.
     999901    1    3    3    0    0  0.71349483941E-01  0.16009677599E-01  0.94300976433E-01  0.88805390196E+00  0.88000000000E+00 0. -1.
        -11    1    4    4    0    0 -0.50529500869E-01 -0.60914539710E-02 -0.96118672480E-01  0.10876302952E+00  0.51100000000E-03 0.  1.
         11    1    4    4    0    0 -0.28814998466E-01 -0.10850096656E-01 -0.10381966664E-01  0.32497308917E-01  0.51100000000E-03 0. -1.
</event>
<event>
 8    1  0.2927513E+004  0.1043930E+01  0.7957747E-01            NaN
         13   -1    0    0    0    0  0.00000000000E+00  0.00000000000E+00  0.74505805969E-08  0.10566000000E+00  0.10566000000E+00 0.  1.
     999900   -1    0    0    0    0 -0.00000000000E+00 -0.00000000000E+00 -0.74505805969E-08  0.93827000000E+00  0.93827000000E+00 0.  1.
     999902    2    1    2    0    0 -0.15006627998E-01 -0.48211895605E-02  0.16915106557E-01  0.10208093689E+01  0.10205475021E+01 0.  0.
     999903    2    3    3    0    0 -0.36765207098E-01  0.22621932034E-01  0.11857366737E+00  0.13426494042E+00  0.45868588044E-01 0.  0.
         14    1    1    2    0    0  0.15006627998E-01  0.48211895605E-02 -0.16915106557E-01  0.23120631100E-01  0.00000000000E+00 0. -1.
     999901    1    3    3    0    0  0.21758579100E-01 -0.27443121595E-01 -0.10165856081E+00  0.88654442848E+00  0.88000000000E+00 0.  1.
        -11    1    4    4    0    0 -0.68156057294E-02  0.20130471887E-01  0.91085615911E-01  0.93533624579E-01  0.51100000000E-03 0.  1.
         11    1    4    4    0    0 -0.29949601369E-01  0.24914601475E-02  0.27488051460E-01  0.40731315838E-01  0.51100000000E-03 0. -1.
</event>
<event>
 8    1  0.2927513E+004  0.1043930E+01  0.7957747E-01            NaN
         13   -1    0    0    0    0  0.00000000000E+00  0.00000000000E+00  0.74505805969E-08  0.10566000000E+00  0.10566000000E+00 0.  1.
     999900   -1    0    0    0    0 -0.00000000000E+00 -0.00000000000E+00 -0.74505805969E-08  0.93827000000E+00  0.93827000000E+00 0.  1.
     999902    2    1    2    0    0  0.14180055784E-02 -0.14973493494E-01 -0.75485882077E-03  0.10288705824E+01  0.10287603653E+01 0.  0.
     999903    2    3    3    0    0  0.47894830481E-01  0.78413046554E-01  0.92064852208E-01  0.13786180584E+00  0.45688289970E-01 0.  0.
         14    1    1    2    0    0 -0.14180055784E-02  0.14973493494E-01  0.75485882077E-03  0.15059417621E-01  0.00000000000E+00 0.  1.
     999901    1    3    3    0    0 -0.46476824903E-01 -0.93386540048E-01 -0.92819711029E-01  0.89100877654E+00  0.88000000000E+00 0. -1.
        -11    1    4    4    0    0  0.21394805959E-01  0.70211205829E-01  0.76631942789E-01  0.10611346249E+00  0.51100000000E-03 0. -1.
         11    1    4    4    0    0  0.26500024523E-01  0.82018407245E-02  0.15432909419E-01  0.31748343344E-01  0.51100000000E-03 0.  1.
</event>
<event>
 8    1  0.2927513E+004  0.1043930E+01  0.7957747E-01            NaN
         13   -1    0    0    0    0  0.00000000000E+00  0.00000000000E+00  0.74505805969E-08  0.10566000000E+00  0.10566000000E+00 0. -1.
     999900   -1    0    0    0    0 -0.00000000000E+00 -0.00000000000E+00 -0.74505805969E-08  0.93827000000E+00  0.93827000000E+00 0.  1.
     999902    2    1    2    0    0 -0.72047890605E-02 -0.54048592130E-02  0.94485408334E-02  0.10308764023E+01  0.10307937526E+01 0.  0.
     999903    2    3    3    0    0 -0.67138596711E-01  0.11092271046E+00 -0.29353612401E-01  0.14035421177E+00  0.45013679432E-01 0.  0.
         14    1    1    2    0    0  0.72047890605E-02  0.54048592130E-02 -0.94485408334E-02  0.13053597680E-01  0.00000000000E+00 0.  1.
     999901    1    3    3    0    0  0.59933807650E-01 -0.11632756968E+00  0.38802153234E-01  0.89052219055E+00  0.88000000000E+00 0. -1.
        -11    1    4    4    0    0 -0.77846393551E-02  0.16715385295E-01  0.11513267025E-01  0.21744451109E-01  0.51100000000E-03 0. -1.
         11    1    4    4    0    0 -0.59353957356E-01  0.94207325167E-01 -0.40866879426E-01  0.11860976066E+00  0.51100000000E-03 0.  1.
</event>
<event>
 8    1  0.2927513E+004  0.1043930E+01  0.7957747E-01            NaN
         13   -1    0    0    0    0  0.00000000000E+00  0.00000000000E+00  0.74505805969E-08  0.10566000000E+00  0.10566000000E+00 0. -1.
     999900   -1    0    0    0    0 -0.00000000000E+00 -0.00000000000E+00 -0.74505805969E-08  0.93827000000E+00  0.93827000000E+00 0.  1.
     999902    2    1    2    0    0  0.57413739254E-02  0.10632117663E-01  0.10361643488E-01  0.10280124325E+01  0.10278891926E+01 0.  0.
     999903    2    3    3    0    0 -0.12725663075E-01  0.11641593785E+00  0.62497132500E-01  0.13995311165E+00  0.44343757193E-01 0.  0.
         14    1    1    2    0    0 -0.57413739254E-02 -0.10632117663E-01 -0.10361643488E-01  0.15917567538E-01  0.00000000000E+00 0.  1.
     999901    1    3    3    0    0  0.18467037000E-01 -0.10578382019E+00 -0.52135489012E-01  0.88805932081E+00  0.88000000000E+00 0.  1.
        -11    1    4    4    0    0  0.10664963371E-01  0.64051138136E-02  0.34293326184E-02  0.12914657172E-01  0.51100000000E-03 0.  1.
         11    1    4    4    0    0 -0.23390626446E-01  0.11001082404E+00  0.59067799882E-01  0.12703845448E+00  0.51100000000E-03 0. -1.
</event>
<event>
 8    1  0.2927513E+004  0.1043930E+01  0.7957747E-01            NaN
         13   -1    0    0    0    0  0.00000000000E+00  0.00000000000E+00  0.74505805969E-08  0.10566000000E+00  0.10566000000E+00 0.  1.
     999900   -1    0    0    0    0 -0.00000000000E+00 -0.00000000000E+00 -0.74505805969E-08  0.93827000000E+00  0.93827000000E+00 0.  1.
     999902    2    1    2    0    0 -0.98170199016E-03  0.11078670451E-01 -0.84409270140E-02  0.10299675530E+01  0.10298729098E+01 0.  0.
     999903    2    3    3    0    0 -0.77076520823E-01  0.51785475208E-01  0.94727075293E-01  0.13974785982E+00  0.43974083560E-01 0.  0.
         14    1    1    2    0    0  0.98170199016E-03 -0.11078670451E-01  0.84409270140E-02  0.13962447014E-01  0.00000000000E+00 0. -1.
     999901    1    3    3    0    0  0.76094818833E-01 -0.40706804757E-01 -0.10316800231E+00  0.89021969317E+00  0.88000000000E+00 0.  1.
        -11    1    4    4    0    0 -0.31262515796E-01  0.30038271631E-02  0.12693773273E-01  0.33878619694E-01  0.51100000000E-03 0.  1.
         11    1    4    4    0    0 -0.45814005027E-01  0.48781648045E-01  0.82033302021E-01  0.10586924012E+00  0.51100000000E-03 0. -1.
</event>
<event>
 8    1  0.2927513E+004  0.1043930E+01  0.7957747E-01            NaN
         13   -1    0    0    0    0  0.00000000000E+00  0.00000000000E+00  0.74505805969E-08  0.10566000000E+00  0.10566000000E+00 0.  1.
     999900   -1    0    0    0    0 -0.00000000000E+00 -0.00000000000E+00 -0.74505805969E-08  0.93827000000E+00  0.93827000000E+00 0. -1.
     999902    2    1    2    0    0  0.79832925430E-02  0.66880480569E-02 -0.99974700397E-02  0.10294935062E+01  0.10293922804E+01 0.  0.
     999903    2    3    3    0    0  0.10454206257E+00  0.47037428660E-01 -0.69136086898E-01  0.14132176345E+00  0.45282223563E-01 0.  0.
         14    1    1    2    0    0 -0.79832925430E-02 -0.66880480569E-02  0.99974700397E-02  0.14436493821E-01  0.00000000000E+00 0.  1.
     999901    1    3    3    0    0 -0.96558770027E-01 -0.40349380603E-01  0.59138616859E-01  0.88817174273E+00  0.88000000000E+00 0. -1.
        -11    1    4    4    0    0 -0.23596108305E-02  0.91019643570E-02 -0.85620900352E-02  0.12727294496E-01  0.51100000000E-03 0. -1.
         11    1    4    4    0    0  0.10690167340E+00  0.37935464303E-01 -0.60573996863E-01  0.12859446895E+00  0.51100000000E-03 0.  1.
</event>
<event>
 8    1  0.2927513E+004  0.1043930E+01  0.7957747E-01            NaN
         13   -1    0    0    0    0  0.00000000000E+00  0.00000000000E+00  0.74505805969E-08  0.10566000000E+00  0.10566000000E+00 0.  1.
     999900   -1    0    0    0    0 -0.00000000000E+00 -0.00000000000E+00 -0.74505805969E-08  0.93827000000E+00  0.93827000000E+00 0. -1.
     999902    2    1    2    0    0  0.10458396694E-02 -0.10013902368E-01 -0.10001890783E-01  0.10297381065E+01  0.10296403052E+01 0.  0.
     999903    2    3    3    0    0  0.50160598790E-01  0.12036122501E+00  0.95200542532E-02  0.13856413936E+00  0.45896395576E-01 0.  0.
         14    1    1    2    0    0 -0.10458396694E-02  0.10013902368E-01  0.10001890783E-01  0.14191893478E-01  0.00000000000E+00 0.  1.
     999901    1    3    3    0    0 -0.49114759120E-01 -0.13037512738E+00 -0.19521945036E-01  0.89117396716E+00  0.88000000000E+00 0.  1.
        -11    1    4    4    0    0  0.48557805572E-01  0.70900168040E-01 -0.74200409490E-02  0.86255506716E-01  0.51100000000E-03 0. -1.
         11    1    4    4    0    0  0.16027932174E-02  0.49461056973E-01  0.16940095202E-01  0.52308632648E-01  0.51100000000E-03 0.  1.
</event>
<event>
 8    1  0.2927513E+004  0.1043930E+01  0.7957747E-01            NaN
         13   -1    0    0    0    0  0.00000000000E+00  0.00000000000E+00  0.74505805969E-08  0.10566000000E+00  0.10566000000E+00 0.  1.
     999900   -1    0    0    0    0 -0.00000000000E+00 -0.00000000000E+00 -0.74505805969E-08  0.93827000000E+00  0.93827000000E+00 0.  1.
     999902    2    1    2    0    0 -0.50420502746E-02 -0.95276722196E-02  0.82428398411E-02  0.10303600620E+01  0.10302706994E+01 0.  0.
     999903    2    3    3    0    0  0.61319943215E-01  0.18544258106E-01  0.11697523136E+00  0.14074515631E+00  0.44966313249E-01 0.  0.
         14    1    1    2    0    0  0.50420502746E-02  0.95276722196E-02 -0.82428398411E-02  0.13569938008E-01  0.00000000000E+00 0. -1.
     999901    1    3    3    0    0 -0.66361993490E-01 -0.28071930326E-01 -0.10873239152E+00  0.88961490569E+00  0.88000000000E+00 0.  1.
        -11    1    4    4    0    0  0.25415338855E-01 -0.14431709598E-01  0.38145524730E-01  0.48057838788E-01  0.51100000000E-03 0. -1.
         11    1    4    4    0    0  0.35904604360E-01  0.32975967704E-01  0.78829706631E-01  0.92687317518E-01  0.51100000000E-03 0.  1.
</event>
<event>
 8    1  0.2927513E+004  0.1043930E+01  0.7957747E-01            NaN
         13   -1    0    0    0    0  0.00000000000E+00  0.00000000000E+00  0.74505805969E-08  0.10566000000E+00  0.10566000000E+00 0.  1.
     999900   -1    0    0    0    0 -0.00000000000E+00 -0.00000000000E+00 -0.74505805969E-08  0.93827000000E+00  0.93827000000E+00 0. -1.
     999902    2    1    2    0    0  0.11163116078E-01 -0.82781069332E-02 -0.15293104261E-02  0.10299485478E+01  0.10298536450E+01 0.  0.
     999903    2    3    3    0    0  0.88701109497E-01 -0.58426100987E-01  0.81427329448E-01  0.14123669021E+00  0.45120910663E-01 0.  0.
         14    1    1    2    0    0 -0.11163116078E-01  0.82781069332E-02  0.15293104261E-02  0.13981452190E-01  0.00000000000E+00 0.  1.
     999901    1    3    3    0    0 -0.77537993420E-01  0.50147994054E-01 -0.82956639874E-01  0.88871185760E+00  0.88000000000E+00 0.  1.
        -11    1    4    4    0    0  0.62822190451E-01 -0.22410016150E-01  0.67137686653E-01  0.94639138452E-01  0.51100000000E-03 0.  1.
         11    1    4    4    0    0  0.25878919047E-01 -0.36016084837E-01  0.14289642796E-01  0.46597551763E-01  0.51100000000E-03 0. -1.
</event>
<event>
 8    1  0.2927513E+004  0.1043930E+01  0.7957747E-01            NaN
         13   -1    0    0    0    0  0.00000000000E+00  0.00000000000E+00  0.74505805969E-08  0.10566000000E+00  0.10566000000E+00 0.  1.
     999900   -1    0    0    0    0 -0.00000000000E+00 -0.00000000000E+00 -0.74505805969E-08  0.93827000000E+00  0.93827000000E+00 0.  1.
     999902    2    1    2    0    0  0.74687443327E-02 -0.84764098345E-03  0.12889940031E-01  0.10290084990E+01  0.10289003061E+01 0.  0.
     999903    2    3    3    0    0  0.25360949324E-01 -0.12011147802E+00  0.49648529575E-01  0.14002301674E+00  0.45513995928E-01 0.  0.
         14    1    1    2    0    0 -0.74687443327E-02  0.84764098345E-03 -0.12889940031E-01  0.14921500968E-01  0.00000000000E+00 0. -1.
     999901    1    3    3    0    0 -0.17892204991E-01  0.11926383703E+00 -0.36758589544E-01  0.88898548229E+00  0.88000000000E+00 0.  1.
        -11    1    4    4    0    0 -0.29139157185E-02 -0.43199948565E-01 -0.16717604202E-02  0.43333386260E-01  0.51100000000E-03 0.  1.
         11    1    4    4    0    0  0.28274865042E-01 -0.76911529453E-01  0.51320289995E-01  0.96689630478E-01  0.51100000000E-03 0. -1.
</event>
<event>
 8    1  0.2927513E+004  0.1043930E+01  0.7957747E-01            NaN
         13   -1    0    0    0    0  0.00000000000E+00  0.00000000000E+00  0.74505805969E-08  0.10566000000E+00  0.10566000000E+00 0.  1.
     999900   -1    0    0    0    0 -0.00000000000E+00 -0.00000000000E+00 -0.74505805969E-08  0.93827000000E+00  0.93827000000E+00 0.  1.
     999902    2    1    2    0    0  0.80520388581E-03 -0.47694496779E-02 -0.13183681836E-01  0.10298870135E+01  0.10297912677E+01 0.  0.
     999903    2    3    3    0    0 -0.15529712861E-01 -0.95727767228E-01 -0.92394047628E-01  0.14150954468E+00  0.45643332452E-01 0.  0.
         14    1    1    2    0    0 -0.80520388581E-03  0.47694496779E-02  0.13183681836E-01  0.14042986516E-01  0.00000000000E+00 0.  1.
     999901    1    3    3    0    0  0.16334916747E-01  0.90958317550E-01  0.79210365791E-01  0.88837746881E+00  0.88000000000E+00 0. -1.
        -11    1    4    4    0    0 -0.54879850072E-02 -0.16379705086E-01  0.24363156471E-02  0.17453064862E-01  0.51100000000E-03 0. -1.
         11    1    4    4    0    0 -0.10041727854E-01 -0.79348062142E-01 -0.94830363275E-01  0.12405647981E+00  0.51100000000E-03 0.  1.
</event>
<event>
 8    1  0.2927513E+004  0.1043930E+01  0.7957747E-01            NaN
         13   -1    0    0    0    0  0.00000000000E+00  0.00000000000E+00  0.74505805969E-08  0.10566000000E+00  0.10566000000E+00 0.  1.
     999900   -1    0    0    0    0 -0.00000000000E+00 -0.00000000000E+00 -0.74505805969E-08  0.93827000000E+00  0.93827000000E+00 0. -1.
     999902    2    1    2    0    0  0.10035282217E-01 -0.78209774818E-02  0.59024467707E-02  0.10299045426E+01  0.10298090373E+01 0.  0.
     999903    2    3    3    0    0  0.12688474891E+00  0.15350876873E-01 -0.38325220077E-01  0.14077754422E+00  0.44878787154E-01 0.  0.
         14    1    1    2    0    0 -0.10035282217E-01  0.78209774818E-02 -0.59024467707E-02  0.14025457420E-01  0.00000000000E+00 0. -1.
     999901    1    3    3    0    0 -0.11684946669E+00 -0.23171854355E-01  0.44227666848E-01  0.88912699836E+00  0.88000000000E+00 0.  1.
        -11    1    4    4    0    0  0.78900929295E-01  0.25873105100E-01 -0.88982921245E-02  0.83511765248E-01  0.51100000000E-03 0. -1.
         11    1    4    4    0    0  0.47983819612E-01 -0.10522228227E-01 -0.29426927953E-01  0.57265778971E-01  0.51100000000E-03 0.  1.
</event>
<event>
 8    1  0.2927513E+004  0.1043930E+01  0.7957747E-01            NaN
         13   -1    0    0    0    0  0.00000000000E+00  0.00000000000E+00  0.74505805969E-08  0.10566000000E+00  0.10566000000E+00 0. -1.
     999900   -1    0    0    0    0 -0.00000000000E+00 -0.00000000000E+00 -0.74505805969E-08  0.93827000000E+00  0.93827000000E+00 0.  1.
     999902    2    1    2    0    0  0.10268842127E-02 -0.49511249719E-03  0.14330130168E-01  0.10295545954E+01  0.10294542305E+01 0.  0.
     999903    2    3    3    0    0  0.15615850981E-01  0.11867530588E+00 -0.53957907626E-01  0.13878095259E+00  0.44955689079E-01 0.  0.
         14    1    1    2    0    0 -0.10268842127E-02  0.49511249719E-03 -0.14330130168E-01  0.14375404627E-01  0.00000000000E+00 0.  1.
     999901    1    3    3    0    0 -0.14588966768E-01 -0.11917041837E+00  0.68288037794E-01  0.89077364278E+00  0.88000000000E+00 0. -1.
        -11    1    4    4    0    0  0.33830516310E-02  0.59261570968E-01 -0.50643695198E-01  0.78028352644E-01  0.51100000000E-03 0. -1.
         11    1    4    4    0    0  0.12232799350E-01  0.59413734907E-01 -0.33142124283E-02  0.60752599949E-01  0.51100000000E-03 0.  1.
</event>
<event>
 8    1  0.2927513E+004  0.1043930E+01  0.7957747E-01            NaN
         13   -1    0    0    0    0  0.00000000000E+00  0.00000000000E+00  0.74505805969E-08  0.10566000000E+00  0.10566000000E+00 0.  1.
     999900   -1    0    0    0    0 -0.00000000000E+00 -0.00000000000E+00 -0.74505805969E-08  0.93827000000E+00  0.93827000000E+00 0.  1.
     999902    2    1    2    0    0  0.36051060707E-02 -0.13288213796E-01 -0.31927421963E-02  0.10297961039E+01  0.10296991059E+01 0.  0.
     999903    2    3    3    0    0 -0.13032233456E+00 -0.14804667405E-01 -0.16066434107E-01  0.13956883466E+00  0.44924828783E-01 0.  0.
         14    1    1    2    0    0 -0.36051060707E-02  0.13288213796E-01  0.31927421963E-02  0.14133896080E-01  0.00000000000E+00 0.  1.
     999901    1    3    3    0    0  0.13392744063E+00  0.15164536090E-02  0.12873691910E-01  0.89022726926E+00  0.88000000000E+00 0.  1.
        -11    1    4    4    0    0 -0.43155349062E-01 -0.25417861629E-01 -0.12795969577E-01  0.51695742580E-01  0.51100000000E-03 0. -1.
         11    1    4    4    0    0 -0.87166985501E-01  0.10613194223E-01 -0.32704645295E-02  0.87873092082E-01  0.51100000000E-03 0.  1.
</event>
<event>
 8    1  0.2927513E+004  0.1043930E+01  0.7957747E-01            NaN
         13   -1    0    0    0    0  0.00000000000E+00  0.00000000000E+00  0.74505805969E-08  0.10566000000E+00  0.10566000000E+00 0.  1.
     999900   -1    0    0    0    0 -0.00000000000E+00 -0.00000000000E+00 -0.74505805969E-08  0.93827000000E+00  0.93827000000E+00 0. -1.
     999902    2    1    2    0    0  0.20833418240E-02 -0.63710421720E-02 -0.10573472840E-01  0.10314108619E+01  0.10313348812E+01 0.  0.
     999903    2    3    3    0    0 -0.14989248603E-01  0.12448602983E+00 -0.45526371302E-01  0.14088475235E+00  0.45325641351E-01 0.  0.
         14    1    1    2    0    0 -0.20833418240E-02  0.63710421720E-02  0.10573472840E-01  0.12519138126E-01  0.00000000000E+00 0.  1.
     999901    1    3    3    0    0  0.17072590427E-01 -0.13085707200E+00  0.34952898462E-01  0.89052610953E+00  0.88000000000E+00 0. -1.
        -11    1    4    4    0    0  0.14104194622E-01  0.67482910015E-01 -0.18273914910E-01  0.71323688471E-01  0.51100000000E-03 0. -1.
         11    1    4    4    0    0 -0.29093443225E-01  0.57003119815E-01 -0.27252456392E-01  0.69561063877E-01  0.51100000000E-03 0.  1.
</event>
<event>
 8    1  0.2927513E+004  0.1043930E+01  0.7957747E-01            NaN
         13   -1    0    0    0    0  0.00000000000E+00  0.00000000000E+00  0.74505805969E-08  0.10566000000E+00  0.10566000000E+00 0. -1.
     999900   -1    0    0    0    0 -0.00000000000E+00 -0.00000000000E+00 -0.74505805969E-08  0.93827000000E+00  0.93827000000E+00 0. -1.
     999902    2    1    2    0    0  0.69421397382E-03  0.12058951419E-01  0.67666902069E-02  0.10300848442E+01  0.10299917951E+01 0.  0.
     999903    2    3    3    0    0  0.94251077044E-01  0.22810554807E-01 -0.90346669397E-01  0.13974811678E+00  0.44310591716E-01 0.  0.
         14    1    1    2    0    0 -0.69421397382E-03 -0.12058951419E-01 -0.67666902069E-02  0.13845155785E-01  0.00000000000E+00 0. -1.
     999901    1    3    3    0    0 -0.93556863070E-01 -0.10751603389E-01  0.97113359604E-01  0.89033672743E+00  0.88000000000E+00 0.  1.
        -11    1    4    4    0    0  0.37450701086E-01 -0.70414081899E-02 -0.53708915490E-01  0.65856246213E-01  0.51100000000E-03 0. -1.
         11    1    4    4    0    0  0.56800375958E-01  0.29851962997E-01 -0.36637753907E-01  0.73891870569E-01  0.51100000000E-03 0.  1.
</event>
<event>
 8    1  0.2927513E+004  0.1043930E+01  0.7957747E-01            NaN
         13   -1    0    0    0    0  0.00000000000E+00  0.00000000000E+00  0.74505805969E-08  0.10566000000E+00  0.10566000000E+00 0. -1.
     999900   -1    0    0    0    0 -0.00000000000E+00 -0.00000000000E+00 -0.74505805969E-08  0.93827000000E+00  0.93827000000E+00 0.  1.
     999902    2    1    2    0    0 -0.11759361823E-01  0.26599184844E-02 -0.35782386671E-03  0.10318682508E+01  0.10317977520E+01 0.  0.
     999903    2    3    3    0    0 -0.78470200157E-01  0.56916158070E-01  0.94845538245E-01  0.14256641469E+00  0.43960039914E-01 0.  0.
         14    1    1    2    0    0  0.11759361823E-01 -0.26599184844E-02  0.35782386671E-03  0.12061749241E-01  0.00000000000E+00 0. -1.
     999901    1    3    3    0    0  0.66710838334E-01 -0.54256239586E-01 -0.95203362112E-01  0.88930183607E+00  0.88000000000E+00 0.  1.
        -11    1    4    4    0    0 -0.63288188434E-01  0.58755009565E-01  0.93385588908E-01  0.12719542162E+00  0.51100000000E-03 0.  1.
         11    1    4    4    0    0 -0.15182011723E-01 -0.18388514951E-02  0.14599493372E-02  0.15370993067E-01  0.51100000000E-03 0. -1.
</event>
<event>
 8    1  0.2927513E+004  0.1043930E+01  0.7957747E-01            NaN
         13   -1    0    0    0    0  0.00000000000E+00  0.00000000000E+00  0.74505805969E-08  0.10566000000E+00  0.10566000000E+00 0.  1.
     999900   -1    0    0    0    0 -0.00000000000E+00 -0.00000000000E+00 -0.74505805969E-08  0.93827000000E+00  0.93827000000E+00 0.  1.
     999902    2    1    2    0    0  0.12774776014E-02 -0.12434496563E-01  0.61588409650E-02  0.10299951525E+01  0.10299008856E+01 0.  0.
     999903    2    3    3    0    0  0.93719796338E-03 -0.10211630072E+00  0.87165863868E-01  0.14173557354E+00  0.45414400476E-01 0.  0.
         14    1    1    2    0    0 -0.12774776014E-02  0.12434496563E-01 -0.61588409650E-02  0.13934847535E-01  0.00000000000E+00 0. -1.
     999901    1    3    3    0    0  0.34027963800E-03  0.89681804160E-01 -0.81007022903E-01  0.88825957892E+00  0.88000000000E+00 0.  1.
        -11    1    4    4    0    0 -0.19074171616E-01 -0.57091894459E-01  0.33539736578E-01  0.68909240937E-01  0.51100000000E-03 0. -1.
         11    1    4    4    0    0  0.20011369580E-01 -0.45024406263E-01  0.53626127289E-01  0.72826332606E-01  0.51100000000E-03 0.  1.
</event>
<event>
 8    1  0.2927513E+004  0.1043930E+01  0.7957747E-01            NaN
         13   -1    0    0    0    0  0.00000000000E+00  0.00000000000E+00  0.74505805969E-08  0.10566000000E+00  0.10566000000E+00 0.  1.
     999900   -1    0    0    0    0 -0.00000000000E+00 -0.00000000000E+00 -0.74505805969E-08  0.93827000000E+00  0.93827000000E+00 0.  1.
     999902    2    1    2    0    0 -0.54887023391E-02  0.88166934856E-02  0.92216873600E-02  0.10300411752E+01  0.10299475341E+01 0.  0.
     999903    2    3    3    0    0 -0.93094152755E-01  0.93449494670E-01 -0.22630333681E-01  0.14107999648E+00  0.44632993092E-01 0.  0.
         14    1    1    2    0    0  0.54887023391E-02 -0.88166934856E-02 -0.92216873600E-02  0.13888824830E-01  0.00000000000E+00 0. -1.
     999901    1    3    3    0    0  0.87605450416E-01 -0.84632801184E-01  0.31852021041E-01  0.88896117869E+00  0.88000000000E+00 0. -1.
        -11    1    4    4    0    0 -0.52022482000E-01  0.29520750601E-01 -0.25530766756E-01  0.65037639269E-01  0.51100000000E-03 0.  1.
         11    1    4    4    0    0 -0.41071670755E-01  0.63928744068E-01  0.29004330755E-02  0.76042357208E-01  0.51100000000E-03 0. -1.
</event>
<event>
 8    1  0.2927513E+004  0.1043930E+01  0.7957747E-01            NaN
         13   -1    0    0    0    0  0.00000000000E+00  0.00000000000E+00  0.74505805969E-08  0.10566000000E+00  0.10566000000E+00 0.  1.
     999900   -1    0    0    0    0 -0.00000000000E+00 -0.00000000000E+00 -0.74505805969E-08  0.93827000000E+00  0.93827000000E+00 0. -1.
     999902    2    1    2    0    0 -0.46391020779E-02 -0.12581367569E-01 -0.18743650278E-02  0.10303902318E+01  0.10303012688E+01 0.  0.
     999903    2    3    3    0    0 -0.73683518478E-01  0.81031296090E-02 -0.10948226077E+00  0.14091036185E+00  0.48728257187E-01 0.  0.
         14    1    1    2    0    0  0.46391020779E-02  0.12581367569E-01  0.18743650278E-02  0.13539768175E-01  0.00000000000E+00 0. -1.
     999901    1    3    3    0    0  0.69044416400E-01 -0.20684497178E-01  0.10760789575E+00  0.88947986997E+00  0.88000000000E+00 0. -1.
        -11    1    4    4    0    0 -0.13493252008E-01  0.22649723536E-01 -0.39138670889E-01  0.47192949748E-01  0.51100000000E-03 0.  1.
         11    1    4    4    0    0 -0.60190266471E-01 -0.14546593927E-01 -0.70343589884E-01  0.93717412104E-01  0.51100000000E-03 0. -1.
</event>
<event>
 8    1  0.2927513E+004  0.1043930E+01  0.7957747E-01            NaN
         13   -1    0    0    0    0  0.00000000000E+00  0.00000000000E+00  0.74505805969E-08  0.10566000000E+00  0.10566000000E+00 0.  1.
     999900   -1    0    0    0    0 -0.00000000000E+00 -0.00000000000E+00 -0.74505805969E-08  0.93827000000E+00  0.93827000000E+00 0.  1.
     999902    2    1    2    0    0  0.16486917653E-02 -0.51265656019E-02  0.10191689604E-01  0.10324030578E+01  0.10323387057E+01 0.  0.
     999903    2    3    3    0    0 -0.63456049523E-01  0.10561644479E+00 -0.52064869232E-01  0.14089954081E+00  0.44276702262E-01 0.  0.
         14    1    1    2    0    0 -0.16486917653E-02  0.51265656019E-02 -0.10191689604E-01  0.11526942196E-01  0.00000000000E+00 0. -1.
     999901    1    3    3    0    0  0.65104741289E-01 -0.11074301039E+00  0.62256558836E-01  0.89150351699E+00  0.88000000000E+00 0.  1.
        -11    1    4    4    0    0 -0.48276579509E-01  0.40602591737E-01 -0.34332573552E-01  0.71820507604E-01  0.51100000000E-03 0. -1.
         11    1    4    4    0    0 -0.15179470015E-01  0.65013853048E-01 -0.17732295680E-01  0.69079033209E-01  0.51100000000E-03 0.  1.
</event>
<event>
 8    1  0.2927513E+004  0.1043930E+01  0.7957747E-01            NaN
         13   -1    0    0    0    0  0.00000000000E+00  0.00000000000E+00  0.74505805969E-08  0.10566000000E+00  0.10566000000E+00 0. -1.
     999900   -1    0    0    0    0 -0.00000000000E+00 -0.00000000000E+00 -0.74505805969E-08  0.93827000000E+00  0.93827000000E+00 0. -1.
     999902    2    1    2    0    0 -0.49152239030E-02 -0.64279463825E-02 -0.11340218752E-01  0.10299987947E+01  0.10299045774E+01 0.  0.
     999903    2    3    3    0    0 -0.10552068350E+00 -0.74648041291E-01 -0.34580925221E-01  0.14133937155E+00  0.45541550770E-01 0.  0.
         14    1    1    2    0    0  0.49152239030E-02  0.64279463825E-02  0.11340218752E-01  0.13931205334E-01  0.00000000000E+00 0.  1.
     999901    1    3    3    0    0  0.10060545960E+00  0.68220094908E-01  0.23240706469E-01  0.88865942311E+00  0.88000000000E+00 0.  1.
        -11    1    4    4    0    0 -0.76973152432E-01 -0.27727288375E-01 -0.16077552805E-01  0.83381158190E-01  0.51100000000E-03 0. -1.
         11    1    4    4    0    0 -0.28547531070E-01 -0.46920752916E-01 -0.18503372416E-01  0.57958213363E-01  0.51100000000E-03 0.  1.
</event>
<event>
 8    1  0.2927513E+004  0.1043930E+01  0.7957747E-01            NaN
         13   -1    0    0    0    0  0.00000000000E+00  0.00000000000E+00  0.74505805969E-08  0.10566000000E+00  0.10566000000E+00 0. -1.
     999900   -1    0    0    0    0 -0.00000000000E+00 -0.00000000000E+00 -0.74505805969E-08  0.93827000000E+00  0.93827000000E+00 0. -1.
     999902    2    1    2    0    0 -0.81811571831E-02  0.10780872800E-01  0.16438400265E-02  0.10302969240E+01  0.10302067224E+01 0.  0.
     999903    2    3    3    0    0  0.38195288792E-01 -0.10077687466E+00  0.75237023957E-01  0.13899907116E+00  0.45224699630E-01 0.  0.
         14    1    1    2    0    0  0.81811571831E-02 -0.10780872800E-01 -0.16438400265E-02  0.13633076000E-01  0.00000000000E+00 0. -1.
     999901    1    3    3    0    0 -0.46376445975E-01  0.11155774746E+00 -0.73593183930E-01  0.89129785284E+00  0.88000000000E+00 0.  1.
        -11    1    4    4    0    0  0.32822929197E-01 -0.26611481517E-01  0.31734477481E-01  0.52847457948E-01  0.51100000000E-03 0.  1.
         11    1    4    4    0    0  0.53723595944E-02 -0.74165393143E-01  0.43502546476E-01  0.86151613209E-01  0.51100000000E-03 0. -1.
</event>
<event>
 8    1  0.2927513E+004  0.1043930E+01  0.7957747E-01            NaN
         13   -1    0    0    0    0  0.00000000000E+00  0.00000000000E+00  0.74505805969E-08  0.10566000000E+00  0.10566000000E+00 0.  1.
     999900   -1    0    0    0    0 -0.00000000000E+00 -0.00000000000E+00 -0.74505805969E-08  0.93827000000E+00  0.93827000000E+00 0. -1.
     999902    2    1    2    0    0 -0.45318740714E-03  0.16220912290E-01 -0.30850652253E-02  0.10274121006E+01  0.10272793113E+01 0.  0.
     999903    2    3    3    0    0 -0.10336530579E+00 -0.17738815534E-01 -0.77096854830E-01  0.13768072974E+00  0.44866538752E-01 0.  0.
         14    1    1    2    0    0  0.45318740714E-03 -0.16220912290E-01  0.30850652253E-02  0.16517899437E-01  0.00000000000E+00 0.  1.
     999901    1    3    3    0    0  0.10291211838E+00  0.33959727824E-01  0.74011789604E-01  0.88973137082E+00  0.88000000000E+00 0.  1.
        -11    1    4    4    0    0 -0.80161945993E-01 -0.15274142045E-01 -0.33469425209E-01  0.88202610763E-01  0.51100000000E-03 0. -1.
         11    1    4    4    0    0 -0.23203359799E-01 -0.24646734893E-02 -0.43627429620E-01  0.49478118978E-01  0.51100000000E-03 0.  1.
</event>
<event>
 8    1  0.2927513E+004  0.1043930E+01  0.7957747E-01            NaN
         13   -1    0    0    0    0  0.00000000000E+00  0.00000000000E+00  0.74505805969E-08  0.10566000000E+00  0.10566000000E+00 0.  1.
     999900   -1    0    0    0    0 -0.00000000000E+00 -0.00000000000E+00 -0.74505805969E-08  0.93827000000E+00  0.93827000000E+00 0. -1.
     999902    2    1    2    0    0 -0.52522526704E-02  0.14189482632E-02  0.13215750657E-01  0.10296381968E+01  0.10295390040E+01 0.  0.
     999903    2    3    3    0    0  0.68565756397E-02 -0.71357941666E-01 -0.10909224681E+00  0.13812131776E+00  0.45137696420E-01 0.  0.
         14    1    1    2    0    0  0.52522526704E-02 -0.14189482632E-02 -0.13215750657E-01  0.14291803166E-01  0.00000000000E+00 0. -1.
     999901    1    3    3    0    0 -0.12108828310E-01  0.72776889929E-01  0.12230799746E+00  0.89151687907E+00  0.88000000000E+00 0.  1.
        -11    1    4    4    0    0  0.11354371175E-01 -0.71682258498E-01 -0.77397350212E-01  0.10610315202E+00  0.51100000000E-03 0. -1.
         11    1    4    4    0    0 -0.44977955348E-02  0.32431683185E-03 -0.31694896595E-01  0.32018165738E-01  0.51100000000E-03 0.  1.
</event>
<event>
 8    1  0.2927513E+004  0.1043930E+01  0.7957747E-01            NaN
         13   -1    0    0    0    0  0.00000000000E+00  0.00000000000E+00  0.74505805969E-08  0.10566000000E+00  0.10566000000E+00 0.  1.
     999900   -1    0    0    0    0 -0.00000000000E+00 -0.00000000000E+00 -0.74505805969E-08  0.93827000000E+00  0.93827000000E+00 0.  1.
     999902    2    1    2    0    0  0.49718341376E-02 -0.13785885384E-01  0.10372253769E-02  0.10292383150E+01  0.10291334527E+01 0.  0.
     999903    2    3    3    0    0 -0.48166463834E-01 -0.80188471572E-01 -0.94153618078E-01  0.14002839672E+00  0.44641335988E-01 0.  0.
         14    1    1    2    0    0 -0.49718341376E-02  0.13785885384E-01 -0.10372253769E-02  0.14691684961E-01  0.00000000000E+00 0. -1.
     999901    1    3    3    0    0  0.53138297972E-01  0.66402586188E-01  0.95190843455E-01  0.88920991832E+00  0.88000000000E+00 0. -1.
        -11    1    4    4    0    0 -0.43433314131E-01 -0.79941319208E-01 -0.68365070872E-01  0.11380294956E+00  0.51100000000E-03 0.  1.
         11    1    4    4    0    0 -0.47331497035E-02 -0.24715236359E-03 -0.25788547206E-01  0.26225447154E-01  0.51100000000E-03 0. -1.
</event>
<event>
 8    1  0.2927513E+004  0.1043930E+01  0.7957747E-01            NaN
         13   -1    0    0    0    0  0.00000000000E+00  0.00000000000E+00  0.74505805969E-08  0.10566000000E+00  0.10566000000E+00 0. -1.
     999900   -1    0    0    0    0 -0.00000000000E+00 -0.00000000000E+00 -0.74505805969E-08  0.93827000000E+00  0.93827000000E+00 0. -1.
     999902    2    1    2    0    0 -0.71838074195E-02  0.10644326096E-01 -0.27014412677E-02  0.10308072506E+01  0.10307237173E+01 0.  0.
     999903    2    3    3    0    0 -0.37227579517E-01  0.77547773131E-01  0.10274351776E+00  0.14148315958E+00  0.45405993113E-01 0.  0.
         14    1    1    2    0    0  0.71838074195E-02 -0.10644326096E-01  0.27014412677E-02  0.13122749407E-01  0.00000000000E+00 0.  1.
     999901    1    3    3    0    0  0.30043772097E-01 -0.66903447035E-01 -0.10544495902E+00  0.88932409101E+00  0.88000000000E+00 0. -1.
        -11    1    4    4    0    0 -0.31351805915E-01  0.32328193388E-01  0.76762400470E-01  0.88998736332E-01  0.51100000000E-03 0. -1.
         11    1    4    4    0    0 -0.58757736020E-02  0.45219579743E-01  0.25981117286E-01  0.52484423251E-01  0.51100000000E-03 0.  1.
</event>
<event>
 8    1  0.2927513E+004  0.1043930E+01  0.7957747E-01            NaN
         13   -1    0    0    0    0  0.00000000000E+00  0.00000000000E+00  0.74505805969E-08  0.10566000000E+00  0.10566000000E+00 0. -1.
     999900   -1    0    0    0    0 -0.00000000000E+00 -0.00000000000E+00 -0.74505805969E-08  0.93827000000E+00  0.93827000000E+00 0. -1.
     999902    2    1    2    0    0 -0.12445834859E-01  0.16982125389E-02 -0.90382461618E-02  0.10284550969E+01  0.10283386669E+01 0.  0.
     999903    2    3    3    0    0  0.26350294643E-01  0.11908211767E+00 -0.49416522993E-01  0.13889648386E+00  0.44444928931E-01 0.  0.
         14    1    1    2    0    0  0.12445834859E-01 -0.16982125389E-02  0.90382461618E-02  0.15474903064E-01  0.00000000000E+00 0. -1.
     999901    1    3    3    0    0 -0.38796129501E-01 -0.11738390514E+00  0.40378276831E-01  0.88955861307E+00  0.88000000000E+00 0.  1.
        -11    1    4    4    0    0 -0.62872919215E-02  0.54456587350E-01 -0.77609976243E-02  0.55367356364E-01  0.51100000000E-03 0.  1.
         11    1    4    4    0    0  0.32637586564E-01  0.64625530324E-01 -0.41655525369E-01  0.83529127501E-01  0.51100000000E-03 0. -1.
</event>
<event>
 8    1  0.2927513E+004  0.1043930E+01  0.7957747E-01            NaN
         13   -1    0    0    0    0  0.00000000000E+00  0.00000000000E+00  0.74505805969E-08  0.10566000000E+00  0.10566000000E+00 0.  1.
     999900   -1    0    0    0    0 -0.00000000000E+00 -0.00000000000E+00 -0.74505805969E-08  0.93827000000E+00  0.93827000000E+00 0. -1.
     999902    2    1    2    0    0 -0.61891095047E-02  0.45078862209E-02  0.12339619995E-01  0.10294078674E+01  0.10293054285E+01 0.  0.
     999903    2    3    3    0    0  0.23333339022E-01  0.10519333005E+00  0.78749623942E-01  0.14069001439E+00  0.44520730923E-01 0.  0.
         14    1    1    2    0    0  0.61891095047E-02 -0.45078862209E-02 -0.12339619995E-01  0.14522132634E-01  0.00000000000E+00 0. -1.
     999901    1    3    3    0    0 -0.29522448527E-01 -0.10068544383E+00 -0.66410003947E-01  0.88871785297E+00  0.88000000000E+00 0. -1.
        -11    1    4    4    0    0  0.23288201137E-01  0.57048890820E-01  0.67202372888E-01  0.91177498862E-01  0.51100000000E-03 0. -1.
         11    1    4    4    0    0  0.45137884822E-04  0.48144439232E-01  0.11547251054E-01  0.49512515531E-01  0.51100000000E-03 0.  1.
</event>
<event>
 8    1  0.2927513E+004  0.1043930E+01  0.7957747E-01            NaN
         13   -1    0    0    0    0  0.00000000000E+00  0.00000000000E+00  0.74505805969E-08  0.10566000000E+00  0.10566000000E+00 0. -1.
     999900   -1    0    0    0    0 -0.00000000000E+00 -0.00000000000E+00 -0.74505805969E-08  0.93827000000E+00  0.93827000000E+00 0.  1.
     999902    2    1    2    0    0 -0.42572875465E-02 -0.10107507021E-01  0.84931334267E-02  0.10300584640E+01  0.10299650575E+01 0.  0.
     999903    2    3    3    0    0 -0.86167701940E-01  0.19597986970E-02  0.10252096850E+00  0.14118492428E+00  0.44653333502E-01 0.  0.
         14    1    1    2    0    0  0.42572875465E-02  0.10107507021E-01 -0.84931334267E-02  0.13871535994E-01  0.00000000000E+00 0.  1.
     999901    1    3    3    0    0  0.81910414394E-01 -0.12067305718E-01 -0.94027835076E-01  0.88887353972E+00  0.88000000000E+00 0.  1.
        -11    1    4    4    0    0 -0.26806444195E-01 -0.72025679927E-02  0.64174125376E-01  0.69921684225E-01  0.51100000000E-03 0.  1.
         11    1    4    4    0    0 -0.59361257746E-01  0.91623666896E-02  0.38346843127E-01  0.71263240056E-01  0.51100000000E-03 0. -1.
</event>
<event>
 8    1  0.2927513E+004  0.1043930E+01  0.7957747E-01            NaN
         13   -1    0    0    0    0  0.00000000000E+00  0.00000000000E+00  0.74505805969E-08  0.10566000000E+00  0.10566000000E+00 0.  1.
     999900   -1    0    0    0    0 -0.00000000000E+00 -0.00000000000E+00 -0.74505805969E-08  0.93827000000E+00  0.93827000000E+00 0. -1.
     999902    2    1    2    0    0  0.87444795882E-02  0.81668475710E-02 -0.76897413661E-02  0.10297069397E+01  0.10296087054E+01 0.  0.
     999903    2    3    3    0    0  0.10821310281E+00 -0.26479960128E-01  0.71664328628E-01  0.13988028425E+00  0.44938335701E-01 0.  0.
         14    1    1    2    0    0 -0.87444795882E-02 -0.81668475710E-02  0.76897413661E-02  0.14223060317E-01  0.00000000000E+00 0.  1.
     999901    1    3    3    0    0 -0.99468623226E-01  0.34646807699E-01 -0.79354069994E-01  0.88982665543E+00  0.88000000000E+00 0. -1.
        -11    1    4    4    0    0  0.60624620224E-01  0.77952405816E-02  0.41925307630E-01  0.74122215927E-01  0.51100000000E-03 0. -1.
         11    1    4    4    0    0  0.47588482591E-01 -0.34275200709E-01  0.29739020999E-01  0.65758068325E-01  0.51100000000E-03 0.  1.
</event>
<event>
 8    1  0.2927513E+004  0.1043930E+01  0.7957747E-01            NaN
         13   -1    0    0    0    0  0.00000000000E+00  0.00000000000E+00  0.74505805969E-08  0.10566000000E+00  0.10566000000E+00 0. -1.
     999900   -1    0    0    0    0 -0.00000000000E+00 -0.00000000000E+00 -0.74505805969E-08  0.93827000000E+00  0.93827000000E+00 0. -1.
     999902    2    1    2    0    0 -0.11352694299E-01 -0.55218366681E-03  0.22552437070E-02  0.10323423040E+01  0.10322772679E+01 0.  0.
     999903    2    3    3    0    0 -0.96038557175E-01 -0.86397779898E-01 -0.41325441450E-01  0.14305020469E+00  0.45470739099E-01 0.  0.
         14    1    1    2    0    0  0.11352694299E-01  0.55218366681E-03 -0.22552437070E-02  0.11587696010E-01  0.00000000000E+00 0.  1.
     999901    1    3    3    0    0  0.84685862876E-01  0.85845596231E-01  0.43580685157E-01  0.88929209930E+00  0.88000000000E+00 0.  1.
        -11    1    4    4    0    0 -0.90775648775E-01 -0.57521097907E-01 -0.29905571177E-01  0.11155043444E+00  0.51100000000E-03 0.  1.
         11    1    4    4    0    0 -0.52629084005E-02 -0.28876681992E-01 -0.11419870273E-01  0.31499770249E-01  0.51100000000E-03 0. -1.
</event>
<event>
 8    1  0.2927513E+004  0.1043930E+01  0.7957747E-01            NaN
         13   -1    0    0    0    0  0.00000000000E+00  0.00000000000E+00  0.74505805969E-08  0.10566000000E+00  0.10566000000E+00 0. -1.
     999900   -1    0    0    0    0 -0.00000000000E+00 -0.00000000000E+00 -0.74505805969E-08  0.93827000000E+00  0.93827000000E+00 0.  1.
     999902    2    1    2    0    0 -0.10996673575E-01  0.13343611648E-01  0.60934879312E-02  0.10255967134E+01  0.10254328399E+01 0.  0.
     999903    2    3    3    0    0 -0.63364931391E-01 -0.37677210969E-01  0.10638132177E+00  0.13688798252E+00  0.44571822706E-01 0.  0.
         14    1    1    2    0    0  0.10996673575E-01 -0.13343611648E-01 -0.60934879312E-02  0.18333286577E-01  0.00000000000E+00 0.  1.
     999901    1    3    3    0    0  0.52368257816E-01  0.51020822618E-01 -0.10028783384E+00  0.88870873090E+00  0.88000000000E+00 0.  1.
        -11    1    4    4    0    0 -0.23663875691E-01  0.82343276545E-02  0.37192177935E-01  0.44847546033E-01  0.51100000000E-03 0. -1.
         11    1    4    4    0    0 -0.39701055700E-01 -0.45911538624E-01  0.69189143839E-01  0.92040436487E-01  0.51100000000E-03 0.  1.
</event>
<event>
 8    1  0.2927513E+004  0.1043930E+01  0.7957747E-01            NaN
         13   -1    0    0    0    0  0.00000000000E+00  0.00000000000E+00  0.74505805969E-08  0.10566000000E+00  0.10566000000E+00 0. -1.
     999900   -1    0    0    0    0 -0.00000000000E+00 -0.00000000000E+00 -0.74505805969E-08  0.93827000000E+00  0.93827000000E+00 0. -1.
     999902    2    1    2    0    0  0.91503056551E-02 -0.91124572010E-02  0.17005049912E-02  0.10309047673E+01  0.10308224787E+01 0.  0.
     999903    2    3    3    0    0  0.52236159738E-03 -0.48417776302E-01  0.12486023759E+00  0.14141746032E+00  0.45434185695E-01 0.  0.
         14    1    1    2    0    0 -0.91503056551E-02  0.91124572010E-02 -0.17005049912E-02  0.13025232706E-01  0.00000000000E+00 0.  1.
     999901    1    3    3    0    0  0.86279440577E-02  0.39305319101E-01 -0.12315973260E+00  0.88948730697E+00  0.88000000000E+00 0. -1.
        -11    1    4    4    0    0 -0.22411926345E-01 -0.24532500866E-01  0.59815952558E-01  0.68427679653E-01  0.51100000000E-03 0. -1.
         11    1    4    4    0    0  0.22934287943E-01 -0.23885275436E-01  0.65044285031E-01  0.72989780670E-01  0.51100000000E-03 0.  1.
</event>
<event>
 8    1  0.2927513E+004  0.1043930E+01  0.7957747E-01            NaN
         13   -1    0    0    0    0  0.00000000000E+00  0.00000000000E+00  0.74505805969E-08  0.10566000000E+00  0.10566000000E+00 0. -1.
     999900   -1    0    0    0    0 -0.00000000000E+00 -0.00000000000E+00 -0.74505805969E-08  0.93827000000E+00  0.93827000000E+00 0. -1.
     999902    2    1    2    0    0 -0.30966373645E-02  0.12714524157E-01 -0.20398577762E-02  0.10306857821E+01  0.10306006851E+01 0.  0.
     999903    2    3    3    0    0 -0.24244530368E-01 -0.12488455230E+00 -0.33096707014E-01  0.13920091567E+00  0.45799063896E-01 0.  0.
         14    1    1    2    0    0  0.30966373645E-02 -0.12714524157E-01  0.20398577762E-02  0.13244217880E-01  0.00000000000E+00 0. -1.
     999901    1    3    3    0    0  0.21147893004E-01  0.13759907645E+00  0.31056849238E-01  0.89148486645E+00  0.88000000000E+00 0. -1.
        -11    1    4    4    0    0  0.96815744953E-02 -0.65218780474E-01 -0.94821419417E-02  0.66613769958E-01  0.51100000000E-03 0. -1.
         11    1    4    4    0    0 -0.33926104864E-01 -0.59665771823E-01 -0.23614565073E-01  0.72587145715E-01  0.51100000000E-03 0.  1.
</event>
<event>
 8    1  0.2927513E+004  0.1043930E+01  0.7957747E-01            NaN
         13   -1    0    0    0    0  0.00000000000E+00  0.00000000000E+00  0.74505805969E-08  0.10566000000E+00  0.10566000000E+00 0. -1.
     999900   -1    0    0    0    0 -0.00000000000E+00 -0.00000000000E+00 -0.74505805969E-08  0.93827000000E+00  0.93827000000E+00 0.  1.
     999902    2    1    2    0    0  0.64204454925E-02 -0.12152735429E-01 -0.12103195093E-02  0.10301323200E+01  0.10300399123E+01 0.  0.
     999903    2    3    3    0    0  0.40737039287E-01  0.84248843946E-01  0.92328571424E-01  0.13927856256E+00  0.46006290994E-01 0.  0.
         14    1    1    2    0    0 -0.64204454925E-02  0.12152735429E-01  0.12103195093E-02  0.13797679952E-01  0.00000000000E+00 0.  1.
     999901    1    3    3    0    0 -0.34316593795E-01 -0.96401579376E-01 -0.93538890933E-01  0.89085375749E+00  0.88000000000E+00 0.  1.
        -11    1    4    4    0    0 -0.24170680912E-02  0.44752879352E-01  0.49486909499E-01  0.66767340528E-01  0.51100000000E-03 0.  1.
         11    1    4    4    0    0  0.43154107378E-01  0.39495964594E-01  0.42841661926E-01  0.72511222031E-01  0.51100000000E-03 0. -1.
</event>
<event>
 8    1  0.2927513E+004  0.1043930E+01  0.7957747E-01            NaN
         13   -1    0    0    0    0  0.00000000000E+00  0.00000000000E+00  0.74505805969E-08  0.10566000000E+00  0.10566000000E+00 0. -1.
     999900   -1    0    0    0    0 -0.00000000000E+00 -0.00000000000E+00 -0.74505805969E-08  0.93827000000E+00  0.93827000000E+00 0. -1.
     999902    2    1    2    0    0 -0.98722268106E-02 -0.84191420296E-02  0.16906261944E-02  0.10308456188E+01  0.10307625763E+01 0.  0.
     999903    2    3    3    0    0 -0.31801719694E-01  0.12035320635E+00 -0.46430316988E-01  0.13990294637E+00  0.43827119605E-01 0.  0.
         14    1    1    2    0    0  0.98722268106E-02  0.84191420296E-02 -0.16906261944E-02  0.13084381210E-01  0.00000000000E+00 0.  1.
     999901    1    3    3    0    0  0.21929492883E-01 -0.12877234838E+00  0.48120943183E-01  0.89094267242E+00  0.88000000000E+00 0. -1.
        -11    1    4    4    0    0 -0.37914076029E-01  0.10321845549E+00 -0.26895478664E-01  0.11320403972E+00  0.51100000000E-03 0. -1.
         11    1    4    4    0    0  0.61123563355E-02  0.17134750861E-01 -0.19534838325E-01  0.26698906652E-01  0.51100000000E-03 0.  1.
</event>
<event>
 7    1  0.2927513E+004  0.1043930E+01  0.7957747E-01            NaN
         13   -1    0    0    0    0  0.00000000000E+00  0.00000000000E+00  0.74505805969E-08  0.10566000000E+00  0.10566000000E+00 0.  1.
     999900   -1    0    0    0    0 -0.00000000000E+00 -0.00000000000E+00 -0.74505805969E-08  0.93827000000E+00  0.93827000000E+00 0.  1.
     999902    2    1    2    0    0  0.27840575359E-02  0.43561117822E-02 -0.14303104622E-01  0.10287212693E+01  0.10286088394E+01 0.  0.
         14    1    1    2    0    0 -0.27840575359E-02 -0.43561117822E-02  0.14303104622E-01  0.15208730652E-01  0.00000000000E+00 0.  1.
     999901    1    3    3    0    0 -0.10408132985E+00  0.26782540119E-01 -0.92520926377E-01  0.89135310035E+00  0.88000000000E+00 0.  1.
        -11    1    3    3    0    0  0.31188430777E-01 -0.17027005538E-01  0.35805819650E-01  0.50447546757E-01  0.51100000000E-03 0.  1.
         11    1    3    3    0    0  0.75676956608E-01 -0.53994227991E-02  0.42412002104E-01  0.86920622245E-01  0.51100000000E-03 0. -1.
</event>
<event>
 8    1  0.2927513E+004  0.1043930E+01  0.7957747E-01            NaN
         13   -1    0    0    0    0  0.00000000000E+00  0.00000000000E+00  0.74505805969E-08  0.10566000000E+00  0.10566000000E+00 0. -1.
     999900   -1    0    0    0    0 -0.00000000000E+00 -0.00000000000E+00 -0.74505805969E-08  0.93827000000E+00  0.93827000000E+00 0. -1.
     999902    2    1    2    0    0 -0.46411696346E-02  0.11784692083E-01  0.43994206334E-02  0.10305220052E+01  0.10304347766E+01 0.  0.
     999903    2    3    3    0    0 -0.59540351961E-01 -0.12248808472E-01  0.11932186875E+00  0.14102849849E+00  0.44229426888E-01 0.  0.
         14    1    1    2    0    0  0.46411696346E-02 -0.11784692083E-01 -0.43994206334E-02  0.13407994815E-01  0.00000000000E+00 0. -1.
     999901    1    3    3    0    0  0.54899182326E-01  0.24033500555E-01 -0.11492244812E+00  0.88949350669E+00  0.88000000000E+00 0.  1.
        -11    1    4    4    0    0  0.63093183725E-03 -0.90364034331E-02  0.42158414889E-01  0.43123633068E-01  0.51100000000E-03 0.  1.
         11    1    4    4    0    0 -0.60171283798E-01 -0.32124050392E-02  0.77163453865E-01  0.97904865423E-01  0.51100000000E-03 0. -1.
</event>
<event>
 8    1  0.2927513E+004  0.1043930E+01  0.7957747E-01            NaN
         13   -1    0    0    0    0  0.00000000000E+00  0.00000000000E+00  0.74505805969E-08  0.10566000000E+00  0.10566000000E+00 0. -1.
     999900   -1    0    0    0    0 -0.00000000000E+00 -0.00000000000E+00 -0.74505805969E-08  0.93827000000E+00  0.93827000000E+00 0.  1.
     999902    2    1    2    0    0 -0.12633704737E-01  0.19333274454E-02  0.57974872508E-02  0.10298957879E+01  0.10298001626E+01 0.  0.
     999903    2    3    3    0    0  0.13055077138E+00  0.18391068344E-01 -0.52058758001E-02  0.13810336508E+00  0.40788515540E-01 0.  0.
         14    1    1    2    0    0  0.12633704737E-01 -0.19333274454E-02 -0.57974872508E-02  0.14034212084E-01  0.00000000000E+00 0.  1.
     999901    1    3    3    0    0 -0.14318447612E+00 -0.16457740898E-01  0.11003363051E-01  0.89179242284E+00  0.88000000000E+00 0.  1.
        -11    1    4    4    0    0  0.69692189848E-01  0.25886018381E-01 -0.15446094981E-01  0.75933722710E-01  0.51100000000E-03 0.  1.
         11    1    4    4    0    0  0.60858581531E-01 -0.74949500375E-02  0.10240219181E-01  0.62169642366E-01  0.51100000000E-03 0. -1.
</event>
<event>
 8    1  0.2927513E+004  0.1043930E+01  0.7957747E-01            NaN
         13   -1    0    0    0    0  0.00000000000E+00  0.00000000000E+00  0.74505805969E-08  0.10566000000E+00  0.10566000000E+00 0. -1.
     999900   -1    0    0    0    0 -0.00000000000E+00 -0.00000000000E+00 -0.74505805969E-08  0.93827000000E+00  0.93827000000E+00 0. -1.
     999902    2    1    2    0    0  0.14475476613E-01 -0.23296483642E-02 -0.22930925610E-02  0.10290900216E+01  0.10289830162E+01 0.  0.
     999903    2    3    3    0    0  0.55940248463E-01  0.24757834001E-01  0.11725701133E+00  0.13962653932E+00  0.44767198191E-01 0.  0.
         14    1    1    2    0    0 -0.14475476613E-01  0.23296483642E-02  0.22930925610E-02  0.14839978375E-01  0.00000000000E+00 0. -1.
     999901    1    3    3    0    0 -0.41464771850E-01 -0.27087482365E-01 -0.11955010390E+00  0.88946348230E+00  0.88000000000E+00 0. -1.
        -11    1    4    4    0    0  0.49567826262E-01  0.35826371384E-01  0.83291561190E-01  0.10333558716E+00  0.51100000000E-03 0.  1.
         11    1    4    4    0    0  0.63724222011E-02 -0.11068537384E-01  0.33965450145E-01  0.36290952165E-01  0.51100000000E-03 0. -1.
</event>
<event>
 8    1  0.2927513E+004  0.1043930E+01  0.7957747E-01            NaN
         13   -1    0    0    0    0  0.00000000000E+00  0.00000000000E+00  0.74505805969E-08  0.10566000000E+00  0.10566000000E+00 0.  1.
     999900   -1    0    0    0    0 -0.00000000000E+00 -0.00000000000E+00 -0.74505805969E-08  0.93827000000E+00  0.93827000000E+00 0. -1.
     999902    2    1    2    0    0  0.90439569480E-02  0.76490638039E-02 -0.73303318294E-02  0.10300003518E+01  0.10299061557E+01 0.  0.
     999903    2    3    3    0    0 -0.28340331745E-01 -0.96822207326E-01  0.83400544930E-01  0.13840407347E+00  0.44970239301E-01 0.  0.
         14    1    1    2    0    0 -0.90439569480E-02 -0.76490638039E-02  0.73303318294E-02  0.13929648204E-01  0.00000000000E+00 0. -1.
     999901    1    3    3    0    0  0.37384288693E-01  0.10447127113E+00 -0.90730876759E-01  0.89159627833E+00  0.88000000000E+00 0. -1.
        -11    1    4    4    0    0 -0.29631662094E-01 -0.40487973586E-01  0.57711489884E-01  0.76473450224E-01  0.51100000000E-03 0.  1.
         11    1    4    4    0    0  0.12913303485E-02 -0.56334233740E-01  0.25689055046E-01  0.61930623243E-01  0.51100000000E-03 0. -1.
</event>
<event>
 8    1  0.2927513E+004  0.1043930E+01  0.7957747E-01            NaN
         13   -1    0    0    0    0  0.00000000000E+00  0.00000000000E+00  0.74505805969E-08  0.10566000000E+00  0.10566000000E+00 0. -1.
     999900   -1    0    0    0    0 -0.00000000000E+00 -0.00000000000E+00 -0.74505805969E-08  0.93827000000E+00  0.93827000000E+00 0. -1.
     999902    2    1    2    0    0 -0.36356012643E-02  0.11558871953E-01 -0.12258506286E-03  0.10318122385E+01  0.10317410796E+01 0.  0.
     999903    2    3    3    0    0  0.10165382725E+00 -0.41038335735E-01 -0.75895745078E-01  0.14074888394E+00  0.45082575504E-01 0.  0.
         14    1    1    2    0    0  0.36356012643E-02 -0.11558871953E-01  0.12258506286E-03  0.12117761529E-01  0.00000000000E+00 0. -1.
     999901    1    3    3    0    0 -0.10528942851E+00  0.52597207688E-01  0.75773160016E-01  0.89106335453E+00  0.88000000000E+00 0.  1.
        -11    1    4    4    0    0  0.53554760553E-01 -0.66636746300E-02 -0.57431293262E-01  0.78810732164E-01  0.51100000000E-03 0. -1.
         11    1    4    4    0    0  0.48099066697E-01 -0.34374661106E-01 -0.18464451817E-01  0.61938151774E-01  0.51100000000E-03 0.  1.
</event>
<event>
 8    1  0.2927513E+004  0.1043930E+01  0.7957747E-01            NaN
         13   -1    0    0    0    0  0.00000000000E+00  0.00000000000E+00  0.74505805969E-08  0.10566000000E+00  0.10566000000E+00 0.  1.
     999900   -1    0    0    0    0 -0.00000000000E+00 -0.00000000000E+00 -0.74505805969E-08  0.93827000000E+00  0.93827000000E+00 0.  1.
     999902    2    1    2    0    0  0.44945390244E-02  0.71476837960E-02  0.10390350054E-01  0.10305415856E+01  0.10304546133E+01 0.  0.
     999903    2    3    3    0    0 -0.60240098850E-01  0.28841437150E-02  0.11964747760E+00  0.14141512049E+00  0.45227531577E-01 0.  0.
         14    1    1    2    0    0 -0.44945390244E-02 -0.71476837960E-02 -0.10390350054E-01  0.13388414355E-01  0.00000000000E+00 0. -1.
     999901    1    3    3    0    0  0.64734637874E-01  0.42635400810E-02 -0.10925712755E+00  0.88912646515E+00  0.88000000000E+00 0.  1.
        -11    1    4    4    0    0 -0.36137372370E-01 -0.13058330235E-01  0.98119108360E-01  0.10537575725E+00  0.51100000000E-03 0. -1.
         11    1    4    4    0    0 -0.24102726480E-01  0.15942473949E-01  0.21528369244E-01  0.36039363239E-01  0.51100000000E-03 0.  1.
</event>
<event>
 8    1  0.2927513E+004  0.1043930E+01  0.7957747E-01            NaN
         13   -1    0    0    0    0  0.00000000000E+00  0.00000000000E+00  0.74505805969E-08  0.10566000000E+00  0.10566000000E+00 0. -1.
     999900   -1    0    0    0    0 -0.00000000000E+00 -0.00000000000E+00 -0.74505805969E-08  0.93827000000E+00  0.93827000000E+00 0.  1.
     999902    2    1    2    0    0 -0.41071271703E-02  0.68878896886E-02  0.18279001967E-01  0.10239692026E+01  0.10237746307E+01 0.  0.
     999903    2    3    3    0    0  0.10366751625E+00 -0.59321965429E-02  0.74438801044E-01  0.13552469037E+00  0.45206876870E-01 0.  0.
         14    1    1    2    0    0  0.41071271703E-02 -0.68878896886E-02 -0.18279001967E-01  0.19960797350E-01  0.00000000000E+00 0.  1.
     999901    1    3    3    0    0 -0.10777464342E+00  0.12820086232E-01 -0.56159799077E-01  0.88844451228E+00  0.88000000000E+00 0. -1.
        -11    1    4    4    0    0  0.22944802280E-01 -0.21026922644E-01  0.20190310995E-01  0.37101283086E-01  0.51100000000E-03 0.  1.
         11    1    4    4    0    0  0.80722713971E-01  0.15094726101E-01  0.54248490049E-01  0.98423407279E-01  0.51100000000E-03 0. -1.
</event>
<event>
 8    1  0.2927513E+004  0.1043930E+01  0.7957747E-01            NaN
         13   -1    0    0    0    0  0.00000000000E+00  0.00000000000E+00  0.74505805969E-08  0.10566000000E+00  0.10566000000E+00 0. -1.
     999900   -1    0    0    0    0 -0.00000000000E+00 -0.00000000000E+00 -0.74505805969E-08  0.93827000000E+00  0.93827000000E+00 0. -1.
     999902    2    1    2    0    0  0.13301391781E-01  0.30025587749E-02  0.14396148814E-01  0.10241009435E+01  0.10239089564E+01 0.  0.
     999903    2    3    3    0    0  0.79857132159E-01 -0.43900793091E-01  0.91900543670E-01  0.13695015458E+00  0.44779389474E-01 0.  0.
         14    1    1    2    0    0 -0.13301391781E-01 -0.30025587749E-02 -0.14396148814E-01  0.19829056538E-01  0.00000000000E+00 0.  1.
     999901    1    3    3    0    0 -0.66555740378E-01  0.46903351866E-01 -0.77504394856E-01  0.88715078888E+00  0.88000000000E+00 0. -1.
        -11    1    4    4    0    0  0.66510544167E-01 -0.19441363214E-01  0.82038547813E-01  0.10738809775E+00  0.51100000000E-03 0.  1.
         11    1    4    4    0    0  0.13346587992E-01 -0.24459429878E-01  0.98619958569E-02  0.29562056834E-01  0.51100000000E-03 0. -1.
</event>
<event>
 8    1  0.2927513E+004  0.1043930E+01  0.7957747E-01            NaN
         13   -1    0    0    0    0  0.00000000000E+00  0.00000000000E+00  0.74505805969E-08  0.10566000000E+00  0.10566000000E+00 0. -1.
     999900   -1    0    0    0    0 -0.00000000000E+00 -0.00000000000E+00 -0.74505805969E-08  0.93827000000E+00  0.93827000000E+00 0. -1.
     999902    2    1    2    0    0 -0.71021479595E-02  0.11955867022E-01 -0.57713829399E-03  0.10300117979E+01  0.10299177576E+01 0.  0.
     999903    2    3    3    0    0  0.11825504042E+00 -0.47631117148E-01  0.28666548500E-01  0.13865315704E+00  0.46367543067E-01 0.  0.
         14    1    1    2    0    0  0.71021479595E-02 -0.11955867022E-01  0.57713829399E-03  0.13918202129E-01  0.00000000000E+00 0.  1.
     999901    1    3    3    0    0 -0.12535718838E+00  0.59586984170E-01 -0.29243686794E-01  0.89135864083E+00  0.88000000000E+00 0. -1.
        -11    1    4    4    0    0  0.98109003330E-01 -0.26424957854E-01  0.37163243974E-01  0.10818975347E+00  0.51100000000E-03 0. -1.
         11    1    4    4    0    0  0.20146037089E-01 -0.21206159294E-01 -0.84966954741E-02  0.30463403575E-01  0.51100000000E-03 0.  1.
</event>
<event>
 8    1  0.2927513E+004  0.1043930E+01  0.7957747E-01            NaN
         13   -1    0    0    0    0  0.00000000000E+00  0.00000000000E+00  0.74505805969E-08  0.10566000000E+00  0.10566000000E+00 0.  1.
     999900   -1    0    0    0    0 -0.00000000000E+00 -0.00000000000E+00 -0.74505805969E-08  0.93827000000E+00  0.93827000000E+00 0. -1.
     999902    2    1    2    0    0 -0.47651165717E-02  0.79558762181E-02  0.10401163727E-01  0.10299949180E+01  0.10299006480E+01 0.  0.
     999903    2    3    3    0    0  0.10542694107E+00  0.80067867408E-01  0.11763203439E-01  0.14019478093E+00  0.44615023823E-01 0.  0.
         14    1    1    2    0    0  0.47651165717E-02 -0.79558762181E-02 -0.10401163727E-01  0.13935081960E-01  0.00000000000E+00 0. -1.
     999901    1    3    3    0    0 -0.11019205764E+00 -0.72111991190E-01 -0.13620397118E-02  0.88980013711E+00  0.88000000000E+00 0.  1.
        -11    1    4    4    0    0  0.27749365052E-01  0.38989068449E-02 -0.90052636426E-02  0.29437809525E-01  0.51100000000E-03 0. -1.
         11    1    4    4    0    0  0.77677576022E-01  0.76168960563E-01  0.20768467082E-01  0.11075697141E+00  0.51100000000E-03 0.  1.
</event>
<event>
 8    1  0.2927513E+004  0.1043930E+01  0.7957747E-01            NaN
         13   -1    0    0    0    0  0.00000000000E+00  0.00000000000E+00  0.74505805969E-08  0.10566000000E+00  0.10566000000E+00 0. -1.
     999900   -1    0    0    0    0 -0.00000000000E+00 -0.00000000000E+00 -0.74505805969E-08  0.93827000000E+00  0.93827000000E+00 0.  1.
     999902    2    1    2    0    0 -0.58629464635E-02  0.12465320945E-01  0.21161616556E-02  0.10299931242E+01  0.10298988297E+01 0.  0.
     999903    2    3    3    0    0  0.25195507450E-01 -0.10020480184E-01 -0.12949560535E+00  0.13937991070E+00  0.43845456812E-01 0.  0.
         14    1    1    2    0    0  0.58629464635E-02 -0.12465320945E-01 -0.21161616556E-02  0.13936875821E-01  0.00000000000E+00 0.  1.
     999901    1    3    3    0    0 -0.31058453914E-01  0.22485801129E-01  0.13161176700E+00  0.89061321348E+00  0.88000000000E+00 0.  1.
        -11    1    4    4    0    0  0.34501160297E-02  0.10331999538E-01 -0.62151294385E-02  0.12551592329E-01  0.51100000000E-03 0.  1.
         11    1    4    4    0    0  0.21745391421E-01 -0.20352479722E-01 -0.12328047591E+00  0.12682831837E+00  0.51100000000E-03 0. -1.
</event>
<event>
 8    1  0.2927513E+004  0.1043930E+01  0.7957747E-01            NaN
         13   -1    0    0    0    0  0.00000000000E+00  0.00000000000E+00  0.74505805969E-08  0.10566000000E+00  0.10566000000E+00 0.  1.
     999900   -1    0    0    0    0 -0.00000000000E+00 -0.00000000000E+00 -0.74505805969E-08  0.93827000000E+00  0.93827000000E+00 0. -1.
     999902    2    1    2    0    0  0.40404754852E-02  0.11969992872E-01 -0.23799665629E-02  0.10310742459E+01  0.10309940981E+01 0.  0.
     999903    2    3    3    0    0  0.69992689249E-01 -0.10053348997E+00 -0.52477668654E-01  0.14005432029E+00  0.43073748056E-01 0.  0.
         14    1    1    2    0    0 -0.40404754852E-02 -0.11969992872E-01  0.23799665629E-02  0.12855754056E-01  0.00000000000E+00 0. -1.
     999901    1    3    3    0    0 -0.65952213764E-01  0.11250348284E+00  0.50097702092E-01  0.89101992565E+00  0.88000000000E+00 0.  1.
        -11    1    4    4    0    0  0.48815011760E-01 -0.39888694326E-01 -0.39867355478E-01  0.74590082866E-01  0.51100000000E-03 0. -1.
         11    1    4    4    0    0  0.21177677489E-01 -0.60644795644E-01 -0.12610313176E-01  0.65464237427E-01  0.51100000000E-03 0.  1.
</event>
<event>
 8    1  0.2927513E+004  0.1043930E+01  0.7957747E-01            NaN
         13   -1    0    0    0    0  0.00000000000E+00  0.00000000000E+00  0.74505805969E-08  0.10566000000E+00  0.10566000000E+00 0.  1.
     999900   -1    0    0    0    0 -0.00000000000E+00 -0.00000000000E+00 -0.74505805969E-08  0.93827000000E+00  0.93827000000E+00 0. -1.
     999902    2    1    2    0    0  0.11203202786E-01 -0.56283913415E-02 -0.25184227519E-02  0.10311419980E+01  0.10310626979E+01 0.  0.
     999903    2    3    3    0    0 -0.76183375287E-01  0.43132284907E-01  0.98999563603E-01  0.13967134839E+00  0.45198133773E-01 0.  0.
         14    1    1    2    0    0 -0.11203202786E-01  0.56283913415E-02  0.25184227519E-02  0.12788001991E-01  0.00000000000E+00 0.  1.
     999901    1    3    3    0    0  0.87386578073E-01 -0.48760676249E-01 -0.10151798635E+00  0.89147064962E+00  0.88000000000E+00 0. -1.
        -11    1    4    4    0    0 -0.65364327007E-01  0.21824360902E-01  0.49964203141E-01  0.85120389393E-01  0.51100000000E-03 0. -1.
         11    1    4    4    0    0 -0.10819048280E-01  0.21307924005E-01  0.49035360462E-01  0.54550958999E-01  0.51100000000E-03 0.  1.
</event>
<event>
 8    1  0.2927513E+004  0.1043930E+01  0.7957747E-01            NaN
         13   -1    0    0    0    0  0.00000000000E+00  0.00000000000E+00  0.74505805969E-08  0.10566000000E+00  0.10566000000E+00 0. -1.
     999900   -1    0    0    0    0 -0.00000000000E+00 -0.00000000000E+00 -0.74505805969E-08  0.93827000000E+00  0.93827000000E+00 0. -1.
     999902    2    1    2    0    0  0.72030384917E-02  0.68884682323E-02  0.97946886476E-02  0.10299560713E+01  0.10298612713E+01 0.  0.
     999903    2    3    3    0    0 -0.79575065920E-01 -0.62899596067E-01 -0.82535063991E-01  0.13814577949E+00  0.44538402547E-01 0.  0.
         14    1    1    2    0    0 -0.72030384917E-02 -0.68884682323E-02 -0.97946886476E-02  0.13973928718E-01  0.00000000000E+00 0.  1.
     999901    1    3    3    0    0  0.86778104412E-01  0.69788064299E-01  0.92329752639E-01  0.89181029179E+00  0.88000000000E+00 0.  1.
        -11    1    4    4    0    0 -0.15588407601E-01 -0.37747707573E-01 -0.40722285530E-01  0.57675415372E-01  0.51100000000E-03 0. -1.
         11    1    4    4    0    0 -0.63986658320E-01 -0.25151888494E-01 -0.41812778461E-01  0.80470364119E-01  0.51100000000E-03 0.  1.
</event>
<event>
 8    1  0.2927513E+004  0.1043930E+01  0.7957747E-01            NaN
         13   -1    0    0    0    0  0.00000000000E+00  0.00000000000E+00  0.74505805969E-08  0.10566000000E+00  0.10566000000E+00 0. -1.
     999900   -1    0    0    0    0 -0.00000000000E+00 -0.00000000000E+00 -0.74505805969E-08  0.93827000000E+00  0.93827000000E+00 0. -1.
     999902    2    1    2    0    0 -0.11670636846E-01 -0.37568150389E-02 -0.61714106847E-02  0.10302039761E+01  0.10301125320E+01 0.  0.
     999903    2    3    3    0    0 -0.12175053158E+00  0.56177663255E-01 -0.42094969572E-02  0.14132064624E+00  0.44437409924E-01 0.  0.
         14    1    1    2    0    0  0.11670636846E-01  0.37568150389E-02  0.61714106847E-02  0.13726023950E-01  0.00000000000E+00 0. -1.
     999901    1    3    3    0    0  0.11007989473E+00 -0.59934478294E-01 -0.19619137275E-02  0.88888332981E+00  0.88000000000E+00 0. -1.
        -11    1    4    4    0    0 -0.43696202775E-01  0.34315893516E-01 -0.19395837051E-01  0.58850644012E-01  0.51100000000E-03 0. -1.
         11    1    4    4    0    0 -0.78054328801E-01  0.21861769739E-01  0.15186340094E-01  0.82470002226E-01  0.51100000000E-03 0.  1.
</event>
<event>
 8    1  0.2927513E+004  0.1043930E+01  0.7957747E-01            NaN
         13   -1    0    0    0    0  0.00000000000E+00  0.00000000000E+00  0.74505805969E-08  0.10566000000E+00  0.10566000000E+00 0. -1.
     999900   -1    0    0    0    0 -0.00000000000E+00 -0.00000000000E+00 -0.74505805969E-08  0.93827000000E+00  0.93827000000E+00 0. -1.
     999902    2    1    2    0    0  0.25529229209E-02  0.53366535139E-02 -0.12312935430E-01  0.10302696316E+01  0.10301790660E+01 0.  0.
     999903    2    3    3    0    0  0.76639730656E-01 -0.14764126696E-01 -0.10937978142E+00  0.14161060303E+00  0.44698977120E-01 0.  0.
         14    1    1    2    0    0 -0.25529229209E-02 -0.53366535139E-02  0.12312935430E-01  0.13660368409E-01  0.00000000000E+00 0.  1.
     999901    1    3    3    0    0 -0.74086807735E-01  0.20100780210E-01  0.97066845993E-01  0.88865902856E+00  0.88000000000E+00 0. -1.
        -11    1    4    4    0    0  0.80377466607E-01 -0.18447804465E-01 -0.92492205290E-01  0.12391903723E+00  0.51100000000E-03 0. -1.
         11    1    4    4    0    0 -0.37377359512E-02  0.36836777691E-02 -0.16887576133E-01  0.17691565804E-01  0.51100000000E-03 0.  1.
</event>
<event>
 8    1  0.2927513E+004  0.1043930E+01  0.7957747E-01            NaN
         13   -1    0    0    0    0  0.00000000000E+00  0.00000000000E+00  0.74505805969E-08  0.10566000000E+00  0.10566000000E+00 0.  1.
     999900   -1    0    0    0    0 -0.00000000000E+00 -0.00000000000E+00 -0.74505805969E-08  0.93827000000E+00  0.93827000000E+00 0. -1.
     999902    2    1    2    0    0  0.62951151717E-02  0.73545413602E-02  0.10084112534E-01  0.10299511918E+01  0.10298563251E+01 0.  0.
     999903    2    3    3    0    0 -0.72900279904E-01  0.97562640797E-01 -0.51270970914E-01  0.13968501918E+00  0.45279934147E-01 0.  0.
         14    1    1    2    0    0 -0.62951151717E-02 -0.73545413602E-02 -0.10084112534E-01  0.13978808220E-01  0.00000000000E+00 0. -1.
     999901    1    3    3    0    0  0.79195395076E-01 -0.90208099437E-01  0.61355083449E-01  0.89026617260E+00  0.88000000000E+00 0.  1.
        -11    1    4    4    0    0 -0.58887259172E-01  0.50714393223E-01 -0.15886400424E-01  0.79324005271E-01  0.51100000000E-03 0.  1.
         11    1    4    4    0    0 -0.14013020732E-01  0.46848247574E-01 -0.35384570490E-01  0.60361013913E-01  0.51100000000E-03 0. -1.
</event>
<event>
 8    1  0.2927513E+004  0.1043930E+01  0.7957747E-01            NaN
         13   -1    0    0    0    0  0.00000000000E+00  0.00000000000E+00  0.74505805969E-08  0.10566000000E+00  0.10566000000E+00 0. -1.
     999900   -1    0    0    0    0 -0.00000000000E+00 -0.00000000000E+00 -0.74505805969E-08  0.93827000000E+00  0.93827000000E+00 0. -1.
     999902    2    1    2    0    0  0.93753320701E-02  0.63926957060E-02 -0.76897479475E-02  0.10302224972E+01  0.10301313014E+01 0.  0.
     999903    2    3    3    0    0  0.58529381475E-01  0.85130703922E-01 -0.85749338455E-01  0.14190437051E+00  0.45945359713E-01 0.  0.
         14    1    1    2    0    0 -0.93753320701E-02 -0.63926957060E-02  0.76897479475E-02  0.13707502811E-01  0.00000000000E+00 0. -1.
     999901    1    3    3    0    0 -0.49154049405E-01 -0.78738008216E-01  0.78059590508E-01  0.88831812668E+00  0.88000000000E+00 0.  1.
        -11    1    4    4    0    0  0.62110335889E-01  0.63975438215E-01 -0.56262440229E-01  0.10543374138E+00  0.51100000000E-03 0. -1.
         11    1    4    4    0    0 -0.35809544144E-02  0.21155265707E-01 -0.29486898226E-01  0.36470629137E-01  0.51100000000E-03 0.  1.
</event>
<event>
 8    1  0.2927513E+004  0.1043930E+01  0.7957747E-01            NaN
         13   -1    0    0    0    0  0.00000000000E+00  0.00000000000E+00  0.74505805969E-08  0.10566000000E+00  0.10566000000E+00 0. -1.
     999900   -1    0    0    0    0 -0.00000000000E+00 -0.00000000000E+00 -0.74505805969E-08  0.93827000000E+00  0.93827000000E+00 0. -1.
     999902    2    1    2    0    0 -0.13430878696E-01  0.32084324029E-02  0.19968236247E-02  0.10299775864E+01  0.10298830801E+01 0.  0.
     999903    2    3    3    0    0  0.38239399381E-01  0.94523574399E-01  0.84608471540E-01  0.13990289448E+00  0.44914013922E-01 0.  0.
         14    1    1    2    0    0  0.13430878696E-01 -0.32084324029E-02 -0.19968236247E-02  0.13952413613E-01  0.00000000000E+00 0.  1.
     999901    1    3    3    0    0 -0.51670278077E-01 -0.91315141996E-01 -0.82611647916E-01  0.89007469190E+00  0.88000000000E+00 0. -1.
        -11    1    4    4    0    0  0.32326795640E-01  0.25568572597E-01  0.40776406479E-01  0.57980600784E-01  0.51100000000E-03 0. -1.
         11    1    4    4    0    0  0.59126037411E-02  0.68955001802E-01  0.43832065062E-01  0.81922293700E-01  0.51100000000E-03 0.  1.
</event>
<event>
 8    1  0.2927513E+004  0.1043930E+01  0.7957747E-01            NaN
         13   -1    0    0    0    0  0.00000000000E+00  0.00000000000E+00  0.74505805969E-08  0.10566000000E+00  0.10566000000E+00 0. -1.
     999900   -1    0    0    0    0 -0.00000000000E+00 -0.00000000000E+00 -0.74505805969E-08  0.93827000000E+00  0.93827000000E+00 0. -1.
     999902    2    1    2    0    0  0.84988220629E-02 -0.80130720846E-02 -0.75245729710E-02  0.10300354507E+01  0.10299417320E+01 0.  0.
     999903    2    3    3    0    0 -0.91706118633E-02  0.12121257021E+00  0.49997039768E-01  0.13856463717E+00  0.43861912744E-01 0.  0.
         14    1    1    2    0    0 -0.84988220629E-02  0.80130720846E-02  0.75245729710E-02  0.13894549258E-01  0.00000000000E+00 0.  1.
     999901    1    3    3    0    0  0.17669433926E-01 -0.12922564229E+00 -0.57521612739E-01  0.89147081357E+00  0.88000000000E+00 0.  1.
        -11    1    4    4    0    0  0.60884655389E-02  0.22456016293E-01  0.27698031534E-01  0.36177121945E-01  0.51100000000E-03 0. -1.
         11    1    4    4    0    0 -0.15259077402E-01  0.98756553915E-01  0.22299008234E-01  0.10238751522E+00  0.51100000000E-03 0.  1.
</event>
<event>
 8    1  0.2927513E+004  0.1043930E+01  0.7957747E-01            NaN
         13   -1    0    0    0    0  0.00000000000E+00  0.00000000000E+00  0.74505805969E-08  0.10566000000E+00  0.10566000000E+00 0. -1.
     999900   -1    0    0    0    0 -0.00000000000E+00 -0.00000000000E+00 -0.74505805969E-08  0.93827000000E+00  0.93827000000E+00 0. -1.
     999902    2    1    2    0    0 -0.44819387061E-02 -0.82701266763E-02 -0.88229057902E-02  0.10310332393E+01  0.10309525761E+01 0.  0.
     999903    2    3    3    0    0 -0.48932849876E-01 -0.51738554543E-01  0.11242362897E+00  0.14054679364E+00  0.45199856518E-01 0.  0.
         14    1    1    2    0    0  0.44819387061E-02  0.82701266763E-02  0.88229057902E-02  0.12896760694E-01  0.00000000000E+00 0. -1.
     999901    1    3    3    0    0  0.44450911170E-01  0.43468427867E-01 -0.12124653476E+00  0.89048644567E+00  0.88000000000E+00 0. -1.
        -11    1    4    4    0    0 -0.52021596062E-01 -0.56599027670E-01  0.11017225699E+00  0.13434241222E+00  0.51100000000E-03 0. -1.
         11    1    4    4    0    0  0.30887461863E-02  0.48604731272E-02  0.22513719782E-02  0.62043814202E-02  0.51100000000E-03 0.  1.
</event>
<event>
 8    1  0.2927513E+004  0.1043930E+01  0.7957747E-01            NaN
         13   -1    0    0    0    0  0.00000000000E+00  0.00000000000E+00  0.74505805969E-08  0.10566000000E+00  0.10566000000E+00 0. -1.
     999900   -1    0    0    0    0 -0.00000000000E+00 -0.00000000000E+00 -0.74505805969E-08  0.93827000000E+00  0.93827000000E+00 0.  1.
     999902    2    1    2    0    0  0.92516097428E-02  0.10605839902E-01  0.15374704724E-02  0.10297723188E+01  0.10296749917E+01 0.  0.
     999903    2    3    3    0    0  0.53842689097E-01  0.42659836288E-01 -0.11348462737E+00  0.14058960073E+00  0.46559407027E-01 0.  0.
         14    1    1    2    0    0 -0.92516097428E-02 -0.10605839902E-01 -0.15374704724E-02  0.14157681248E-01  0.00000000000E+00 0.  1.
     999901    1    3    3    0    0 -0.44591079354E-01 -0.32053996386E-01  0.11502209784E+00  0.88918271802E+00  0.88000000000E+00 0. -1.
        -11    1    4    4    0    0  0.40527012604E-01  0.37794690131E-01 -0.11360738708E+00  0.12640323126E+00  0.51100000000E-03 0. -1.
         11    1    4    4    0    0  0.13315676493E-01  0.48651461571E-02  0.12275971817E-03  0.14186369463E-01  0.51100000000E-03 0.  1.
</event>
<event>
 8    1  0.2927513E+004  0.1043930E+01  0.7957747E-01            NaN
         13   -1    0    0    0    0  0.00000000000E+00  0.00000000000E+00  0.74505805969E-08  0.10566000000E+00  0.10566000000E+00 0.  1.
     999900   -1    0    0    0    0 -0.00000000000E+00 -0.00000000000E+00 -0.74505805969E-08  0.93827000000E+00  0.93827000000E+00 0.  1.
     999902    2    1    2    0    0  0.93456827322E-02 -0.13222744248E-02  0.12354337380E-01  0.10283826579E+01  0.10282651269E+01 0.  0.
     999903    2    3    3    0    0  0.34022449948E-01 -0.11978814777E+00  0.44038551080E-01  0.13953677956E+00  0.44993237512E-01 0.  0.
         14    1    1    2    0    0 -0.93456827322E-02  0.13222744248E-02 -0.12354337380E-01  0.15547342136E-01  0.00000000000E+00 0. -1.
     999901    1    3    3    0    0 -0.24676767215E-01  0.11846587334E+00 -0.31684213700E-01  0.88884587831E+00  0.88000000000E+00 0.  1.
        -11    1    4    4    0    0  0.14641444074E-01 -0.61735477666E-01  0.45887497066E-01  0.78304307641E-01  0.51100000000E-03 0.  1.
         11    1    4    4    0    0  0.19381005874E-01 -0.58052670102E-01 -0.18489459857E-02  0.61232471915E-01  0.51100000000E-03 0. -1.
</event>
<event>
 8    1  0.2927513E+004  0.1043930E+01  0.7957747E-01            NaN
         13   -1    0    0    0    0  0.00000000000E+00  0.00000000000E+00  0.74505805969E-08  0.10566000000E+00  0.10566000000E+00 0.  1.
     999900   -1    0    0    0    0 -0.00000000000E+00 -0.00000000000E+00 -0.74505805969E-08  0.93827000000E+00  0.93827000000E+00 0.  1.
     999902    2    1    2    0    0  0.62027192113E-03  0.92857617195E-02 -0.22212930424E-02  0.10343621240E+01  0.10343178715E+01 0.  0.
     999903    2    3    3    0    0 -0.12126259069E-01 -0.91209259220E-01 -0.10019079359E+00  0.14314960934E+00  0.44580717887E-01 0.  0.
         14    1    1    2    0    0 -0.62027192113E-03 -0.92857617195E-02  0.22212930424E-02  0.95678759789E-02  0.00000000000E+00 0. -1.
     999901    1    3    3    0    0  0.12746530990E-01  0.10049502094E+00  0.97969500549E-01  0.89121251468E+00  0.88000000000E+00 0. -1.
        -11    1    4    4    0    0  0.16111421957E-01 -0.46716235029E-01 -0.52014379489E-01  0.71747761829E-01  0.51100000000E-03 0.  1.
         11    1    4    4    0    0 -0.28237681026E-01 -0.44493024191E-01 -0.48176414102E-01  0.71401847512E-01  0.51100000000E-03 0. -1.
</event>
<event>
 8    1  0.2927513E+004  0.1043930E+01  0.7957747E-01            NaN
         13   -1    0    0    0    0  0.00000000000E+00  0.00000000000E+00  0.74505805969E-08  0.10566000000E+00  0.10566000000E+00 0.  1.
     999900   -1    0    0    0    0 -0.00000000000E+00 -0.00000000000E+00 -0.74505805969E-08  0.93827000000E+00  0.93827000000E+00 0. -1.
     999902    2    1    2    0    0 -0.89730721191E-02  0.77034460112E-03  0.10888637544E-01  0.10297994699E+01  0.10297025183E+01 0.  0.
     999903    2    3    3    0    0  0.21746339575E-01 -0.12076780804E+00 -0.47589865951E-01  0.13899368848E+00  0.44684262918E-01 0.  0.
         14    1    1    2    0    0  0.89730721191E-02 -0.77034460112E-03 -0.10888637544E-01  0.14130530125E-01  0.00000000000E+00 0. -1.
     999901    1    3    3    0    0 -0.30719411694E-01  0.12153815264E+00  0.58478503495E-01  0.89080578140E+00  0.88000000000E+00 0. -1.
        -11    1    4    4    0    0 -0.48149804899E-02 -0.77655112926E-01 -0.16390158362E-01  0.79513514655E-01  0.51100000000E-03 0. -1.
         11    1    4    4    0    0  0.26561320064E-01 -0.43112695109E-01 -0.31199707589E-01  0.59480173821E-01  0.51100000000E-03 0.  1.
</event>
<event>
 8    1  0.2927513E+004  0.1043930E+01  0.7957747E-01            NaN
         13   -1    0    0    0    0  0.00000000000E+00  0.00000000000E+00  0.74505805969E-08  0.10566000000E+00  0.10566000000E+00 0.  1.
     999900   -1    0    0    0    0 -0.00000000000E+00 -0.00000000000E+00 -0.74505805969E-08  0.93827000000E+00  0.93827000000E+00 0. -1.
     999902    2    1    2    0    0  0.10470105988E-01  0.64369591716E-02  0.56846402189E-02  0.10303884825E+01  0.10302994963E+01 0.  0.
     999903    2    3    3    0    0 -0.48203310826E-01 -0.68379759321E-01  0.10266198363E+00  0.13997020079E+00  0.45308096026E-01 0.  0.
         14    1    1    2    0    0 -0.10470105988E-01 -0.64369591716E-02 -0.56846402189E-02  0.13541517537E-01  0.00000000000E+00 0.  1.
     999901    1    3    3    0    0  0.58673416813E-01  0.74816718492E-01 -0.96977343416E-01  0.89041828168E+00  0.88000000000E+00 0. -1.
        -11    1    4    4    0    0 -0.56174776991E-01 -0.52969006402E-01  0.77462663207E-01  0.10937114117E+00  0.51100000000E-03 0. -1.
         11    1    4    4    0    0  0.79714661654E-02 -0.15410752919E-01  0.25199320427E-01  0.30599059616E-01  0.51100000000E-03 0.  1.
</event>
<event>
 8    1  0.2927513E+004  0.1043930E+01  0.7957747E-01            NaN
         13   -1    0    0    0    0  0.00000000000E+00  0.00000000000E+00  0.74505805969E-08  0.10566000000E+00  0.10566000000E+00 0.  1.
     999900   -1    0    0    0    0 -0.00000000000E+00 -0.00000000000E+00 -0.74505805969E-08  0.93827000000E+00  0.93827000000E+00 0. -1.
     999902    2    1    2    0    0  0.68629853689E-02  0.85411562144E-02 -0.88518445578E-02  0.10298442956E+01  0.10297479624E+01 0.  0.
     999903    2    3    3    0    0  0.64908260576E-01  0.10695012519E+00  0.47041235789E-01  0.14069997905E+00  0.43956736348E-01 0.  0.
         14    1    1    2    0    0 -0.68629853689E-02 -0.85411562144E-02  0.88518445578E-02  0.14085704446E-01  0.00000000000E+00 0.  1.
     999901    1    3    3    0    0 -0.58045275207E-01 -0.98408968973E-01 -0.55893080347E-01  0.88914431651E+00  0.88000000000E+00 0.  1.
        -11    1    4    4    0    0  0.40155447891E-01  0.95407450080E-01  0.27475114014E-01  0.10709894741E+00  0.51100000000E-03 0.  1.
         11    1    4    4    0    0  0.24752812684E-01  0.11542675108E-01  0.19566121775E-01  0.33601031632E-01  0.51100000000E-03 0. -1.
</event>
<event>
 8    1  0.2927513E+004  0.1043930E+01  0.7957747E-01            NaN
         13   -1    0    0    0    0  0.00000000000E+00  0.00000000000E+00  0.74505805969E-08  0.10566000000E+00  0.10566000000E+00 0. -1.
     999900   -1    0    0    0    0 -0.00000000000E+00 -0.00000000000E+00 -0.74505805969E-08  0.93827000000E+00  0.93827000000E+00 0.  1.
     999902    2    1    2    0    0 -0.56561344745E-02  0.51928661426E-02 -0.10913818202E-01  0.10305857449E+01  0.10304993491E+01 0.  0.
     999903    2    3    3    0    0 -0.11856954743E+00 -0.16060063767E-01  0.58139391791E-01  0.14043436921E+00  0.44999555033E-01 0.  0.
         14    1    1    2    0    0  0.56561344745E-02 -0.51928661426E-02  0.10913818202E-01  0.13344255083E-01  0.00000000000E+00 0. -1.
     999901    1    3    3    0    0  0.11291341295E+00  0.21252929910E-01 -0.69053209993E-01  0.89015137570E+00  0.88000000000E+00 0.  1.
        -11    1    4    4    0    0 -0.26648932592E-01  0.50441605188E-02 -0.41003939989E-02  0.27435078196E-01  0.51100000000E-03 0.  1.
         11    1    4    4    0    0 -0.91920614837E-01 -0.21104224286E-01  0.62239785790E-01  0.11299929102E+00  0.51100000000E-03 0. -1.
</event>
<event>
 8    1  0.2927513E+004  0.1043930E+01  0.7957747E-01            NaN
         13   -1    0    0    0    0  0.00000000000E+00  0.00000000000E+00  0.74505805969E-08  0.10566000000E+00  0.10566000000E+00 0.  1.
     999900   -1    0    0    0    0 -0.00000000000E+00 -0.00000000000E+00 -0.74505805969E-08  0.93827000000E+00  0.93827000000E+00 0. -1.
     999902    2    1    2    0    0  0.63859144800E-02  0.37836456759E-02  0.92774485823E-02  0.10320486309E+01  0.10319802371E+01 0.  0.
     999903    2    3    3    0    0 -0.24583418158E-01 -0.12315522770E+00 -0.44557582131E-01  0.14077382054E+00  0.45390922728E-01 0.  0.
         14    1    1    2    0    0 -0.63859144800E-02 -0.37836456759E-02 -0.92774485823E-02  0.11881369052E-01  0.00000000000E+00 0.  1.
     999901    1    3    3    0    0  0.30969332638E-01  0.12693887337E+00  0.53835030714E-01  0.89127481041E+00  0.88000000000E+00 0.  1.
        -11    1    4    4    0    0 -0.23099811618E-01 -0.49869771519E-01  0.56188616922E-04  0.54962347897E-01  0.51100000000E-03 0. -1.
         11    1    4    4    0    0 -0.14836065399E-02 -0.73285456179E-01 -0.44613770748E-01  0.85811472643E-01  0.51100000000E-03 0.  1.
</event>
<event>
 8    1  0.2927513E+004  0.1043930E+01  0.7957747E-01            NaN
         13   -1    0    0    0    0  0.00000000000E+00  0.00000000000E+00  0.74505805969E-08  0.10566000000E+00  0.10566000000E+00 0.  1.
     999900   -1    0    0    0    0 -0.00000000000E+00 -0.00000000000E+00 -0.74505805969E-08  0.93827000000E+00  0.93827000000E+00 0. -1.
     999902    2    1    2    0    0  0.75609188619E-02  0.47616468230E-02 -0.11004422376E-01  0.10297547368E+01  0.10296571662E+01 0.  0.
     999903    2    3    3    0    0 -0.66600653521E-01 -0.34311184441E-01  0.10725560207E+00  0.13789597090E+00  0.43573273765E-01 0.  0.
         14    1    1    2    0    0 -0.75609188619E-02 -0.47616468230E-02  0.11004422376E-01  0.14175263184E-01  0.00000000000E+00 0.  1.
     999901    1    3    3    0    0  0.74161572383E-01  0.39072831264E-01 -0.11826002445E+00  0.89185876592E+00  0.88000000000E+00 0. -1.
        -11    1    4    4    0    0 -0.55715875480E-01 -0.15142477781E-01  0.98492194487E-01  0.11416885263E+00  0.51100000000E-03 0.  1.
         11    1    4    4    0    0 -0.10884778042E-01 -0.19168706660E-01  0.87634075864E-02  0.23727118273E-01  0.51100000000E-03 0. -1.
</event>
<event>
 8    1  0.2927513E+004  0.1043930E+01  0.7957747E-01            NaN
         13   -1    0    0    0    0  0.00000000000E+00  0.00000000000E+00  0.74505805969E-08  0.10566000000E+00  0.10566000000E+00 0. -1.
     999900   -1    0    0    0    0 -0.00000000000E+00 -0.00000000000E+00 -0.74505805969E-08  0.93827000000E+00  0.93827000000E+00 0. -1.
     999902    2    1    2    0    0  0.13515666867E-01  0.60090881018E-03  0.24003411161E-02  0.10301896951E+01  0.10300980593E+01 0.  0.
     999903    2    3    3    0    0  0.20093789846E-01 -0.37150933690E-01 -0.12574710323E+00  0.14008282462E+00  0.45021234100E-01 0.  0.
         14    1    1    2    0    0 -0.13515666867E-01 -0.60090881018E-03 -0.24003411161E-02  0.13740304936E-01  0.00000000000E+00 0.  1.
     999901    1    3    3    0    0 -0.65781229791E-02  0.37751842500E-01  0.12814744434E+00  0.89010687044E+00  0.88000000000E+00 0.  1.
        -11    1    4    4    0    0  0.29761151976E-01 -0.22938990540E-01 -0.50802885356E-01  0.63191120701E-01  0.51100000000E-03 0.  1.
         11    1    4    4    0    0 -0.96673621302E-02 -0.14211943150E-01 -0.74944217872E-01  0.76891703922E-01  0.51100000000E-03 0. -1.
</event>
<event>
 8    1  0.2927513E+004  0.1043930E+01  0.7957747E-01            NaN
         13   -1    0    0    0    0  0.00000000000E+00  0.00000000000E+00  0.74505805969E-08  0.10566000000E+00  0.10566000000E+00 0.  1.
     999900   -1    0    0    0    0 -0.00000000000E+00 -0.00000000000E+00 -0.74505805969E-08  0.93827000000E+00  0.93827000000E+00 0.  1.
     999902    2    1    2    0    0 -0.65879124646E-02  0.82184198048E-02 -0.88367197879E-02  0.10301811589E+01  0.10300894085E+01 0.  0.
     999903    2    3    3    0    0  0.55001358461E-01  0.99421321858E-01  0.67422485146E-01  0.14005382309E+00  0.46470777767E-01 0.  0.
         14    1    1    2    0    0  0.65879124646E-02 -0.82184198048E-02  0.88367197879E-02  0.13748841091E-01  0.00000000000E+00 0. -1.
     999901    1    3    3    0    0 -0.61589270925E-01 -0.91202902054E-01 -0.76259204933E-01  0.89012733582E+00  0.88000000000E+00 0. -1.
        -11    1    4    4    0    0  0.50542570248E-01  0.48534128264E-01  0.27730645267E-01  0.75361547367E-01  0.51100000000E-03 0. -1.
         11    1    4    4    0    0  0.44587882127E-02  0.50887193594E-01  0.39691839879E-01  0.64692275723E-01  0.51100000000E-03 0.  1.
</event>
<event>
 8    1  0.2927513E+004  0.1043930E+01  0.7957747E-01            NaN
         13   -1    0    0    0    0  0.00000000000E+00  0.00000000000E+00  0.74505805969E-08  0.10566000000E+00  0.10566000000E+00 0. -1.
     999900   -1    0    0    0    0 -0.00000000000E+00 -0.00000000000E+00 -0.74505805969E-08  0.93827000000E+00  0.93827000000E+00 0.  1.
     999902    2    1    2    0    0  0.10854481505E-01  0.49257236330E-02 -0.78575565576E-02  0.10296533156E+01  0.10295543340E+01 0.  0.
     999903    2    3    3    0    0 -0.98097421498E-01 -0.84282513965E-01  0.14055555512E-01  0.13818889607E+00  0.46604357012E-01 0.  0.
         14    1    1    2    0    0 -0.10854481505E-01 -0.49257236330E-02  0.78575565576E-02  0.14276684388E-01  0.00000000000E+00 0. -1.
     999901    1    3    3    0    0  0.10895190300E+00  0.89208237598E-01 -0.21913112070E-01  0.89146441954E+00  0.88000000000E+00 0.  1.
        -11    1    4    4    0    0 -0.55903865666E-01 -0.18822933066E-01 -0.32593493998E-03  0.58990781993E-01  0.51100000000E-03 0.  1.
         11    1    4    4    0    0 -0.42193555832E-01 -0.65459580899E-01  0.14381490452E-01  0.79198114080E-01  0.51100000000E-03 0. -1.
</event>
<event>
 8    1  0.2927513E+004  0.1043930E+01  0.7957747E-01            NaN
         13   -1    0    0    0    0  0.00000000000E+00  0.00000000000E+00  0.74505805969E-08  0.10566000000E+00  0.10566000000E+00 0. -1.
     999900   -1    0    0    0    0 -0.00000000000E+00 -0.00000000000E+00 -0.74505805969E-08  0.93827000000E+00  0.93827000000E+00 0.  1.
     999902    2    1    2    0    0 -0.80037803226E-05 -0.31962224021E-02  0.12522683087E-01  0.10310058562E+01  0.10309248479E+01 0.  0.
     999903    2    3    3    0    0  0.55505433845E-01  0.11984516587E+00  0.18188695083E-01  0.14069522013E+00  0.44951077506E-01 0.  0.
         14    1    1    2    0    0  0.80037803226E-05  0.31962224021E-02 -0.12522683087E-01  0.12924143817E-01  0.00000000000E+00 0.  1.
     999901    1    3    3    0    0 -0.55513437625E-01 -0.12304138827E+00 -0.56660119953E-02  0.89031063606E+00  0.88000000000E+00 0.  1.
        -11    1    4    4    0    0  0.27596157615E-01  0.67272748600E-01 -0.12412114011E-01  0.73766471480E-01  0.51100000000E-03 0.  1.
         11    1    4    4    0    0  0.27909276229E-01  0.52572417269E-01  0.30600809093E-01  0.66928748646E-01  0.51100000000E-03 0. -1.
</event>
<event>
 8    1  0.2927513E+004  0.1043930E+01  0.7957747E-01            NaN
         13   -1    0    0    0    0  0.00000000000E+00  0.00000000000E+00  0.74505805969E-08  0.10566000000E+00  0.10566000000E+00 0.  1.
     999900   -1    0    0    0    0 -0.00000000000E+00 -0.00000000000E+00 -0.74505805969E-08  0.93827000000E+00  0.93827000000E+00 0.  1.
     999902    2    1    2    0    0  0.62084265808E-02  0.10974571453E-01 -0.11645386583E-01  0.10267660608E+01  0.10266225903E+01 0.  0.
     999903    2    3    3    0    0  0.78841563319E-01 -0.34027610981E-02 -0.10563946440E+00  0.13866856229E+00  0.42915065419E-01 0.  0.
         14    1    1    2    0    0 -0.62084265808E-02 -0.10974571453E-01  0.11645386583E-01  0.17163939171E-01  0.00000000000E+00 0.  1.
     999901    1    3    3    0    0 -0.72633136738E-01  0.14377332552E-01  0.93994077816E-01  0.88809749854E+00  0.88000000000E+00 0. -1.
        -11    1    4    4    0    0  0.35131952778E-01  0.13605052893E-01 -0.70936086563E-01  0.80321485719E-01  0.51100000000E-03 0. -1.
         11    1    4    4    0    0  0.43709610540E-01 -0.17007813991E-01 -0.34703377836E-01  0.58347076573E-01  0.51100000000E-03 0.  1.
</event>
<event>
 8    1  0.2927513E+004  0.1043930E+01  0.7957747E-01            NaN
         13   -1    0    0    0    0  0.00000000000E+00  0.00000000000E+00  0.74505805969E-08  0.10566000000E+00  0.10566000000E+00 0.  1.
     999900   -1    0    0    0    0 -0.00000000000E+00 -0.00000000000E+00 -0.74505805969E-08  0.93827000000E+00  0.93827000000E+00 0. -1.
     999902    2    1    2    0    0  0.13734421895E-01  0.25896486347E-02  0.10513043328E-01  0.10264410119E+01  0.10262920083E+01 0.  0.
     999903    2    3    3    0    0  0.11996702047E+00  0.40243156668E-01 -0.32996124237E-01  0.13818643165E+00  0.44667079811E-01 0.  0.
         14    1    1    2    0    0 -0.13734421895E-01 -0.25896486347E-02 -0.10513043328E-01  0.17488988103E-01  0.00000000000E+00 0. -1.
     999901    1    3    3    0    0 -0.10623259857E+00 -0.37653508034E-01  0.43509167566E-01  0.88825458025E+00  0.88000000000E+00 0.  1.
        -11    1    4    4    0    0  0.75853976723E-01  0.13123693632E-01 -0.37539608824E-03  0.76983499287E-01  0.51100000000E-03 0.  1.
         11    1    4    4    0    0  0.44113043745E-01  0.27119463037E-01 -0.32620728149E-01  0.61202932363E-01  0.51100000000E-03 0. -1.
</event>
<event>
 8    1  0.2927513E+004  0.1043930E+01  0.7957747E-01            NaN
         13   -1    0    0    0    0  0.00000000000E+00  0.00000000000E+00  0.74505805969E-08  0.10566000000E+00  0.10566000000E+00 0.  1.
     999900   -1    0    0    0    0 -0.00000000000E+00 -0.00000000000E+00 -0.74505805969E-08  0.93827000000E+00  0.93827000000E+00 0.  1.
     999902    2    1    2    0    0  0.79783945415E-02  0.10206055202E-02 -0.12506358213E-01  0.10290603863E+01  0.10289529500E+01 0.  0.
     999903    2    3    3    0    0  0.14573678725E-02 -0.90906252446E-01  0.93523773645E-01  0.13791760323E+00  0.44816273700E-01 0.  0.
         14    1    1    2    0    0 -0.79783945415E-02 -0.10206055202E-02  0.12506358213E-01  0.14869613675E-01  0.00000000000E+00 0.  1.
     999901    1    3    3    0    0  0.65210266690E-02  0.91926857966E-01 -0.10603013186E+00  0.89114278310E+00  0.88000000000E+00 0. -1.
        -11    1    4    4    0    0  0.18773521127E-01 -0.19141898961E-01  0.17953199436E-01  0.32271285725E-01  0.51100000000E-03 0.  1.
         11    1    4    4    0    0 -0.17316153255E-01 -0.71764353485E-01  0.75570574208E-01  0.10564631750E+00  0.51100000000E-03 0. -1.
</event>
<event>
 8    1  0.2927513E+004  0.1043930E+01  0.7957747E-01            NaN
         13   -1    0    0    0    0  0.00000000000E+00  0.00000000000E+00  0.74505805969E-08  0.10566000000E+00  0.10566000000E+00 0.  1.
     999900   -1    0    0    0    0 -0.00000000000E+00 -0.00000000000E+00 -0.74505805969E-08  0.93827000000E+00  0.93827000000E+00 0.  1.
     999902    2    1    2    0    0 -0.40375651154E-03 -0.93245067288E-02 -0.99741813893E-02  0.10302700681E+01  0.10301795084E+01 0.  0.
     999903    2    3    3    0    0  0.11177210892E+00 -0.30370209480E-01 -0.66234475504E-01  0.14111790616E+00  0.45955453837E-01 0.  0.
         14    1    1    2    0    0  0.40375651154E-03  0.93245067288E-02  0.99741813893E-02  0.13659931897E-01  0.00000000000E+00 0.  1.
     999901    1    3    3    0    0 -0.11217586543E+00  0.21045702751E-01  0.56260294114E-01  0.88915216194E+00  0.88000000000E+00 0. -1.
        -11    1    4    4    0    0  0.25103755748E-01  0.42806059066E-02 -0.33758282141E-01  0.42289536220E-01  0.51100000000E-03 0. -1.
         11    1    4    4    0    0  0.86668353175E-01 -0.34650815386E-01 -0.32476193362E-01  0.98828369942E-01  0.51100000000E-03 0.  1.
</event>
<event>
 8    1  0.2927513E+004  0.1043930E+01  0.7957747E-01            NaN
         13   -1    0    0    0    0  0.00000000000E+00  0.00000000000E+00  0.74505805969E-08  0.10566000000E+00  0.10566000000E+00 0.  1.
     999900   -1    0    0    0    0 -0.00000000000E+00 -0.00000000000E+00 -0.74505805969E-08  0.93827000000E+00  0.93827000000E+00 0.  1.
     999902    2    1    2    0    0  0.13279756131E-01 -0.31666153714E-02  0.99877135793E-04  0.10302775515E+01  0.10301870916E+01 0.  0.
     999903    2    3    3    0    0  0.44790041824E-01  0.73565534603E-01 -0.98306283288E-01  0.14091570533E+00  0.52678980110E-01 0.  0.
         14    1    1    2    0    0 -0.13279756131E-01  0.31666153714E-02 -0.99877135793E-04  0.13652448544E-01  0.00000000000E+00 0. -1.
     999901    1    3    3    0    0 -0.31510285693E-01 -0.76732149974E-01  0.98406160424E-01  0.88936184613E+00  0.88000000000E+00 0. -1.
        -11    1    4    4    0    0  0.59796440835E-02  0.97753215504E-02 -0.51558045210E-01  0.52818616052E-01  0.51100000000E-03 0. -1.
         11    1    4    4    0    0  0.38810397740E-01  0.63790213052E-01 -0.46748238078E-01  0.88097089273E-01  0.51100000000E-03 0.  1.
</event>
<event>
 8    1  0.2927513E+004  0.1043930E+01  0.7957747E-01            NaN
         13   -1    0    0    0    0  0.00000000000E+00  0.00000000000E+00  0.74505805969E-08  0.10566000000E+00  0.10566000000E+00 0.  1.
     999900   -1    0    0    0    0 -0.00000000000E+00 -0.00000000000E+00 -0.74505805969E-08  0.93827000000E+00  0.93827000000E+00 0. -1.
     999902    2    1    2    0    0  0.26752663835E-02  0.15231737228E-01  0.19344280852E-02  0.10283445940E+01  0.10282264824E+01 0.  0.
     999903    2    3    3    0    0 -0.30995476295E-01 -0.91812111585E-01 -0.85479108259E-01  0.13692256663E+00  0.45287171691E-01 0.  0.
         14    1    1    2    0    0 -0.26752663835E-02 -0.15231737228E-01 -0.19344280852E-02  0.15585406034E-01  0.00000000000E+00 0.  1.
     999901    1    3    3    0    0  0.33670742679E-01  0.10704384881E+00  0.87413536344E-01  0.89142202733E+00  0.88000000000E+00 0.  1.
        -11    1    4    4    0    0 -0.34395892472E-03 -0.66695827581E-01 -0.60689486502E-01  0.90177195661E-01  0.51100000000E-03 0. -1.
         11    1    4    4    0    0 -0.30651517371E-01 -0.25116284005E-01 -0.24789621757E-01  0.46745370971E-01  0.51100000000E-03 0.  1.
</event>
<event>
 8    1  0.2927513E+004  0.1043930E+01  0.7957747E-01            NaN
         13   -1    0    0    0    0  0.00000000000E+00  0.00000000000E+00  0.74505805969E-08  0.10566000000E+00  0.10566000000E+00 0. -1.
     999900   -1    0    0    0    0 -0.00000000000E+00 -0.00000000000E+00 -0.74505805969E-08  0.93827000000E+00  0.93827000000E+00 0. -1.
     999902    2    1    2    0    0  0.13269256075E-02 -0.16519167793E-01 -0.43939488221E-02  0.10267850176E+01  0.10266418664E+01 0.  0.
     999903    2    3    3    0    0 -0.82736179718E-01  0.50317711803E-01  0.83965872657E-01  0.13586345413E+00  0.45071752159E-01 0.  0.
         14    1    1    2    0    0 -0.13269256075E-02  0.16519167793E-01  0.43939488221E-02  0.17144982426E-01  0.00000000000E+00 0. -1.
     999901    1    3    3    0    0  0.84063105326E-01 -0.66836879596E-01 -0.88359821479E-01  0.89092156344E+00  0.88000000000E+00 0. -1.
        -11    1    4    4    0    0 -0.60027241129E-01  0.11023728016E-01  0.53854500389E-01  0.81396318038E-01  0.51100000000E-03 0. -1.
         11    1    4    4    0    0 -0.22708938590E-01  0.39293983786E-01  0.30111372268E-01  0.54467136096E-01  0.51100000000E-03 0.  1.
</event>
<event>
 8    1  0.2927513E+004  0.1043930E+01  0.7957747E-01            NaN
         13   -1    0    0    0    0  0.00000000000E+00  0.00000000000E+00  0.74505805969E-08  0.10566000000E+00  0.10566000000E+00 0.  1.
     999900   -1    0    0    0    0 -0.00000000000E+00 -0.00000000000E+00 -0.74505805969E-08  0.93827000000E+00  0.93827000000E+00 0. -1.
     999902    2    1    2    0    0 -0.43164558687E-02 -0.39276402952E-02 -0.12228616920E-01  0.10303801948E+01  0.10302910990E+01 0.  0.
     999903    2    3    3    0    0 -0.70428292468E-01 -0.95749399975E-01 -0.61419492077E-01  0.14177355927E+00  0.46896653666E-01 0.  0.
         14    1    1    2    0    0  0.43164558687E-02  0.39276402952E-02  0.12228616920E-01  0.13549805213E-01  0.00000000000E+00 0.  1.
     999901    1    3    3    0    0  0.66111836599E-01  0.91821759680E-01  0.49190875157E-01  0.88860663552E+00  0.88000000000E+00 0.  1.
        -11    1    4    4    0    0 -0.45210490670E-01 -0.28157276011E-01 -0.12817439063E-01  0.54784747185E-01  0.51100000000E-03 0. -1.
         11    1    4    4    0    0 -0.25217801798E-01 -0.67592123964E-01 -0.48602053014E-01  0.86988812083E-01  0.51100000000E-03 0.  1.
</event>
<event>
 8    1  0.2927513E+004  0.1043930E+01  0.7957747E-01            NaN
         13   -1    0    0    0    0  0.00000000000E+00  0.00000000000E+00  0.74505805969E-08  0.10566000000E+00  0.10566000000E+00 0. -1.
     999900   -1    0    0    0    0 -0.00000000000E+00 -0.00000000000E+00 -0.74505805969E-08  0.93827000000E+00  0.93827000000E+00 0. -1.
     999902    2    1    2    0    0  0.71425855717E-03  0.10795743442E-01 -0.12467740837E-01  0.10274223411E+01  0.10272897177E+01 0.  0.
     999903    2    3    3    0    0 -0.11546185177E+00  0.50632568313E-01 -0.35693815192E-01  0.13858978555E+00  0.45144036446E-01 0.  0.
         14    1    1    2    0    0 -0.71425855717E-03 -0.10795743442E-01  0.12467740837E-01  0.16507658929E-01  0.00000000000E+00 0. -1.
     999901    1    3    3    0    0  0.11617611033E+00 -0.39836824872E-01  0.23226074355E-01  0.88883255552E+00  0.88000000000E+00 0.  1.
        -11    1    4    4    0    0 -0.41530071144E-01  0.21215601508E-01 -0.36165656375E-01  0.59017492141E-01  0.51100000000E-03 0. -1.
         11    1    4    4    0    0 -0.73931780629E-01  0.29416966805E-01  0.47184118375E-03  0.79572293407E-01  0.51100000000E-03 0.  1.
</event>
<event>
 8    1  0.2927513E+004  0.1043930E+01  0.7957747E-01            NaN
         13   -1    0    0    0    0  0.00000000000E+00  0.00000000000E+00  0.74505805969E-08  0.10566000000E+00  0.10566000000E+00 0.  1.
     999900   -1    0    0    0    0 -0.00000000000E+00 -0.00000000000E+00 -0.74505805969E-08  0.93827000000E+00  0.93827000000E+00 0.  1.
     999902    2    1    2    0    0  0.10321068925E-01 -0.60728115893E-02 -0.11867783795E-01  0.10270703500E+01  0.10269319628E+01 0.  0.
     999903    2    3    3    0    0  0.28315075533E-01 -0.12991943956E-02 -0.12862522680E+00  0.13916333228E+00  0.44928305942E-01 0.  0.
         14    1    1    2    0    0 -0.10321068925E-01  0.60728115893E-02  0.11867783795E-01  0.16859649954E-01  0.00000000000E+00 0.  1.
     999901    1    3    3    0    0 -0.17994006607E-01 -0.47736171937E-02  0.11675744300E+00  0.88790701776E+00  0.88000000000E+00 0. -1.
        -11    1    4    4    0    0  0.17806478672E-01  0.20219523370E-01 -0.47904159089E-01  0.54963345850E-01  0.51100000000E-03 0. -1.
         11    1    4    4    0    0  0.10508596861E-01 -0.21518717766E-01 -0.80721067710E-01  0.84199986434E-01  0.51100000000E-03 0.  1.
</event>
<event>
 8    1  0.2927513E+004  0.1043930E+01  0.7957747E-01            NaN
         13   -1    0    0    0    0  0.00000000000E+00  0.00000000000E+00  0.74505805969E-08  0.10566000000E+00  0.10566000000E+00 0.  1.
     999900   -1    0    0    0    0 -0.00000000000E+00 -0.00000000000E+00 -0.74505805969E-08  0.93827000000E+00  0.93827000000E+00 0. -1.
     999902    2    1    2    0    0 -0.83909194394E-02  0.24465573369E-02  0.13678161246E-01  0.10276977707E+01  0.10275695707E+01 0.  0.
     999903    2    3    3    0    0  0.16808418362E-02 -0.76719601672E-01 -0.10326012091E+00  0.13638229183E+00  0.45263168726E-01 0.  0.
         14    1    1    2    0    0  0.83909194394E-02 -0.24465573369E-02 -0.13678161246E-01  0.16232229265E-01  0.00000000000E+00 0. -1.
     999901    1    3    3    0    0 -0.10071761276E-01  0.79166159009E-01  0.11693828216E+00  0.89131547891E+00  0.88000000000E+00 0.  1.
        -11    1    4    4    0    0 -0.21174526141E-01 -0.46495879737E-01 -0.62520874956E-01  0.80742481483E-01  0.51100000000E-03 0.  1.
         11    1    4    4    0    0  0.22855367977E-01 -0.30223721935E-01 -0.40739245956E-01  0.55639810344E-01  0.51100000000E-03 0. -1.
</event>
<event>
 8    1  0.2927513E+004  0.1043930E+01  0.7957747E-01            NaN
         13   -1    0    0    0    0  0.00000000000E+00  0.00000000000E+00  0.74505805969E-08  0.10566000000E+00  0.10566000000E+00 0.  1.
     999900   -1    0    0    0    0 -0.00000000000E+00 -0.00000000000E+00 -0.74505805969E-08  0.93827000000E+00  0.93827000000E+00 0.  1.
     999902    2    1    2    0    0 -0.83855430533E-02 -0.17098298329E-02 -0.10635605591E-01  0.10302787379E+01  0.10301882939E+01 0.  0.
     999903    2    3    3    0    0  0.69140716080E-01 -0.85669970890E-01  0.69698765626E-01  0.13926064755E+00  0.49151068100E-01 0.  0.
         14    1    1    2    0    0  0.83855430533E-02  0.17098298329E-02  0.10635605591E-01  0.13651262090E-01  0.00000000000E+00 0.  1.
     999901    1    3    3    0    0 -0.77526259133E-01  0.83960141057E-01 -0.80334371217E-01  0.89101809036E+00  0.88000000000E+00 0.  1.
        -11    1    4    4    0    0  0.44232904344E-01 -0.76455596616E-01  0.69987540728E-01  0.11269660624E+00  0.51100000000E-03 0. -1.
         11    1    4    4    0    0  0.24907811736E-01 -0.92143742739E-02 -0.28877510261E-03  0.26564041311E-01  0.51100000000E-03 0.  1.
</event>
<event>
 8    1  0.2927513E+004  0.1043930E+01  0.7957747E-01            NaN
         13   -1    0    0    0    0  0.00000000000E+00  0.00000000000E+00  0.74505805969E-08  0.10566000000E+00  0.10566000000E+00 0.  1.
     999900   -1    0    0    0    0 -0.00000000000E+00 -0.00000000000E+00 -0.74505805969E-08  0.93827000000E+00  0.93827000000E+00 0. -1.
     999902    2    1    2    0    0  0.12241770367E-02 -0.16425485287E-01  0.20595285052E-02  0.10273306978E+01  0.10271965858E+01 0.  0.
     999903    2    3    3    0    0  0.44413460858E-01  0.56160772417E-01 -0.10696555237E+00  0.13658912623E+00  0.45698710553E-01 0.  0.
         14    1    1    2    0    0 -0.12241770367E-02  0.16425485287E-01 -0.20595285052E-02  0.16599302214E-01  0.00000000000E+00 0. -1.
     999901    1    3    3    0    0 -0.43189283821E-01 -0.72586257704E-01  0.10902508087E+00  0.89074157156E+00  0.88000000000E+00 0.  1.
        -11    1    4    4    0    0  0.19954575952E-01  0.45702988140E-01 -0.38091474655E-01  0.62754838768E-01  0.51100000000E-03 0.  1.
         11    1    4    4    0    0  0.24458884906E-01  0.10457784277E-01 -0.68874077712E-01  0.73834287459E-01  0.51100000000E-03 0. -1.
</event>
<event>
 8    1  0.2927513E+004  0.1043930E+01  0.7957747E-01            NaN
         13   -1    0    0    0    0  0.00000000000E+00  0.00000000000E+00  0.74505805969E-08  0.10566000000E+00  0.10566000000E+00 0.  1.
     999900   -1    0    0    0    0 -0.00000000000E+00 -0.00000000000E+00 -0.74505805969E-08  0.93827000000E+00  0.93827000000E+00 0.  1.
     999902    2    1    2    0    0 -0.88337325515E-02  0.91332529772E-02 -0.50007305521E-02  0.10302750212E+01  0.10301845276E+01 0.  0.
     999903    2    3    3    0    0  0.11130047162E+00  0.61381244924E-01  0.36810435486E-01  0.13959536311E+00  0.44456777108E-01 0.  0.
         14    1    1    2    0    0  0.88337325515E-02 -0.91332529772E-02  0.50007305521E-02  0.13654978828E-01  0.00000000000E+00 0. -1.
     999901    1    3    3    0    0 -0.12013420417E+00 -0.52247991947E-01 -0.41811166038E-01  0.89067965806E+00  0.88000000000E+00 0.  1.
        -11    1    4    4    0    0  0.25722598923E-01  0.28883975522E-01  0.27752060149E-01  0.47606450202E-01  0.51100000000E-03 0.  1.
         11    1    4    4    0    0  0.85577872696E-01  0.32497269402E-01  0.90583753368E-02  0.91988912911E-01  0.51100000000E-03 0. -1.
</event>
<event>
 8    1  0.2927513E+004  0.1043930E+01  0.7957747E-01            NaN
         13   -1    0    0    0    0  0.00000000000E+00  0.00000000000E+00  0.74505805969E-08  0.10566000000E+00  0.10566000000E+00 0. -1.
     999900   -1    0    0    0    0 -0.00000000000E+00 -0.00000000000E+00 -0.74505805969E-08  0.93827000000E+00  0.93827000000E+00 0.  1.
     999902    2    1    2    0    0 -0.13715729861E-01 -0.93224967549E-02 -0.14024541847E-01  0.10222109308E+01  0.10219801706E+01 0.  0.
     999903    2    3    3    0    0  0.10003652518E+00  0.66109311297E-01  0.25645145890E-01  0.13080573828E+00  0.45549097122E-01 0.  0.
         14    1    1    2    0    0  0.13715729861E-01  0.93224967549E-02  0.14024541847E-01  0.21719069165E-01  0.00000000000E+00 0.  1.
     999901    1    3    3    0    0 -0.11375225504E+00 -0.75431808052E-01 -0.39669687737E-01  0.89140519256E+00  0.88000000000E+00 0. -1.
        -11    1    4    4    0    0  0.34075981576E-01  0.44312061587E-02  0.21221953919E-01  0.40391095027E-01  0.51100000000E-03 0.  1.
         11    1    4    4    0    0  0.65960543604E-01  0.61678105138E-01  0.44231919711E-02  0.90414643251E-01  0.51100000000E-03 0. -1.
</event>
<event>
 8    1  0.2927513E+004  0.1043930E+01  0.7957747E-01            NaN
         13   -1    0    0    0    0  0.00000000000E+00  0.00000000000E+00  0.74505805969E-08  0.10566000000E+00  0.10566000000E+00 0. -1.
     999900   -1    0    0    0    0 -0.00000000000E+00 -0.00000000000E+00 -0.74505805969E-08  0.93827000000E+00  0.93827000000E+00 0.  1.
     999902    2    1    2    0    0  0.67911336997E-02  0.12925692559E-01  0.34332553883E-02  0.10289306578E+01  0.10288213247E+01 0.  0.
     999903    2    3    3    0    0 -0.11534351555E+00 -0.48310456495E-01 -0.35110366099E-01  0.13755399817E+00  0.45280656140E-01 0.  0.
         14    1    1    2    0    0 -0.67911336997E-02 -0.12925692559E-01 -0.34332553883E-02  0.14999342239E-01  0.00000000000E+00 0.  1.
     999901    1    3    3    0    0  0.12213464925E+00  0.61236149053E-01  0.38543621487E-01  0.89137665959E+00  0.88000000000E+00 0. -1.
        -11    1    4    4    0    0 -0.50072631974E-01 -0.43853350390E-01 -0.92461171841E-02  0.67202206937E-01  0.51100000000E-03 0. -1.
         11    1    4    4    0    0 -0.65270883575E-01 -0.44571061044E-02 -0.25864248914E-01  0.70351791238E-01  0.51100000000E-03 0.  1.
</event>
<event>
 8    1  0.2927513E+004  0.1043930E+01  0.7957747E-01            NaN
         13   -1    0    0    0    0  0.00000000000E+00  0.00000000000E+00  0.74505805969E-08  0.10566000000E+00  0.10566000000E+00 0. -1.
     999900   -1    0    0    0    0 -0.00000000000E+00 -0.00000000000E+00 -0.74505805969E-08  0.93827000000E+00  0.93827000000E+00 0. -1.
     999902    2    1    2    0    0 -0.26125523297E-02 -0.87559729795E-02 -0.10130182279E-01  0.10302876730E+01  0.10301973481E+01 0.  0.
     999903    2    3    3    0    0  0.12067491953E+00  0.42821552873E-01  0.31564629014E-01  0.13922173877E+00  0.44612163660E-01 0.  0.
         14    1    1    2    0    0  0.26125523297E-02  0.87559729795E-02  0.10130182279E-01  0.13642326983E-01  0.00000000000E+00 0. -1.
     999901    1    3    3    0    0 -0.12328747186E+00 -0.51577525852E-01 -0.41694811293E-01  0.89106593425E+00  0.88000000000E+00 0.  1.
        -11    1    4    4    0    0  0.92346223702E-01  0.33520616806E-01  0.43055392606E-01  0.10726362261E+00  0.51100000000E-03 0.  1.
         11    1    4    4    0    0  0.28328695829E-01  0.93009360670E-02 -0.11490763592E-01  0.31958116153E-01  0.51100000000E-03 0. -1.
</event>
<event>
 8    1  0.2927513E+004  0.1043930E+01  0.7957747E-01            NaN
         13   -1    0    0    0    0  0.00000000000E+00  0.00000000000E+00  0.74505805969E-08  0.10566000000E+00  0.10566000000E+00 0. -1.
     999900   -1    0    0    0    0 -0.00000000000E+00 -0.00000000000E+00 -0.74505805969E-08  0.93827000000E+00  0.93827000000E+00 0.  1.
     999902    2    1    2    0    0  0.74328309098E-02 -0.13829283903E-02  0.12860545966E-01  0.10290117860E+01  0.10289036411E+01 0.  0.
     999903    2    3    3    0    0  0.49781406369E-01  0.10543713488E+00  0.62845956445E-01  0.14013470281E+00  0.45748692442E-01 0.  0.
         14    1    1    2    0    0 -0.74328309098E-02  0.13829283903E-02 -0.12860545966E-01  0.14918213996E-01  0.00000000000E+00 0.  1.
     999901    1    3    3    0    0 -0.42348575459E-01 -0.10682006327E+00 -0.49985410478E-01  0.88887708319E+00  0.88000000000E+00 0.  1.
        -11    1    4    4    0    0  0.23449749356E-01  0.56136593851E-01  0.72009237498E-02  0.61264364339E-01  0.51100000000E-03 0.  1.
         11    1    4    4    0    0  0.26331657013E-01  0.49300541027E-01  0.55645032695E-01  0.78870338475E-01  0.51100000000E-03 0. -1.
</event>
<event>
 8    1  0.2927513E+004  0.1043930E+01  0.7957747E-01            NaN
         13   -1    0    0    0    0  0.00000000000E+00  0.00000000000E+00  0.74505805969E-08  0.10566000000E+00  0.10566000000E+00 0.  1.
     999900   -1    0    0    0    0 -0.00000000000E+00 -0.00000000000E+00 -0.74505805969E-08  0.93827000000E+00  0.93827000000E+00 0.  1.
     999902    2    1    2    0    0  0.13571159395E-01  0.60896871063E-03 -0.29844978594E-02  0.10300212101E+01  0.10299272978E+01 0.  0.
     999903    2    3    3    0    0 -0.12009241323E+00  0.50112366525E-01 -0.11978546087E-01  0.13850708793E+00  0.45905237699E-01 0.  0.
         14    1    1    2    0    0 -0.13571159395E-01 -0.60896871063E-03  0.29844978594E-02  0.13908789943E-01  0.00000000000E+00 0.  1.
     999901    1    3    3    0    0  0.13366357262E+00 -0.49503397814E-01  0.89940482273E-02  0.89151412212E+00  0.88000000000E+00 0.  1.
        -11    1    4    4    0    0 -0.73806619173E-01  0.65811450572E-02 -0.11324755164E-01  0.74961588193E-01  0.51100000000E-03 0. -1.
         11    1    4    4    0    0 -0.46285794054E-01  0.43531221468E-01 -0.65379092247E-03  0.63545499741E-01  0.51100000000E-03 0.  1.
</event>
<event>
 8    1  0.2927513E+004  0.1043930E+01  0.7957747E-01            NaN
         13   -1    0    0    0    0  0.00000000000E+00  0.00000000000E+00  0.74505805969E-08  0.10566000000E+00  0.10566000000E+00 0. -1.
     999900   -1    0    0    0    0 -0.00000000000E+00 -0.00000000000E+00 -0.74505805969E-08  0.93827000000E+00  0.93827000000E+00 0. -1.
     999902    2    1    2    0    0 -0.40127321279E-02  0.55368720689E-02  0.11657867714E-01  0.10304146439E+01  0.10303260035E+01 0.  0.
     999903    2    3    3    0    0  0.10878394462E+00  0.67541492613E-01 -0.34031646043E-01  0.13987817920E+00  0.44854790734E-01 0.  0.
         14    1    1    2    0    0  0.40127321279E-02 -0.55368720689E-02 -0.11657867714E-01  0.13515356121E-01  0.00000000000E+00 0.  1.
     999901    1    3    3    0    0 -0.11279667675E+00 -0.62004620544E-01  0.45689513757E-01  0.89053646468E+00  0.88000000000E+00 0. -1.
        -11    1    4    4    0    0  0.61222443458E-01  0.38455458957E-01 -0.41914704234E-01  0.83571008482E-01  0.51100000000E-03 0.  1.
         11    1    4    4    0    0  0.47561501165E-01  0.29086033655E-01  0.78830581911E-02  0.56307170719E-01  0.51100000000E-03 0. -1.
</event>
<event>
 8    1  0.2927513E+004  0.1043930E+01  0.7957747E-01            NaN
         13   -1    0    0    0    0  0.00000000000E+00  0.00000000000E+00  0.74505805969E-08  0.10566000000E+00  0.10566000000E+00 0.  1.
     999900   -1    0    0    0    0 -0.00000000000E+00 -0.00000000000E+00 -0.74505805969E-08  0.93827000000E+00  0.93827000000E+00 0.  1.
     999902    2    1    2    0    0 -0.53789705492E-02  0.14831266021E-01  0.10320095058E-01  0.10250778347E+01  0.10249044653E+01 0.  0.
     999903    2    3    3    0    0  0.74779333973E-01 -0.61797326524E-01  0.82542857342E-01  0.13518265973E+00  0.45278801196E-01 0.  0.
         14    1    1    2    0    0  0.53789705492E-02 -0.14831266021E-01 -0.10320095058E-01  0.18852165339E-01  0.00000000000E+00 0.  1.
     999901    1    3    3    0    0 -0.80158304522E-01  0.76628592545E-01 -0.72222762283E-01  0.88989517493E+00  0.88000000000E+00 0.  1.
        -11    1    4    4    0    0  0.77822451317E-02  0.69012821036E-02  0.13081807850E-01  0.16720820901E-01  0.51100000000E-03 0.  1.
         11    1    4    4    0    0  0.66997088841E-01 -0.68698608628E-01  0.69461049491E-01  0.11846183883E+00  0.51100000000E-03 0. -1.
</event>
<event>
 8    1  0.2927513E+004  0.1043930E+01  0.7957747E-01            NaN
         13   -1    0    0    0    0  0.00000000000E+00  0.00000000000E+00  0.74505805969E-08  0.10566000000E+00  0.10566000000E+00 0.  1.
     999900   -1    0    0    0    0 -0.00000000000E+00 -0.00000000000E+00 -0.74505805969E-08  0.93827000000E+00  0.93827000000E+00 0.  1.
     999902    2    1    2    0    0  0.34620473461E-02 -0.13604450893E-01 -0.72269024309E-04  0.10298917637E+01  0.10297960831E+01 0.  0.
     999903    2    3    3    0    0  0.42697688063E-01 -0.12513289413E+00  0.22174558876E-01  0.14170656312E+00  0.45909750722E-01 0.  0.
         14    1    1    2    0    0 -0.34620473461E-02  0.13604450893E-01  0.72269024309E-04  0.14038236312E-01  0.00000000000E+00 0.  1.
     999901    1    3    3    0    0 -0.39235640717E-01  0.11152844324E+00 -0.22246827900E-01  0.88818520057E+00  0.88000000000E+00 0.  1.
        -11    1    4    4    0    0  0.11663023660E-01 -0.70131352731E-01 -0.83073197923E-02  0.71580063145E-01  0.51100000000E-03 0. -1.
         11    1    4    4    0    0  0.31034664403E-01 -0.55001541399E-01  0.30481878668E-01  0.70126499977E-01  0.51100000000E-03 0.  1.
</event>
<event>
 8    1  0.2927513E+004  0.1043930E+01  0.7957747E-01            NaN
         13   -1    0    0    0    0  0.00000000000E+00  0.00000000000E+00  0.74505805969E-08  0.10566000000E+00  0.10566000000E+00 0. -1.
     999900   -1    0    0    0    0 -0.00000000000E+00 -0.00000000000E+00 -0.74505805969E-08  0.93827000000E+00  0.93827000000E+00 0. -1.
     999902    2    1    2    0    0 -0.78641834456E-02  0.10752674749E-01 -0.52447989174E-02  0.10296131110E+01  0.10295135672E+01 0.  0.
     999903    2    3    3    0    0 -0.89349554615E-01 -0.82472343280E-01  0.51836703027E-01  0.13911377490E+00  0.43365519359E-01 0.  0.
         14    1    1    2    0    0  0.78641834456E-02 -0.10752674749E-01  0.52447989174E-02  0.14316889020E-01  0.00000000000E+00 0. -1.
     999901    1    3    3    0    0  0.81485371170E-01  0.93225018029E-01 -0.57081501944E-01  0.89049933608E+00  0.88000000000E+00 0. -1.
        -11    1    4    4    0    0 -0.47851678845E-01 -0.17540119305E-01  0.29458149895E-01  0.58868350323E-01  0.51100000000E-03 0.  1.
         11    1    4    4    0    0 -0.41497875770E-01 -0.64932223974E-01  0.22378553132E-01  0.80245424574E-01  0.51100000000E-03 0. -1.
</event>
<event>
 8    1  0.2927513E+004  0.1043930E+01  0.7957747E-01            NaN
         13   -1    0    0    0    0  0.00000000000E+00  0.00000000000E+00  0.74505805969E-08  0.10566000000E+00  0.10566000000E+00 0.  1.
     999900   -1    0    0    0    0 -0.00000000000E+00 -0.00000000000E+00 -0.74505805969E-08  0.93827000000E+00  0.93827000000E+00 0. -1.
     999902    2    1    2    0    0  0.10299798937E-02  0.13886570154E-01 -0.14837875994E-02  0.10299264535E+01  0.10298312484E+01 0.  0.
     999903    2    3    3    0    0 -0.25441453677E-01  0.12214469942E+00 -0.53251216957E-01  0.14138808848E+00  0.39853535540E-01 0.  0.
         14    1    1    2    0    0 -0.10299798937E-02 -0.13886570154E-01  0.14837875994E-02  0.14003546511E-01  0.00000000000E+00 0. -1.
     999901    1    3    3    0    0  0.26471433571E-01 -0.10825812927E+00  0.51767429357E-01  0.88853836501E+00  0.88000000000E+00 0. -1.
        -11    1    4    4    0    0 -0.92405398618E-02  0.37050150346E-01 -0.37154691753E-01  0.53280704367E-01  0.51100000000E-03 0. -1.
         11    1    4    4    0    0 -0.16200913815E-01  0.85094549077E-01 -0.16096525204E-01  0.88107384115E-01  0.51100000000E-03 0.  1.
</event>
<event>
 8    1  0.2927513E+004  0.1043930E+01  0.7957747E-01            NaN
         13   -1    0    0    0    0  0.00000000000E+00  0.00000000000E+00  0.74505805969E-08  0.10566000000E+00  0.10566000000E+00 0. -1.
     999900   -1    0    0    0    0 -0.00000000000E+00 -0.00000000000E+00 -0.74505805969E-08  0.93827000000E+00  0.93827000000E+00 0.  1.
     999902    2    1    2    0    0 -0.10247987433E-01  0.67563854217E-02  0.64511101171E-02  0.10300632480E+01  0.10299699063E+01 0.  0.
     999903    2    3    3    0    0  0.12253309995E+00 -0.41353528590E-01  0.22522810784E-01  0.13865779557E+00  0.44656828779E-01 0.  0.
         14    1    1    2    0    0  0.10247987433E-01 -0.67563854217E-02 -0.64511101171E-02  0.13866752040E-01  0.00000000000E+00 0.  1.
     999901    1    3    3    0    0 -0.13278108738E+00  0.48109914012E-01 -0.16071700667E-01  0.89140545239E+00  0.88000000000E+00 0.  1.
        -11    1    4    4    0    0  0.69654808110E-01 -0.18614910772E-01  0.34393577900E-01  0.79884206935E-01  0.51100000000E-03 0. -1.
         11    1    4    4    0    0  0.52878291837E-01 -0.22738617818E-01 -0.11870767115E-01  0.58773588633E-01  0.51100000000E-03 0.  1.
</event>
